<event>
13    1  0.2038932E-008  0.1737016E+03  0.7546771E-02  0.1300923E+00
          2   -1    0    0  503    0  0.00000000000E+00  0.00000000000E+00  0.31490419525E+03  0.31490419525E+03  0.00000000000E+00 0. -1.
          2   -1    0    0  502    0 -0.00000000000E+00 -0.00000000000E+00 -0.21894455324E+04  0.21894455324E+04  0.00000000000E+00 0. -1.
         24    2    1    2    0    0  0.90400857080E+02 -0.13051125277E+03 -0.34682241834E+02  0.18334690409E+03  0.84898334967E+02 0.  0.
         25    2    1    2    0    0  0.13449379095E+02  0.36531161741E+03 -0.95757364441E+01  0.38645934092E+03  0.12500265535E+03 0.  0.
         24    2    1    2    0    0  0.92372905997E+02 -0.21973542382E+02 -0.34414868678E+03  0.36555657497E+03  0.78598349660E+02 0.  0.
        -11    1    5    5    0    0  0.90162662075E+02 -0.79170823587E+01 -0.18686666003E+03  0.20763220959E+03  0.00000000000E+00 0.  1.
         12    1    5    5    0    0  0.22102439219E+01 -0.14056460024E+02 -0.15728202674E+03  0.15792436539E+03  0.00000000000E+00 0. -1.
        -11    1    3    3    0    0  0.18673603338E+02 -0.15436298118E+02 -0.40975343479E+02  0.47602116911E+02  0.00000000000E+00 0.  1.
         12    1    3    3    0    0  0.71727253742E+02 -0.11507495466E+03  0.62931016451E+01  0.13574478718E+03  0.00000000000E+00 0. -1.
          5    1    4    4  501    0  0.54587527240E+02  0.30707044096E+03  0.10943831643E+02  0.31211201722E+03  0.47000000000E+01 0.  1.
         -5    1    4    4    0  501 -0.41138148146E+02  0.58241176453E+02 -0.20519568088E+02  0.74347323704E+02  0.47000000000E+01 0.  1.
          1    1    1    2  502    0 -0.14917251700E+03 -0.20656247019E+03 -0.14984429473E+04  0.15199512362E+04  0.00000000000E+00 0. -1.
          1    1    1    2  503    0 -0.47050625171E+02 -0.62643520723E+01  0.12308275271E+02  0.49035671465E+02  0.00000000000E+00 0. -1.
<mgrwt>
<rscale>  0 0.90801374E+02</rscale>
<asrwt>0</asrwt>
<pdfrwt beam="1">  1        2 0.46309442E-01 0.47465813E+02</pdfrwt>
<pdfrwt beam="2">  1        2 0.32197727E+00 0.17370164E+03</pdfrwt>
<totfact> 0.11665944E+02</totfact>
</mgrwt>
</event>
<event>
13    1  0.2038932E-008  0.1508339E+03  0.7546771E-02  0.1304158E+00
          2   -1    0    0  502    0  0.00000000000E+00  0.00000000000E+00  0.97370619349E+03  0.97370619349E+03  0.00000000000E+00 0. -1.
          2   -1    0    0  503    0 -0.00000000000E+00 -0.00000000000E+00 -0.13115557873E+04  0.13115557873E+04  0.00000000000E+00 0. -1.
         24    2    1    2    0    0  0.95270940383E+02 -0.28277058711E+02 -0.33545505290E+03  0.35912269398E+03  0.81011558966E+02 0.  0.
         25    2    1    2    0    0  0.85736180952E+02  0.50456591883E+02  0.34553548466E+03  0.38067832625E+03  0.12499862610E+03 0.  0.
         24    2    1    2    0    0 -0.16076479245E+02  0.10121123191E+03  0.21548994227E+03  0.25129933782E+03  0.78824332013E+02 0.  0.
        -11    1    5    5    0    0  0.97311002072E+01 -0.18097250945E+01 -0.12117197753E+01  0.99718444118E+01  0.00000000000E+00 0.  1.
         12    1    5    5    0    0 -0.25807579452E+02  0.10302095700E+03  0.21670166205E+03  0.24132749341E+03  0.00000000000E+00 0. -1.
        -13    1    3    3    0    0  0.63082353540E+02 -0.52960165376E+02 -0.26839588215E+03  0.28074991006E+03  0.00000000000E+00 0.  1.
         14    1    3    3    0    0  0.32188586844E+02  0.24683106665E+02 -0.67059170745E+02  0.78372783915E+02  0.00000000000E+00 0. -1.
          5    1    4    4  501    0 -0.14191289392E+02 -0.28413920810E+02  0.78555429939E+02  0.84863355834E+02  0.47000000000E+01 0. -1.
         -5    1    4    4    0  501  0.99927470344E+02  0.78870512693E+02  0.26698005472E+03  0.29581497042E+03  0.47000000000E+01 0. -1.
          1    1    1    2  502    0  0.50289425272E+02 -0.16927972768E+02  0.34780639529E+03  0.35183074221E+03  0.00000000000E+00 0. -1.
          1    1    1    2  503    0 -0.21522006736E+03 -0.10646279231E+03 -0.91122636310E+03  0.94233088050E+03  0.00000000000E+00 0. -1.
<mgrwt>
<rscale>  0 0.89462610E+02</rscale>
<asrwt>0</asrwt>
<pdfrwt beam="1">  1        2 0.14319209E+00 0.53062063E+02</pdfrwt>
<pdfrwt beam="2">  1        2 0.19287585E+00 0.15083391E+03</pdfrwt>
<totfact> 0.94672769E+01</totfact>
</mgrwt>
</event>
<event>
13    1  0.2038932E-008  0.3189780E+03  0.7546771E-02  0.1208033E+00
          2   -1    0    0  502    0  0.00000000000E+00  0.00000000000E+00  0.17355020379E+04  0.17355020379E+04  0.00000000000E+00 0. -1.
          4   -1    0    0  503    0 -0.00000000000E+00 -0.00000000000E+00 -0.18055474923E+04  0.18055474923E+04  0.00000000000E+00 0. -1.
         24    2    1    2    0    0 -0.40200213739E+03  0.58344119952E+03 -0.17748963920E+03  0.73486175629E+03  0.80683809241E+02 0.  0.
         25    2    1    2    0    0 -0.79779741563E+02 -0.12518382901E+03 -0.46723131167E+03  0.50593128911E+03  0.12500228989E+03 0.  0.
         24    2    1    2    0    0  0.15241681036E+03 -0.26764668809E+03  0.40380351539E+03  0.51868274535E+03  0.10539866012E+03 0.  0.
        -11    1    5    5    0    0  0.15057551127E+03 -0.22035017941E+03  0.28327725878E+03  0.38919556974E+03  0.00000000000E+00 0.  1.
         12    1    5    5    0    0  0.18412990919E+01 -0.47296508676E+02  0.12052625661E+03  0.12948717561E+03  0.00000000000E+00 0. -1.
        -13    1    3    3    0    0 -0.24445683592E+03  0.37745912663E+03 -0.15010733746E+03  0.47409571783E+03  0.00000000000E+00 0.  1.
         14    1    3    3    0    0 -0.15754530147E+03  0.20598207289E+03 -0.27382301743E+02  0.26076603846E+03  0.00000000000E+00 0. -1.
          5    1    4    4  501    0  0.70690963289E+01  0.21684929410E+02 -0.61194973372E+02  0.65476125820E+02  0.47000000000E+01 0.  1.
         -5    1    4    4    0  501 -0.86848837892E+02 -0.14686875842E+03 -0.40603633830E+03  0.44045516329E+03  0.47000000000E+01 0.  1.
          1    1    1    2  502    0  0.60533769163E+02 -0.23723037685E+02  0.94398131466E+03  0.94621765052E+03  0.00000000000E+00 0. -1.
          3    1    1    2  503    0  0.26883129943E+03 -0.16688764473E+03 -0.77310933365E+03  0.83535608892E+03  0.00000000000E+00 0. -1.
<mgrwt>
<rscale>  0 0.14400963E+03</rscale>
<asrwt>0</asrwt>
<pdfrwt beam="1">  1        2 0.25522089E+00 0.65016304E+02</pdfrwt>
<pdfrwt beam="2">  1        4 0.26552169E+00 0.31897803E+03</pdfrwt>
<totfact> 0.38273347E-01</totfact>
</mgrwt>
</event>
<event>
13    1  0.2038932E-008  0.9766412E+02  0.7546771E-02  0.1374532E+00
          2   -1    0    0  503    0  0.00000000000E+00  0.00000000000E+00  0.21845242507E+04  0.21845242507E+04  0.00000000000E+00 0. -1.
          2   -1    0    0  502    0 -0.00000000000E+00 -0.00000000000E+00 -0.15328467482E+04  0.15328467482E+04  0.00000000000E+00 0. -1.
         24    2    1    2    0    0  0.74668763805E+02 -0.49145547949E+02  0.16139128333E+03  0.20384786786E+03  0.86695430820E+02 0.  0.
         25    2    1    2    0    0 -0.15969906272E+02  0.58176949352E+02  0.93598324883E+03  0.94621600980E+03  0.12498199775E+03 0.  0.
         24    2    1    2    0    0 -0.35433990024E+02 -0.90081281341E+02  0.53882255043E+03  0.55343394873E+03  0.81173824966E+02 0.  0.
        -13    1    5    5    0    0 -0.43712863928E+02 -0.45946223621E+02  0.16241619375E+03  0.17435850977E+03  0.00000000000E+00 0.  1.
         14    1    5    5    0    0  0.82788739037E+01 -0.44135057720E+02  0.37640635667E+03  0.37907543895E+03  0.00000000000E+00 0. -1.
        -13    1    3    3    0    0  0.24501702252E+01  0.82773886103E+01 -0.74752021420E+01  0.11419156860E+02  0.00000000000E+00 0.  1.
         14    1    3    3    0    0  0.72218593579E+02 -0.57422936559E+02  0.16886648547E+03  0.19242871100E+03  0.00000000000E+00 0. -1.
          5    1    4    4  501    0 -0.17950706121E+02  0.12212462311E+02  0.83333340269E+03  0.83362942733E+03  0.47000000000E+01 0. -1.
         -5    1    4    4    0  501  0.19807998489E+01  0.45964487040E+02  0.10264984615E+03  0.11258658246E+03  0.47000000000E+01 0. -1.
          1    1    1    2  502    0 -0.66697684649E+02  0.71371568718E+02 -0.14966392934E+04  0.14998238751E+04  0.00000000000E+00 0. -1.
          1    1    1    2  503    0  0.43432817142E+02  0.96783112203E+01  0.51211971330E+03  0.51404929731E+03  0.00000000000E+00 0. -1.
<mgrwt>
<rscale>  0 0.65923183E+02</rscale>
<asrwt>0</asrwt>
<pdfrwt beam="1">  1        2 0.32125357E+00 0.44498082E+02</pdfrwt>
<pdfrwt beam="2">  1        2 0.22541864E+00 0.97664121E+02</pdfrwt>
<totfact> 0.19785982E+01</totfact>
</mgrwt>
</event>
<event>
13    1  0.2038932E-008  0.2188703E+02  0.7546771E-02  0.1710305E+00
          2   -1    0    0  503    0  0.00000000000E+00  0.00000000000E+00  0.62387653614E+03  0.62387653614E+03  0.00000000000E+00 0. -1.
         -1   -1    0    0    0  501 -0.00000000000E+00 -0.00000000000E+00 -0.17540398300E+04  0.17540398300E+04  0.00000000000E+00 0.  1.
         24    2    1    2    0    0 -0.11992792703E+03 -0.33036277880E+02 -0.21096265924E+03  0.25736294930E+03  0.79097033692E+02 0.  0.
         25    2    1    2    0    0  0.64264806588E+02  0.96604514641E+02 -0.13580474644E+03  0.21801613350E+03  0.12500283076E+03 0.  0.
         24    2    1    2    0    0  0.51795434031E+02 -0.66511631380E+02  0.19574661664E+03  0.22770508243E+03  0.80164222337E+02 0.  0.
        -11    1    5    5    0    0  0.39749620125E+02 -0.80220945246E+02  0.11957273867E+03  0.14937560775E+03  0.00000000000E+00 0.  1.
         12    1    5    5    0    0  0.12045813906E+02  0.13709313866E+02  0.76173877969E+02  0.78329474683E+02  0.00000000000E+00 0. -1.
        -13    1    3    3    0    0 -0.17104797142E+02  0.23398398209E+02 -0.55548881308E+02  0.62655704757E+02  0.00000000000E+00 0.  1.
         14    1    3    3    0    0 -0.10282312988E+03 -0.56434676088E+02 -0.15541377793E+03  0.19470724454E+03  0.00000000000E+00 0. -1.
          5    1    4    4  502    0  0.57493963126E+02  0.13231423680E+02 -0.11851547676E+03  0.13247125953E+03  0.47000000000E+01 0.  1.
         -5    1    4    4    0  502  0.67708434615E+01  0.83373090962E+02 -0.17289269675E+02  0.85544873976E+02  0.47000000000E+01 0.  1.
          1    1    1    2  503    0 -0.11216938570E+02  0.18802031883E+02  0.34740998095E+03  0.34809916831E+03  0.00000000000E+00 0. -1.
         -2    1    1    2    0  501  0.15084624977E+02 -0.15858637264E+02 -0.13265524858E+04  0.13267330326E+04  0.00000000000E+00 0.  1.
<mgrwt>
<rscale>  0 0.21881784E+02</rscale>
<asrwt>0</asrwt>
<pdfrwt beam="1">  1        2 0.91746551E-01 0.21876535E+02</pdfrwt>
<pdfrwt beam="2">  1       -1 0.25794703E+00 0.21887035E+02</pdfrwt>
<totfact> 0.58111593E+00</totfact>
</mgrwt>
</event>
<event>
13    1  0.2038932E-008  0.1456825E+03  0.7546771E-02  0.1304825E+00
          2   -1    0    0  503    0  0.00000000000E+00  0.00000000000E+00  0.14362724539E+04  0.14362724539E+04  0.00000000000E+00 0. -1.
          2   -1    0    0  502    0 -0.00000000000E+00 -0.00000000000E+00 -0.38594814983E+04  0.38594814983E+04  0.00000000000E+00 0. -1.
         24    2    1    2    0    0  0.62631901411E+02 -0.11790844650E+03 -0.36964832824E+02  0.15932299917E+03  0.78690929392E+02 0.  0.
         25    2    1    2    0    0 -0.14990222719E+03  0.14559231658E+03 -0.44328242689E+03  0.50575897333E+03  0.12500011498E+03 0.  0.
         24    2    1    2    0    0 -0.36890690593E+02  0.89491463286E+02  0.27985097786E+03  0.30621736012E+03  0.77992671272E+02 0.  0.
        -11    1    3    3    0    0  0.65706334219E+02 -0.11979858544E+03 -0.15447474845E+02  0.13750508321E+03  0.00000000000E+00 0.  1.
         12    1    3    3    0    0 -0.30744328086E+01  0.18901389425E+01 -0.21517357979E+02  0.21817915957E+02  0.00000000000E+00 0. -1.
        -13    1    5    5    0    0 -0.22621192989E+02  0.65785417143E+02  0.26662216001E+03  0.27554820937E+03  0.00000000000E+00 0.  1.
         14    1    5    5    0    0 -0.14269497603E+02  0.23706046143E+02  0.13228817857E+02  0.30669150746E+02  0.00000000000E+00 0. -1.
          5    1    4    4  501    0 -0.45906146485E+02  0.46243596121E+02 -0.37749629906E+02  0.75451766217E+02  0.47000000000E+01 0.  1.
         -5    1    4    4    0  501 -0.10399608071E+03  0.99348720456E+02 -0.40553279699E+03  0.43030720711E+03  0.47000000000E+01 0.  1.
          1    1    1    2  502    0  0.70060056543E+02 -0.12457215205E+03 -0.32713630054E+04  0.32744835541E+04  0.00000000000E+00 0. -1.
          1    1    1    2  503    0  0.54100959834E+02  0.73968186857E+01  0.10485502428E+04  0.10499710655E+04  0.00000000000E+00 0. -1.
<mgrwt>
<rscale>  0 0.89190182E+02</rscale>
<asrwt>0</asrwt>
<pdfrwt beam="1">  1        2 0.21121654E+00 0.54604274E+02</pdfrwt>
<pdfrwt beam="2">  1        2 0.56757079E+00 0.14568253E+03</pdfrwt>
<totfact> 0.23860124E+00</totfact>
</mgrwt>
</event>
<event>
13    1  0.2038932E-008  0.1644893E+03  0.7546771E-02  0.1305185E+00
          2   -1    0    0  503    0  0.00000000000E+00  0.00000000000E+00  0.24428645949E+04  0.24428645949E+04  0.00000000000E+00 0. -1.
          2   -1    0    0  502    0 -0.00000000000E+00 -0.00000000000E+00 -0.15651625668E+04  0.15651625668E+04  0.00000000000E+00 0. -1.
         24    2    1    2    0    0  0.18264162714E+03 -0.10973235610E+03  0.40289040008E+02  0.23174842333E+03  0.81761672154E+02 0.  0.
         25    2    1    2    0    0 -0.89667625185E+02  0.24332616277E+03  0.55881329937E+03  0.62860647015E+03  0.12500354501E+03 0.  0.
         24    2    1    2    0    0 -0.14508286013E+03  0.25311226806E+02 -0.19733786190E+02  0.16987108914E+03  0.82322962186E+02 0.  0.
        -13    1    5    5    0    0 -0.99657101174E+02  0.54250290134E+02 -0.31312268006E+01  0.11350963120E+03  0.00000000000E+00 0.  1.
         14    1    5    5    0    0 -0.45425758955E+02 -0.28939063328E+02 -0.16602559389E+02  0.56361457941E+02  0.00000000000E+00 0. -1.
        -13    1    3    3    0    0  0.18999739845E+03 -0.96874766805E+02  0.39635853802E+02  0.21692102887E+03  0.00000000000E+00 0.  1.
         14    1    3    3    0    0 -0.73557713155E+01 -0.12857589294E+02  0.65318620605E+00  0.14827394455E+02  0.00000000000E+00 0. -1.
          5    1    4    4  501    0 -0.11944227537E+02  0.19642441687E+03  0.39112793537E+03  0.43786798004E+03  0.47000000000E+01 0. -1.
         -5    1    4    4    0  501 -0.77723397648E+02  0.46901745902E+02  0.16768536400E+03  0.19073849012E+03  0.47000000000E+01 0. -1.
          1    1    1    2  502    0  0.93982113907E+02 -0.13502915533E+03 -0.13343262764E+04  0.13444300362E+04  0.00000000000E+00 0. -1.
          1    1    1    2  503    0 -0.41873255728E+02 -0.23875878147E+02  0.16326597513E+04  0.16333711429E+04  0.00000000000E+00 0. -1.
<mgrwt>
<rscale>  0 0.89043264E+02</rscale>
<asrwt>0</asrwt>
<pdfrwt beam="1">  1        2 0.35924479E+00 0.48201941E+02</pdfrwt>
<pdfrwt beam="2">  1        2 0.23017096E+00 0.16448929E+03</pdfrwt>
<totfact> 0.13689050E+01</totfact>
</mgrwt>
</event>
<event>
13    1  0.2038932E-008  0.7349287E+02  0.7546771E-02  0.1402488E+00
          2   -1    0    0  502    0  0.00000000000E+00  0.00000000000E+00  0.14725134212E+04  0.14725134212E+04  0.00000000000E+00 0. -1.
          2   -1    0    0  503    0 -0.00000000000E+00 -0.00000000000E+00 -0.11487880192E+04  0.11487880192E+04  0.00000000000E+00 0. -1.
         24    2    1    2    0    0  0.85982298663E+01  0.77325068649E+02 -0.40070764327E+03  0.41613989296E+03  0.80948745146E+02 0.  0.
         25    2    1    2    0    0 -0.78394052624E+02 -0.72390919572E+02  0.15748925500E+03  0.22762961043E+03  0.12500520542E+03 0.  0.
         24    2    1    2    0    0  0.72386198720E+02 -0.45010412737E+02  0.75535881730E+03  0.76442067163E+03  0.80661771175E+02 0.  0.
        -11    1    3    3    0    0 -0.34505959665E+02  0.25366899849E+02 -0.11951182797E+03  0.12695360525E+03  0.00000000000E+00 0.  1.
         12    1    3    3    0    0  0.43104189532E+02  0.51958168800E+02 -0.28119581529E+03  0.28918628771E+03  0.00000000000E+00 0. -1.
        -13    1    5    5    0    0 -0.14028492742E+02 -0.12806127834E+02  0.24968400496E+03  0.25040546690E+03  0.00000000000E+00 0.  1.
         14    1    5    5    0    0  0.86414691462E+02 -0.32204284903E+02  0.50567481234E+03  0.51401520473E+03  0.00000000000E+00 0. -1.
          5    1    4    4  501    0 -0.36510658157E+02 -0.66515577140E+02  0.16747307641E+03  0.18392028568E+03  0.47000000000E+01 0. -1.
         -5    1    4    4    0  501 -0.41883394466E+02 -0.58753424322E+01 -0.99838214077E+01  0.43709324756E+02  0.47000000000E+01 0. -1.
          1    1    1    2  502    0 -0.41614972886E+02 -0.22296775096E+02  0.50932214675E+03  0.51150562198E+03  0.00000000000E+00 0. -1.
          1    1    1    2  503    0  0.39024596924E+02  0.62373038756E+02 -0.69773717384E+03  0.70160564343E+03  0.00000000000E+00 0. -1.
<mgrwt>
<rscale>  0 0.58904408E+02</rscale>
<asrwt>0</asrwt>
<pdfrwt beam="1">  1        2 0.21654609E+00 0.47211780E+02</pdfrwt>
<pdfrwt beam="2">  1        2 0.16893941E+00 0.73492873E+02</pdfrwt>
<totfact> 0.67441987E+01</totfact>
</mgrwt>
</event>
<event>
13    1  0.2038932E-008  0.8793801E+02  0.7546771E-02  0.1346020E+00
          2   -1    0    0  502    0  0.00000000000E+00  0.00000000000E+00  0.16092347854E+04  0.16092347854E+04  0.00000000000E+00 0. -1.
          2   -1    0    0  503    0 -0.00000000000E+00 -0.00000000000E+00 -0.16608284748E+04  0.16608284748E+04  0.00000000000E+00 0. -1.
         24    2    1    2    0    0 -0.72814372669E+02  0.29822033532E+03 -0.71180179823E+03  0.77946463368E+03  0.81645660847E+02 0.  0.
         25    2    1    2    0    0  0.11401392803E+03 -0.28894308327E+03  0.56599306257E+03  0.65761751756E+03  0.12500148545E+03 0.  0.
         24    2    1    2    0    0 -0.17114382186E+02 -0.34719561648E+02 -0.18377504070E+03  0.20414582577E+03  0.80024387270E+02 0.  0.
        -11    1    5    5    0    0 -0.23268078257E+02 -0.54459742381E+02 -0.16801637645E+03  0.17814816800E+03  0.00000000000E+00 0.  1.
         12    1    5    5    0    0  0.61536960707E+01  0.19740180733E+02 -0.15758664243E+02  0.25997657768E+02  0.00000000000E+00 0. -1.
        -13    1    3    3    0    0 -0.48181377878E+01  0.99914117770E+02 -0.31767040294E+03  0.33304733941E+03  0.00000000000E+00 0.  1.
         14    1    3    3    0    0 -0.67996234882E+02  0.19830621755E+03 -0.39413139529E+03  0.44641729427E+03  0.00000000000E+00 0. -1.
          5    1    4    4  501    0  0.13363422018E+03 -0.19313535849E+03  0.43096249080E+03  0.49082596710E+03  0.47000000000E+01 0.  1.
         -5    1    4    4    0  501 -0.19620292148E+02 -0.95807724780E+02  0.13503057177E+03  0.16679155046E+03  0.47000000000E+01 0.  1.
          1    1    1    2  502    0  0.23129762439E+02 -0.58379455333E+02  0.94894396518E+03  0.95101934564E+03  0.00000000000E+00 0. -1.
          1    1    1    2  503    0 -0.47214935616E+02  0.83821764931E+02 -0.67095387826E+03  0.67781593753E+03  0.00000000000E+00 0. -1.
<mgrwt>
<rscale>  0 0.74310307E+02</rscale>
<asrwt>0</asrwt>
<pdfrwt beam="1">  1        2 0.23665217E+00 0.62794480E+02</pdfrwt>
<pdfrwt beam="2">  1        2 0.24423948E+00 0.87938012E+02</pdfrwt>
<totfact> 0.30970129E+01</totfact>
</mgrwt>
</event>
<event>
13    1  0.2038932E-008  0.7033210E+02  0.7546771E-02  0.1416694E+00
          2   -1    0    0  502    0  0.00000000000E+00  0.00000000000E+00  0.21638032064E+04  0.21638032064E+04  0.00000000000E+00 0. -1.
          2   -1    0    0  503    0 -0.00000000000E+00 -0.00000000000E+00 -0.21508794940E+04  0.21508794940E+04  0.00000000000E+00 0. -1.
         24    2    1    2    0    0 -0.11704581222E+02 -0.34405099234E+02 -0.20361701431E+04  0.20380985334E+04  0.80845977139E+02 0.  0.
         25    2    1    2    0    0  0.66480275156E+02 -0.24410931168E+02  0.17302949925E+03  0.22489658097E+03  0.12499497580E+03 0.  0.
         24    2    1    2    0    0 -0.31020422169E+02  0.14325450959E+03  0.53238560059E+02  0.17579045389E+03  0.81140731407E+02 0.  0.
        -13    1    5    5    0    0 -0.55670015591E+02  0.12377592998E+03  0.38407148310E+02  0.14104871683E+03  0.00000000000E+00 0.  1.
         14    1    5    5    0    0  0.24649593422E+02  0.19478579606E+02  0.14831411749E+02  0.34741737058E+02  0.00000000000E+00 0. -1.
        -13    1    3    3    0    0 -0.28856139221E+02  0.17490911163E+02 -0.70594866401E+03  0.70675464269E+03  0.00000000000E+00 0.  1.
         14    1    3    3    0    0  0.17151557999E+02 -0.51896010397E+02 -0.13302214791E+04  0.13313438907E+04  0.00000000000E+00 0. -1.
          5    1    4    4  501    0  0.12594574278E+02 -0.55671218469E+02  0.14599105308E+03  0.15682278357E+03  0.47000000000E+01 0. -1.
         -5    1    4    4    0  501  0.53885700878E+02  0.31260287301E+02  0.27038446171E+02  0.68073797401E+02  0.47000000000E+01 0. -1.
          1    1    1    2  502    0  0.17293012133E+02 -0.68171119816E+02  0.18298384847E+04  0.18311895669E+04  0.00000000000E+00 0. -1.
          1    1    1    2  503    0 -0.41048283899E+02 -0.16267359369E+02 -0.70126884489E+01  0.44707565256E+02  0.00000000000E+00 0. -1.
<mgrwt>
<rscale>  0 0.55726597E+02</rscale>
<asrwt>0</asrwt>
<pdfrwt beam="1">  1        2 0.31820636E+00 0.70332097E+02</pdfrwt>
<pdfrwt beam="2">  1        2 0.31630580E+00 0.44154146E+02</pdfrwt>
<totfact> 0.10562672E+01</totfact>
</mgrwt>
</event>
<event>
13    1  0.2038932E-008  0.1307362E+03  0.7546771E-02  0.1413874E+00
          2   -1    0    0  502    0  0.00000000000E+00  0.00000000000E+00  0.75296992482E+03  0.75296992482E+03  0.00000000000E+00 0. -1.
          2   -1    0    0  503    0 -0.00000000000E+00 -0.00000000000E+00 -0.13405319285E+04  0.13405319285E+04  0.00000000000E+00 0. -1.
         24    2    1    2    0    0 -0.79457138149E+02  0.84732383378E+02 -0.23494489218E+03  0.27618203209E+03  0.87088454398E+02 0.  0.
         25    2    1    2    0    0 -0.77804877025E+01 -0.16898922787E+03  0.23498288959E+03  0.31537161868E+03  0.12499761735E+03 0.  0.
         24    2    1    2    0    0 -0.17165966752E+02  0.55282607935E+02 -0.21138150876E+02  0.97997833231E+02  0.76196566464E+02 0.  0.
        -11    1    3    3    0    0 -0.89579682803E+02  0.82857216439E+02 -0.16358325837E+03  0.20408165107E+03  0.00000000000E+00 0.  1.
         12    1    3    3    0    0  0.10122544654E+02  0.18751669388E+01 -0.71361633819E+02  0.72100381016E+02  0.00000000000E+00 0. -1.
        -11    1    5    5    0    0  0.15536249080E+02 -0.12809401245E+02 -0.52087788794E+01  0.20798730085E+02  0.00000000000E+00 0.  1.
         12    1    5    5    0    0 -0.32702215832E+02  0.68092009179E+02 -0.15929371996E+02  0.77199103146E+02  0.00000000000E+00 0. -1.
          5    1    4    4  501    0 -0.40359054671E+02 -0.69166293602E+02  0.17929302212E+03  0.19642023126E+03  0.47000000000E+01 0.  1.
         -5    1    4    4    0  501  0.32578566968E+02 -0.99822934265E+02  0.55689867464E+02  0.11895138742E+03  0.47000000000E+01 0.  1.
          1    1    1    2  502    0 -0.18980015273E+02 -0.15138424831E+02  0.41403027762E+03  0.41474146606E+03  0.00000000000E+00 0. -1.
          1    1    1    2  503    0  0.12338360788E+03  0.44112661386E+02 -0.98049212778E+03  0.98920890323E+03  0.00000000000E+00 0. -1.
<mgrwt>
<rscale>  0 0.56338194E+02</rscale>
<asrwt>0</asrwt>
<pdfrwt beam="1">  1        2 0.11073087E+00 0.24277827E+02</pdfrwt>
<pdfrwt beam="2">  1        2 0.19713705E+00 0.13073625E+03</pdfrwt>
<totfact> 0.12883336E+02</totfact>
</mgrwt>
</event>
<event>
13    1  0.2038932E-008  0.7689337E+02  0.7546771E-02  0.1379395E+00
          2   -1    0    0  503    0  0.00000000000E+00  0.00000000000E+00  0.21579807928E+04  0.21579807928E+04  0.00000000000E+00 0. -1.
         -1   -1    0    0    0  501 -0.00000000000E+00 -0.00000000000E+00 -0.15816326985E+04  0.15816326985E+04  0.00000000000E+00 0.  1.
         24    2    1    2    0    0  0.83442390514E+01 -0.55262985030E+02 -0.48897363766E+03  0.49687559515E+03  0.68311894202E+02 0.  0.
         25    2    1    2    0    0 -0.81115791509E+02  0.23725419002E+03  0.65423163193E+02  0.28770494074E+03  0.12499848130E+03 0.  0.
         24    2    1    2    0    0  0.43396256217E+02 -0.55676993237E+02  0.12121929364E+03  0.16309757113E+03  0.83207799694E+02 0.  0.
        -11    1    5    5    0    0  0.45958391386E+02 -0.39710096931E+01  0.21831070640E+02  0.51034677446E+02  0.00000000000E+00 0.  1.
         12    1    5    5    0    0 -0.25621351690E+01 -0.51705983544E+02  0.99388222995E+02  0.11206289368E+03  0.00000000000E+00 0. -1.
        -13    1    3    3    0    0 -0.15567893628E+02 -0.59783885061E+02 -0.29634089489E+03  0.30271174112E+03  0.00000000000E+00 0.  1.
         14    1    3    3    0    0  0.23912132680E+02  0.45209000313E+01 -0.19263274277E+03  0.19416385404E+03  0.00000000000E+00 0. -1.
          5    1    4    4  502    0 -0.75007396243E+02  0.19794643092E+03  0.87151154328E+00  0.21173509047E+03  0.47000000000E+01 0. -1.
         -5    1    4    4    0  502 -0.61083952654E+01  0.39307759101E+02  0.64551651650E+02  0.75969850263E+02  0.47000000000E+01 0. -1.
          1    1    1    2  503    0  0.79308706007E+01 -0.76416285824E+02  0.18337314932E+04  0.18353401692E+04  0.00000000000E+00 0. -1.
         -2    1    1    2    0  501  0.21444425639E+02 -0.49897925931E+02 -0.95505221807E+03  0.95659521515E+03  0.00000000000E+00 0.  1.
<mgrwt>
<rscale>  0 0.64623085E+02</rscale>
<asrwt>0</asrwt>
<pdfrwt beam="1">  1        2 0.31735012E+00 0.76893375E+02</pdfrwt>
<pdfrwt beam="2">  1       -1 0.23259304E+00 0.54310831E+02</pdfrwt>
<totfact> 0.10975554E+00</totfact>
</mgrwt>
</event>
<event>
13    1  0.2038932E-008  0.1201482E+03  0.7546771E-02  0.1269948E+00
          2   -1    0    0  503    0  0.00000000000E+00  0.00000000000E+00  0.23274353231E+04  0.23274353231E+04  0.00000000000E+00 0. -1.
          2   -1    0    0  502    0 -0.00000000000E+00 -0.00000000000E+00 -0.35538745978E+04  0.35538745978E+04  0.00000000000E+00 0. -1.
         24    2    1    2    0    0  0.15624034254E+03 -0.50618791894E+02 -0.62398142285E+03  0.64985817856E+03  0.77392050253E+02 0.  0.
         25    2    1    2    0    0 -0.39494675803E+03  0.78746729295E+02  0.42882729712E+03  0.60141630191E+03  0.12499891360E+03 0.  0.
         24    2    1    2    0    0  0.23403494361E+02 -0.19856471603E+02 -0.84172675613E+02  0.11975660248E+03  0.79464466932E+02 0.  0.
        -13    1    3    3    0    0  0.12202384973E+03 -0.19349363030E+01 -0.42297439153E+03  0.44022823600E+03  0.00000000000E+00 0.  1.
         14    1    3    3    0    0  0.34216492811E+02 -0.48683855591E+02 -0.20100703132E+03  0.20962994255E+03  0.00000000000E+00 0. -1.
        -13    1    5    5    0    0  0.42945172965E+02 -0.30958770018E+02 -0.81413240665E+02  0.97112558804E+02  0.00000000000E+00 0.  1.
         14    1    5    5    0    0 -0.19541678604E+02  0.11102298415E+02 -0.27594349486E+01  0.22644043675E+02  0.00000000000E+00 0. -1.
          5    1    4    4  501    0 -0.26699544763E+03  0.10607993383E+03  0.32877477941E+03  0.43663997412E+03  0.47000000000E+01 0.  1.
         -5    1    4    4    0  501 -0.12795131040E+03 -0.27333204538E+02  0.10005251770E+03  0.16477632780E+03  0.47000000000E+01 0.  1.
          1    1    1    2  502    0  0.13475351189E+03 -0.52535561953E+02 -0.27255916212E+04  0.27294263463E+04  0.00000000000E+00 0. -1.
          1    1    1    2  503    0  0.80549409246E+02  0.44264096154E+02  0.17784791479E+04  0.17808524916E+04  0.00000000000E+00 0. -1.
<mgrwt>
<rscale>  0 0.10508721E+03</rscale>
<asrwt>0</asrwt>
<pdfrwt beam="1">  1        2 0.34226990E+00 0.91914142E+02</pdfrwt>
<pdfrwt beam="2">  1        2 0.52262861E+00 0.12014824E+03</pdfrwt>
<totfact> 0.13670509E+00</totfact>
</mgrwt>
</event>
<event>
13    1  0.2038932E-008  0.9380986E+02  0.7546771E-02  0.1381282E+00
          2   -1    0    0  503    0  0.00000000000E+00  0.00000000000E+00  0.89947962872E+03  0.89947962872E+03  0.00000000000E+00 0. -1.
          2   -1    0    0  502    0 -0.00000000000E+00 -0.00000000000E+00 -0.14737279563E+04  0.14737279563E+04  0.00000000000E+00 0. -1.
         24    2    1    2    0    0  0.56113072994E+02  0.15189009840E+03 -0.61522270110E+03  0.64120553810E+03  0.80164151543E+02 0.  0.
         25    2    1    2    0    0  0.90490668011E+02 -0.98156541568E+02 -0.82763488006E+02  0.20074088215E+03  0.12499535659E+03 0.  0.
         24    2    1    2    0    0 -0.33256580746E+02 -0.97275920377E+02  0.34424702608E+02  0.13254354889E+03  0.76250425268E+02 0.  0.
        -11    1    3    3    0    0  0.63808289714E+02  0.69000160659E+02 -0.26326982238E+03  0.27954162370E+03  0.00000000000E+00 0.  1.
         12    1    3    3    0    0 -0.76952167199E+01  0.82889937737E+02 -0.35195287872E+03  0.36166391439E+03  0.00000000000E+00 0. -1.
        -11    1    5    5    0    0 -0.22316669523E+02 -0.10738692854E+03  0.19396471220E+02  0.11138316415E+03  0.00000000000E+00 0.  1.
         12    1    5    5    0    0 -0.10939911224E+02  0.10111008162E+02  0.15028231387E+02  0.21160384738E+02  0.00000000000E+00 0. -1.
          5    1    4    4  501    0  0.11540762062E+03 -0.72473332647E+02 -0.34823389065E+02  0.14073400892E+03  0.47000000000E+01 0. -1.
         -5    1    4    4    0  501 -0.24916952608E+02 -0.25683208922E+02 -0.47940098940E+02  0.60006873225E+02  0.47000000000E+01 0. -1.
          1    1    1    2  502    0 -0.72328205320E+02  0.59007672108E+02 -0.65072310598E+03  0.65738408508E+03  0.00000000000E+00 0. -1.
          1    1    1    2  503    0 -0.41018954938E+02 -0.15465308558E+02  0.74003626494E+03  0.74133353078E+03  0.00000000000E+00 0. -1.
<mgrwt>
<rscale>  0 0.64127951E+02</rscale>
<asrwt>0</asrwt>
<pdfrwt beam="1">  1        2 0.13227642E+00 0.43837546E+02</pdfrwt>
<pdfrwt beam="2">  1        2 0.21672470E+00 0.93809861E+02</pdfrwt>
<totfact> 0.90061790E+01</totfact>
</mgrwt>
</event>
<event>
13    1  0.2038932E-008  0.7942565E+02  0.7546771E-02  0.1400978E+00
          2   -1    0    0  502    0  0.00000000000E+00  0.00000000000E+00  0.16751609424E+04  0.16751609424E+04  0.00000000000E+00 0. -1.
          2   -1    0    0  503    0 -0.00000000000E+00 -0.00000000000E+00 -0.31912926470E+04  0.31912926470E+04  0.00000000000E+00 0. -1.
         24    2    1    2    0    0 -0.19551204159E+02  0.61953276606E+03 -0.73126572239E+02  0.62899368928E+03  0.77990177472E+02 0.  0.
         25    2    1    2    0    0 -0.17201936003E+03 -0.68367907353E+02 -0.13777562932E+03  0.26242721244E+03  0.12498434628E+03 0.  0.
         24    2    1    2    0    0  0.23024385380E+03 -0.55935206502E+03  0.82294048138E+03  0.10235928205E+04  0.68001922008E+02 0.  0.
        -11    1    3    3    0    0 -0.13240474357E+02  0.41760846166E+03 -0.85938903842E+02  0.42656492191E+03  0.00000000000E+00 0.  1.
         12    1    3    3    0    0 -0.63107298013E+01  0.20192430440E+03  0.12812331603E+02  0.20242876737E+03  0.00000000000E+00 0. -1.
        -13    1    5    5    0    0  0.18272627445E+03 -0.49013879164E+03  0.68143940420E+03  0.85906029360E+03  0.00000000000E+00 0.  1.
         14    1    5    5    0    0  0.47517579351E+02 -0.69213273375E+02  0.14150107718E+03  0.16453252688E+03  0.00000000000E+00 0. -1.
          5    1    4    4  501    0 -0.49882934269E+02 -0.86007464058E+02 -0.68502634430E+02  0.12083166774E+03  0.47000000000E+01 0. -1.
         -5    1    4    4    0  501 -0.12213642576E+03  0.17639556705E+02 -0.69272994886E+02  0.14159554470E+03  0.47000000000E+01 0. -1.
          1    1    1    2  502    0  0.40080424421E+02  0.18655343510E+02  0.40982456256E+03  0.41220217653E+03  0.00000000000E+00 0. -1.
          1    1    1    2  503    0 -0.78753714032E+02 -0.10468137201E+02 -0.25379945470E+04  0.25392376907E+04  0.00000000000E+00 0. -1.
<mgrwt>
<rscale>  0 0.59256666E+02</rscale>
<asrwt>0</asrwt>
<pdfrwt beam="1">  1        2 0.24634720E+00 0.44209301E+02</pdfrwt>
<pdfrwt beam="2">  1        2 0.46930773E+00 0.79425649E+02</pdfrwt>
<totfact> 0.52195219E+00</totfact>
</mgrwt>
</event>
<event>
13    1  0.2038932E-008  0.9438067E+02  0.7546771E-02  0.1294288E+00
          2   -1    0    0  503    0  0.00000000000E+00  0.00000000000E+00  0.17836546331E+04  0.17836546331E+04  0.00000000000E+00 0. -1.
          2   -1    0    0  502    0 -0.00000000000E+00 -0.00000000000E+00 -0.14887040398E+04  0.14887040398E+04  0.00000000000E+00 0. -1.
         24    2    1    2    0    0 -0.74296357305E+01  0.12825607888E+03 -0.99984577455E+03  0.10112785857E+04  0.80548022057E+02 0.  0.
         25    2    1    2    0    0 -0.20348944110E+03 -0.22387723164E+03 -0.75818088035E+02  0.33600227571E+03  0.12498071579E+03 0.  0.
         24    2    1    2    0    0  0.14722608980E+03 -0.72510975474E+02  0.31288057559E+03  0.36268867653E+03  0.81947900627E+02 0.  0.
        -11    1    3    3    0    0 -0.41689137961E+02  0.92315594937E+02 -0.71464532113E+03  0.72178811871E+03  0.00000000000E+00 0.  1.
         12    1    3    3    0    0  0.34259502230E+02  0.35940483947E+02 -0.28520045341E+03  0.28949046704E+03  0.00000000000E+00 0. -1.
        -11    1    5    5    0    0  0.12888013030E+03 -0.83452253060E+02  0.30183156883E+03  0.33863942840E+03  0.00000000000E+00 0.  1.
         12    1    5    5    0    0  0.18345959493E+02  0.10941277586E+02  0.11049006767E+02  0.24049248127E+02  0.00000000000E+00 0. -1.
          5    1    4    4  501    0 -0.17816756975E+03 -0.16893017215E+03 -0.10689526334E+03  0.26782414622E+03  0.47000000000E+01 0. -1.
         -5    1    4    4    0  501 -0.25321871357E+02 -0.54947059491E+02  0.31077175305E+02  0.68178129490E+02  0.47000000000E+01 0. -1.
          1    1    1    2  502    0  0.53800956557E+02  0.75772057049E+02 -0.24205734000E+03  0.25928305653E+03  0.00000000000E+00 0. -1.
          1    1    1    2  503    0  0.98920304804E+01  0.92360071186E+02  0.12997912203E+04  0.13031060783E+04  0.00000000000E+00 0. -1.
<mgrwt>
<rscale>  0 0.93631508E+02</rscale>
<asrwt>0</asrwt>
<pdfrwt beam="1">  1        2 0.26230215E+00 0.92888293E+02</pdfrwt>
<pdfrwt beam="2">  1        2 0.21892706E+00 0.94380669E+02</pdfrwt>
<totfact> 0.29760271E+01</totfact>
</mgrwt>
</event>
<event>
13    1  0.2038932E-008  0.6343215E+02  0.7546771E-02  0.1389121E+00
          2   -1    0    0  503    0  0.00000000000E+00  0.00000000000E+00  0.17645467200E+04  0.17645467200E+04  0.00000000000E+00 0. -1.
          2   -1    0    0  502    0 -0.00000000000E+00 -0.00000000000E+00 -0.10889165262E+04  0.10889165262E+04  0.00000000000E+00 0. -1.
         24    2    1    2    0    0 -0.54570073349E+01  0.25848449644E+02 -0.93792969134E+02  0.12520133257E+03  0.78615083412E+02 0.  0.
         25    2    1    2    0    0 -0.31140812819E+02 -0.70015821748E+02  0.54445679729E+03  0.56385269370E+03  0.12499876223E+03 0.  0.
         24    2    1    2    0    0  0.13083041691E+02  0.19596706489E+02 -0.97257890404E+00  0.82875066625E+02  0.79448938780E+02 0.  0.
        -13    1    5    5    0    0  0.34338832561E+02  0.30621588090E+02  0.20817632953E+02  0.50499613074E+02  0.00000000000E+00 0.  1.
         14    1    5    5    0    0 -0.21255790870E+02 -0.11024881601E+02 -0.21790211857E+02  0.32375453551E+02  0.00000000000E+00 0. -1.
        -13    1    3    3    0    0  0.35925561713E+02  0.11468857151E+02 -0.54985271907E+02  0.66675038773E+02  0.00000000000E+00 0.  1.
         14    1    3    3    0    0 -0.41382569048E+02  0.14379592493E+02 -0.38807697227E+02  0.58526293795E+02  0.00000000000E+00 0. -1.
          5    1    4    4  501    0  0.37010580048E+01 -0.44850980818E+01  0.41105499118E+03  0.41112298611E+03  0.47000000000E+01 0.  1.
         -5    1    4    4    0  501 -0.34841870823E+02 -0.65530723666E+02  0.13340180610E+03  0.15272970758E+03  0.47000000000E+01 0.  1.
          1    1    1    2  502    0 -0.35003892952E+02  0.49769645567E+02 -0.92591866781E+03  0.92791576640E+03  0.00000000000E+00 0. -1.
          1    1    1    2  503    0  0.58518671415E+02 -0.25198979952E+02  0.11518576124E+04  0.11536183869E+04  0.00000000000E+00 0. -1.
<mgrwt>
<rscale>  0 0.62125848E+02</rscale>
<asrwt>0</asrwt>
<pdfrwt beam="1">  1        2 0.25949217E+00 0.63432150E+02</pdfrwt>
<pdfrwt beam="2">  1        2 0.16013478E+00 0.60846447E+02</pdfrwt>
<totfact> 0.51975741E+01</totfact>
</mgrwt>
</event>
<event>
13    1  0.3252655E-008  0.3923835E+02  0.7546771E-02  0.1516637E+00
         -1   -1    0    0    0  501 -0.00000000000E+00  0.00000000000E+00  0.18248105975E+03  0.18248105975E+03  0.00000000000E+00 0.  1.
          2   -1    0    0  503    0  0.00000000000E+00 -0.00000000000E+00 -0.23865245733E+04  0.23865245733E+04  0.00000000000E+00 0. -1.
         24    2    1    2    0    0  0.11999342221E+02  0.23434293069E+02 -0.20866701929E+04  0.20883468034E+04  0.79414902194E+02 0.  0.
         25    2    1    2    0    0 -0.15329840746E+02 -0.30732445203E+02 -0.37548636808E+02  0.13495993899E+03  0.12499919120E+03 0.  0.
         24    2    1    2    0    0  0.26170575593E+00  0.72539699801E+00  0.17232591064E+02  0.82514864666E+02  0.80691672466E+02 0.  0.
        -11    1    3    3    0    0  0.92642950117E+01 -0.17484823347E+02 -0.15715466971E+03  0.15839550632E+03  0.00000000000E+00 0.  1.
         12    1    3    3    0    0  0.27350472090E+01  0.40919116417E+02 -0.19295155232E+04  0.19299512970E+04  0.00000000000E+00 0. -1.
        -13    1    5    5    0    0 -0.25551235471E+02 -0.22178000470E+02  0.30491582033E+02  0.45546305161E+02  0.00000000000E+00 0.  1.
         14    1    5    5    0    0  0.25812941227E+02  0.22903397468E+02 -0.13258990968E+02  0.36968559505E+02  0.00000000000E+00 0. -1.
          5    1    4    4  502    0  0.32845728152E+02  0.22993392599E+02  0.17577573950E+02  0.44029524947E+02  0.47000000000E+01 0.  1.
         -5    1    4    4    0  502 -0.48175568898E+02 -0.53725837802E+02 -0.55126210758E+02  0.90930414047E+02  0.47000000000E+01 0.  1.
          1    1    1    2  503    0  0.34617156634E+02 -0.16895760949E+02 -0.17323019703E+03  0.17746130686E+03  0.00000000000E+00 0. -1.
         -2    1    1    2    0  501 -0.31548363865E+02  0.23468516084E+02  0.76172922160E+02  0.85722719160E+02  0.00000000000E+00 0.  1.
<mgrwt>
<rscale>  0 0.38877673E+02</rscale>
<asrwt>0</asrwt>
<pdfrwt beam="2">  1        2 0.35095949E+00 0.38520310E+02</pdfrwt>
<pdfrwt beam="1">  1       -1 0.26835450E-01 0.39238351E+02</pdfrwt>
<totfact> 0.91129697E+01</totfact>
</mgrwt>
</event>
<event>
13    1  0.2038932E-008  0.1560826E+03  0.7546771E-02  0.1330919E+00
          2   -1    0    0  502    0  0.00000000000E+00  0.00000000000E+00  0.97298547035E+03  0.97298547035E+03  0.00000000000E+00 0. -1.
          2   -1    0    0  503    0 -0.00000000000E+00 -0.00000000000E+00 -0.72112618702E+03  0.72112618702E+03  0.00000000000E+00 0. -1.
         24    2    1    2    0    0  0.88675798341E+02 -0.27409531273E+02 -0.26015335101E+03  0.28938097791E+03  0.86295450144E+02 0.  0.
         25    2    1    2    0    0 -0.14527172369E+03 -0.32681569500E+03  0.26529314874E+03  0.46251156885E+03  0.12499649736E+03 0.  0.
         24    2    1    2    0    0 -0.30504533848E+02  0.27457516862E+03  0.22727376284E+03  0.36654739474E+03  0.79884788977E+02 0.  0.
        -11    1    5    5    0    0 -0.56122830992E+02  0.18155822354E+03  0.13554907733E+03  0.23342389137E+03  0.00000000000E+00 0.  1.
         12    1    5    5    0    0  0.25618297144E+02  0.93016945074E+02  0.91724685511E+02  0.13312350338E+03  0.00000000000E+00 0. -1.
        -13    1    3    3    0    0  0.57409944034E+02 -0.14731421699E+02 -0.53038479534E+02  0.79536134998E+02  0.00000000000E+00 0.  1.
         14    1    3    3    0    0  0.31265854307E+02 -0.12678109574E+02 -0.20711487148E+03  0.20984484291E+03  0.00000000000E+00 0. -1.
          5    1    4    4  501    0 -0.16610916626E+02 -0.39796189162E+02 -0.99693580402E+01  0.44509968802E+02  0.47000000000E+01 0. -1.
         -5    1    4    4    0  501 -0.12866080706E+03 -0.28701950584E+03  0.27526250678E+03  0.41800160005E+03  0.47000000000E+01 0. -1.
          1    1    1    2  502    0 -0.37114794616E+02 -0.15794699268E+02  0.27390532628E+03  0.27685936551E+03  0.00000000000E+00 0. -1.
          1    1    1    2  503    0  0.12421525381E+03  0.95444756924E+02 -0.25445960352E+03  0.29881235036E+03  0.00000000000E+00 0. -1.
<mgrwt>
<rscale>  0 0.79345606E+02</rscale>
<asrwt>0</asrwt>
<pdfrwt beam="1">  1        2 0.14308610E+00 0.40335846E+02</pdfrwt>
<pdfrwt beam="2">  1        2 0.10604797E+00 0.15608263E+03</pdfrwt>
<totfact> 0.21503472E+02</totfact>
</mgrwt>
</event>
<event>
13    1  0.2038932E-008  0.1081204E+03  0.7546771E-02  0.1268800E+00
          2   -1    0    0  503    0  0.00000000000E+00  0.00000000000E+00  0.15630505214E+04  0.15630505214E+04  0.00000000000E+00 0. -1.
          2   -1    0    0  502    0 -0.00000000000E+00 -0.00000000000E+00 -0.24242650102E+04  0.24242650102E+04  0.00000000000E+00 0. -1.
         24    2    1    2    0    0 -0.40856276104E+02 -0.50477138333E+02 -0.82550101815E+02  0.13185229839E+03  0.79707794405E+02 0.  0.
         25    2    1    2    0    0 -0.67781534278E+02  0.13925113213E+03 -0.16982864182E+03  0.26163412867E+03  0.12500174204E+03 0.  0.
         24    2    1    2    0    0  0.67593995419E+02 -0.26077660835E+02  0.25588755480E+03  0.27512848308E+03  0.70485806317E+02 0.  0.
        -11    1    5    5    0    0 -0.15123168749E+01 -0.18706373116E+02  0.13887953699E+02  0.23347178747E+02  0.00000000000E+00 0.  1.
         12    1    5    5    0    0  0.69106312294E+02 -0.73712877188E+01  0.24199960110E+03  0.25178130433E+03  0.00000000000E+00 0. -1.
        -13    1    3    3    0    0 -0.26832347435E+02 -0.60909146303E+02 -0.24005440256E+02  0.70754223437E+02  0.00000000000E+00 0.  1.
         14    1    3    3    0    0 -0.14023928669E+02  0.10432007970E+02 -0.58544661559E+02  0.61098074951E+02  0.00000000000E+00 0. -1.
          5    1    4    4  501    0  0.66610232700E+00 -0.21908695878E+02 -0.30332129739E+02  0.37716876089E+02  0.47000000000E+01 0.  1.
         -5    1    4    4    0  501 -0.68447636605E+02  0.16115982801E+03 -0.13949651208E+03  0.22391725259E+03  0.47000000000E+01 0.  1.
          1    1    1    2  502    0  0.13716427188E+03  0.23645954914E+02 -0.20859848285E+04  0.20906233218E+04  0.00000000000E+00 0. -1.
          1    1    1    2  503    0 -0.96120456916E+02 -0.86342287881E+02  0.12212615286E+04  0.12280772997E+04  0.00000000000E+00 0. -1.
<mgrwt>
<rscale>  0 0.10567247E+03</rscale>
<asrwt>0</asrwt>
<pdfrwt beam="1">  1        2 0.22986037E+00 0.10812040E+03</pdfrwt>
<pdfrwt beam="2">  1        2 0.35650956E+00 0.10327996E+03</pdfrwt>
<totfact> 0.13096195E+01</totfact>
</mgrwt>
</event>
<event>
13    1  0.2038932E-008  0.1481419E+03  0.7546771E-02  0.1254891E+00
         -1   -1    0    0    0  501 -0.00000000000E+00  0.00000000000E+00  0.87559551739E+03  0.87559551739E+03  0.00000000000E+00 0.  1.
          2   -1    0    0  503    0  0.00000000000E+00 -0.00000000000E+00 -0.16874580558E+04  0.16874580558E+04  0.00000000000E+00 0. -1.
         24    2    1    2    0    0 -0.33421015489E+02  0.69781065208E+02  0.33939059984E+02  0.11711462174E+03  0.81102487595E+02 0.  0.
         25    2    1    2    0    0 -0.15115869753E+02 -0.18568290268E+03  0.31382408567E+03  0.38576528354E+03  0.12499066914E+03 0.  0.
         24    2    1    2    0    0 -0.36887800727E+02 -0.17620556345E+02 -0.43261470987E+02  0.10129703998E+03  0.81965490222E+02 0.  0.
        -11    1    5    5    0    0  0.14814641521E+02 -0.23305013953E+02 -0.40745956128E+02  0.49222253296E+02  0.00000000000E+00 0.  1.
         12    1    5    5    0    0 -0.51702442248E+02  0.56844576075E+01 -0.25155148595E+01  0.52074786679E+02  0.00000000000E+00 0. -1.
        -11    1    3    3    0    0 -0.55959174307E+02  0.29290832934E+02  0.31824401223E+02  0.70726053165E+02  0.00000000000E+00 0.  1.
         12    1    3    3    0    0  0.22538158818E+02  0.40490232274E+02  0.21146587612E+01  0.46388568572E+02  0.00000000000E+00 0. -1.
          5    1    4    4  502    0  0.32485614232E+02 -0.60851144999E+01  0.22692652876E+02  0.40365706299E+02  0.47000000000E+01 0. -1.
         -5    1    4    4    0  502 -0.47601483985E+02 -0.17959778818E+03  0.29113143279E+03  0.34539957724E+03  0.47000000000E+01 0. -1.
          1    1    1    2  503    0  0.13485716384E+03  0.62679459042E+02 -0.15295474311E+04  0.15367597448E+04  0.00000000000E+00 0. -1.
         -2    1    1    2    0  501 -0.49432477873E+02  0.70842934777E+02  0.41318321809E+03  0.42211688309E+03  0.00000000000E+00 0.  1.
<mgrwt>
<rscale>  0 0.11312459E+03</rscale>
<asrwt>0</asrwt>
<pdfrwt beam="2">  1        2 0.24815559E+00 0.14814192E+03</pdfrwt>
<pdfrwt beam="1">  1       -1 0.12876405E+00 0.86384555E+02</pdfrwt>
<totfact> 0.86038366E+00</totfact>
</mgrwt>
</event>
<event>
13    1  0.2038932E-008  0.7126237E+02  0.7546771E-02  0.1388930E+00
          2   -1    0    0  503    0  0.00000000000E+00  0.00000000000E+00  0.94804608252E+03  0.94804608252E+03  0.00000000000E+00 0. -1.
          2   -1    0    0  502    0 -0.00000000000E+00 -0.00000000000E+00 -0.94646946804E+03  0.94646946804E+03  0.00000000000E+00 0. -1.
         24    2    1    2    0    0  0.11736236210E+03 -0.11287800313E+03 -0.42222684473E+03  0.45948317451E+03  0.79585875761E+02 0.  0.
         25    2    1    2    0    0 -0.56766885019E+02  0.18436651031E+03  0.39632768534E+03  0.45816460712E+03  0.12500273474E+03 0.  0.
         24    2    1    2    0    0  0.17333481297E+02 -0.60137055744E+02 -0.15412291047E+03  0.18233847797E+03  0.74676194107E+02 0.  0.
        -11    1    3    3    0    0 -0.19709596016E+01 -0.42780984660E+02 -0.96958629162E+02  0.10599562774E+03  0.00000000000E+00 0.  1.
         12    1    3    3    0    0  0.11933332170E+03 -0.70097018469E+02 -0.32526821557E+03  0.35348754678E+03  0.00000000000E+00 0. -1.
        -13    1    5    5    0    0  0.43358162243E+02 -0.17242608678E+02 -0.84410467403E+02  0.96448767718E+02  0.00000000000E+00 0.  1.
         14    1    5    5    0    0 -0.26024680946E+02 -0.42894447066E+02 -0.69712443072E+02  0.85889710248E+02  0.00000000000E+00 0. -1.
          5    1    4    4  501    0 -0.53149824399E+02  0.84202066027E+02  0.31055188233E+03  0.32615863222E+03  0.47000000000E+01 0.  1.
         -5    1    4    4    0  501 -0.36170606205E+01  0.10016444428E+03  0.85775803009E+02  0.13200597489E+03  0.47000000000E+01 0.  1.
          1    1    1    2  502    0 -0.45601379611E+02 -0.54910067939E+02 -0.30076844704E+03  0.30912175614E+03  0.00000000000E+00 0. -1.
          1    1    1    2  503    0 -0.32327578767E+02  0.43558616503E+02  0.48236713139E+03  0.48540753483E+03  0.00000000000E+00 0. -1.
<mgrwt>
<rscale>  0 0.62173669E+02</rscale>
<asrwt>0</asrwt>
<pdfrwt beam="1">  1        2 0.13941854E+00 0.54244128E+02</pdfrwt>
<pdfrwt beam="2">  1        2 0.13918669E+00 0.71262371E+02</pdfrwt>
<totfact> 0.16155381E+02</totfact>
</mgrwt>
</event>
<event>
13    1  0.2038932E-008  0.1164885E+03  0.7546771E-02  0.1280856E+00
          2   -1    0    0  503    0  0.00000000000E+00  0.00000000000E+00  0.21252929663E+04  0.21252929663E+04  0.00000000000E+00 0. -1.
          2   -1    0    0  502    0 -0.00000000000E+00 -0.00000000000E+00 -0.31150774049E+04  0.31150774049E+04  0.00000000000E+00 0. -1.
         24    2    1    2    0    0  0.66698246677E+03  0.54406233071E+03 -0.33192435797E+03  0.92692280369E+03  0.90236765795E+02 0.  0.
         25    2    1    2    0    0 -0.42769512035E+03 -0.41920740359E+02  0.28578332809E+03  0.53101202847E+03  0.12498479636E+03 0.  0.
         24    2    1    2    0    0 -0.22595888730E+03 -0.47335311827E+03 -0.20696159510E+03  0.57424346544E+03  0.10863637707E+03 0.  0.
        -11    1    5    5    0    0 -0.62051309794E+02 -0.24306510288E+03 -0.12288466278E+03  0.27934145706E+03  0.00000000000E+00 0.  1.
         12    1    5    5    0    0 -0.16390757751E+03 -0.23028801540E+03 -0.84076932322E+02  0.29490200838E+03  0.00000000000E+00 0. -1.
        -13    1    3    3    0    0  0.14757936522E+03  0.14836668129E+03 -0.11554434197E+03  0.23904567789E+03  0.00000000000E+00 0.  1.
         14    1    3    3    0    0  0.51940310155E+03  0.39569564942E+03 -0.21638001599E+03  0.68787712580E+03  0.00000000000E+00 0. -1.
          5    1    4    4  501    0 -0.27139616748E+03 -0.79468713091E+02  0.14783527798E+03  0.31913714215E+03  0.47000000000E+01 0. -1.
         -5    1    4    4    0  501 -0.15629895287E+03  0.37547972733E+02  0.13794805011E+03  0.21187488632E+03  0.47000000000E+01 0. -1.
          1    1    1    2  502    0  0.49916581935E+02  0.69280313972E+02 -0.19687545419E+04  0.19706054585E+04  0.00000000000E+00 0. -1.
          1    1    1    2  503    0 -0.63245041052E+02 -0.98068786053E+02  0.12320727282E+04  0.12375866150E+04  0.00000000000E+00 0. -1.
<mgrwt>
<rscale>  0 0.99734307E+02</rscale>
<asrwt>0</asrwt>
<pdfrwt beam="1">  1        2 0.31254309E+00 0.11648845E+03</pdfrwt>
<pdfrwt beam="2">  1        2 0.45809961E+00 0.85389853E+02</pdfrwt>
<totfact> 0.31429746E+00</totfact>
</mgrwt>
</event>
<event>
13    1  0.2038932E-008  0.1386722E+03  0.7546771E-02  0.1219290E+00
          2   -1    0    0  502    0  0.00000000000E+00  0.00000000000E+00  0.26853707097E+04  0.26853707097E+04  0.00000000000E+00 0. -1.
          2   -1    0    0  503    0 -0.00000000000E+00 -0.00000000000E+00 -0.30031204109E+04  0.30031204109E+04  0.00000000000E+00 0. -1.
         24    2    1    2    0    0 -0.13009614387E+03  0.61145335790E+02 -0.20478614574E+02  0.16575298348E+03  0.79943224465E+02 0.  0.
         25    2    1    2    0    0 -0.18571537848E+03  0.43092661631E+02  0.20253390312E+03  0.30494610534E+03  0.12499986384E+03 0.  0.
         24    2    1    2    0    0  0.27704145480E+02  0.13850702411E+02 -0.99877290680E+02  0.13928051803E+03  0.92001238440E+02 0.  0.
        -11    1    5    5    0    0  0.61366334375E+02  0.13610350026E+02 -0.57782111525E+02  0.85380565908E+02  0.00000000000E+00 0.  1.
         12    1    5    5    0    0 -0.33662188895E+02  0.24035238530E+00 -0.42095179155E+02  0.53899952120E+02  0.00000000000E+00 0. -1.
        -11    1    3    3    0    0 -0.12288288317E+03  0.30873549015E+02  0.30522785720E+01  0.12673868947E+03  0.00000000000E+00 0.  1.
         12    1    3    3    0    0 -0.72132607022E+01  0.30271786775E+02 -0.23530893146E+02  0.39014294005E+02  0.00000000000E+00 0. -1.
          5    1    4    4  501    0 -0.16582810008E+03  0.34559509835E+02  0.93206070963E+02  0.19339798386E+03  0.47000000000E+01 0. -1.
         -5    1    4    4    0  501 -0.19887278395E+02  0.85331517955E+01  0.10932783216E+03  0.11154812148E+03  0.47000000000E+01 0. -1.
          1    1    1    2  502    0  0.12725994495E+03 -0.37605945218E+02  0.23344531644E+04  0.23382217340E+04  0.00000000000E+00 0. -1.
          1    1    1    2  503    0  0.16084743192E+03 -0.80482754614E+02 -0.27343808635E+04  0.27402897797E+04  0.00000000000E+00 0. -1.
<mgrwt>
<rscale>  0 0.13566080E+03</rscale>
<asrwt>0</asrwt>
<pdfrwt beam="1">  1        2 0.39490746E+00 0.13271484E+03</pdfrwt>
<pdfrwt beam="2">  1        2 0.44163535E+00 0.13867216E+03</pdfrwt>
<totfact> 0.17338472E+00</totfact>
</mgrwt>
</event>
<event>
13    1  0.2038932E-008  0.8614259E+02  0.7546771E-02  0.1314690E+00
          2   -1    0    0  502    0  0.00000000000E+00  0.00000000000E+00  0.95848746595E+03  0.95848746595E+03  0.00000000000E+00 0. -1.
          2   -1    0    0  503    0 -0.00000000000E+00 -0.00000000000E+00 -0.34834867252E+04  0.34834867252E+04  0.00000000000E+00 0. -1.
         24    2    1    2    0    0 -0.27979807253E+03 -0.92240060828E+02 -0.11634372715E+04  0.12028551894E+04  0.80493054543E+02 0.  0.
         25    2    1    2    0    0  0.58461485158E+03 -0.31225747438E+03 -0.13370965613E+02  0.67459585888E+03  0.12498613963E+03 0.  0.
         24    2    1    2    0    0 -0.27633301564E+03  0.24071404029E+03 -0.11641393330E+04  0.12243905357E+04  0.98023530907E+02 0.  0.
        -11    1    5    5    0    0 -0.55611460874E+02  0.10120800641E+03 -0.29213205320E+03  0.31412868645E+03  0.00000000000E+00 0.  1.
         12    1    5    5    0    0 -0.22072155477E+03  0.13950603388E+03 -0.87200727979E+03  0.91026184927E+03  0.00000000000E+00 0. -1.
        -13    1    3    3    0    0 -0.20836417217E+03 -0.43294876115E+02 -0.70938540172E+03  0.74061982333E+03  0.00000000000E+00 0.  1.
         14    1    3    3    0    0 -0.71433900359E+02 -0.48945184713E+02 -0.45405186974E+03  0.46223536606E+03  0.00000000000E+00 0. -1.
          5    1    4    4  501    0  0.56415253559E+03 -0.26681200653E+03 -0.17828286111E+02  0.62433698275E+03  0.47000000000E+01 0.  1.
         -5    1    4    4    0  501  0.20462315992E+02 -0.45445467854E+02  0.44573204972E+01  0.50258876134E+02  0.47000000000E+01 0.  1.
          1    1    1    2  502    0  0.42418025083E+01  0.85948123034E+02  0.57247609194E+03  0.57890754753E+03  0.00000000000E+00 0. -1.
          1    1    1    2  503    0 -0.32725565922E+02  0.77835371882E+02 -0.75652778117E+03  0.76122505967E+03  0.00000000000E+00 0. -1.
<mgrwt>
<rscale>  0 0.85284638E+02</rscale>
<asrwt>0</asrwt>
<pdfrwt beam="1">  1        2 0.14095404E+00 0.86142593E+02</pdfrwt>
<pdfrwt beam="2">  1        2 0.51227747E+00 0.84435228E+02</pdfrwt>
<totfact> 0.78030876E+00</totfact>
</mgrwt>
</event>
<event>
13    1  0.2038932E-008  0.6430203E+02  0.7546771E-02  0.1401768E+00
          2   -1    0    0  503    0  0.00000000000E+00  0.00000000000E+00  0.17197890909E+04  0.17197890909E+04  0.00000000000E+00 0. -1.
          2   -1    0    0  502    0 -0.00000000000E+00 -0.00000000000E+00 -0.17422083362E+04  0.17422083362E+04  0.00000000000E+00 0. -1.
         24    2    1    2    0    0  0.46587257990E+02  0.11197116467E+03 -0.39251797015E+03  0.41881183893E+03  0.81394626459E+02 0.  0.
         25    2    1    2    0    0 -0.20453269391E+03 -0.92290494369E+02  0.48892463272E+03  0.55229256653E+03  0.12501449653E+03 0.  0.
         24    2    1    2    0    0  0.65104482419E+02 -0.93128180924E+02  0.46291854381E+03  0.48339317352E+03  0.80398571460E+02 0.  0.
        -13    1    5    5    0    0 -0.37481690665E+01 -0.32971772344E+02  0.24256234133E+03  0.24482172284E+03  0.00000000000E+00 0.  1.
         14    1    5    5    0    0  0.68852651486E+02 -0.60156408581E+02  0.22035620248E+03  0.23857145068E+03  0.00000000000E+00 0. -1.
        -13    1    3    3    0    0 -0.87491636845E+01  0.34023899035E+02 -0.20857355077E+03  0.21151146459E+03  0.00000000000E+00 0.  1.
         14    1    3    3    0    0  0.55336421675E+02  0.77947265633E+02 -0.18394441938E+03  0.20730037434E+03  0.00000000000E+00 0. -1.
          5    1    4    4  501    0 -0.17965671100E+03 -0.39300844287E+02  0.27809563068E+03  0.33343719044E+03  0.47000000000E+01 0.  1.
         -5    1    4    4    0  501 -0.24875982902E+02 -0.52989650082E+02  0.21082900204E+03  0.21885537609E+03  0.47000000000E+01 0.  1.
          1    1    1    2  502    0  0.41983742311E+02  0.34384695027E+02 -0.12926095063E+04  0.12937481508E+04  0.00000000000E+00 0. -1.
          1    1    1    2  503    0  0.50857211186E+02  0.39062815599E+02  0.71086505463E+03  0.71375169729E+03  0.00000000000E+00 0. -1.
<mgrwt>
<rscale>  0 0.59071979E+02</rscale>
<asrwt>0</asrwt>
<pdfrwt beam="1">  1        2 0.25291016E+00 0.64302028E+02</pdfrwt>
<pdfrwt beam="2">  1        2 0.25620711E+00 0.54267319E+02</pdfrwt>
<totfact> 0.26181397E+01</totfact>
</mgrwt>
</event>
<event>
13    1  0.2038932E-008  0.1961662E+03  0.7546771E-02  0.1223876E+00
         -1   -1    0    0    0  501 -0.00000000000E+00  0.00000000000E+00  0.16812959155E+04  0.16812959155E+04  0.00000000000E+00 0.  1.
          2   -1    0    0  503    0  0.00000000000E+00 -0.00000000000E+00 -0.32978379318E+04  0.32978379318E+04  0.00000000000E+00 0. -1.
         24    2    1    2    0    0 -0.65281986304E+02 -0.36315212183E+02  0.33126675055E+03  0.34910016279E+03  0.80948942370E+02 0.  0.
         25    2    1    2    0    0 -0.10647920065E+03 -0.34652155858E+03 -0.19882667551E+04  0.20249056834E+04  0.12499330448E+03 0.  0.
         24    2    1    2    0    0  0.36621256361E+03  0.38763597026E+03 -0.20023984591E+03  0.57968020888E+03  0.10751679634E+03 0.  0.
        -11    1    3    3    0    0 -0.81654427754E+02 -0.16753586901E+02  0.22896357740E+03  0.24366462202E+03  0.00000000000E+00 0.  1.
         12    1    3    3    0    0  0.16372441451E+02 -0.19561625282E+02  0.10230317315E+03  0.10543554077E+03  0.00000000000E+00 0. -1.
        -13    1    5    5    0    0  0.23596766998E+03  0.23367917588E+03 -0.17802310643E+03  0.37680090889E+03  0.00000000000E+00 0.  1.
         14    1    5    5    0    0  0.13024489363E+03  0.15395679438E+03 -0.22216739474E+02  0.20287929999E+03  0.00000000000E+00 0. -1.
          5    1    4    4  502    0 -0.23260433037E+02 -0.17413714159E+03 -0.66387247374E+03  0.68674124910E+03  0.47000000000E+01 0. -1.
         -5    1    4    4    0  502 -0.83218767617E+02 -0.17238441699E+03 -0.13243942814E+04  0.13381644343E+04  0.47000000000E+01 0. -1.
          1    1    1    2  503    0 -0.17073090093E+03 -0.91014326682E+02 -0.88008652847E+03  0.90110207290E+03  0.00000000000E+00 0. -1.
         -2    1    1    2    0  501 -0.23720475729E+02  0.86215127184E+02  0.11207843626E+04  0.11243457194E+04  0.00000000000E+00 0.  1.
<mgrwt>
<rscale>  0 0.13244220E+03</rscale>
<asrwt>0</asrwt>
<pdfrwt beam="2">  1        2 0.48497616E+00 0.19616624E+03</pdfrwt>
<pdfrwt beam="1">  1       -1 0.24724940E+00 0.89418729E+02</pdfrwt>
<totfact> 0.19050469E-01</totfact>
</mgrwt>
</event>
<event>
13    1  0.2038932E-008  0.6950735E+02  0.7546771E-02  0.1476252E+00
          2   -1    0    0  502    0  0.00000000000E+00  0.00000000000E+00  0.10521973310E+04  0.10521973310E+04  0.00000000000E+00 0. -1.
          2   -1    0    0  503    0 -0.00000000000E+00 -0.00000000000E+00 -0.31521020830E+03  0.31521020830E+03  0.00000000000E+00 0. -1.
         24    2    1    2    0    0 -0.40415150721E+02  0.46319599237E+02 -0.12008741101E+03  0.15813531220E+03  0.82503945365E+02 0.  0.
         25    2    1    2    0    0  0.10357244506E+03 -0.10011433818E+03  0.63271326563E+03  0.66083107706E+03  0.12498601451E+03 0.  0.
         24    2    1    2    0    0 -0.53776665859E+02  0.38200480861E+01  0.44598481089E+02  0.10718419436E+03  0.81196702188E+02 0.  0.
        -11    1    5    5    0    0 -0.12735805849E+02 -0.35291231893E+02  0.45959034624E+01  0.37799393220E+02  0.00000000000E+00 0.  1.
         12    1    5    5    0    0 -0.41040860010E+02  0.39111279979E+02  0.40002577627E+02  0.69384801137E+02  0.00000000000E+00 0. -1.
        -13    1    3    3    0    0 -0.66117711357E+02  0.32572617190E+02 -0.87861779789E+02  0.11468312645E+03  0.00000000000E+00 0.  1.
         14    1    3    3    0    0  0.25702560636E+02  0.13746982047E+02 -0.32225631217E+02  0.43452185745E+02  0.00000000000E+00 0. -1.
          5    1    4    4  501    0  0.12231713979E+03 -0.46767800861E+02  0.49090696675E+03  0.50809492213E+03  0.47000000000E+01 0.  1.
         -5    1    4    4    0  501 -0.18744694726E+02 -0.53346537314E+02  0.14180629887E+03  0.15273615493E+03  0.47000000000E+01 0.  1.
          1    1    1    2  502    0 -0.21833696070E+02 -0.18689940670E+02  0.30046334995E+03  0.30183480388E+03  0.00000000000E+00 0. -1.
          1    1    1    2  503    0  0.12453067586E+02  0.68664631522E+02 -0.12070056296E+03  0.13942215181E+03  0.00000000000E+00 0. -1.
<mgrwt>
<rscale>  0 0.44695473E+02</rscale>
<asrwt>0</asrwt>
<pdfrwt beam="1">  1        2 0.15473490E+00 0.28740636E+02</pdfrwt>
<pdfrwt beam="2">  1        2 0.46354443E-01 0.69507345E+02</pdfrwt>
<totfact> 0.49095337E+02</totfact>
</mgrwt>
</event>
<event>
13    1  0.2038932E-008  0.2367984E+03  0.7546771E-02  0.1202066E+00
          2   -1    0    0  502    0  0.00000000000E+00  0.00000000000E+00  0.13659482249E+04  0.13659482249E+04  0.00000000000E+00 0. -1.
          2   -1    0    0  503    0 -0.00000000000E+00 -0.00000000000E+00 -0.29390296804E+04  0.29390296804E+04  0.00000000000E+00 0. -1.
         24    2    1    2    0    0  0.10087597864E+03  0.53244568552E+02 -0.10017868147E+04  0.10114042194E+04  0.79691440911E+02 0.  0.
         25    2    1    2    0    0 -0.19161170864E+03  0.64132074766E+02 -0.41871569763E+03  0.48142879913E+03  0.12499153287E+03 0.  0.
         24    2    1    2    0    0  0.47387182951E+02  0.11805430789E+03 -0.33708969297E+03  0.36883054432E+03  0.78893248122E+02 0.  0.
        -13    1    5    5    0    0 -0.11756173378E+02 -0.18048123936E+01 -0.60276884481E+02  0.61439138690E+02  0.00000000000E+00 0.  1.
         14    1    5    5    0    0  0.59143356329E+02  0.11985912028E+03 -0.27681280849E+03  0.30739140563E+03  0.00000000000E+00 0. -1.
        -13    1    3    3    0    0  0.72507954692E+02  0.61410272014E+02 -0.91092534381E+03  0.91586767986E+03  0.00000000000E+00 0.  1.
         14    1    3    3    0    0  0.28368023944E+02 -0.81657034616E+01 -0.90861470920E+02  0.95536539572E+02  0.00000000000E+00 0. -1.
          5    1    4    4  501    0 -0.57182806822E+02  0.34172574364E+02 -0.27226439893E+03  0.28033485542E+03  0.47000000000E+01 0.  1.
         -5    1    4    4    0  501 -0.13442890182E+03  0.29959500402E+02 -0.14645129869E+03  0.20109394371E+03  0.47000000000E+01 0.  1.
          1    1    1    2  502    0 -0.50018048612E+02 -0.23325640027E+03  0.13011186458E+04  0.13228076519E+04  0.00000000000E+00 0. -1.
          1    1    1    2  503    0  0.93366595667E+02 -0.21745509328E+01 -0.11166078961E+04  0.11205066905E+04  0.00000000000E+00 0. -1.
<mgrwt>
<rscale>  0 0.14871131E+03</rscale>
<asrwt>0</asrwt>
<pdfrwt beam="1">  1        2 0.20087474E+00 0.23679837E+03</pdfrwt>
<pdfrwt beam="2">  1        2 0.43221024E+00 0.93391915E+02</pdfrwt>
<totfact> 0.86545981E+00</totfact>
</mgrwt>
</event>
<event>
13    1  0.2038932E-008  0.3169810E+02  0.7546771E-02  0.1646495E+00
          2   -1    0    0  502    0  0.00000000000E+00  0.00000000000E+00  0.33290364297E+04  0.33290364297E+04  0.00000000000E+00 0. -1.
          4   -1    0    0  503    0 -0.00000000000E+00 -0.00000000000E+00 -0.31909056244E+04  0.31909056244E+04  0.00000000000E+00 0. -1.
         24    2    1    2    0    0  0.93879310564E+03 -0.68894207134E+03 -0.15946555834E+04  0.19768908762E+04  0.95903252049E+02 0.  0.
         25    2    1    2    0    0 -0.10464730673E+04  0.74117639926E+03  0.70490168046E+03  0.14686591122E+04  0.12499949257E+03 0.  0.
         24    2    1    2    0    0  0.10409976734E+03 -0.15103854810E+02 -0.14351530368E+03  0.19543498021E+03  0.80828838376E+02 0.  0.
        -11    1    5    5    0    0  0.36510096538E+02 -0.57372522123E+01 -0.11619888230E+03  0.12193475083E+03  0.00000000000E+00 0.  1.
         12    1    5    5    0    0  0.67589670797E+02 -0.93666025980E+01 -0.27316421373E+02  0.73500229383E+02  0.00000000000E+00 0. -1.
        -11    1    3    3    0    0  0.69732968496E+03 -0.53683178448E+03 -0.11412278812E+04  0.14411308515E+04  0.00000000000E+00 0.  1.
         12    1    3    3    0    0  0.24146342068E+03 -0.15211028686E+03 -0.45342770224E+03  0.53576002469E+03  0.00000000000E+00 0. -1.
          5    1    4    4  501    0 -0.80276895451E+03  0.56914676087E+03  0.47908000944E+03  0.10944888191E+04  0.47000000000E+01 0. -1.
         -5    1    4    4    0  501 -0.24370411283E+03  0.17202963839E+03  0.22582167102E+03  0.37417029304E+03  0.47000000000E+01 0. -1.
          1    1    1    2  502    0  0.20563534120E+02 -0.24122894843E+02  0.20249204843E+04  0.20251685709E+04  0.00000000000E+00 0. -1.
          3    1    1    2  503    0 -0.16983339760E+02 -0.13007578266E+02 -0.85352047242E+03  0.85378851466E+03  0.00000000000E+00 0. -1.
<mgrwt>
<rscale>  0 0.26040266E+02</rscale>
<asrwt>0</asrwt>
<pdfrwt beam="1">  1        2 0.48956418E+00 0.31698095E+02</pdfrwt>
<pdfrwt beam="2">  1        4 0.46925083E+00 0.21392310E+02</pdfrwt>
<totfact> 0.51735074E-03</totfact>
</mgrwt>
</event>
<event>
13    1  0.2038932E-008  0.6208311E+02  0.7546771E-02  0.1418727E+00
          2   -1    0    0  502    0  0.00000000000E+00  0.00000000000E+00  0.72690970504E+03  0.72690970504E+03  0.00000000000E+00 0. -1.
          2   -1    0    0  503    0 -0.00000000000E+00 -0.00000000000E+00 -0.19708932258E+04  0.19708932258E+04  0.00000000000E+00 0. -1.
         24    2    1    2    0    0  0.22682653870E+03 -0.15771783724E+03 -0.48248819147E+03  0.55844658040E+03  0.52369202879E+02 0.  0.
         25    2    1    2    0    0  0.82414133419E+02  0.31569582027E+03 -0.21526154667E+03  0.41038624590E+03  0.12499358792E+03 0.  0.
         24    2    1    2    0    0 -0.32824601483E+03 -0.49843404919E+02  0.27158592830E+03  0.43643106610E+03  0.80519238336E+02 0.  0.
        -11    1    5    5    0    0 -0.17007615366E+03  0.90033240380E+01  0.16305191686E+03  0.23578143583E+03  0.00000000000E+00 0.  1.
         12    1    5    5    0    0 -0.15816986116E+03 -0.58846728957E+02  0.10853401144E+03  0.20064963028E+03  0.00000000000E+00 0. -1.
        -11    1    3    3    0    0  0.27456173409E+02 -0.10196786911E+02 -0.27108032828E+02  0.39908161639E+02  0.00000000000E+00 0.  1.
         12    1    3    3    0    0  0.19937036529E+03 -0.14752105033E+03 -0.45538015864E+03  0.51853841876E+03  0.00000000000E+00 0. -1.
          5    1    4    4  501    0  0.55937130587E+02  0.12305984234E+03 -0.23567818641E+02  0.13729610137E+03  0.47000000000E+01 0.  1.
         -5    1    4    4    0  501  0.26477002831E+02  0.19263597793E+03 -0.19169372803E+03  0.27309014453E+03  0.47000000000E+01 0.  1.
          1    1    1    2  502    0  0.18985434578E+02 -0.58892475686E+02  0.23274046899E+03  0.24082544783E+03  0.00000000000E+00 0. -1.
          1    1    1    2  503    0  0.19908130965E-01 -0.49242102432E+02 -0.10505601799E+04  0.10517135906E+04  0.00000000000E+00 0. -1.
<mgrwt>
<rscale>  0 0.55291076E+02</rscale>
<asrwt>0</asrwt>
<pdfrwt beam="1">  1        2 0.10689849E+00 0.62083110E+02</pdfrwt>
<pdfrwt beam="2">  1        2 0.28983724E+00 0.49242106E+02</pdfrwt>
<totfact> 0.70300028E+01</totfact>
</mgrwt>
</event>
<event>
13    1  0.2038932E-008  0.4786760E+02  0.7546771E-02  0.1508864E+00
          2   -1    0    0  502    0  0.00000000000E+00  0.00000000000E+00  0.25608068953E+04  0.25608068953E+04  0.00000000000E+00 0. -1.
          4   -1    0    0  503    0 -0.00000000000E+00 -0.00000000000E+00 -0.49300433111E+03  0.49300433111E+03  0.00000000000E+00 0. -1.
         24    2    1    2    0    0 -0.25785637926E+03  0.42200045139E+02 -0.20522717295E+03  0.34219668121E+03  0.81912270010E+02 0.  0.
         25    2    1    2    0    0  0.13901475114E+03 -0.49417267791E+02  0.29677420079E+03  0.35421253348E+03  0.12499770089E+03 0.  0.
         24    2    1    2    0    0  0.17580233622E+03  0.53807040280E+02  0.58844342412E+03  0.62493326244E+03  0.10234383276E+03 0.  0.
        -11    1    3    3    0    0 -0.15619895500E+03  0.64467488889E+02 -0.13939113428E+03  0.21905263975E+03  0.00000000000E+00 0.  1.
         12    1    3    3    0    0 -0.10165742426E+03 -0.22267443750E+02 -0.65836038668E+02  0.12314404145E+03  0.00000000000E+00 0. -1.
        -11    1    5    5    0    0  0.12148789128E+03  0.16312024859E+02  0.49864107301E+03  0.51348642589E+03  0.00000000000E+00 0.  1.
         12    1    5    5    0    0  0.54314444944E+02  0.37495015421E+02  0.89802351111E+02  0.11144683655E+03  0.00000000000E+00 0. -1.
          5    1    4    4  501    0  0.69377230064E+02  0.22832593048E+02  0.52449621324E+02  0.90042102006E+02  0.47000000000E+01 0. -1.
         -5    1    4    4    0  501  0.69637521077E+02 -0.72249860839E+02  0.24432457947E+03  0.26417043147E+03  0.47000000000E+01 0. -1.
          1    1    1    2  502    0 -0.11728101193E+02 -0.31142451859E+02  0.15566448495E+04  0.15570005100E+04  0.00000000000E+00 0. -1.
          3    1    1    2  503    0 -0.45232606910E+02 -0.15447365769E+02 -0.16883273725E+03  0.17546823931E+03  0.00000000000E+00 0. -1.
<mgrwt>
<rscale>  0 0.39911407E+02</rscale>
<asrwt>0</asrwt>
<pdfrwt beam="1">  1        2 0.37658924E+00 0.33277630E+02</pdfrwt>
<pdfrwt beam="2">  1        4 0.72500638E-01 0.47867604E+02</pdfrwt>
<totfact> 0.48444856E+00</totfact>
</mgrwt>
</event>
<event>
13    1  0.2038932E-008  0.4848444E+02  0.7546771E-02  0.1458317E+00
          2   -1    0    0  502    0  0.00000000000E+00  0.00000000000E+00  0.46703106839E+03  0.46703106839E+03  0.00000000000E+00 0. -1.
          4   -1    0    0  503    0 -0.00000000000E+00 -0.00000000000E+00 -0.40626285091E+03  0.40626285091E+03  0.00000000000E+00 0. -1.
         24    2    1    2    0    0 -0.63504368495E+02  0.12314396947E+03 -0.27512927306E+03  0.31944918586E+03  0.84583824803E+02 0.  0.
         25    2    1    2    0    0 -0.43739935581E+01 -0.39635980333E+02  0.12882041414E+03  0.18387494807E+03  0.12500061869E+03 0.  0.
         24    2    1    2    0    0  0.93240126308E+02 -0.37255251803E+02  0.43118166374E+02  0.13579577126E+03  0.80620346567E+02 0.  0.
        -11    1    3    3    0    0 -0.40463770307E+02  0.14097005489E+02 -0.12726276183E+03  0.13428273463E+03  0.00000000000E+00 0.  1.
         12    1    3    3    0    0 -0.23040598189E+02  0.10904696398E+03 -0.14786651123E+03  0.18516645123E+03  0.00000000000E+00 0. -1.
        -11    1    5    5    0    0 -0.15390521545E+01 -0.11783292053E+02 -0.16971989960E+02  0.20718665409E+02  0.00000000000E+00 0.  1.
         12    1    5    5    0    0  0.94779178462E+02 -0.25471959749E+02  0.60090156334E+02  0.11507710585E+03  0.00000000000E+00 0. -1.
          5    1    4    4  501    0 -0.22764684239E+02  0.30690745691E+02  0.31618368690E+01  0.38629521509E+02  0.47000000000E+01 0. -1.
         -5    1    4    4    0  501  0.18390690681E+02 -0.70326726024E+02  0.12565857727E+03  0.14524542657E+03  0.47000000000E+01 0. -1.
          1    1    1    2  502    0  0.23947744091E+02 -0.40294330399E+02  0.17677092406E+03  0.18287998005E+03  0.00000000000E+00 0. -1.
          3    1    1    2  503    0 -0.49309508345E+02 -0.59584069327E+01 -0.12812014033E+02  0.51294034059E+02  0.00000000000E+00 0. -1.
<mgrwt>
<rscale>  0 0.47672179E+02</rscale>
<asrwt>0</asrwt>
<pdfrwt beam="1">  1        2 0.68681039E-01 0.46873527E+02</pdfrwt>
<pdfrwt beam="2">  1        4 0.59744537E-01 0.48484439E+02</pdfrwt>
<totfact> 0.91215951E+01</totfact>
</mgrwt>
</event>
<event>
13    1  0.2038932E-008  0.1184045E+03  0.7546771E-02  0.1391740E+00
          2   -1    0    0  502    0  0.00000000000E+00  0.00000000000E+00  0.20671238457E+04  0.20671238457E+04  0.00000000000E+00 0. -1.
          2   -1    0    0  503    0 -0.00000000000E+00 -0.00000000000E+00 -0.80148164690E+03  0.80148164690E+03  0.00000000000E+00 0. -1.
         24    2    1    2    0    0  0.61356687755E+02  0.73767162775E+01  0.16457576982E+01  0.10366762212E+03  0.83217836324E+02 0.  0.
         25    2    1    2    0    0  0.85450677030E+02 -0.16180481814E+01  0.10742211631E+04  0.10848407603E+04  0.12499572667E+03 0.  0.
         24    2    1    2    0    0 -0.26203562497E+02  0.32690381086E+02 -0.10013804863E+02  0.84930605174E+02  0.73195926829E+02 0.  0.
        -13    1    5    5    0    0  0.16584754089E+02  0.20537616726E+02  0.18374293277E+02  0.32163059904E+02  0.00000000000E+00 0.  1.
         14    1    5    5    0    0 -0.42788316586E+02  0.12152764360E+02 -0.28388098140E+02  0.52767545270E+02  0.00000000000E+00 0. -1.
        -13    1    3    3    0    0  0.45523937626E+02 -0.35323935280E+02  0.59276002757E+01  0.57925346315E+02  0.00000000000E+00 0.  1.
         14    1    3    3    0    0  0.15832750129E+02  0.42700651557E+02 -0.42818425774E+01  0.45742275806E+02  0.00000000000E+00 0. -1.
          5    1    4    4  501    0 -0.28040069722E+02 -0.75207280736E+01  0.40116627960E+03  0.40224281317E+03  0.47000000000E+01 0.  1.
         -5    1    4    4    0  501  0.11349074675E+03  0.59026798922E+01  0.67305488348E+03  0.68259794712E+03  0.47000000000E+01 0.  1.
          1    1    1    2  502    0  0.21717648110E+02  0.23391080480E+02  0.88855935219E+03  0.88913245428E+03  0.00000000000E+00 0. -1.
          1    1    1    2  503    0 -0.14232145040E+03 -0.61840129662E+02 -0.68877026932E+03  0.70603405072E+03  0.00000000000E+00 0. -1.
<mgrwt>
<rscale>  0 0.61476086E+02</rscale>
<asrwt>0</asrwt>
<pdfrwt beam="1">  1        2 0.30398880E+00 0.31918629E+02</pdfrwt>
<pdfrwt beam="2">  1        2 0.11786495E+00 0.11840450E+03</pdfrwt>
<totfact> 0.58322123E+01</totfact>
</mgrwt>
</event>
<event>
13    1  0.2038932E-008  0.6590299E+02  0.7546771E-02  0.1379328E+00
          2   -1    0    0  502    0  0.00000000000E+00  0.00000000000E+00  0.46830311186E+03  0.46830311186E+03  0.00000000000E+00 0. -1.
          2   -1    0    0  503    0 -0.00000000000E+00 -0.00000000000E+00 -0.37963948694E+04  0.37963948694E+04  0.00000000000E+00 0. -1.
         24    2    1    2    0    0  0.60772018994E+01  0.39915432481E+02 -0.11838825897E+04  0.11869417073E+04  0.74983038981E+02 0.  0.
         25    2    1    2    0    0 -0.63827136226E+02 -0.11003144525E+03  0.22407259611E+03  0.28638061711E+03  0.12499802906E+03 0.  0.
         24    2    1    2    0    0  0.69758737361E+02  0.95331591800E+02 -0.35272012013E+02  0.13776178770E+03  0.61480090147E+02 0.  0.
        -11    1    5    5    0    0  0.17509621033E+02  0.12356863823E+02 -0.33405734414E+02  0.39689066555E+02  0.00000000000E+00 0.  1.
         12    1    5    5    0    0  0.52249116328E+02  0.82974727977E+02 -0.18662775984E+01  0.98072721141E+02  0.00000000000E+00 0. -1.
        -13    1    3    3    0    0  0.38250143015E+02  0.35591334266E+02 -0.78815982156E+03  0.78988968903E+03  0.00000000000E+00 0.  1.
         14    1    3    3    0    0 -0.32172941116E+02  0.43240982149E+01 -0.39572276814E+03  0.39705201824E+03  0.00000000000E+00 0. -1.
          5    1    4    4  501    0  0.37727797478E+02 -0.31904162310E+02  0.53261382019E+02  0.72801971743E+02  0.47000000000E+01 0. -1.
         -5    1    4    4    0  501 -0.10155493370E+03 -0.78127282940E+02  0.17081121409E+03  0.21357864537E+03  0.47000000000E+01 0. -1.
          1    1    1    2  502    0  0.24710327414E+01  0.63354438358E+02  0.15319135182E+03  0.16579348942E+03  0.00000000000E+00 0. -1.
          1    1    1    2  503    0 -0.14479835775E+02 -0.88570017390E+02 -0.24862011038E+04  0.24878203798E+04  0.00000000000E+00 0. -1.
<mgrwt>
<rscale>  0 0.64640713E+02</rscale>
<asrwt>0</asrwt>
<pdfrwt beam="1">  1        2 0.68868103E-01 0.63402609E+02</pdfrwt>
<pdfrwt beam="2">  1        2 0.55829338E+00 0.65902994E+02</pdfrwt>
<totfact> 0.12108369E+01</totfact>
</mgrwt>
</event>
<event>
13    1  0.2038932E-008  0.1329321E+03  0.7546771E-02  0.1306662E+00
         -3   -1    0    0    0  501 -0.00000000000E+00  0.00000000000E+00  0.82291883466E+03  0.82291883466E+03  0.00000000000E+00 0.  1.
          2   -1    0    0  503    0  0.00000000000E+00 -0.00000000000E+00 -0.14686661015E+04  0.14686661015E+04  0.00000000000E+00 0. -1.
         24    2    1    2    0    0  0.45351097369E+02 -0.29718700360E+02  0.24906723689E+00  0.97695744558E+02  0.81267910559E+02 0.  0.
         25    2    1    2    0    0 -0.19299373623E+03  0.89799482310E+01 -0.64055901665E+03  0.68063868522E+03  0.12500377722E+03 0.  0.
         24    2    1    2    0    0 -0.14558781947E+02 -0.89300290661E+02 -0.10014008431E+03  0.15632309140E+03  0.78882015526E+02 0.  0.
        -11    1    3    3    0    0  0.46016507111E+02  0.16442732207E+02  0.11451423223E+02  0.50189814335E+02  0.00000000000E+00 0.  1.
         12    1    3    3    0    0 -0.66540974207E+00 -0.46161432567E+02 -0.11202355986E+02  0.47505930223E+02  0.00000000000E+00 0. -1.
        -13    1    5    5    0    0  0.93955765270E+01 -0.94667468218E+02 -0.84291126896E+02  0.12710310960E+03  0.00000000000E+00 0.  1.
         14    1    5    5    0    0 -0.23954358474E+02  0.53671775569E+01 -0.15848957416E+02  0.29219981793E+02  0.00000000000E+00 0. -1.
          5    1    4    4  502    0  0.10105511502E+02  0.23516377273E+02 -0.86519045979E+02  0.90348086199E+02  0.47000000000E+01 0. -1.
         -5    1    4    4    0  502 -0.20309924773E+03 -0.14536429042E+02 -0.55403997067E+03  0.59029059902E+03  0.47000000000E+01 0. -1.
          1    1    1    2  503    0  0.56019729413E+02 -0.18017350990E+02 -0.62016950859E+03  0.62295509823E+03  0.00000000000E+00 0. -1.
         -4    1    1    2    0  501  0.10618169139E+03  0.12805639378E+03  0.71487227546E+03  0.73397231677E+03  0.00000000000E+00 0.  1.
<mgrwt>
<rscale>  0 0.88444919E+02</rscale>
<asrwt>0</asrwt>
<pdfrwt beam="2">  1        2 0.21598031E+00 0.58845858E+02</pdfrwt>
<pdfrwt beam="1">  1       -3 0.12101748E+00 0.13293210E+03</pdfrwt>
<totfact> 0.61909197E+00</totfact>
</mgrwt>
</event>
<event>
13    1  0.2038932E-008  0.1469038E+03  0.7546771E-02  0.1284766E+00
         -3   -1    0    0    0  501 -0.00000000000E+00  0.00000000000E+00  0.37598543010E+03  0.37598543010E+03  0.00000000000E+00 0.  1.
          2   -1    0    0  503    0  0.00000000000E+00 -0.00000000000E+00 -0.34489660892E+04  0.34489660892E+04  0.00000000000E+00 0. -1.
         24    2    1    2    0    0  0.12825076187E+03  0.64109142994E+02  0.72770205302E+02  0.17851121266E+03  0.77540377422E+02 0.  0.
         25    2    1    2    0    0 -0.92644913913E+02  0.55224363238E+02 -0.47411055102E+03  0.50203842079E+03  0.12501580296E+03 0.  0.
         24    2    1    2    0    0  0.69344587320E+02  0.97535500485E+01 -0.12826560734E+04  0.12871133204E+04  0.80933883551E+02 0.  0.
        -11    1    5    5    0    0 -0.44933322847E+01 -0.18792242416E+02 -0.10251019707E+03  0.10431528610E+03  0.00000000000E+00 0.  1.
         12    1    5    5    0    0  0.73837919605E+02  0.28545792465E+02 -0.11801458763E+04  0.11827980343E+04  0.00000000000E+00 0. -1.
        -13    1    3    3    0    0  0.52406360699E+02 -0.13399397205E+02  0.17903768760E+02  0.56978201297E+02  0.00000000000E+00 0.  1.
         14    1    3    3    0    0  0.75844401173E+02  0.77508540199E+02  0.54866436542E+02  0.12153301137E+03  0.00000000000E+00 0. -1.
          5    1    4    4  502    0 -0.15343324355E+02 -0.31725301868E+02 -0.44664315675E+02  0.57086806494E+02  0.47000000000E+01 0.  1.
         -5    1    4    4    0  502 -0.77301589558E+02  0.86949665107E+02 -0.42944623535E+03  0.44495161430E+03  0.47000000000E+01 0.  1.
          1    1    1    2  503    0 -0.13453559422E+02  0.63846185193E+02 -0.15736385200E+04  0.15749906429E+04  0.00000000000E+00 0. -1.
         -4    1    1    2    0  501 -0.91496875857E+02 -0.19293324147E+03  0.18465427998E+03  0.28229792254E+03  0.00000000000E+00 0.  1.
<mgrwt>
<rscale>  0 0.97904100E+02</rscale>
<asrwt>0</asrwt>
<pdfrwt beam="2">  1        2 0.50720090E+00 0.65248246E+02</pdfrwt>
<pdfrwt beam="1">  1       -3 0.55291974E-01 0.14690376E+03</pdfrwt>
<totfact> 0.35002662E+00</totfact>
</mgrwt>
</event>
<event>
13    1  0.2038932E-008  0.4948063E+02  0.7546771E-02  0.1566874E+00
         -3   -1    0    0    0  501 -0.00000000000E+00  0.00000000000E+00  0.28925986217E+03  0.28925986217E+03  0.00000000000E+00 0.  1.
          2   -1    0    0  503    0  0.00000000000E+00 -0.00000000000E+00 -0.16903549535E+04  0.16903549535E+04  0.00000000000E+00 0. -1.
         24    2    1    2    0    0  0.73157347174E+02 -0.90695846400E+02  0.11135059900E+03  0.18012593014E+03  0.80427985250E+02 0.  0.
         25    2    1    2    0    0 -0.10271647410E+03  0.10131222530E+03 -0.97788521259E+03  0.99634222622E+03  0.12499400662E+03 0.  0.
         24    2    1    2    0    0 -0.16109858901E+01 -0.40452982244E+02  0.57251265284E+01  0.90481187364E+02  0.80715730469E+02 0.  0.
        -11    1    5    5    0    0 -0.33074174561E+02 -0.43010665927E+02  0.17161579211E+02  0.56906398651E+02  0.00000000000E+00 0.  1.
         12    1    5    5    0    0  0.31463188671E+02  0.25576836836E+01 -0.11436452683E+02  0.33574788713E+02  0.00000000000E+00 0. -1.
        -13    1    3    3    0    0  0.40344328100E+02  0.22178961010E+00  0.13394955614E+02  0.42510455612E+02  0.00000000000E+00 0.  1.
         14    1    3    3    0    0  0.32813019074E+02 -0.90917636010E+02  0.97955643381E+02  0.13761547452E+03  0.00000000000E+00 0. -1.
          5    1    4    4  502    0 -0.24695827655E+02  0.21482846397E+02 -0.40329061168E+02  0.52152850043E+02  0.47000000000E+01 0.  1.
         -5    1    4    4    0  502 -0.78020646441E+02  0.79829378900E+02 -0.93755615142E+03  0.94418937617E+03  0.47000000000E+01 0.  1.
          1    1    1    2  503    0  0.47274235014E+02  0.14786831165E+02 -0.62406877718E+03  0.62603142279E+03  0.00000000000E+00 0. -1.
         -4    1    1    2    0  501 -0.16104122203E+02  0.15049772182E+02  0.83783172964E+02  0.86634049117E+02  0.00000000000E+00 0.  1.
<mgrwt>
<rscale>  0 0.33024828E+02</rscale>
<asrwt>0</asrwt>
<pdfrwt beam="2">  1        2 0.24858160E+00 0.49480630E+02</pdfrwt>
<pdfrwt beam="1">  1       -3 0.42538216E-01 0.22041742E+02</pdfrwt>
<totfact> 0.39716932E+01</totfact>
</mgrwt>
</event>
<event>
13    1  0.2038932E-008  0.1146307E+03  0.7546771E-02  0.1375964E+00
          2   -1    0    0  502    0  0.00000000000E+00  0.00000000000E+00  0.24023551089E+04  0.24023551089E+04  0.00000000000E+00 0. -1.
          2   -1    0    0  503    0 -0.00000000000E+00 -0.00000000000E+00 -0.32966773831E+04  0.32966773831E+04  0.00000000000E+00 0. -1.
         24    2    1    2    0    0  0.77119322490E+03 -0.47618105865E+03 -0.38957733619E+03  0.98872923600E+03  0.65784576522E+02 0.  0.
         25    2    1    2    0    0 -0.91244620992E+03  0.27138174354E+03  0.56233719986E+03  0.11126791157E+04  0.12500220554E+03 0.  0.
         24    2    1    2    0    0  0.63416382008E+02  0.28245918495E+03 -0.53470602290E+03  0.61419023826E+03  0.86684999780E+02 0.  0.
        -11    1    3    3    0    0  0.62887181745E+03 -0.35748219973E+03 -0.31402688778E+03  0.78859759837E+03  0.00000000000E+00 0.  1.
         12    1    3    3    0    0  0.14232140745E+03 -0.11869885891E+03 -0.75550448411E+02  0.20013163763E+03  0.00000000000E+00 0. -1.
        -13    1    5    5    0    0  0.11547144753E+02  0.20882131049E+03 -0.33212715764E+03  0.39248964969E+03  0.00000000000E+00 0.  1.
         14    1    5    5    0    0  0.51869237254E+02  0.73637874463E+02 -0.20257886525E+03  0.22170058858E+03  0.00000000000E+00 0. -1.
          5    1    4    4  501    0 -0.50230590375E+03  0.21051588801E+03  0.34178612391E+03  0.64301477785E+03  0.47000000000E+01 0.  1.
         -5    1    4    4    0  501 -0.41014030618E+03  0.60865855534E+02  0.22055107596E+03  0.46966433783E+03  0.47000000000E+01 0.  1.
          1    1    1    2  502    0  0.50272574683E+02 -0.10303946597E+03  0.12226471098E+04  0.12280107566E+04  0.00000000000E+00 0. -1.
          1    1    1    2  503    0  0.27564028333E+02  0.25379596127E+02 -0.17550232249E+04  0.17554231454E+04  0.00000000000E+00 0. -1.
<mgrwt>
<rscale>  0 0.65536677E+02</rscale>
<asrwt>0</asrwt>
<pdfrwt beam="1">  1        2 0.35328752E+00 0.11463067E+03</pdfrwt>
<pdfrwt beam="2">  1        2 0.48480549E+00 0.37468648E+02</pdfrwt>
<totfact> 0.21280428E+00</totfact>
</mgrwt>
</event>
<event>
13    1  0.2038932E-008  0.8610002E+02  0.7546771E-02  0.1324107E+00
          2   -1    0    0  502    0  0.00000000000E+00  0.00000000000E+00  0.15255208141E+04  0.15255208141E+04  0.00000000000E+00 0. -1.
          2   -1    0    0  503    0 -0.00000000000E+00 -0.00000000000E+00 -0.25149625758E+04  0.25149625758E+04  0.00000000000E+00 0. -1.
         24    2    1    2    0    0 -0.12301095813E+03 -0.30868936102E+02 -0.17904157969E+04  0.17966378121E+04  0.78956410212E+02 0.  0.
         25    2    1    2    0    0  0.11811267133E+03 -0.46736071559E+02  0.25191970756E+03  0.30856201725E+03  0.12494845306E+03 0.  0.
         24    2    1    2    0    0  0.97970594177E+01  0.66684340522E+02 -0.13172179343E+03  0.16808307123E+03  0.79740230285E+02 0.  0.
        -11    1    5    5    0    0 -0.17990590202E+02  0.59783047569E+02 -0.12335492390E+03  0.13825379331E+03  0.00000000000E+00 0.  1.
         12    1    5    5    0    0  0.27787649619E+02  0.69012929530E+01 -0.83668695259E+01  0.29829277924E+02  0.00000000000E+00 0. -1.
        -13    1    3    3    0    0 -0.73993492809E+02 -0.56020390369E+02 -0.99636916193E+03  0.10006821813E+04  0.00000000000E+00 0.  1.
         14    1    3    3    0    0 -0.49017465323E+02  0.25151454266E+02 -0.79404663501E+03  0.79595563076E+03  0.00000000000E+00 0. -1.
          5    1    4    4  501    0  0.11360198407E+03  0.86671336997E+01  0.12105692043E+03  0.16630513514E+03  0.47000000000E+01 0.  1.
         -5    1    4    4    0  501  0.45106872591E+01 -0.55403205258E+02  0.13086278713E+03  0.14225688211E+03  0.47000000000E+01 0.  1.
          1    1    1    2  502    0 -0.23101497382E+02 -0.74138265226E+02  0.12192629536E+04  0.12217333226E+04  0.00000000000E+00 0. -1.
          1    1    1    2  503    0  0.18202724771E+02  0.85058932365E+02 -0.53848683255E+03  0.54546716674E+03  0.00000000000E+00 0. -1.
<mgrwt>
<rscale>  0 0.81768094E+02</rscale>
<asrwt>0</asrwt>
<pdfrwt beam="1">  1        2 0.22434130E+00 0.77654115E+02</pdfrwt>
<pdfrwt beam="2">  1        2 0.36984743E+00 0.86100024E+02</pdfrwt>
<totfact> 0.12954050E+01</totfact>
</mgrwt>
</event>
<event>
13    1  0.2038932E-008  0.3824348E+02  0.7546771E-02  0.1547720E+00
          2   -1    0    0  502    0  0.00000000000E+00  0.00000000000E+00  0.38356480967E+04  0.38356480967E+04  0.00000000000E+00 0. -1.
          2   -1    0    0  503    0 -0.00000000000E+00 -0.00000000000E+00 -0.11275724698E+04  0.11275724698E+04  0.00000000000E+00 0. -1.
         24    2    1    2    0    0 -0.10272133442E+03 -0.67568189045E+02 -0.87337153775E+02  0.17096862132E+03  0.80531722516E+02 0.  0.
         25    2    1    2    0    0  0.17076154551E+03 -0.29966772394E+02  0.88547352041E+03  0.91090497575E+03  0.12500802624E+03 0.  0.
         24    2    1    2    0    0 -0.30724462132E+02  0.84013823535E+02  0.93887147460E+03  0.94678152583E+03  0.83146236866E+02 0.  0.
        -13    1    3    3    0    0 -0.76656732167E+02 -0.24834236065E+01 -0.49742421721E+02  0.91415154641E+02  0.00000000000E+00 0.  1.
         14    1    3    3    0    0 -0.26064602252E+02 -0.65084765438E+02 -0.37594732054E+02  0.79553466681E+02  0.00000000000E+00 0. -1.
        -13    1    5    5    0    0 -0.38281458370E+02  0.92636529439E+02  0.91296914473E+03  0.91845503748E+03  0.00000000000E+00 0.  1.
         14    1    5    5    0    0  0.75569962382E+01 -0.86227059038E+01  0.25902329871E+02  0.28326488346E+02  0.00000000000E+00 0. -1.
          5    1    4    4  501    0  0.23612333983E+02 -0.25928700132E+02  0.44616362244E+03  0.44756441749E+03  0.47000000000E+01 0. -1.
         -5    1    4    4    0  501  0.14714921153E+03 -0.40380722614E+01  0.43930989797E+03  0.46334055826E+03  0.47000000000E+01 0. -1.
          1    1    1    2  502    0 -0.38225805108E+01  0.31986095275E+02  0.19523112044E+04  0.19525769540E+04  0.00000000000E+00 0. -1.
          1    1    1    2  503    0 -0.33493168448E+02 -0.18464957372E+02 -0.98124341870E+03  0.98198848961E+03  0.00000000000E+00 0. -1.
<mgrwt>
<rscale>  0 0.35099346E+02</rscale>
<asrwt>0</asrwt>
<pdfrwt beam="1">  1        2 0.56406589E+00 0.32213699E+02</pdfrwt>
<pdfrwt beam="2">  1        2 0.16581948E+00 0.38243483E+02</pdfrwt>
<totfact> 0.49513278E+00</totfact>
</mgrwt>
</event>
<event>
13    1  0.2038932E-008  0.1086166E+03  0.7546771E-02  0.1328442E+00
         -1   -1    0    0    0  501 -0.00000000000E+00  0.00000000000E+00  0.10083228281E+04  0.10083228281E+04  0.00000000000E+00 0.  1.
          2   -1    0    0  503    0  0.00000000000E+00 -0.00000000000E+00 -0.20443545908E+04  0.20443545908E+04  0.00000000000E+00 0. -1.
         24    2    1    2    0    0 -0.20757722867E+03  0.90534280432E+02  0.46775592760E+03  0.52553149789E+03  0.78121608229E+02 0.  0.
         25    2    1    2    0    0 -0.62989603589E+01 -0.12787222533E+03 -0.28376357483E+03  0.33546667636E+03  0.12500056654E+03 0.  0.
         24    2    1    2    0    0  0.10039753410E+03 -0.78435506789E+02 -0.12250353044E+03  0.19361979332E+03  0.79055144161E+02 0.  0.
        -11    1    3    3    0    0 -0.17332595319E+03  0.76083111894E+02  0.44045953069E+03  0.47941122655E+03  0.00000000000E+00 0.  1.
         12    1    3    3    0    0 -0.34251275481E+02  0.14451168538E+02  0.27296396907E+02  0.46120271338E+02  0.00000000000E+00 0. -1.
        -11    1    5    5    0    0  0.28325789641E+02  0.15669417141E+01  0.26814903799E+01  0.28495544489E+02  0.00000000000E+00 0.  1.
         12    1    5    5    0    0  0.72071744460E+02 -0.80002448503E+02 -0.12518502082E+03  0.16512424883E+03  0.00000000000E+00 0. -1.
          5    1    4    4  502    0  0.27068954344E+02 -0.10383952878E+03 -0.27199626585E+03  0.29243706103E+03  0.47000000000E+01 0. -1.
         -5    1    4    4    0  502 -0.33367914703E+02 -0.24032696543E+02 -0.11767308979E+02  0.43029615329E+02  0.47000000000E+01 0. -1.
          1    1    1    2  503    0  0.25227064986E+02  0.53600616053E+02 -0.15407421381E+04  0.15418805942E+04  0.00000000000E+00 0. -1.
         -2    1    1    2    0  501  0.88251589941E+02  0.62172835632E+02  0.44322155306E+03  0.45617885715E+03  0.00000000000E+00 0.  1.
<mgrwt>
<rscale>  0 0.80215319E+02</rscale>
<asrwt>0</asrwt>
<pdfrwt beam="2">  1        2 0.30064038E+00 0.59240449E+02</pdfrwt>
<pdfrwt beam="1">  1       -1 0.14828277E+00 0.10861662E+03</pdfrwt>
<totfact> 0.44098826E+00</totfact>
</mgrwt>
</event>
<event>
13    1  0.2038932E-008  0.1056900E+03  0.7546771E-02  0.1430706E+00
          2   -1    0    0  503    0  0.00000000000E+00  0.00000000000E+00  0.14052008080E+04  0.14052008080E+04  0.00000000000E+00 0. -1.
          2   -1    0    0  502    0 -0.00000000000E+00 -0.00000000000E+00 -0.17938749441E+04  0.17938749441E+04  0.00000000000E+00 0. -1.
         24    2    1    2    0    0  0.11826521633E+03  0.10508265403E+03 -0.16175835242E+03  0.23983983229E+03  0.79550958537E+02 0.  0.
         25    2    1    2    0    0 -0.99836018457E+02 -0.87027500756E+02  0.36241944302E+03  0.40560377287E+03  0.12500220566E+03 0.  0.
         24    2    1    2    0    0 -0.79069220018E+02 -0.83589404362E+02  0.27300420412E+02  0.13043704189E+03  0.55039793486E+02 0.  0.
        -11    1    3    3    0    0  0.34375271982E+02  0.83563573485E+02 -0.78245330413E+02  0.11952766152E+03  0.00000000000E+00 0.  1.
         12    1    3    3    0    0  0.83889944348E+02  0.21519080541E+02 -0.83513022005E+02  0.12031217077E+03  0.00000000000E+00 0. -1.
        -13    1    5    5    0    0 -0.14014442226E+02  0.70681839165E+01  0.61983069682E+01  0.16875509594E+02  0.00000000000E+00 0.  1.
         14    1    5    5    0    0 -0.65054777792E+02 -0.90657588279E+02  0.21102113444E+02  0.11356153230E+03  0.00000000000E+00 0. -1.
          5    1    4    4  501    0 -0.75238664081E+02 -0.11584951971E+03  0.31975387280E+03  0.34834838447E+03  0.47000000000E+01 0.  1.
         -5    1    4    4    0  501 -0.24597354376E+02  0.28822018956E+02  0.42665570217E+02  0.57255388401E+02  0.47000000000E+01 0.  1.
          1    1    1    2  502    0  0.86592505437E+02  0.60715553051E+02 -0.15178822278E+04  0.15215620585E+04  0.00000000000E+00 0. -1.
          1    1    1    2  503    0 -0.25952483291E+02  0.48186980421E+01  0.90124658073E+03  0.90163304648E+03  0.00000000000E+00 0. -1.
<mgrwt>
<rscale>  0 0.52818533E+02</rscale>
<asrwt>0</asrwt>
<pdfrwt beam="1">  1        2 0.20664718E+00 0.26396046E+02</pdfrwt>
<pdfrwt beam="2">  1        2 0.26380514E+00 0.10568998E+03</pdfrwt>
<totfact> 0.35292239E+01</totfact>
</mgrwt>
</event>
<event>
13    1  0.2038932E-008  0.9921991E+02  0.7546771E-02  0.1434382E+00
          4   -1    0    0  503    0 -0.00000000000E+00  0.00000000000E+00  0.11082017189E+03  0.11082017189E+03  0.00000000000E+00 0. -1.
          2   -1    0    0  502    0  0.00000000000E+00 -0.00000000000E+00 -0.10564545592E+04  0.10564545592E+04  0.00000000000E+00 0. -1.
         24    2    1    2    0    0  0.16547057250E+02  0.15584543481E+02 -0.27776202214E+02  0.86249790688E+02  0.78427201182E+02 0.  0.
         25    2    1    2    0    0 -0.12069585198E+03 -0.22485843320E+02 -0.39702169887E+03  0.43396433359E+03  0.12500284646E+03 0.  0.
         24    2    1    2    0    0  0.20111746389E+02 -0.22504486877E+02 -0.20510505644E+03  0.22230652514E+03  0.80256916640E+02 0.  0.
        -13    1    5    5    0    0  0.18981345018E+01 -0.46489530706E+02 -0.71188080142E+02  0.85044824265E+02  0.00000000000E+00 0.  1.
         14    1    5    5    0    0  0.18213611887E+02  0.23985043829E+02 -0.13391697630E+03  0.13726170087E+03  0.00000000000E+00 0. -1.
        -13    1    3    3    0    0  0.22866107273E+02 -0.26990146091E+02 -0.66216613831E+00  0.35380295530E+02  0.00000000000E+00 0.  1.
         14    1    3    3    0    0 -0.63190500230E+01  0.42574689572E+02 -0.27114036075E+02  0.50869495158E+02  0.00000000000E+00 0. -1.
          5    1    4    4  501    0 -0.10211316775E+03 -0.54921942036E+02 -0.36953715791E+03  0.38732843921E+03  0.47000000000E+01 0. -1.
         -5    1    4    4    0  501 -0.18582684232E+02  0.32436098716E+02 -0.27484540957E+02  0.46635894382E+02  0.47000000000E+01 0. -1.
          1    1    1    2  502    0  0.92076773993E+02  0.32668333534E+01 -0.36061309822E+03  0.37219700579E+03  0.00000000000E+00 0. -1.
          3    1    1    2  503    0 -0.80397256523E+01  0.26138953364E+02  0.44881668396E+02  0.52557075922E+02  0.00000000000E+00 0. -1.
<mgrwt>
<rscale>  0 0.52090399E+02</rscale>
<asrwt>0</asrwt>
<pdfrwt beam="2">  1        2 0.15536096E+00 0.99219907E+02</pdfrwt>
<pdfrwt beam="1">  1        4 0.16297084E-01 0.27347433E+02</pdfrwt>
<totfact> 0.35053412E+02</totfact>
</mgrwt>
</event>
<event>
13    1  0.2038932E-008  0.7643370E+02  0.7546771E-02  0.1399473E+00
          2   -1    0    0  502    0  0.00000000000E+00  0.00000000000E+00  0.55946623893E+04  0.55946623893E+04  0.00000000000E+00 0. -1.
          2   -1    0    0  503    0 -0.00000000000E+00 -0.00000000000E+00 -0.10196963959E+03  0.10196963959E+03  0.00000000000E+00 0. -1.
         24    2    1    2    0    0 -0.26212649635E+02 -0.21801787613E+02  0.10188056162E+03  0.13377458443E+03  0.79709282131E+02 0.  0.
         25    2    1    2    0    0 -0.10080746901E+03 -0.48904993337E+02  0.28041170266E+04  0.28091371592E+04  0.12500174365E+03 0.  0.
         24    2    1    2    0    0  0.14421297094E+03  0.43253628384E+02  0.42218593297E+03  0.45532633752E+03  0.80080299016E+02 0.  0.
        -11    1    5    5    0    0  0.84124751432E+02  0.28253575732E+02  0.13512193517E+03  0.16165758785E+03  0.00000000000E+00 0.  1.
         12    1    5    5    0    0  0.60088219503E+02  0.15000052652E+02  0.28706399779E+03  0.29366874967E+03  0.00000000000E+00 0. -1.
        -13    1    3    3    0    0 -0.19578781426E+02  0.22139599517E+02  0.77812424369E+02  0.83236193660E+02  0.00000000000E+00 0.  1.
         14    1    3    3    0    0 -0.66338682090E+01 -0.43941387131E+02  0.24068137255E+02  0.50538390767E+02  0.00000000000E+00 0. -1.
          5    1    4    4  501    0 -0.50775724147E+02  0.39378065135E+02  0.89203023049E+03  0.89435386078E+03  0.47000000000E+01 0.  1.
         -5    1    4    4    0  501 -0.50031744862E+02 -0.88283058472E+02  0.19120867961E+04  0.19147832984E+04  0.47000000000E+01 0.  1.
          1    1    1    2  502    0 -0.24187633095E+02  0.73414378364E+02  0.22226262047E+04  0.22239698646E+04  0.00000000000E+00 0. -1.
          1    1    1    2  503    0  0.69947808030E+01 -0.45961225797E+02 -0.58116976222E+02  0.74424083202E+02  0.00000000000E+00 0. -1.
<mgrwt>
<rscale>  0 0.59610706E+02</rscale>
<asrwt>0</asrwt>
<pdfrwt beam="1">  1        2 0.82274426E+00 0.76433695E+02</pdfrwt>
<pdfrwt beam="2">  1        2 0.14995539E-01 0.46490442E+02</pdfrwt>
<totfact> 0.14063299E+00</totfact>
</mgrwt>
</event>
<event>
13    1  0.2038932E-008  0.2024809E+03  0.7546771E-02  0.1226476E+00
          2   -1    0    0  502    0  0.00000000000E+00  0.00000000000E+00  0.38311779769E+04  0.38311779769E+04  0.00000000000E+00 0. -1.
          2   -1    0    0  503    0 -0.00000000000E+00 -0.00000000000E+00 -0.12273488407E+04  0.12273488407E+04  0.00000000000E+00 0. -1.
         24    2    1    2    0    0 -0.13923151937E+03  0.11133001294E+03 -0.42616862760E+03  0.46892519816E+03  0.80568942809E+02 0.  0.
         25    2    1    2    0    0  0.11505229696E+03 -0.13286472438E+03  0.30332804053E+03  0.37218385494E+03  0.12499142244E+03 0.  0.
         24    2    1    2    0    0  0.13960378086E+03 -0.47748414368E+02 -0.14304509177E+03  0.22001727931E+03  0.78591209497E+02 0.  0.
        -13    1    3    3    0    0 -0.30721763653E+02  0.91834383336E+01 -0.16626309475E+03  0.16932684069E+03  0.00000000000E+00 0.  1.
         14    1    3    3    0    0 -0.10850975572E+03  0.10214657461E+03 -0.25990553285E+03  0.29959835747E+03  0.00000000000E+00 0. -1.
        -13    1    5    5    0    0  0.16378139768E+02 -0.40280644518E+02 -0.42476462878E+02  0.60786706472E+02  0.00000000000E+00 0.  1.
         14    1    5    5    0    0  0.12322564109E+03 -0.74677698505E+01 -0.10056862889E+03  0.15923057284E+03  0.00000000000E+00 0. -1.
          5    1    4    4  501    0  0.55106866738E+02 -0.82832094232E+02  0.59278944101E+02  0.11590515869E+03  0.47000000000E+01 0.  1.
         -5    1    4    4    0  501  0.59945430219E+02 -0.50032630152E+02  0.24404909643E+03  0.25627869625E+03  0.47000000000E+01 0.  1.
          1    1    1    2  502    0 -0.13940397449E+03  0.15011918908E+03  0.34273295766E+04  0.34334468491E+04  0.00000000000E+00 0. -1.
          1    1    1    2  503    0  0.23979416048E+02 -0.80836063268E+02 -0.55761476152E+03  0.56395363620E+03  0.00000000000E+00 0. -1.
<mgrwt>
<rscale>  0 0.13066266E+03</rscale>
<asrwt>0</asrwt>
<pdfrwt beam="1">  1        2 0.56340852E+00 0.20248089E+03</pdfrwt>
<pdfrwt beam="2">  1        2 0.18049248E+00 0.84317741E+02</pdfrwt>
<totfact> 0.28932897E+00</totfact>
</mgrwt>
</event>
<event>
13    1  0.2038932E-008  0.5617177E+02  0.7546771E-02  0.1553171E+00
          2   -1    0    0  503    0  0.00000000000E+00  0.00000000000E+00  0.29211032988E+04  0.29211032988E+04  0.00000000000E+00 0. -1.
          2   -1    0    0  502    0 -0.00000000000E+00 -0.00000000000E+00 -0.88918883424E+03  0.88918883424E+03  0.00000000000E+00 0. -1.
         24    2    1    2    0    0  0.38982903463E+02 -0.14461769286E+02  0.17090791085E+03  0.19311092864E+03  0.79708890579E+02 0.  0.
         25    2    1    2    0    0 -0.48406436759E+02 -0.91316770400E+02  0.10989459535E+03  0.19591538004E+03  0.12499631344E+03 0.  0.
         24    2    1    2    0    0 -0.17842072544E+02  0.50534855647E+02  0.10006992278E+03  0.13936532805E+03  0.80849205493E+02 0.  0.
        -11    1    5    5    0    0 -0.42954554764E+02  0.58723109052E+01  0.61441484443E+02  0.75197299293E+02  0.00000000000E+00 0.  1.
         12    1    5    5    0    0  0.25112482220E+02  0.44662544742E+02  0.38628438340E+02  0.64168028758E+02  0.00000000000E+00 0. -1.
        -13    1    3    3    0    0  0.62761154644E+02 -0.15398163347E+02  0.10806172223E+03  0.12591029258E+03  0.00000000000E+00 0.  1.
         14    1    3    3    0    0 -0.23778251181E+02  0.93639406161E+00  0.62846188618E+02  0.67200636060E+02  0.00000000000E+00 0. -1.
          5    1    4    4  501    0 -0.29510422907E+02 -0.58362880149E+02  0.13504099525E+03  0.15011745814E+03  0.47000000000E+01 0. -1.
         -5    1    4    4    0  501 -0.18896013852E+02 -0.32953890251E+02 -0.25146399906E+02  0.45797921900E+02  0.47000000000E+01 0. -1.
          1    1    1    2  502    0  0.21169768935E+02 -0.58883095386E+00 -0.81497192157E+03  0.81524704157E+03  0.00000000000E+00 0. -1.
          1    1    1    2  503    0  0.60958369048E+01  0.55832514992E+02  0.24660139571E+04  0.24666534547E+04  0.00000000000E+00 0. -1.
<mgrwt>
<rscale>  0 0.34490626E+02</rscale>
<asrwt>0</asrwt>
<pdfrwt beam="1">  1        2 0.42957401E+00 0.56171768E+02</pdfrwt>
<pdfrwt beam="2">  1        2 0.13076307E+00 0.21177956E+02</pdfrwt>
<totfact> 0.19800454E+01</totfact>
</mgrwt>
</event>
<event>
13    1  0.2038932E-008  0.2439279E+03  0.7546771E-02  0.1312331E+00
          2   -1    0    0  502    0  0.00000000000E+00  0.00000000000E+00  0.43791651352E+03  0.43791651352E+03  0.00000000000E+00 0. -1.
          2   -1    0    0  503    0 -0.00000000000E+00 -0.00000000000E+00 -0.18350726959E+04  0.18350726959E+04  0.00000000000E+00 0. -1.
         24    2    1    2    0    0  0.28500195799E+02 -0.13609894832E+03 -0.56703724230E+03  0.58955332938E+03  0.81894500029E+02 0.  0.
         25    2    1    2    0    0  0.25380170763E+03  0.46102578165E+03 -0.40069115920E+03  0.67316012723E+03  0.12502429239E+03 0.  0.
         24    2    1    2    0    0 -0.42627224246E+02 -0.22866532293E+03 -0.12010224117E+03  0.27285581310E+03  0.76946970382E+02 0.  0.
        -11    1    3    3    0    0 -0.10181094715E+01  0.10580387399E+02 -0.58690635330E+02  0.59645383894E+02  0.00000000000E+00 0.  1.
         12    1    3    3    0    0  0.29518305271E+02 -0.14667933572E+03 -0.50834660697E+03  0.52990794549E+03  0.00000000000E+00 0. -1.
        -13    1    5    5    0    0  0.12278207022E+02 -0.10156773691E+03 -0.26338200218E+02  0.10564307994E+03  0.00000000000E+00 0.  1.
         14    1    5    5    0    0 -0.54905431268E+02 -0.12709758602E+03 -0.93764040955E+02  0.16721273316E+03  0.00000000000E+00 0. -1.
          5    1    4    4  501    0  0.10992512670E+03  0.28347979472E+03 -0.16985728318E+03  0.34830721230E+03  0.47000000000E+01 0. -1.
         -5    1    4    4    0  501  0.14387658093E+03  0.17754598693E+03 -0.23083387602E+03  0.32485291492E+03  0.47000000000E+01 0. -1.
          1    1    1    2  502    0 -0.23188490537E+03 -0.66814750050E+02  0.14535900580E+03  0.28171627701E+03  0.00000000000E+00 0. -1.
          1    1    1    2  503    0 -0.77897738096E+01 -0.29446760346E+02 -0.45468454555E+03  0.45570366274E+03  0.00000000000E+00 0. -1.
<mgrwt>
<rscale>  0 0.86197249E+02</rscale>
<asrwt>0</asrwt>
<pdfrwt beam="1">  1        2 0.64399487E-01 0.24392788E+03</pdfrwt>
<pdfrwt beam="2">  1        2 0.26986363E+00 0.30459683E+02</pdfrwt>
<totfact> 0.14654927E+02</totfact>
</mgrwt>
</event>
<event>
13    1  0.2038932E-008  0.7351899E+02  0.7546771E-02  0.1409450E+00
         -1   -1    0    0    0  501 -0.00000000000E+00  0.00000000000E+00  0.14986719844E+04  0.14986719844E+04  0.00000000000E+00 0.  1.
          2   -1    0    0  503    0  0.00000000000E+00 -0.00000000000E+00 -0.28877419406E+04  0.28877419406E+04  0.00000000000E+00 0. -1.
         24    2    1    2    0    0  0.20593682527E+03 -0.38434067730E+03 -0.35131141437E+03  0.56797598222E+03  0.95127673616E+02 0.  0.
         25    2    1    2    0    0  0.12765925795E+02  0.36296792896E+03 -0.95281329632E+03  0.10273198521E+04  0.12499685822E+03 0.  0.
         24    2    1    2    0    0 -0.15633053649E+03  0.87542269572E+02 -0.55838923229E+03  0.59288479496E+03  0.87240814758E+02 0.  0.
        -11    1    5    5    0    0 -0.10489569929E+03  0.10068540821E+03 -0.38452294892E+03  0.41109434124E+03  0.00000000000E+00 0.  1.
         12    1    5    5    0    0 -0.51434837201E+02 -0.13143138635E+02 -0.17386628337E+03  0.18179045372E+03  0.00000000000E+00 0. -1.
        -13    1    3    3    0    0  0.12211809572E+03 -0.17990077876E+03 -0.22750332968E+03  0.31469808470E+03  0.00000000000E+00 0.  1.
         14    1    3    3    0    0  0.83818729546E+02 -0.20443989853E+03 -0.12380808469E+03  0.25327789752E+03  0.00000000000E+00 0. -1.
          5    1    4    4  502    0 -0.56122087632E+02  0.16250616287E+03 -0.43791332839E+03  0.47047647643E+03  0.47000000000E+01 0. -1.
         -5    1    4    4    0  502  0.68888013427E+02  0.20046176608E+03 -0.51489996793E+03  0.55684337567E+03  0.47000000000E+01 0. -1.
          1    1    1    2  503    0 -0.17974182092E+02 -0.71228198329E+02 -0.86045544198E+03  0.86358560380E+03  0.00000000000E+00 0. -1.
         -2    1    1    2    0  501 -0.44398032484E+02  0.50586770971E+01  0.13338994287E+04  0.13346476919E+04  0.00000000000E+00 0.  1.
<mgrwt>
<rscale>  0 0.57316819E+02</rscale>
<asrwt>0</asrwt>
<pdfrwt beam="2">  1        2 0.42466793E+00 0.73518992E+02</pdfrwt>
<pdfrwt beam="1">  1       -1 0.22039294E+00 0.44685294E+02</pdfrwt>
<totfact> 0.58382911E-01</totfact>
</mgrwt>
</event>
<event>
13    1  0.2038932E-008  0.1073989E+03  0.7546771E-02  0.1360901E+00
         -3   -1    0    0    0  501 -0.00000000000E+00  0.00000000000E+00  0.49015858029E+03  0.49015858029E+03  0.00000000000E+00 0.  1.
          2   -1    0    0  503    0  0.00000000000E+00 -0.00000000000E+00 -0.30074350191E+04  0.30074350191E+04  0.00000000000E+00 0. -1.
         24    2    1    2    0    0  0.12059518537E+01 -0.14640072702E+02  0.55480967702E+02  0.98647015767E+02  0.80232847974E+02 0.  0.
         25    2    1    2    0    0  0.24520655424E+02 -0.81330695361E+01 -0.88881602929E+02  0.15554034898E+03  0.12500180582E+03 0.  0.
         24    2    1    2    0    0 -0.12013047772E+03 -0.27007868383E+02 -0.16040201446E+04  0.16109970765E+04  0.85265466144E+02 0.  0.
        -11    1    5    5    0    0 -0.19493202133E+02 -0.78001819194E+01 -0.59741782400E+02  0.63323836994E+02  0.00000000000E+00 0.  1.
         12    1    5    5    0    0 -0.10063727558E+03 -0.19207686464E+02 -0.15442783622E+04  0.15476732395E+04  0.00000000000E+00 0. -1.
        -11    1    3    3    0    0  0.23551632833E+02  0.10454697417E+02  0.59466927124E+02  0.64809686998E+02  0.00000000000E+00 0.  1.
         12    1    3    3    0    0 -0.22345680979E+02 -0.25094770119E+02 -0.39859594213E+01  0.33837328770E+02  0.00000000000E+00 0. -1.
          5    1    4    4  502    0  0.71942505158E+02 -0.83731147772E+01 -0.78221770454E+02  0.10670786509E+03  0.47000000000E+01 0.  1.
         -5    1    4    4    0  502 -0.47421849734E+02  0.24004524109E+00 -0.10659832475E+02  0.48832483884E+02  0.47000000000E+01 0.  1.
          1    1    1    2  503    0 -0.44005325690E+02  0.10819773129E+02 -0.12419674600E+04  0.12427939121E+04  0.00000000000E+00 0. -1.
         -4    1    1    2    0  501  0.13840919613E+03  0.38961237492E+02  0.36211180096E+03  0.38961524610E+03  0.00000000000E+00 0.  1.
<mgrwt>
<rscale>  0 0.69763050E+02</rscale>
<asrwt>0</asrwt>
<pdfrwt beam="2">  1        2 0.44226984E+00 0.45315959E+02</pdfrwt>
<pdfrwt beam="1">  1       -3 0.72082146E-01 0.10739888E+03</pdfrwt>
<totfact> 0.37033765E+00</totfact>
</mgrwt>
</event>
<event>
13    1  0.2038932E-008  0.1398374E+03  0.7546771E-02  0.1261362E+00
          2   -1    0    0  503    0  0.00000000000E+00  0.00000000000E+00  0.43629295472E+03  0.43629295472E+03  0.00000000000E+00 0. -1.
         -3   -1    0    0    0  501 -0.00000000000E+00 -0.00000000000E+00 -0.10464490623E+04  0.10464490623E+04  0.00000000000E+00 0.  1.
         24    2    1    2    0    0 -0.84365320883E+02 -0.57405881749E+02 -0.44216795869E+03  0.46133595415E+03  0.83098834394E+02 0.  0.
         25    2    1    2    0    0 -0.71568746846E+02  0.48914950404E+02  0.59305305446E+02  0.16329847130E+03  0.12503804852E+03 0.  0.
         24    2    1    2    0    0 -0.19805572970E+02  0.63040471698E+02  0.15898863983E+01  0.10338287201E+03  0.79492947445E+02 0.  0.
        -11    1    5    5    0    0 -0.49397281935E+02  0.26042308367E+02 -0.19370436478E+01  0.55875266672E+02  0.00000000000E+00 0.  1.
         12    1    5    5    0    0  0.29591708965E+02  0.36998163331E+02  0.35269300461E+01  0.47507605337E+02  0.00000000000E+00 0. -1.
        -13    1    3    3    0    0  0.57570640314E+01 -0.35746531518E+02 -0.86132347173E+02  0.93433075146E+02  0.00000000000E+00 0.  1.
         14    1    3    3    0    0 -0.90122384914E+02 -0.21659350232E+02 -0.35603561151E+03  0.36790287901E+03  0.00000000000E+00 0. -1.
          5    1    4    4  502    0 -0.39659499260E+02  0.89600947201E+02  0.25551671209E+02  0.10137151238E+03  0.47000000000E+01 0. -1.
         -5    1    4    4    0  502 -0.31909247586E+02 -0.40685996797E+02  0.33753634237E+02  0.61926958920E+02  0.47000000000E+01 0. -1.
          1    1    1    2  503    0  0.21468103629E+03  0.21970635717E+02  0.21380828882E+03  0.30378387143E+03  0.00000000000E+00 0. -1.
         -4    1    1    2    0  501 -0.38941395588E+02 -0.76520176070E+02 -0.44269162951E+03  0.45094084809E+03  0.00000000000E+00 0.  1.
<mgrwt>
<rscale>  0 0.10957325E+03</rscale>
<asrwt>0</asrwt>
<pdfrwt beam="1">  1        2 0.64160730E-01 0.13983737E+03</pdfrwt>
<pdfrwt beam="2">  1       -3 0.15388956E+00 0.85859010E+02</pdfrwt>
<totfact> 0.15337848E+01</totfact>
</mgrwt>
</event>
<event>
13    1  0.2038932E-008  0.1509662E+03  0.7546771E-02  0.1213461E+00
          2   -1    0    0  503    0  0.00000000000E+00  0.00000000000E+00  0.19503331099E+04  0.19503331099E+04  0.00000000000E+00 0. -1.
          2   -1    0    0  502    0 -0.00000000000E+00 -0.00000000000E+00 -0.90377146588E+03  0.90377146588E+03  0.00000000000E+00 0. -1.
         24    2    1    2    0    0 -0.46284094157E+02  0.10321799429E+02 -0.84091939048E+02  0.11395205763E+03  0.60538089741E+02 0.  0.
         25    2    1    2    0    0  0.27329940930E+03  0.87058332392E+02 -0.43924485295E+02  0.31595454224E+03  0.12500476786E+03 0.  0.
         24    2    1    2    0    0  0.36718191295E+02  0.79106297162E+02  0.11895108494E+03  0.16665529103E+03  0.77579595245E+02 0.  0.
        -11    1    5    5    0    0  0.19884075749E+02 -0.82747410206E+01  0.50636374545E+01  0.22124380931E+02  0.00000000000E+00 0.  1.
         12    1    5    5    0    0  0.16834115547E+02  0.87381038182E+02  0.11388744749E+03  0.14453091010E+03  0.00000000000E+00 0. -1.
        -13    1    3    3    0    0  0.48063173967E+01 -0.46489803345E+01 -0.50632417568E+02  0.51072060991E+02  0.00000000000E+00 0.  1.
         14    1    3    3    0    0 -0.51090411554E+02  0.14970779764E+02 -0.33459521480E+02  0.62879996638E+02  0.00000000000E+00 0. -1.
          5    1    4    4  501    0  0.28579730885E+03  0.81600360258E+02 -0.35811965962E+02  0.29940492222E+03  0.47000000000E+01 0.  1.
         -5    1    4    4    0  501 -0.12497899549E+02  0.54579721344E+01 -0.81125193328E+01  0.16549620023E+02  0.47000000000E+01 0.  1.
          1    1    1    2  502    0 -0.63782673160E+02 -0.20412226335E+03 -0.57551232809E+03  0.61396137303E+03  0.00000000000E+00 0. -1.
          1    1    1    2  503    0 -0.19995083328E+03  0.27635834363E+02  0.16311393115E+04  0.16435813118E+04  0.00000000000E+00 0. -1.
<mgrwt>
<rscale>  0 0.13990163E+03</rscale>
<asrwt>0</asrwt>
<pdfrwt beam="1">  1        2 0.28681369E+00 0.15096620E+03</pdfrwt>
<pdfrwt beam="2">  1        2 0.13290757E+00 0.12964799E+03</pdfrwt>
<totfact> 0.47937516E+01</totfact>
</mgrwt>
</event>
<event>
13    1  0.2038932E-008  0.2066756E+03  0.7546771E-02  0.1297217E+00
          2   -1    0    0  503    0  0.00000000000E+00  0.00000000000E+00  0.37788834300E+04  0.37788834300E+04  0.00000000000E+00 0. -1.
          2   -1    0    0  502    0 -0.00000000000E+00 -0.00000000000E+00 -0.18476698799E+04  0.18476698799E+04  0.00000000000E+00 0. -1.
         24    2    1    2    0    0 -0.41487755027E+02 -0.10765048130E+02 -0.32413790182E+03  0.33541111655E+03  0.74820569587E+02 0.  0.
         25    2    1    2    0    0  0.25516085902E+03  0.53662796908E+02  0.14789670116E+03  0.32478664970E+03  0.12500469537E+03 0.  0.
         24    2    1    2    0    0 -0.22046761782E+02 -0.36124466882E+02  0.47453160790E+02  0.10454674065E+03  0.82989045654E+02 0.  0.
        -11    1    3    3    0    0  0.64100772560E+01 -0.32200994022E+02 -0.10176167586E+03  0.10692722656E+03  0.00000000000E+00 0.  1.
         12    1    3    3    0    0 -0.47897832283E+02  0.21435945891E+02 -0.22237622596E+03  0.22848388999E+03  0.00000000000E+00 0. -1.
        -13    1    5    5    0    0 -0.35003907950E+02  0.15445121953E+02  0.29881260997E+02  0.48546010369E+02  0.00000000000E+00 0.  1.
         14    1    5    5    0    0  0.12957146168E+02 -0.51569588835E+02  0.17571899793E+02  0.56000730279E+02  0.00000000000E+00 0. -1.
          5    1    4    4  501    0  0.22407316119E+03  0.59631044153E+02  0.16855022408E+03  0.28669829269E+03  0.47000000000E+01 0.  1.
         -5    1    4    4    0  501  0.31087697823E+02 -0.59682472456E+01 -0.20653522916E+02  0.38088357013E+02  0.47000000000E+01 0.  1.
          1    1    1    2  502    0  0.11098796045E+02 -0.39761292264E+02 -0.13975512582E+04  0.13981608144E+04  0.00000000000E+00 0. -1.
          1    1    1    2  503    0 -0.20272513825E+03  0.32988010369E+02  0.34575528482E+04  0.34636479885E+04  0.00000000000E+00 0. -1.
<mgrwt>
<rscale>  0 0.92367920E+02</rscale>
<asrwt>0</asrwt>
<pdfrwt beam="1">  1        2 0.55571815E+00 0.20667561E+03</pdfrwt>
<pdfrwt beam="2">  1        2 0.27171616E+00 0.41281275E+02</pdfrwt>
<totfact> 0.16601711E+00</totfact>
</mgrwt>
</event>
<event>
13    1  0.2038932E-008  0.8861906E+02  0.7546771E-02  0.1414668E+00
          2   -1    0    0  503    0  0.00000000000E+00  0.00000000000E+00  0.18481905240E+04  0.18481905240E+04  0.00000000000E+00 0. -1.
          2   -1    0    0  502    0 -0.00000000000E+00 -0.00000000000E+00 -0.12886555118E+04  0.12886555118E+04  0.00000000000E+00 0. -1.
         24    2    1    2    0    0 -0.43539508427E+02 -0.10205622066E+03  0.89962387543E+01  0.13769244390E+03  0.81037743225E+02 0.  0.
         25    2    1    2    0    0  0.27806158809E+02  0.16335172906E+03  0.30709097112E+03  0.37065614647E+03  0.12499657802E+03 0.  0.
         24    2    1    2    0    0 -0.63782058390E+02  0.26529634208E+02 -0.63750106494E+02  0.12373852085E+03  0.80468459658E+02 0.  0.
        -13    1    3    3    0    0  0.61430391473E+01 -0.49467115310E+01  0.26111891935E+02  0.27277056025E+02  0.00000000000E+00 0.  1.
         14    1    3    3    0    0 -0.49682547574E+02 -0.97109509126E+02 -0.17115653181E+02  0.11041538788E+03  0.00000000000E+00 0. -1.
        -13    1    5    5    0    0 -0.32643418936E+02  0.38096022408E+02  0.18553461525E+01  0.50203008202E+02  0.00000000000E+00 0.  1.
         14    1    5    5    0    0 -0.31138639454E+02 -0.11566388200E+02 -0.65605452647E+02  0.73535512646E+02  0.00000000000E+00 0. -1.
          5    1    4    4  501    0  0.41490052537E+02  0.17239115406E+03  0.22345014107E+03  0.28529316501E+03  0.47000000000E+01 0.  1.
         -5    1    4    4    0  501 -0.13683893728E+02 -0.90394249978E+01  0.83640830049E+02  0.85362981457E+02  0.47000000000E+01 0.  1.
          1    1    1    2  502    0  0.70613319071E+02 -0.53359731123E+02 -0.10967722308E+04  0.11003375973E+04  0.00000000000E+00 0. -1.
          1    1    1    2  503    0  0.89020889365E+01 -0.34465411490E+02  0.14039701396E+04  0.14044213273E+04  0.00000000000E+00 0. -1.
<mgrwt>
<rscale>  0 0.56165199E+02</rscale>
<asrwt>0</asrwt>
<pdfrwt beam="1">  1        2 0.27179273E+00 0.35596514E+02</pdfrwt>
<pdfrwt beam="2">  1        2 0.18950816E+00 0.88619061E+02</pdfrwt>
<totfact> 0.38711492E+01</totfact>
</mgrwt>
</event>
<event>
13    1  0.2038932E-008  0.9636092E+02  0.7546771E-02  0.1440446E+00
          2   -1    0    0  502    0  0.00000000000E+00  0.00000000000E+00  0.20538282764E+04  0.20538282764E+04  0.00000000000E+00 0. -1.
          2   -1    0    0  503    0 -0.00000000000E+00 -0.00000000000E+00 -0.42529264947E+03  0.42529264947E+03  0.00000000000E+00 0. -1.
         24    2    1    2    0    0  0.18263475516E+03  0.57878715342E+02  0.74539992981E+02  0.22009932425E+03  0.78626347360E+02 0.  0.
         25    2    1    2    0    0 -0.13106541667E+03 -0.11341038858E+03  0.10053633624E+04  0.10278229476E+04  0.12499784535E+03 0.  0.
         24    2    1    2    0    0  0.21988678963E+02  0.28871587767E+02  0.50825367281E+02  0.10134830441E+03  0.79819736066E+02 0.  0.
        -11    1    5    5    0    0 -0.13624915855E+01 -0.22327985638E+02 -0.40671011508E+01  0.22736240624E+02  0.00000000000E+00 0.  1.
         12    1    5    5    0    0  0.23351170549E+02  0.51199573405E+02  0.54892468432E+02  0.78612063790E+02  0.00000000000E+00 0. -1.
        -13    1    3    3    0    0  0.14309400784E+02  0.31163955850E+02  0.54262898411E+00  0.34296436276E+02  0.00000000000E+00 0.  1.
         14    1    3    3    0    0  0.16832535438E+03  0.26714759493E+02  0.73997363997E+02  0.18580288798E+03  0.00000000000E+00 0. -1.
          5    1    4    4  501    0 -0.80475658239E+01  0.25949017436E+01  0.37600015459E+03  0.37612458453E+03  0.47000000000E+01 0.  1.
         -5    1    4    4    0  501 -0.12301785084E+03 -0.11600529033E+03  0.62936320783E+03  0.65169836304E+03  0.47000000000E+01 0.  1.
          1    1    1    2  502    0  0.73988248024E+01 -0.25869416771E+02  0.80623130437E+03  0.80668016306E+03  0.00000000000E+00 0. -1.
          1    1    1    2  503    0 -0.80956842262E+02  0.52529502246E+02 -0.30842440012E+03  0.32317018659E+03  0.00000000000E+00 0. -1.
<mgrwt>
<rscale>  0 0.50919076E+02</rscale>
<asrwt>0</asrwt>
<pdfrwt beam="1">  1        2 0.30203356E+00 0.26906678E+02</pdfrwt>
<pdfrwt beam="2">  1        2 0.62543038E-01 0.96360921E+02</pdfrwt>
<totfact> 0.12319712E+02</totfact>
</mgrwt>
</event>
<event>
13    1  0.2038932E-008  0.1070813E+03  0.7546771E-02  0.1320968E+00
          2   -1    0    0  502    0  0.00000000000E+00  0.00000000000E+00  0.34326375387E+04  0.34326375387E+04  0.00000000000E+00 0. -1.
          2   -1    0    0  503    0 -0.00000000000E+00 -0.00000000000E+00 -0.78701482340E+03  0.78701482340E+03  0.00000000000E+00 0. -1.
         24    2    1    2    0    0 -0.72812952115E+02  0.99377919300E+02  0.21225143475E+03  0.25819878508E+03  0.80238670372E+02 0.  0.
         25    2    1    2    0    0 -0.93679620521E+02 -0.12523649318E+03  0.99600148741E+03  0.10159250187E+04  0.12499852073E+03 0.  0.
         24    2    1    2    0    0  0.30973374731E+02 -0.51192585010E+02 -0.77046906754E+01  0.10209511597E+03  0.82365160981E+02 0.  0.
        -13    1    5    5    0    0  0.55054244446E+02 -0.51235831496E+02  0.40144749557E+01  0.75313984556E+02  0.00000000000E+00 0.  1.
         14    1    5    5    0    0 -0.24080869715E+02  0.43246485658E-01 -0.11719165631E+02  0.26781131410E+02  0.00000000000E+00 0. -1.
        -13    1    3    3    0    0 -0.23785082729E+02  0.50292257490E+02  0.30037179573E+02  0.63223994500E+02  0.00000000000E+00 0.  1.
         14    1    3    3    0    0 -0.49027869386E+02  0.49085661810E+02  0.18221425517E+03  0.19497479058E+03  0.00000000000E+00 0. -1.
          5    1    4    4  501    0  0.28460521894E+01  0.20892765213E+02  0.62558883882E+02  0.66183922548E+02  0.47000000000E+01 0.  1.
         -5    1    4    4    0  501 -0.96525672711E+02 -0.14612925839E+03  0.93344260352E+03  0.94974109615E+03  0.47000000000E+01 0.  1.
          1    1    1    2  502    0  0.10235410041E+03  0.22071795483E+02  0.21414980312E+04  0.21440562827E+04  0.00000000000E+00 0. -1.
          1    1    1    2  503    0  0.33165097491E+02  0.54979363408E+02 -0.69642354735E+03  0.69937715961E+03  0.00000000000E+00 0. -1.
<mgrwt>
<rscale>  0 0.82918422E+02</rscale>
<asrwt>0</asrwt>
<pdfrwt beam="1">  1        2 0.50479963E+00 0.10708129E+03</pdfrwt>
<pdfrwt beam="2">  1        2 0.11573748E+00 0.64207897E+02</pdfrwt>
<totfact> 0.10319871E+01</totfact>
</mgrwt>
</event>
<event>
13    1  0.2038932E-008  0.1297459E+03  0.7546771E-02  0.1338304E+00
          2   -1    0    0  502    0  0.00000000000E+00  0.00000000000E+00  0.19527559525E+04  0.19527559525E+04  0.00000000000E+00 0. -1.
          2   -1    0    0  503    0 -0.00000000000E+00 -0.00000000000E+00 -0.24853637723E+04  0.24853637723E+04  0.00000000000E+00 0. -1.
         24    2    1    2    0    0 -0.32851220133E+03  0.46967780742E+03 -0.77640236834E+03  0.96888070081E+03  0.86091031193E+02 0.  0.
         25    2    1    2    0    0  0.57338609673E+03 -0.65764671997E+03  0.15115664930E+03  0.89428420025E+03  0.12500029593E+03 0.  0.
         24    2    1    2    0    0 -0.19996375822E+03  0.57806457253E+02  0.19530689416E+02  0.22437037925E+03  0.81446474175E+02 0.  0.
        -11    1    3    3    0    0 -0.20228117323E+02  0.39935789773E+02 -0.10532579500E+03  0.11444460287E+03  0.00000000000E+00 0.  1.
         12    1    3    3    0    0 -0.30828408401E+03  0.42974201764E+03 -0.67107657334E+03  0.85443609794E+03  0.00000000000E+00 0. -1.
        -13    1    5    5    0    0 -0.43625074270E+02  0.23277765144E+02  0.39146402651E+02  0.63066966755E+02  0.00000000000E+00 0.  1.
         14    1    5    5    0    0 -0.15633868395E+03  0.34528692109E+02 -0.19615713235E+02  0.16130341249E+03  0.00000000000E+00 0. -1.
          5    1    4    4  501    0  0.56817409777E+03 -0.63670000432E+03  0.16363629168E+03  0.86891174859E+03  0.47000000000E+01 0. -1.
         -5    1    4    4    0  501  0.52119989616E+01 -0.20946715648E+02 -0.12479642377E+02  0.25372451665E+02  0.47000000000E+01 0. -1.
          1    1    1    2  502    0  0.58013213504E+00  0.12974403563E+03  0.12079160103E+04  0.12148641650E+04  0.00000000000E+00 0. -1.
          1    1    1    2  503    0 -0.45490269320E+02  0.41841967430E+00 -0.11348088005E+04  0.11357202795E+04  0.00000000000E+00 0. -1.
<mgrwt>
<rscale>  0 0.76827257E+02</rscale>
<asrwt>0</asrwt>
<pdfrwt beam="1">  1        2 0.28716999E+00 0.12974594E+03</pdfrwt>
<pdfrwt beam="2">  1        2 0.36549467E+00 0.45492194E+02</pdfrwt>
<totfact> 0.86625810E+00</totfact>
</mgrwt>
</event>
<event>
13    1  0.2038932E-008  0.1181846E+03  0.7546771E-02  0.1263070E+00
          2   -1    0    0  502    0  0.00000000000E+00  0.00000000000E+00  0.16212421392E+04  0.16212421392E+04  0.00000000000E+00 0. -1.
          2   -1    0    0  503    0 -0.00000000000E+00 -0.00000000000E+00 -0.13992941241E+04  0.13992941241E+04  0.00000000000E+00 0. -1.
         24    2    1    2    0    0  0.49562409461E+02 -0.29752046225E+02 -0.30618387982E+03  0.31896439159E+03  0.68176962069E+02 0.  0.
         25    2    1    2    0    0 -0.91010018989E+02  0.35346326215E+03  0.15104080377E+03  0.41431496252E+03  0.12499785004E+03 0.  0.
         24    2    1    2    0    0  0.19399595771E+03 -0.12210224362E+03  0.19407020494E+02  0.24365067177E+03  0.80284667925E+02 0.  0.
        -11    1    3    3    0    0  0.32452066634E+02 -0.48904086220E+02 -0.25538681902E+03  0.26204422071E+03  0.00000000000E+00 0.  1.
         12    1    3    3    0    0  0.17110342827E+02  0.19152039995E+02 -0.50797060799E+02  0.56920170884E+02  0.00000000000E+00 0. -1.
        -13    1    5    5    0    0  0.13195929692E+03 -0.36594830963E+02  0.16913027481E+02  0.13798002825E+03  0.00000000000E+00 0.  1.
         14    1    5    5    0    0  0.62036660793E+02 -0.85507412652E+02  0.24939930134E+01  0.10567064352E+03  0.00000000000E+00 0. -1.
          5    1    4    4  501    0 -0.40878301395E+02  0.34300410242E+02 -0.80357080269E+01  0.54168406579E+02  0.47000000000E+01 0. -1.
         -5    1    4    4    0  501 -0.50131717593E+02  0.31916285191E+03  0.15907651180E+03  0.36014655594E+03  0.47000000000E+01 0. -1.
          1    1    1    2  502    0 -0.33929696554E+02 -0.93943903816E+02  0.11909248714E+04  0.11951061588E+04  0.00000000000E+00 0. -1.
          1    1    1    2  503    0 -0.11861865163E+03 -0.10766506850E+03 -0.83324080079E+03  0.84850007872E+03  0.00000000000E+00 0. -1.
<mgrwt>
<rscale>  0 0.10866099E+03</rscale>
<asrwt>0</asrwt>
<pdfrwt beam="1">  1        2 0.23841796E+00 0.99904843E+02</pdfrwt>
<pdfrwt beam="2">  1        2 0.20577855E+00 0.11818456E+03</pdfrwt>
<totfact> 0.38645978E+01</totfact>
</mgrwt>
</event>
<event>
13    1  0.2038932E-008  0.1081775E+03  0.7546771E-02  0.1303687E+00
          2   -1    0    0  502    0  0.00000000000E+00  0.00000000000E+00  0.40318621416E+04  0.40318621416E+04  0.00000000000E+00 0. -1.
          2   -1    0    0  503    0 -0.00000000000E+00 -0.00000000000E+00 -0.44506215333E+03  0.44506215333E+03  0.00000000000E+00 0. -1.
         24    2    1    2    0    0  0.84360809194E+02 -0.64444237298E+02 -0.18542230085E+03  0.22853531207E+03  0.81099650828E+02 0.  0.
         25    2    1    2    0    0 -0.10026616149E+03  0.24216388815E+02  0.82745273840E+02  0.18196043777E+03  0.12499233553E+03 0.  0.
         24    2    1    2    0    0  0.75003039372E+01 -0.58464178539E+02  0.15157450265E+04  0.15190317289E+04  0.80623155425E+02 0.  0.
        -13    1    5    5    0    0  0.26323307817E+02 -0.54186223577E+02  0.14242113140E+04  0.14254848054E+04  0.00000000000E+00 0.  1.
         14    1    5    5    0    0 -0.18823003880E+02 -0.42779549615E+01  0.91533712451E+02  0.93546923460E+02  0.00000000000E+00 0. -1.
        -13    1    3    3    0    0  0.32613709944E+01 -0.23863072159E+02 -0.10369798767E+03  0.10645823312E+03  0.00000000000E+00 0.  1.
         14    1    3    3    0    0  0.81099438199E+02 -0.40581165139E+02 -0.81724313181E+02  0.12207707895E+03  0.00000000000E+00 0. -1.
          5    1    4    4  501    0 -0.26534894766E+02  0.40461226111E+02 -0.21503975572E+02  0.53157524623E+02  0.47000000000E+01 0.  1.
         -5    1    4    4    0  501 -0.73731266727E+02 -0.16244837297E+02  0.10424924941E+03  0.12880291315E+03  0.47000000000E+01 0.  1.
          1    1    1    2  502    0  0.61507233793E+02  0.15066764766E+03  0.23502496204E+04  0.23558771526E+04  0.00000000000E+00 0. -1.
          1    1    1    2  503    0 -0.53102185431E+02 -0.51975620634E+02 -0.17651763170E+03  0.19151966358E+03  0.00000000000E+00 0. -1.
<mgrwt>
<rscale>  0 0.89655896E+02</rscale>
<asrwt>0</asrwt>
<pdfrwt beam="1">  1        2 0.59292088E+00 0.10817745E+03</pdfrwt>
<pdfrwt beam="2">  1        2 0.65450319E-01 0.74305499E+02</pdfrwt>
<totfact> 0.80943495E+00</totfact>
</mgrwt>
</event>
<event>
13    1  0.2038932E-008  0.6377075E+02  0.7546771E-02  0.1465227E+00
          2   -1    0    0  503    0  0.00000000000E+00  0.00000000000E+00  0.20031328030E+04  0.20031328030E+04  0.00000000000E+00 0. -1.
          2   -1    0    0  502    0 -0.00000000000E+00 -0.00000000000E+00 -0.16395232302E+04  0.16395232302E+04  0.00000000000E+00 0. -1.
         24    2    1    2    0    0  0.70031432616E+03  0.44086130546E+03 -0.12916637188E+03  0.84135000688E+03  0.79918936290E+02 0.  0.
         25    2    1    2    0    0 -0.12458011217E+03 -0.62278900571E+02  0.34877397578E+02  0.19036783325E+03  0.12499845307E+03 0.  0.
         24    2    1    2    0    0 -0.56307654283E+03 -0.40629554110E+03 -0.68720956054E+02  0.70099313639E+03  0.67361321798E+02 0.  0.
        -13    1    5    5    0    0 -0.14995655310E+03 -0.80562721866E+02  0.15294989525E+01  0.17023413094E+03  0.00000000000E+00 0.  1.
         14    1    5    5    0    0 -0.41311998973E+03 -0.32573281923E+03 -0.70250455007E+02  0.53075900545E+03  0.00000000000E+00 0. -1.
        -13    1    3    3    0    0  0.50627827013E+03  0.34455335701E+03 -0.12305411944E+03  0.62464151235E+03  0.00000000000E+00 0.  1.
         14    1    3    3    0    0  0.19403605602E+03  0.96307948448E+02 -0.61122524340E+01  0.21670849453E+03  0.00000000000E+00 0. -1.
          5    1    4    4  501    0 -0.11342720149E+03 -0.76787440821E+02  0.67418352219E+02  0.15273953425E+03  0.47000000000E+01 0. -1.
         -5    1    4    4    0  501 -0.11152910675E+02  0.14508540251E+02 -0.32540954641E+02  0.37628299000E+02  0.47000000000E+01 0. -1.
          1    1    1    2  502    0 -0.34123672012E+02  0.53947453784E+02 -0.68995338926E+03  0.69290001596E+03  0.00000000000E+00 0. -1.
          1    1    1    2  503    0  0.21466000845E+02 -0.26234317581E+02  0.12165728924E+04  0.12170450407E+04  0.00000000000E+00 0. -1.
<mgrwt>
<rscale>  0 0.46493631E+02</rscale>
<asrwt>0</asrwt>
<pdfrwt beam="1">  1        2 0.29457836E+00 0.33897325E+02</pdfrwt>
<pdfrwt beam="2">  1        2 0.24110636E+00 0.63770748E+02</pdfrwt>
<totfact> 0.22808913E+01</totfact>
</mgrwt>
</event>
<event>
13    1  0.2038932E-008  0.1166830E+03  0.7546771E-02  0.1355135E+00
          2   -1    0    0  503    0  0.00000000000E+00  0.00000000000E+00  0.24619104044E+04  0.24619104044E+04  0.00000000000E+00 0. -1.
          2   -1    0    0  502    0 -0.00000000000E+00 -0.00000000000E+00 -0.16818896703E+04  0.16818896703E+04  0.00000000000E+00 0. -1.
         24    2    1    2    0    0 -0.64076809552E+02  0.22592400793E+02 -0.10128106727E+04  0.10185047641E+04  0.83368109193E+02 0.  0.
         25    2    1    2    0    0  0.32981164672E+02 -0.13646481848E+03  0.95528652124E+03  0.97360295650E+03  0.12497989974E+03 0.  0.
         24    2    1    2    0    0  0.97949131574E+01 -0.19775529655E+02  0.12180630869E+03  0.14946333758E+03  0.83758584913E+02 0.  0.
        -13    1    3    3    0    0 -0.17797111137E+02  0.50379996664E+02 -0.47826955601E+03  0.48124489549E+03  0.00000000000E+00 0.  1.
         14    1    3    3    0    0 -0.46279698415E+02 -0.27787595872E+02 -0.53454111671E+03  0.53725986862E+03  0.00000000000E+00 0. -1.
        -13    1    5    5    0    0  0.60234251991E+01  0.28886509191E+02  0.17511138214E+02  0.34312563674E+02  0.00000000000E+00 0.  1.
         14    1    5    5    0    0  0.37714879583E+01 -0.48662038846E+02  0.10429517048E+03  0.11515077391E+03  0.00000000000E+00 0. -1.
          5    1    4    4  501    0  0.62693257605E+02 -0.72972249616E+02  0.75967132405E+03  0.76575322680E+03  0.47000000000E+01 0. -1.
         -5    1    4    4    0  501 -0.29712092933E+02 -0.63492568863E+02  0.19561519719E+03  0.20784972971E+03  0.47000000000E+01 0. -1.
          1    1    1    2  502    0  0.53852571455E+02  0.10436150854E+03 -0.63752806259E+03  0.64825415888E+03  0.00000000000E+00 0. -1.
          1    1    1    2  503    0 -0.32551839733E+02  0.29286438805E+02  0.13532666394E+04  0.13539748577E+04  0.00000000000E+00 0. -1.
<mgrwt>
<rscale>  0 0.71478797E+02</rscale>
<asrwt>0</asrwt>
<pdfrwt beam="1">  1        2 0.36204565E+00 0.43787187E+02</pdfrwt>
<pdfrwt beam="2">  1        2 0.24733671E+00 0.11668296E+03</pdfrwt>
<totfact> 0.12228988E+01</totfact>
</mgrwt>
</event>
<event>
13    1  0.2038932E-008  0.1008273E+03  0.7546771E-02  0.1371646E+00
          2   -1    0    0  502    0  0.00000000000E+00  0.00000000000E+00  0.32831100710E+04  0.32831100710E+04  0.00000000000E+00 0. -1.
          2   -1    0    0  503    0 -0.00000000000E+00 -0.00000000000E+00 -0.13681693763E+03  0.13681693763E+03  0.00000000000E+00 0. -1.
         24    2    1    2    0    0  0.64064115606E+02 -0.12221208417E+02  0.12408131462E+03  0.16156843896E+03  0.80340643420E+02 0.  0.
         25    2    1    2    0    0  0.14806568252E+03  0.47273950216E+02  0.77829228527E+03  0.80344332900E+03  0.12499611552E+03 0.  0.
         24    2    1    2    0    0 -0.81379186979E+02  0.25321847630E+02  0.15162715598E+03  0.19216678342E+03  0.81691555134E+02 0.  0.
        -13    1    3    3    0    0 -0.14465119205E+02  0.71909923585E+00  0.39520632434E+00  0.14488373455E+02  0.00000000000E+00 0.  1.
         14    1    3    3    0    0  0.78529234811E+02 -0.12940307652E+02  0.12368610830E+03  0.14708006550E+03  0.00000000000E+00 0. -1.
        -13    1    5    5    0    0 -0.76545427194E+02 -0.14358626506E+02  0.94794853957E+02  0.12268429776E+03  0.00000000000E+00 0.  1.
         14    1    5    5    0    0 -0.48337597857E+01  0.39680474136E+02  0.56832302019E+02  0.69482485664E+02  0.00000000000E+00 0. -1.
          5    1    4    4  501    0  0.16735113662E+03  0.49756035221E+02  0.73891951924E+03  0.75928006156E+03  0.47000000000E+01 0. -1.
         -5    1    4    4    0  501 -0.19285454105E+02 -0.24820850046E+01  0.39372766028E+02  0.44163267437E+02  0.47000000000E+01 0. -1.
          1    1    1    2  502    0 -0.95499713914E+02 -0.33810646359E+02  0.21705437359E+04  0.21729066856E+04  0.00000000000E+00 0. -1.
          1    1    1    2  503    0 -0.35250897231E+02 -0.26563943071E+02 -0.78251358410E+02  0.89841771577E+02  0.00000000000E+00 0. -1.
<mgrwt>
<rscale>  0 0.66711598E+02</rscale>
<asrwt>0</asrwt>
<pdfrwt beam="1">  1        2 0.48281026E+00 0.10082733E+03</pdfrwt>
<pdfrwt beam="2">  1        2 0.20120140E-01 0.44139198E+02</pdfrwt>
<totfact> 0.80594973E+01</totfact>
</mgrwt>
</event>
<event>
13    1  0.2038932E-008  0.1468604E+03  0.7546771E-02  0.1353629E+00
          2   -1    0    0  502    0  0.00000000000E+00  0.00000000000E+00  0.69665956580E+03  0.69665956580E+03  0.00000000000E+00 0. -1.
          2   -1    0    0  503    0 -0.00000000000E+00 -0.00000000000E+00 -0.21049160588E+04  0.21049160588E+04  0.00000000000E+00 0. -1.
         24    2    1    2    0    0  0.95294114351E+02  0.60326714734E+02 -0.27827424526E+03  0.31071126467E+03  0.79904027892E+02 0.  0.
         25    2    1    2    0    0  0.44752275933E+02  0.21363380056E+03 -0.18598385506E+03  0.31282306654E+03  0.12500443863E+03 0.  0.
         24    2    1    2    0    0 -0.23357587135E+02 -0.18358368110E+03  0.15031517908E+03  0.25197480283E+03  0.81535902256E+02 0.  0.
        -11    1    3    3    0    0  0.69661518157E+02  0.75748239677E+02 -0.17324657961E+03  0.20150657625E+03  0.00000000000E+00 0.  1.
         12    1    3    3    0    0  0.25632596194E+02 -0.15421524943E+02 -0.10502766566E+03  0.10920468842E+03  0.00000000000E+00 0. -1.
        -13    1    5    5    0    0  0.11417208114E+02 -0.21777255739E+02 -0.49061806816E+01  0.25073334790E+02  0.00000000000E+00 0.  1.
         14    1    5    5    0    0 -0.34774795249E+02 -0.16180642536E+03  0.15522135976E+03  0.22690146804E+03  0.00000000000E+00 0. -1.
          5    1    4    4  501    0 -0.36030377874E+02  0.10230537433E+03 -0.50644181429E+02  0.11979774981E+03  0.47000000000E+01 0. -1.
         -5    1    4    4    0  501  0.80782653807E+02  0.11132842622E+03 -0.13533967363E+03  0.19302531673E+03  0.47000000000E+01 0. -1.
          1    1    1    2  502    0 -0.13862972583E+03 -0.62804713785E+02  0.40173806851E+03  0.42959994024E+03  0.00000000000E+00 0. -1.
          1    1    1    2  503    0  0.21940922682E+02 -0.27572120407E+02 -0.14960516403E+04  0.14964665504E+04  0.00000000000E+00 0. -1.
<mgrwt>
<rscale>  0 0.71936629E+02</rscale>
<asrwt>0</asrwt>
<pdfrwt beam="1">  1        2 0.10244993E+00 0.14686043E+03</pdfrwt>
<pdfrwt beam="2">  1        2 0.30954649E+00 0.35236713E+02</pdfrwt>
<totfact> 0.65010956E+01</totfact>
</mgrwt>
</event>
<event>
13    1  0.2038932E-008  0.7236489E+02  0.7546771E-02  0.1418517E+00
         -3   -1    0    0    0  501 -0.00000000000E+00  0.00000000000E+00  0.34007968770E+03  0.34007968770E+03  0.00000000000E+00 0.  1.
          2   -1    0    0  503    0  0.00000000000E+00 -0.00000000000E+00 -0.20164553344E+04  0.20164553344E+04  0.00000000000E+00 0. -1.
         24    2    1    2    0    0 -0.74268390546E+01  0.30932467618E+02  0.95406756047E+02  0.12865086133E+03  0.80228545611E+02 0.  0.
         25    2    1    2    0    0 -0.70846804670E+01  0.16682736841E+03 -0.10739518833E+04  0.10940193918E+04  0.12499687389E+03 0.  0.
         24    2    1    2    0    0  0.47421075762E+02 -0.12845466180E+03  0.11570876930E+02  0.15968193031E+03  0.81333112011E+02 0.  0.
        -11    1    5    5    0    0  0.66656683389E+02 -0.72826524670E+02 -0.39669900936E+01  0.98805633171E+02  0.00000000000E+00 0.  1.
         12    1    5    5    0    0 -0.19235607627E+02 -0.55628137135E+02  0.15537867024E+02  0.60876297141E+02  0.00000000000E+00 0. -1.
        -13    1    3    3    0    0 -0.36590876711E+02  0.40447850451E+02  0.70501483180E+02  0.89136861035E+02  0.00000000000E+00 0.  1.
         14    1    3    3    0    0  0.29164037657E+02 -0.95153828333E+01  0.24905272867E+02  0.39514000297E+02  0.00000000000E+00 0. -1.
          5    1    4    4  502    0  0.38387605712E+01  0.18556819850E+03 -0.98453572201E+03  0.10018896997E+04  0.47000000000E+01 0. -1.
         -5    1    4    4    0  502 -0.10923441038E+02 -0.18740830091E+02 -0.89416161251E+02  0.92129692116E+02  0.47000000000E+01 0. -1.
          1    1    1    2  503    0 -0.61554249989E+02 -0.38160759942E+02 -0.83680652165E+03  0.83993471411E+03  0.00000000000E+00 0. -1.
         -4    1    1    2    0  501  0.28644693749E+02 -0.31144414283E+02  0.12740512522E+03  0.13424812458E+03  0.00000000000E+00 0.  1.
<mgrwt>
<rscale>  0 0.55335918E+02</rscale>
<asrwt>0</asrwt>
<pdfrwt beam="2">  1        2 0.29653755E+00 0.72364894E+02</pdfrwt>
<pdfrwt beam="1">  1       -3 0.50011718E-01 0.42314218E+02</pdfrwt>
<totfact> 0.21097766E+01</totfact>
</mgrwt>
</event>
<event>
13    1  0.2038932E-008  0.9340960E+02  0.7546771E-02  0.1300647E+00
          2   -1    0    0  502    0  0.00000000000E+00  0.00000000000E+00  0.24766464366E+04  0.24766464366E+04  0.00000000000E+00 0. -1.
          2   -1    0    0  503    0 -0.00000000000E+00 -0.00000000000E+00 -0.27919183069E+04  0.27919183069E+04  0.00000000000E+00 0. -1.
         24    2    1    2    0    0 -0.70713689701E+03 -0.68129571013E+03 -0.88229960229E+03  0.13233742740E+04  0.93061511927E+02 0.  0.
         25    2    1    2    0    0  0.12865348194E+04  0.91013173702E+03  0.23386943016E+03  0.15980700852E+04  0.12498586547E+03 0.  0.
         24    2    1    2    0    0 -0.50484280354E+03 -0.32769069385E+03 -0.15896765728E+03  0.62766249904E+03  0.80262379188E+02 0.  0.
        -13    1    3    3    0    0 -0.31881004816E+03 -0.25964839326E+03 -0.32776978565E+03  0.52582332329E+03  0.00000000000E+00 0.  1.
         14    1    3    3    0    0 -0.38832684886E+03 -0.42164731686E+03 -0.55452981664E+03  0.79755095066E+03  0.00000000000E+00 0. -1.
        -13    1    5    5    0    0 -0.22311481671E+03 -0.19226111608E+03 -0.82363940268E+02  0.30582409462E+03  0.00000000000E+00 0.  1.
         14    1    5    5    0    0 -0.28172798683E+03 -0.13542957777E+03 -0.76603717012E+02  0.32183840442E+03  0.00000000000E+00 0. -1.
          5    1    4    4  501    0  0.11592830926E+04  0.84384217588E+03  0.24251694005E+03  0.14542501376E+04  0.47000000000E+01 0. -1.
         -5    1    4    4    0  501  0.12725172683E+03  0.66289561139E+02 -0.86475098856E+01  0.14381994759E+03  0.47000000000E+01 0. -1.
          1    1    1    2  502    0 -0.88255496097E+02  0.64382857501E+01  0.11004496601E+04  0.11040017837E+04  0.00000000000E+00 0. -1.
          1    1    1    2  503    0  0.13700377211E+02  0.92416381212E+02 -0.60832370092E+03  0.61545610156E+03  0.00000000000E+00 0. -1.
<mgrwt>
<rscale>  0 0.90916543E+02</rscale>
<asrwt>0</asrwt>
<pdfrwt beam="1">  1        2 0.36421271E+00 0.88490023E+02</pdfrwt>
<pdfrwt beam="2">  1        2 0.41057622E+00 0.93409601E+02</pdfrwt>
<totfact> 0.31906005E+00</totfact>
</mgrwt>
</event>
<event>
13    1  0.2038932E-008  0.5320600E+02  0.7546771E-02  0.1506280E+00
          2   -1    0    0  503    0  0.00000000000E+00  0.00000000000E+00  0.24593499912E+04  0.24593499912E+04  0.00000000000E+00 0. -1.
          2   -1    0    0  502    0 -0.00000000000E+00 -0.00000000000E+00 -0.19734189034E+03  0.19734189034E+03  0.00000000000E+00 0. -1.
         24    2    1    2    0    0  0.28967460751E+02 -0.12456854601E+02  0.24718893144E+02  0.89767267241E+02  0.80329643225E+02 0.  0.
         25    2    1    2    0    0  0.63759044195E+01 -0.75033632503E+02  0.18954456804E+04  0.19010538574E+04  0.12498297181E+03 0.  0.
         24    2    1    2    0    0 -0.19727836238E+02  0.57002368505E+01  0.73627123330E+02  0.10972510698E+03  0.78720807857E+02 0.  0.
        -11    1    3    3    0    0 -0.17732026305E+02 -0.30802091588E+02  0.15405564009E+02  0.38736610661E+02  0.00000000000E+00 0.  1.
         12    1    3    3    0    0  0.46699487056E+02  0.18345236986E+02  0.93133291352E+01  0.51030656580E+02  0.00000000000E+00 0. -1.
        -13    1    5    5    0    0  0.41654148270E+01 -0.30275393590E+02  0.54517656973E+02  0.62499000468E+02  0.00000000000E+00 0.  1.
         14    1    5    5    0    0 -0.23893251065E+02  0.35975630441E+02  0.19109466358E+02  0.47226106515E+02  0.00000000000E+00 0. -1.
          5    1    4    4  501    0 -0.25318064715E+02 -0.21798781518E+02  0.12368311102E+03  0.12820215766E+03  0.47000000000E+01 0. -1.
         -5    1    4    4    0  501  0.31693969135E+02 -0.53234850985E+02  0.17717625693E+04  0.17728516997E+04  0.47000000000E+01 0. -1.
          1    1    1    2  502    0 -0.13481116502E+02  0.51395526150E+02 -0.13847256939E+03  0.14831686716E+03  0.00000000000E+00 0. -1.
          1    1    1    2  503    0 -0.21344124311E+01  0.30394724103E+02  0.40668897338E+03  0.40782878275E+03  0.00000000000E+00 0. -1.
<mgrwt>
<rscale>  0 0.40263681E+02</rscale>
<asrwt>0</asrwt>
<pdfrwt beam="1">  1        2 0.36166910E+00 0.30469574E+02</pdfrwt>
<pdfrwt beam="2">  1        2 0.29020868E-01 0.53205995E+02</pdfrwt>
<totfact> 0.17489454E+02</totfact>
</mgrwt>
</event>
<event>
13    1  0.2038932E-008  0.2540583E+03  0.7546771E-02  0.1262819E+00
         -1   -1    0    0    0  501 -0.00000000000E+00  0.00000000000E+00  0.15752259378E+04  0.15752259378E+04  0.00000000000E+00 0.  1.
          2   -1    0    0  503    0  0.00000000000E+00 -0.00000000000E+00 -0.20590880879E+04  0.20590880879E+04  0.00000000000E+00 0. -1.
         24    2    1    2    0    0  0.24787113358E+03 -0.84955655656E+02 -0.15910547089E+03  0.31613557866E+03  0.77263127950E+02 0.  0.
         25    2    1    2    0    0  0.13896405293E+03 -0.81229507670E+02 -0.72811711691E+03  0.75610152899E+03  0.12500298112E+03 0.  0.
         24    2    1    2    0    0 -0.16620168042E+03  0.96549294916E+01  0.56003339360E+02  0.19283940304E+03  0.79589227319E+02 0.  0.
        -11    1    3    3    0    0  0.24799809975E+03 -0.92699060621E+02 -0.15798468946E+03  0.30831045299E+03  0.00000000000E+00 0.  1.
         12    1    3    3    0    0 -0.12696616533E+00  0.77434049648E+01 -0.11207814284E+01  0.78251256774E+01  0.00000000000E+00 0. -1.
        -11    1    5    5    0    0 -0.99401909662E+02  0.36475112943E+02  0.77220035724E+01  0.10616403745E+03  0.00000000000E+00 0.  1.
         12    1    5    5    0    0 -0.66799770762E+02 -0.26820183451E+02  0.48281335787E+02  0.86675365587E+02  0.00000000000E+00 0. -1.
          5    1    4    4  502    0  0.10860378193E+03 -0.11443658604E+03 -0.53792065026E+03  0.56059899184E+03  0.47000000000E+01 0. -1.
         -5    1    4    4    0  502  0.30360270996E+02  0.33207078365E+02 -0.19019646665E+03  0.19550253716E+03  0.47000000000E+01 0. -1.
          1    1    1    2  503    0 -0.86194632081E+01  0.45784151156E+02 -0.99986301766E+03  0.10009478197E+04  0.00000000000E+00 0. -1.
         -2    1    1    2    0  501 -0.21201404287E+03  0.11074608268E+03  0.13472201160E+04  0.13682896953E+04  0.00000000000E+00 0.  1.
<mgrwt>
<rscale>  0 0.10879423E+03</rscale>
<asrwt>0</asrwt>
<pdfrwt beam="2">  1        2 0.30280707E+00 0.46588450E+02</pdfrwt>
<pdfrwt beam="1">  1       -1 0.23165087E+00 0.25405835E+03</pdfrwt>
<totfact> 0.11284586E+00</totfact>
</mgrwt>
</event>
<event>
13    1  0.2038932E-008  0.1120663E+03  0.7546771E-02  0.1305684E+00
          2   -1    0    0  502    0  0.00000000000E+00  0.00000000000E+00  0.16974118572E+04  0.16974118572E+04  0.00000000000E+00 0. -1.
          2   -1    0    0  503    0 -0.00000000000E+00 -0.00000000000E+00 -0.30186784824E+04  0.30186784824E+04  0.00000000000E+00 0. -1.
         24    2    1    2    0    0  0.34612595061E+02 -0.18731583774E+02 -0.55255631699E+03  0.55967165602E+03  0.79780794281E+02 0.  0.
         25    2    1    2    0    0  0.24729227072E+02  0.17134576807E+03  0.13409887536E+03  0.25214822815E+03  0.12500125470E+03 0.  0.
         24    2    1    2    0    0  0.21226443037E+02 -0.95929918984E+02  0.38478948923E+03  0.40495396924E+03  0.79193780952E+02 0.  0.
        -11    1    3    3    0    0  0.60139106616E+02 -0.19457004217E+02 -0.37538024079E+03  0.38066469804E+03  0.00000000000E+00 0.  1.
         12    1    3    3    0    0 -0.25526511555E+02  0.72542044307E+00 -0.17717607620E+03  0.17900695798E+03  0.00000000000E+00 0. -1.
        -13    1    5    5    0    0 -0.20907527188E+02 -0.69699591615E+02  0.27504734974E+03  0.28451046090E+03  0.00000000000E+00 0.  1.
         14    1    5    5    0    0  0.42133970225E+02 -0.26230327369E+02  0.10974213950E+03  0.12044350834E+03  0.00000000000E+00 0. -1.
          5    1    4    4  501    0  0.22236923908E+02  0.21291820912E+02 -0.19986133877E+02  0.37004837116E+02  0.47000000000E+01 0.  1.
         -5    1    4    4    0  501  0.24923031637E+01  0.15005394716E+03  0.15408500923E+03  0.21514339103E+03  0.47000000000E+01 0.  1.
          1    1    1    2  502    0 -0.11204662943E+03  0.63179681900E+01  0.11024916662E+04  0.11081887194E+04  0.00000000000E+00 0. -1.
          1    1    1    2  503    0  0.31478364260E+02 -0.63002233506E+02 -0.23900903389E+04  0.23911277668E+04  0.00000000000E+00 0. -1.
<mgrwt>
<rscale>  0 0.88840643E+02</rscale>
<asrwt>0</asrwt>
<pdfrwt beam="1">  1        2 0.24961939E+00 0.11206633E+03</pdfrwt>
<pdfrwt beam="2">  1        2 0.44392330E+00 0.70428466E+02</pdfrwt>
<totfact> 0.59111197E+00</totfact>
</mgrwt>
</event>
<event>
13    1  0.2038932E-008  0.1231957E+03  0.7546771E-02  0.1322509E+00
          2   -1    0    0  503    0  0.00000000000E+00  0.00000000000E+00  0.17387162197E+04  0.17387162197E+04  0.00000000000E+00 0. -1.
          2   -1    0    0  502    0 -0.00000000000E+00 -0.00000000000E+00 -0.15646235306E+04  0.15646235306E+04  0.00000000000E+00 0. -1.
         24    2    1    2    0    0 -0.18768785113E+03  0.26593392389E+03  0.65111103460E+01  0.33659318312E+03  0.85469263642E+02 0.  0.
         25    2    1    2    0    0  0.31652804874E+03 -0.54913189871E+03  0.11922874074E+03  0.65694391030E+03  0.12499584331E+03 0.  0.
         24    2    1    2    0    0 -0.73207762069E+02  0.15914277253E+03  0.16528200055E+02  0.19421967916E+03  0.82233228696E+02 0.  0.
        -11    1    5    5    0    0 -0.36244718562E+02  0.81123541867E+01  0.10576452770E+02  0.38618017392E+02  0.00000000000E+00 0.  1.
         12    1    5    5    0    0 -0.36963043507E+02  0.15103041834E+03  0.59517472855E+01  0.15560166177E+03  0.00000000000E+00 0. -1.
        -11    1    3    3    0    0  0.51503794587E+01  0.30052634325E+02 -0.81660029438E+01  0.31565342427E+02  0.00000000000E+00 0.  1.
         12    1    3    3    0    0 -0.19283823059E+03  0.23588128956E+03  0.14677113290E+02  0.30502784069E+03  0.00000000000E+00 0. -1.
          5    1    4    4  501    0  0.30662589680E+03 -0.55454896012E+03  0.11864427508E+03  0.64470345412E+03  0.47000000000E+01 0.  1.
         -5    1    4    4    0  501  0.99021519444E+01  0.54170614023E+01  0.58446565455E+00  0.12240456179E+02  0.47000000000E+01 0.  1.
          1    1    1    2  502    0 -0.91594239366E+02  0.82377526584E+02 -0.10375273322E+04  0.10448150681E+04  0.00000000000E+00 0. -1.
          1    1    1    2  503    0  0.35961803824E+02  0.41677675709E+02  0.10693519702E+04  0.10707679096E+04  0.00000000000E+00 0. -1.
<mgrwt>
<rscale>  0 0.82350909E+02</rscale>
<asrwt>0</asrwt>
<pdfrwt beam="1">  1        2 0.25569356E+00 0.55047979E+02</pdfrwt>
<pdfrwt beam="2">  1        2 0.23009169E+00 0.12319566E+03</pdfrwt>
<totfact> 0.29506908E+01</totfact>
</mgrwt>
</event>
<event>
13    1  0.2038932E-008  0.1713339E+03  0.7546771E-02  0.1306553E+00
          2   -1    0    0  503    0  0.00000000000E+00  0.00000000000E+00  0.34720842486E+04  0.34720842486E+04  0.00000000000E+00 0. -1.
          2   -1    0    0  502    0 -0.00000000000E+00 -0.00000000000E+00 -0.50062409755E+03  0.50062409755E+03  0.00000000000E+00 0. -1.
         24    2    1    2    0    0  0.42588921116E+02 -0.41796384137E+03  0.23041966014E+03  0.48565105454E+03  0.79095752750E+02 0.  0.
         25    2    1    2    0    0 -0.16044706253E+03  0.20296885221E+03  0.16487096161E+04  0.16735620682E+04  0.12500793239E+03 0.  0.
         24    2    1    2    0    0  0.53673454854E+02 -0.43291456103E+02 -0.90067757181E+01  0.10562681632E+03  0.79504165869E+02 0.  0.
        -11    1    3    3    0    0  0.30404740179E+02 -0.28278293737E+03  0.19667160843E+03  0.34578947273E+03  0.00000000000E+00 0.  1.
         12    1    3    3    0    0  0.12184180937E+02 -0.13518090400E+03  0.33748051720E+02  0.13986158181E+03  0.00000000000E+00 0. -1.
        -11    1    5    5    0    0  0.62837168756E+02 -0.31742655685E+01 -0.13121946205E+02  0.64271076009E+02  0.00000000000E+00 0.  1.
         12    1    5    5    0    0 -0.91637139022E+01 -0.40117190535E+02  0.41151704865E+01  0.41355740315E+02  0.00000000000E+00 0. -1.
          5    1    4    4  501    0 -0.13912812062E+03  0.80883219769E+02  0.82428870964E+03  0.83986468912E+03  0.47000000000E+01 0.  1.
         -5    1    4    4    0  501 -0.21318941913E+02  0.12208563244E+03  0.82442090643E+03  0.83369737908E+03  0.47000000000E+01 0.  1.
          1    1    1    2  502    0  0.10807474827E+03  0.27102701342E+03 -0.23260078159E+03  0.37314731249E+03  0.00000000000E+00 0. -1.
          1    1    1    2  503    0 -0.43890061710E+02 -0.12740568162E+02  0.13339384322E+04  0.13347210946E+04  0.00000000000E+00 0. -1.
<mgrwt>
<rscale>  0 0.88488863E+02</rscale>
<asrwt>0</asrwt>
<pdfrwt beam="1">  1        2 0.51060062E+00 0.45701855E+02</pdfrwt>
<pdfrwt beam="2">  1        2 0.73621192E-01 0.17133394E+03</pdfrwt>
<totfact> 0.18715988E+01</totfact>
</mgrwt>
</event>
<event>
13    1  0.2038932E-008  0.8893253E+02  0.7546771E-02  0.1436383E+00
          2   -1    0    0  502    0  0.00000000000E+00  0.00000000000E+00  0.15875639901E+04  0.15875639901E+04  0.00000000000E+00 0. -1.
          2   -1    0    0  503    0 -0.00000000000E+00 -0.00000000000E+00 -0.27185062347E+04  0.27185062347E+04  0.00000000000E+00 0. -1.
         24    2    1    2    0    0  0.43580138101E+02 -0.98138460575E+02  0.14204665011E+03  0.19518292790E+03  0.79929585593E+02 0.  0.
         25    2    1    2    0    0  0.54203771861E+02  0.11618960912E+03  0.62658638988E+03  0.65165969429E+03  0.12494710493E+03 0.  0.
         24    2    1    2    0    0 -0.93452353512E+02  0.56172689184E+02  0.36798551593E+03  0.39228060838E+03  0.81129664065E+02 0.  0.
        -11    1    5    5    0    0 -0.72044419818E+02  0.76070863629E+02  0.25760738839E+03  0.27809843810E+03  0.00000000000E+00 0.  1.
         12    1    5    5    0    0 -0.21407933694E+02 -0.19898174445E+02  0.11037812753E+03  0.11418217027E+03  0.00000000000E+00 0. -1.
        -13    1    3    3    0    0  0.35505500142E+02 -0.38681152556E+02  0.14884320172E+02  0.54574857676E+02  0.00000000000E+00 0.  1.
         14    1    3    3    0    0  0.80746379593E+01 -0.59457308018E+02  0.12716232994E+03  0.14060807022E+03  0.00000000000E+00 0. -1.
          5    1    4    4  501    0 -0.23590800385E+02  0.93698599909E+02  0.37751373626E+03  0.38971100132E+03  0.47000000000E+01 0. -1.
         -5    1    4    4    0  501  0.77794572246E+02  0.22491009216E+02  0.24907265362E+03  0.26194869297E+03  0.47000000000E+01 0. -1.
          1    1    1    2  502    0 -0.27731867482E+02  0.11586827636E+02  0.39838538904E+03  0.39951749555E+03  0.00000000000E+00 0. -1.
          1    1    1    2  503    0  0.23400311032E+02 -0.85810665370E+02 -0.26659461896E+04  0.26674294987E+04  0.00000000000E+00 0. -1.
<mgrwt>
<rscale>  0 0.51699894E+02</rscale>
<asrwt>0</asrwt>
<pdfrwt beam="1">  1        2 0.23346530E+00 0.30055133E+02</pdfrwt>
<pdfrwt beam="2">  1        2 0.39978032E+00 0.88932528E+02</pdfrwt>
<totfact> 0.10347735E+01</totfact>
</mgrwt>
</event>
<event>
13    1  0.2038932E-008  0.3828366E+02  0.7546771E-02  0.1554180E+00
          2   -1    0    0  502    0  0.00000000000E+00  0.00000000000E+00  0.31549446836E+04  0.31549446836E+04  0.00000000000E+00 0. -1.
          2   -1    0    0  503    0 -0.00000000000E+00 -0.00000000000E+00 -0.10382278988E+04  0.10382278988E+04  0.00000000000E+00 0. -1.
         24    2    1    2    0    0  0.16561948625E+03  0.47277550491E+03  0.32599349371E+03  0.60315080581E+03  0.81071846731E+02 0.  0.
         25    2    1    2    0    0  0.14950401432E+03 -0.19843946393E+03  0.31288098924E+03  0.41862818190E+03  0.12500148046E+03 0.  0.
         24    2    1    2    0    0 -0.30953945513E+03 -0.29471961343E+03  0.52770891461E+02  0.44262689989E+03  0.10227160263E+03 0.  0.
        -13    1    3    3    0    0  0.15561191049E+03  0.35848097671E+03  0.27339596112E+03  0.47693713308E+03  0.00000000000E+00 0.  1.
         14    1    3    3    0    0  0.10007575757E+02  0.11429452820E+03  0.52597532591E+02  0.12621367273E+03  0.00000000000E+00 0. -1.
        -13    1    5    5    0    0 -0.10537615421E+03 -0.15697786923E+03 -0.69937889751E+01  0.18919592593E+03  0.00000000000E+00 0.  1.
         14    1    5    5    0    0 -0.20416330092E+03 -0.13774174419E+03  0.59764680436E+02  0.25343097396E+03  0.00000000000E+00 0. -1.
          5    1    4    4  501    0 -0.19330218658E+02 -0.15944724065E+02  0.11667691362E+02  0.28037770963E+02  0.47000000000E+01 0.  1.
         -5    1    4    4    0  501  0.16883423298E+03 -0.18249473986E+03  0.30121329787E+03  0.39059041094E+03  0.47000000000E+01 0.  1.
          1    1    1    2  502    0  0.23736812525E+02  0.30051679041E+02  0.20763768238E+04  0.20767299425E+04  0.00000000000E+00 0. -1.
          1    1    1    2  503    0 -0.29320857964E+02 -0.96681066010E+01 -0.65130541338E+03  0.65203675241E+03  0.00000000000E+00 0. -1.
<mgrwt>
<rscale>  0 0.34379617E+02</rscale>
<asrwt>0</asrwt>
<pdfrwt beam="1">  1        2 0.46396245E+00 0.38283661E+02</pdfrwt>
<pdfrwt beam="2">  1        2 0.15268057E+00 0.30873694E+02</pdfrwt>
<totfact> 0.13034769E+01</totfact>
</mgrwt>
</event>
<event>
13    1  0.2038932E-008  0.1860654E+03  0.7546771E-02  0.1258633E+00
          2   -1    0    0  502    0  0.00000000000E+00  0.00000000000E+00  0.12728782790E+04  0.12728782790E+04  0.00000000000E+00 0. -1.
          2   -1    0    0  503    0 -0.00000000000E+00 -0.00000000000E+00 -0.26003867393E+04  0.26003867393E+04  0.00000000000E+00 0. -1.
         24    2    1    2    0    0  0.79134408097E+02 -0.39184807421E+03 -0.13505550693E+04  0.14108050638E+04  0.81023237578E+02 0.  0.
         25    2    1    2    0    0  0.38377875599E+02  0.46664698579E+02  0.91232665747E+02  0.16613258698E+03  0.12500472683E+03 0.  0.
         24    2    1    2    0    0 -0.39199853963E+02  0.72372316184E+02 -0.51235547322E+03  0.52488638444E+03  0.78887292629E+02 0.  0.
        -11    1    3    3    0    0  0.44710470217E+02 -0.16541127584E+03 -0.71483155879E+03  0.73508099810E+03  0.00000000000E+00 0.  1.
         12    1    3    3    0    0  0.34423937881E+02 -0.22643679837E+03 -0.63572351048E+03  0.67572406567E+03  0.00000000000E+00 0. -1.
        -13    1    5    5    0    0  0.44719298205E+01  0.68089189874E+02 -0.26350858792E+03  0.27220013196E+03  0.00000000000E+00 0.  1.
         14    1    5    5    0    0 -0.43671783783E+02  0.42831263102E+01 -0.24884688530E+03  0.25268625248E+03  0.00000000000E+00 0. -1.
          5    1    4    4  501    0  0.60855249049E+02  0.73962608138E+02  0.40460140729E+02  0.10408141874E+03  0.47000000000E+01 0. -1.
         -5    1    4    4    0  501 -0.22477373450E+02 -0.27297909559E+02  0.50772525018E+02  0.62051168242E+02  0.47000000000E+01 0. -1.
          1    1    1    2  502    0  0.19949030647E+02  0.63208245465E+02  0.10865770481E+04  0.10885967700E+04  0.00000000000E+00 0. -1.
          1    1    1    2  503    0 -0.98261460381E+02  0.20960281398E+03 -0.64240763161E+03  0.68284421311E+03  0.00000000000E+00 0. -1.
<mgrwt>
<rscale>  0 0.11105272E+03</rscale>
<asrwt>0</asrwt>
<pdfrwt beam="1">  1        2 0.18718798E+00 0.66281567E+02</pdfrwt>
<pdfrwt beam="2">  1        2 0.38240981E+00 0.18606539E+03</pdfrwt>
<totfact> 0.14344437E+01</totfact>
</mgrwt>
</event>
<event>
13    1  0.2038932E-008  0.1408259E+03  0.7546771E-02  0.1323879E+00
          2   -1    0    0  503    0  0.00000000000E+00  0.00000000000E+00  0.29112151964E+04  0.29112151964E+04  0.00000000000E+00 0. -1.
         -1   -1    0    0    0  501 -0.00000000000E+00 -0.00000000000E+00 -0.39452466144E+03  0.39452466144E+03  0.00000000000E+00 0.  1.
         24    2    1    2    0    0 -0.45455169284E+03  0.47734437370E+03  0.69853597420E+03  0.96396860385E+03  0.82511025839E+02 0.  0.
         25    2    1    2    0    0  0.26111520648E+03  0.69070872807E+02  0.94351308030E+03  0.98934074578E+03  0.12500496808E+03 0.  0.
         24    2    1    2    0    0  0.15781711617E+02 -0.48722227358E+03  0.70120107431E+03  0.86113251843E+03  0.11059684169E+03 0.  0.
        -11    1    3    3    0    0 -0.17674566609E+03  0.13639829357E+03  0.26344399169E+03  0.34532052028E+03  0.00000000000E+00 0.  1.
         12    1    3    3    0    0 -0.27780602675E+03  0.34094608013E+03  0.43509198251E+03  0.61864808357E+03  0.00000000000E+00 0. -1.
        -13    1    5    5    0    0 -0.46830762322E+02 -0.16149789292E+03  0.23161222287E+03  0.28621479958E+03  0.00000000000E+00 0.  1.
         14    1    5    5    0    0  0.62612473939E+02 -0.32572438066E+03  0.46958885144E+03  0.57491771885E+03  0.00000000000E+00 0. -1.
          5    1    4    4  502    0  0.18463763735E+03  0.45912148995E+02  0.43845493190E+03  0.47797886968E+03  0.47000000000E+01 0. -1.
         -5    1    4    4    0  502  0.76477569127E+02  0.23158723812E+02  0.50505814840E+03  0.51136187610E+03  0.47000000000E+01 0. -1.
          1    1    1    2  503    0  0.42693971091E+02 -0.20987381335E+02  0.29917142362E+03  0.30293033201E+03  0.00000000000E+00 0. -1.
         -2    1    1    2    0  501  0.13496080366E+03 -0.38205591594E+02 -0.12573101744E+03  0.18836765778E+03  0.00000000000E+00 0.  1.
<mgrwt>
<rscale>  0 0.81851026E+02</rscale>
<asrwt>0</asrwt>
<pdfrwt beam="1">  1        2 0.42811987E+00 0.47573578E+02</pdfrwt>
<pdfrwt beam="2">  1       -1 0.58018334E-01 0.14082587E+03</pdfrwt>
<totfact> 0.13076920E+01</totfact>
</mgrwt>
</event>
<event>
13    1  0.2038932E-008  0.7422783E+02  0.7546771E-02  0.1476998E+00
          2   -1    0    0  503    0  0.00000000000E+00  0.00000000000E+00  0.10085159119E+04  0.10085159119E+04  0.00000000000E+00 0. -1.
          2   -1    0    0  502    0 -0.00000000000E+00 -0.00000000000E+00 -0.12396399882E+04  0.12396399882E+04  0.00000000000E+00 0. -1.
         24    2    1    2    0    0 -0.58719749818E+02 -0.17878450748E+03 -0.28909380439E+02  0.21590836252E+03  0.10182710639E+03 0.  0.
         25    2    1    2    0    0  0.13111507360E+03  0.74136553719E+02  0.40232752551E+03  0.44741258404E+03  0.12499276559E+03 0.  0.
         24    2    1    2    0    0 -0.10788658190E+03  0.15116344803E+03  0.48863115019E+02  0.20789556300E+03  0.79643320684E+02 0.  0.
        -13    1    5    5    0    0 -0.73914568034E+02  0.13257386926E+03  0.66040732353E+02  0.16553118288E+03  0.00000000000E+00 0.  1.
         14    1    5    5    0    0 -0.33972013864E+02  0.18589578776E+02 -0.17177617334E+02  0.42364380112E+02  0.00000000000E+00 0. -1.
        -13    1    3    3    0    0 -0.60242954233E+02 -0.75979996068E+02 -0.52721881663E+02  0.11037105664E+03  0.00000000000E+00 0.  1.
         14    1    3    3    0    0  0.15232044158E+01 -0.10280451141E+03  0.23812501224E+02  0.10553730588E+03  0.00000000000E+00 0. -1.
          5    1    4    4  501    0  0.88013611498E+02  0.10207607020E+03  0.22107291821E+03  0.25896186029E+03  0.47000000000E+01 0. -1.
         -5    1    4    4    0  501  0.43101462098E+02 -0.27939516476E+02  0.18125460730E+03  0.18845072375E+03  0.47000000000E+01 0. -1.
          1    1    1    2  502    0  0.23501169025E+02 -0.70451064514E+02 -0.10133162657E+04  0.10160342080E+04  0.00000000000E+00 0. -1.
          1    1    1    2  503    0  0.11990089094E+02  0.23935570240E+02  0.35991092934E+03  0.36090518258E+03  0.00000000000E+00 0. -1.
<mgrwt>
<rscale>  0 0.44577299E+02</rscale>
<asrwt>0</asrwt>
<pdfrwt beam="1">  1        2 0.14831116E+00 0.26770763E+02</pdfrwt>
<pdfrwt beam="2">  1        2 0.18230000E+00 0.74227829E+02</pdfrwt>
<totfact> 0.10692615E+02</totfact>
</mgrwt>
</event>
<event>
13    1  0.2038932E-008  0.2019959E+03  0.7546771E-02  0.1172957E+00
          2   -1    0    0  503    0  0.00000000000E+00  0.00000000000E+00  0.30534842619E+04  0.30534842619E+04  0.00000000000E+00 0. -1.
          2   -1    0    0  502    0 -0.00000000000E+00 -0.00000000000E+00 -0.92618494717E+03  0.92618494717E+03  0.00000000000E+00 0. -1.
         24    2    1    2    0    0  0.12123462758E+03 -0.25326472229E+02  0.15667346912E+03  0.21430625373E+03  0.77725988836E+02 0.  0.
         25    2    1    2    0    0  0.43564870123E+02  0.80569809181E+02 -0.33206540046E+03  0.36644541573E+03  0.12500168186E+03 0.  0.
         24    2    1    2    0    0 -0.28042543944E+03  0.12617659597E+03  0.45489356321E+03  0.55499143929E+03  0.80798411988E+02 0.  0.
        -11    1    5    5    0    0 -0.17419437137E+03  0.10035428117E+03  0.23380144954E+03  0.30834684784E+03  0.00000000000E+00 0.  1.
         12    1    5    5    0    0 -0.10623106807E+03  0.25822314804E+02  0.22109211367E+03  0.24664459145E+03  0.00000000000E+00 0. -1.
        -13    1    3    3    0    0  0.87466346419E+00 -0.13700727307E+02 -0.29610141493E+01  0.14044307378E+02  0.00000000000E+00 0.  1.
         14    1    3    3    0    0  0.12035996412E+03 -0.11625744922E+02  0.15963448327E+03  0.20026194635E+03  0.00000000000E+00 0. -1.
          5    1    4    4  501    0  0.72477598866E+02  0.11555869005E+02 -0.21687553615E+03  0.22900573928E+03  0.47000000000E+01 0.  1.
         -5    1    4    4    0  501 -0.28912728743E+02  0.69013940175E+02 -0.11518986431E+03  0.13743967645E+03  0.47000000000E+01 0.  1.
          1    1    1    2  502    0  0.11658244342E+03  0.95823778692E+02 -0.47820866438E+03  0.50145507213E+03  0.00000000000E+00 0. -1.
          1    1    1    2  503    0 -0.95650167846E+00 -0.27724371162E+03  0.23260063472E+04  0.23424710282E+04  0.00000000000E+00 0. -1.
<mgrwt>
<rscale>  0 0.17477613E+03</rscale>
<asrwt>0</asrwt>
<pdfrwt beam="1">  1        2 0.44904180E+00 0.20199588E+03</pdfrwt>
<pdfrwt beam="2">  1        2 0.13620367E+00 0.15122435E+03</pdfrwt>
<totfact> 0.12101955E+01</totfact>
</mgrwt>
</event>
<event>
13    1  0.2038932E-008  0.1952183E+03  0.7546771E-02  0.1154282E+00
          2   -1    0    0  503    0  0.00000000000E+00  0.00000000000E+00  0.10669692518E+04  0.10669692518E+04  0.00000000000E+00 0. -1.
          2   -1    0    0  502    0 -0.00000000000E+00 -0.00000000000E+00 -0.14079237133E+04  0.14079237133E+04  0.00000000000E+00 0. -1.
         24    2    1    2    0    0  0.54994411940E+02 -0.70263909035E+02 -0.24190230327E+02  0.12219168354E+03  0.79901426926E+02 0.  0.
         25    2    1    2    0    0 -0.17959819583E+03  0.28665274307E+03  0.42835532134E+03  0.55994524174E+03  0.12500034146E+03 0.  0.
         24    2    1    2    0    0 -0.13254151435E+03  0.67671372865E+02  0.31802778186E+02  0.17341184523E+03  0.83147962310E+02 0.  0.
        -11    1    3    3    0    0  0.63847151321E+02 -0.80056266670E+02 -0.31458898628E+02  0.10712201859E+03  0.00000000000E+00 0.  1.
         12    1    3    3    0    0 -0.88527393811E+01  0.97923576348E+01  0.72686683010E+01  0.15069664942E+02  0.00000000000E+00 0. -1.
        -13    1    5    5    0    0 -0.15872031088E+02 -0.64911588581E+01  0.30696845062E+02  0.35161808983E+02  0.00000000000E+00 0.  1.
         14    1    5    5    0    0 -0.11666948326E+03  0.74162531723E+02  0.11059331244E+01  0.13825003625E+03  0.00000000000E+00 0. -1.
          5    1    4    4  501    0 -0.20996463114E+02  0.14887723127E+03  0.17362594720E+03  0.22972448932E+03  0.47000000000E+01 0.  1.
         -5    1    4    4    0  501 -0.15860173272E+03  0.13777551180E+03  0.25472937414E+03  0.33022075241E+03  0.47000000000E+01 0.  1.
          1    1    1    2  502    0  0.25869354964E+03 -0.36929544653E+02 -0.11458616972E+04  0.11752808911E+04  0.00000000000E+00 0. -1.
          1    1    1    2  503    0 -0.15482513995E+01 -0.24713066225E+03  0.36893936658E+03  0.44406330350E+03  0.00000000000E+00 0. -1.
<mgrwt>
<rscale>  0 0.19470795E+03</rscale>
<asrwt>0</asrwt>
<pdfrwt beam="1">  1        2 0.15690724E+00 0.19521833E+03</pdfrwt>
<pdfrwt beam="2">  1        2 0.20704760E+00 0.19419890E+03</pdfrwt>
<totfact> 0.68843272E+01</totfact>
</mgrwt>
</event>
<event>
13    1  0.2038932E-008  0.2491605E+03  0.7546771E-02  0.1124999E+00
          2   -1    0    0  503    0  0.00000000000E+00  0.00000000000E+00  0.78823255446E+03  0.78823255446E+03  0.00000000000E+00 0. -1.
          2   -1    0    0  502    0 -0.00000000000E+00 -0.00000000000E+00 -0.32661534820E+04  0.32661534820E+04  0.00000000000E+00 0. -1.
         24    2    1    2    0    0 -0.27534257713E+02 -0.14148070865E+03 -0.12265644893E+03  0.20329281098E+03  0.74218840345E+02 0.  0.
         25    2    1    2    0    0 -0.39370743919E+02 -0.14625725550E+03 -0.20017763852E+03  0.28042065602E+03  0.12499366823E+03 0.  0.
         24    2    1    2    0    0 -0.87432192279E+02  0.94281050023E+02  0.17513629921E+03  0.23274417674E+03  0.83449528853E+02 0.  0.
        -11    1    3    3    0    0 -0.42334029350E+02 -0.65362717088E+02 -0.32521717206E+02  0.84392635438E+02  0.00000000000E+00 0.  1.
         12    1    3    3    0    0  0.14799771637E+02 -0.76117991567E+02 -0.90134731722E+02  0.11890017554E+03  0.00000000000E+00 0. -1.
        -13    1    5    5    0    0 -0.31898891708E+02  0.78476518389E+02  0.14419620210E+03  0.16723829684E+03  0.00000000000E+00 0.  1.
         14    1    5    5    0    0 -0.55533300571E+02  0.15804531634E+02  0.30940097118E+02  0.65505879905E+02  0.00000000000E+00 0. -1.
          5    1    4    4  501    0  0.32795604858E+02 -0.10412262852E+03 -0.87084217019E+02  0.13972410072E+03  0.47000000000E+01 0.  1.
         -5    1    4    4    0  501 -0.72166348777E+02 -0.42134626972E+02 -0.11309342150E+03  0.14069655530E+03  0.47000000000E+01 0.  1.
          1    1    1    2  502    0  0.24994886737E+03 -0.55727077708E+01 -0.28040532129E+04  0.28151767106E+04  0.00000000000E+00 0. -1.
          1    1    1    2  503    0 -0.95611673461E+02  0.19902962190E+03  0.47383007358E+03  0.52275168209E+03  0.00000000000E+00 0. -1.
<mgrwt>
<rscale>  0 0.23234606E+03</rscale>
<asrwt>0</asrwt>
<pdfrwt beam="1">  1        2 0.11591655E+00 0.21666634E+03</pdfrwt>
<pdfrwt beam="2">  1        2 0.48031669E+00 0.24916049E+03</pdfrwt>
<totfact> 0.10771338E+01</totfact>
</mgrwt>
</event>
<event>
13    1  0.2038932E-008  0.3531487E+03  0.7546771E-02  0.1280038E+00
          2   -1    0    0  503    0  0.00000000000E+00  0.00000000000E+00  0.16729573926E+04  0.16729573926E+04  0.00000000000E+00 0. -1.
          2   -1    0    0  502    0 -0.00000000000E+00 -0.00000000000E+00 -0.33892538362E+04  0.33892538362E+04  0.00000000000E+00 0. -1.
         24    2    1    2    0    0  0.16080776123E+03  0.57129396961E+01 -0.20268375878E+03  0.27101336378E+03  0.80472128850E+02 0.  0.
         25    2    1    2    0    0  0.14755004980E+03  0.15111698021E+03  0.66813340126E+02  0.25435521340E+03  0.12500077305E+03 0.  0.
         24    2    1    2    0    0  0.55355960700E+02 -0.21327828980E+02  0.56633101709E+03  0.57517144554E+03  0.81069181414E+02 0.  0.
        -13    1    3    3    0    0 -0.58681744299E-01 -0.16937837609E+02 -0.25656257461E+02  0.30743085943E+02  0.00000000000E+00 0.  1.
         14    1    3    3    0    0  0.16086644298E+03  0.22650777305E+02 -0.17702750132E+03  0.24027027784E+03  0.00000000000E+00 0. -1.
        -13    1    5    5    0    0 -0.36862101195E-01  0.23060808062E+02  0.67853573986E+02  0.71665261668E+02  0.00000000000E+00 0.  1.
         14    1    5    5    0    0  0.55392822801E+02 -0.44388637041E+02  0.49847744310E+03  0.50350618387E+03  0.00000000000E+00 0. -1.
          5    1    4    4  501    0  0.24835732348E+02  0.11010869715E+03  0.50902630892E+02  0.12391088177E+03  0.47000000000E+01 0.  1.
         -5    1    4    4    0  501  0.12271431745E+03  0.41008283062E+02  0.15910709234E+02  0.13044433164E+03  0.47000000000E+01 0.  1.
          1    1    1    2  502    0 -0.34633538715E+03 -0.11305724358E+03 -0.30431241378E+04  0.30648547533E+04  0.00000000000E+00 0. -1.
          1    1    1    2  503    0 -0.17378384588E+02 -0.22444847344E+02  0.89636709584E+03  0.89681645275E+03  0.00000000000E+00 0. -1.
<mgrwt>
<rscale>  0 0.10012277E+03</rscale>
<asrwt>0</asrwt>
<pdfrwt beam="1">  1        2 0.24602315E+00 0.28386254E+02</pdfrwt>
<pdfrwt beam="2">  1        2 0.49841968E+00 0.35314871E+03</pdfrwt>
<totfact> 0.33185479E+00</totfact>
</mgrwt>
</event>
<event>
13    1  0.2038932E-008  0.1050418E+03  0.7546771E-02  0.1323768E+00
          2   -1    0    0  503    0  0.00000000000E+00  0.00000000000E+00  0.68783462897E+03  0.68783462897E+03  0.00000000000E+00 0. -1.
          2   -1    0    0  502    0 -0.00000000000E+00 -0.00000000000E+00 -0.26652314871E+04  0.26652314871E+04  0.00000000000E+00 0. -1.
         24    2    1    2    0    0  0.27506174350E+03 -0.17738181575E+03 -0.10720885935E+04  0.11236661830E+04  0.78284526837E+02 0.  0.
         25    2    1    2    0    0 -0.13650881409E+03  0.35268063079E+03  0.76889151402E+02  0.40565472529E+03  0.12500212353E+03 0.  0.
         24    2    1    2    0    0 -0.29662964359E+02 -0.14363388364E+03 -0.18601592312E+03  0.25008708931E+03  0.80193794024E+02 0.  0.
        -11    1    3    3    0    0  0.61765071656E+02 -0.17641198012E+02 -0.30255441201E+03  0.30929808950E+03  0.00000000000E+00 0.  1.
         12    1    3    3    0    0  0.21329667185E+03 -0.15974061773E+03 -0.76953418149E+03  0.81436809347E+03  0.00000000000E+00 0. -1.
        -13    1    5    5    0    0  0.19239358565E+02 -0.96338511895E+02 -0.12236719726E+03  0.15692352519E+03  0.00000000000E+00 0.  1.
         14    1    5    5    0    0 -0.48902322924E+02 -0.47295371744E+02 -0.63648725860E+02  0.93163564119E+02  0.00000000000E+00 0. -1.
          5    1    4    4  501    0 -0.78620266491E+02  0.11945926574E+03  0.82649686360E+02  0.16524140864E+03  0.47000000000E+01 0. -1.
         -5    1    4    4    0  501 -0.57888547604E+02  0.23322136505E+03 -0.57605349574E+01  0.24041331665E+03  0.47000000000E+01 0. -1.
          1    1    1    2  502    0 -0.67687910610E+02 -0.80432884290E+02 -0.11799458879E+04  0.11846195172E+04  0.00000000000E+00 0. -1.
          1    1    1    2  503    0 -0.41202054441E+02  0.48767952891E+02  0.38376439495E+03  0.38903860136E+03  0.00000000000E+00 0. -1.
<mgrwt>
<rscale>  0 0.81891243E+02</rscale>
<asrwt>0</asrwt>
<pdfrwt beam="1">  1        2 0.10115215E+00 0.63842952E+02</pdfrwt>
<pdfrwt beam="2">  1        2 0.39194580E+00 0.10504175E+03</pdfrwt>
<totfact> 0.31432088E+01</totfact>
</mgrwt>
</event>
<event>
13    1  0.2038932E-008  0.1146261E+03  0.7546771E-02  0.1287064E+00
          2   -1    0    0  503    0  0.00000000000E+00  0.00000000000E+00  0.27804416930E+04  0.27804416930E+04  0.00000000000E+00 0. -1.
          2   -1    0    0  502    0 -0.00000000000E+00 -0.00000000000E+00 -0.15393969776E+04  0.15393969776E+04  0.00000000000E+00 0. -1.
         24    2    1    2    0    0  0.24938662229E+02  0.12439789829E+02 -0.16141387117E+02  0.86535378237E+02  0.80319001885E+02 0.  0.
         25    2    1    2    0    0 -0.19157592948E+03 -0.25603275712E+02  0.10084209852E+04  0.10343573338E+04  0.12500138379E+03 0.  0.
         24    2    1    2    0    0 -0.33576107536E+02 -0.38267085991E+02  0.27441229431E+03  0.29069371323E+03  0.81295773425E+02 0.  0.
        -13    1    3    3    0    0 -0.19386199796E+02 -0.65105123379E+01 -0.30063222092E+02  0.36359439434E+02  0.00000000000E+00 0.  1.
         14    1    3    3    0    0  0.44324862025E+02  0.18950302166E+02  0.13921834975E+02  0.50175938803E+02  0.00000000000E+00 0. -1.
        -13    1    5    5    0    0 -0.34259876909E+02 -0.62643881040E+02  0.19767253285E+03  0.21017237031E+03  0.00000000000E+00 0.  1.
         14    1    5    5    0    0  0.68376937352E+00  0.24376795048E+02  0.76739761456E+02  0.80521342920E+02  0.00000000000E+00 0. -1.
          5    1    4    4  501    0 -0.64969495631E+02  0.27130511260E+02  0.58531538366E+03  0.58955346522E+03  0.47000000000E+01 0. -1.
         -5    1    4    4    0  501 -0.12660643385E+03 -0.52733786973E+02  0.42310560157E+03  0.44480386853E+03  0.47000000000E+01 0. -1.
          1    1    1    2  502    0  0.12094085678E+03  0.31134664794E+02 -0.14631260885E+04  0.14684461206E+04  0.00000000000E+00 0. -1.
          1    1    1    2  503    0  0.79272518009E+02  0.20295907081E+02  0.14374789115E+04  0.14398061248E+04  0.00000000000E+00 0. -1.
<mgrwt>
<rscale>  0 0.96849302E+02</rscale>
<asrwt>0</asrwt>
<pdfrwt beam="1">  1        2 0.40888848E+00 0.81829432E+02</pdfrwt>
<pdfrwt beam="2">  1        2 0.22638191E+00 0.11462608E+03</pdfrwt>
<totfact> 0.91605590E+00</totfact>
</mgrwt>
</event>
<event>
13    1  0.2038932E-008  0.1286091E+03  0.7546771E-02  0.1242203E+00
          2   -1    0    0  502    0  0.00000000000E+00  0.00000000000E+00  0.29632863751E+04  0.29632863751E+04  0.00000000000E+00 0. -1.
          2   -1    0    0  503    0 -0.00000000000E+00 -0.00000000000E+00 -0.64183329772E+03  0.64183329772E+03  0.00000000000E+00 0. -1.
         24    2    1    2    0    0  0.20453917280E+02 -0.24391838337E+02  0.24861758281E+00  0.86125586474E+02  0.80026435165E+02 0.  0.
         25    2    1    2    0    0  0.45314473186E+02 -0.30423522906E+03 -0.76524146914E+02  0.34072512892E+03  0.12500076934E+03 0.  0.
         24    2    1    2    0    0  0.25610494653E+02  0.28296971784E+02  0.53372660476E+02  0.10421210288E+03  0.80962370588E+02 0.  0.
        -11    1    3    3    0    0 -0.30828814201E+02 -0.10791933961E+02 -0.39659675461E+01  0.32903047310E+02  0.00000000000E+00 0.  1.
         12    1    3    3    0    0  0.51282731482E+02 -0.13599904376E+02  0.42145851289E+01  0.53222539164E+02  0.00000000000E+00 0. -1.
        -13    1    5    5    0    0 -0.94961979220E+01 -0.17271799918E+02  0.40827370710E+02  0.45336156062E+02  0.00000000000E+00 0.  1.
         14    1    5    5    0    0  0.35106692575E+02  0.45568771702E+02  0.12545289765E+02  0.58875946814E+02  0.00000000000E+00 0. -1.
          5    1    4    4  501    0  0.78567742380E+02 -0.15473899116E+03 -0.70528829885E+02  0.18738583557E+03  0.47000000000E+01 0.  1.
         -5    1    4    4    0  501 -0.33253269195E+02 -0.14949623790E+03 -0.59953170297E+01  0.15333929335E+03  0.47000000000E+01 0.  1.
          1    1    1    2  502    0 -0.60540866984E+02  0.13883775424E+03  0.26884441262E+04  0.26927073622E+04  0.00000000000E+00 0. -1.
          1    1    1    2  503    0 -0.30838018136E+02  0.16149234137E+03 -0.34408818001E+03  0.38134949233E+03  0.00000000000E+00 0. -1.
<mgrwt>
<rscale>  0 0.12054343E+03</rscale>
<asrwt>0</asrwt>
<pdfrwt beam="1">  1        2 0.43577740E+00 0.12860914E+03</pdfrwt>
<pdfrwt beam="2">  1        2 0.94387251E-01 0.11298355E+03</pdfrwt>
<totfact> 0.22768981E+01</totfact>
</mgrwt>
</event>
<event>
13    1  0.2038932E-008  0.1247438E+03  0.7546771E-02  0.1323136E+00
          2   -1    0    0  503    0  0.00000000000E+00  0.00000000000E+00  0.18672245727E+04  0.18672245727E+04  0.00000000000E+00 0. -1.
          2   -1    0    0  502    0 -0.00000000000E+00 -0.00000000000E+00 -0.12326916717E+04  0.12326916717E+04  0.00000000000E+00 0. -1.
         24    2    1    2    0    0 -0.79248493593E+02  0.72802729475E+02 -0.22643991150E+03  0.26352382480E+03  0.81173958633E+02 0.  0.
         25    2    1    2    0    0 -0.20244915683E+02  0.96029294592E+02 -0.17968278949E+02  0.15993446462E+03  0.12499876758E+03 0.  0.
         24    2    1    2    0    0  0.33164987946E+02 -0.58856178430E+02  0.26391875243E+03  0.28410468956E+03  0.80612657682E+02 0.  0.
        -11    1    5    5    0    0  0.16565499132E+01 -0.61291981157E+02  0.22874173579E+03  0.23681687610E+03  0.00000000000E+00 0.  1.
         12    1    5    5    0    0  0.31508438033E+02  0.24358027264E+01  0.35177016645E+02  0.47287813464E+02  0.00000000000E+00 0. -1.
        -11    1    3    3    0    0 -0.47965218815E+02  0.25084667800E+01 -0.13893634845E+03  0.14700429770E+03  0.00000000000E+00 0.  1.
         12    1    3    3    0    0 -0.31283274778E+02  0.70294262695E+02 -0.87503563049E+02  0.11651952710E+03  0.00000000000E+00 0. -1.
          5    1    4    4  501    0 -0.19101541084E+00  0.39639709798E+02  0.53402222229E+02  0.66672561214E+02  0.47000000000E+01 0. -1.
         -5    1    4    4    0  501 -0.20053900273E+02  0.56389584794E+02 -0.71370501178E+02  0.93261903410E+02  0.47000000000E+01 0. -1.
          1    1    1    2  502    0  0.10551990379E+03 -0.72736483996E+02 -0.88355479405E+03  0.89280127704E+03  0.00000000000E+00 0. -1.
          1    1    1    2  503    0 -0.39191482464E+02 -0.37239361642E+02  0.14985771330E+04  0.14995519884E+04  0.00000000000E+00 0. -1.
<mgrwt>
<rscale>  0 0.82121534E+02</rscale>
<asrwt>0</asrwt>
<pdfrwt beam="1">  1        2 0.27459185E+00 0.54062393E+02</pdfrwt>
<pdfrwt beam="2">  1        2 0.18127819E+00 0.12474376E+03</pdfrwt>
<totfact> 0.37987132E+01</totfact>
</mgrwt>
</event>
<event>
13    1  0.2038932E-008  0.8314025E+02  0.7546771E-02  0.1363888E+00
         -1   -1    0    0    0  501 -0.00000000000E+00  0.00000000000E+00  0.19658025980E+04  0.19658025980E+04  0.00000000000E+00 0.  1.
          2   -1    0    0  503    0  0.00000000000E+00 -0.00000000000E+00 -0.13777058040E+04  0.13777058040E+04  0.00000000000E+00 0. -1.
         24    2    1    2    0    0  0.10459578060E+03  0.63966637920E+02  0.73305327268E+02  0.16398560384E+03  0.80533217835E+02 0.  0.
         25    2    1    2    0    0 -0.18796730387E+03 -0.51685040423E+02  0.33385303381E+03  0.40631142548E+03  0.12501230165E+03 0.  0.
         24    2    1    2    0    0 -0.12083634920E+02 -0.23826070427E+02  0.39194724658E+02  0.92011189753E+02  0.78842480516E+02 0.  0.
        -13    1    5    5    0    0 -0.10210832597E+02 -0.33890901066E+02  0.59522159924E+02  0.69251294568E+02  0.00000000000E+00 0.  1.
         14    1    5    5    0    0 -0.18728023225E+01  0.10064830639E+02 -0.20327435266E+02  0.22759895185E+02  0.00000000000E+00 0. -1.
        -13    1    3    3    0    0  0.86498960705E+02  0.29588591606E+02  0.83506897728E+02  0.12381824148E+03  0.00000000000E+00 0.  1.
         14    1    3    3    0    0  0.18096819891E+02  0.34378046314E+02 -0.10201570459E+02  0.40167362353E+02  0.00000000000E+00 0. -1.
          5    1    4    4  502    0 -0.17950735906E+03 -0.70709112826E+01  0.22280943537E+03  0.28624993316E+03  0.47000000000E+01 0. -1.
         -5    1    4    4    0  502 -0.84599448169E+01 -0.44614129140E+02  0.11104359844E+03  0.12006149232E+03  0.47000000000E+01 0. -1.
          1    1    1    2  503    0  0.22910742897E+02  0.52293775735E+02 -0.12678590418E+04  0.12691438417E+04  0.00000000000E+00 0. -1.
         -2    1    1    2    0  501  0.72544415300E+02 -0.40749302805E+02  0.14096027501E+04  0.14120563413E+04  0.00000000000E+00 0.  1.
<mgrwt>
<rscale>  0 0.68896121E+02</rscale>
<asrwt>0</asrwt>
<pdfrwt beam="2">  1        2 0.20260379E+00 0.57092391E+02</pdfrwt>
<pdfrwt beam="1">  1       -1 0.28908862E+00 0.83140248E+02</pdfrwt>
<totfact> 0.11532647E+00</totfact>
</mgrwt>
</event>
<event>
13    1  0.2038932E-008  0.9904990E+02  0.7546771E-02  0.1399012E+00
          2   -1    0    0  503    0  0.00000000000E+00  0.00000000000E+00  0.23346204711E+04  0.23346204711E+04  0.00000000000E+00 0. -1.
          2   -1    0    0  502    0 -0.00000000000E+00 -0.00000000000E+00 -0.27514948293E+04  0.27514948293E+04  0.00000000000E+00 0. -1.
         24    2    1    2    0    0  0.33804182407E+03 -0.14669014854E+03 -0.10112887379E+04  0.10777277330E+04  0.54789421424E+02 0.  0.
         25    2    1    2    0    0 -0.19687746142E+03 -0.12108867518E+03 -0.15039196513E+02  0.26319080300E+03  0.12498007553E+03 0.  0.
         24    2    1    2    0    0 -0.37780203509E+02  0.32062734880E+03  0.17916551098E+03  0.37685860899E+03  0.75451244298E+02 0.  0.
        -11    1    3    3    0    0  0.14491705706E+03 -0.36927157137E+02 -0.44329905511E+03  0.46784465437E+03  0.00000000000E+00 0.  1.
         12    1    3    3    0    0  0.19312476702E+03 -0.10976299140E+03 -0.56798968277E+03  0.60988307867E+03  0.00000000000E+00 0. -1.
        -13    1    5    5    0    0  0.19016603582E+02  0.13029680467E+03  0.55592369496E+02  0.14293145233E+03  0.00000000000E+00 0.  1.
         14    1    5    5    0    0 -0.56796807091E+02  0.19033054413E+03  0.12357314149E+03  0.23392715666E+03  0.00000000000E+00 0. -1.
          5    1    4    4  501    0 -0.16633233598E+02 -0.50304602639E+02  0.34315759630E+02  0.63299912050E+02  0.47000000000E+01 0. -1.
         -5    1    4    4    0  501 -0.18024422782E+03 -0.70784072542E+02 -0.49354956143E+02  0.19989089095E+03  0.47000000000E+01 0. -1.
          1    1    1    2  502    0 -0.32234244100E+02  0.16044000070E+02 -0.14675130112E+04  0.14679546636E+04  0.00000000000E+00 0. -1.
          1    1    1    2  503    0 -0.71149915044E+02 -0.68892525159E+02  0.18978010764E+04  0.19003834918E+04  0.00000000000E+00 0. -1.
<mgrwt>
<rscale>  0 0.59719545E+02</rscale>
<asrwt>0</asrwt>
<pdfrwt beam="1">  1        2 0.34332654E+00 0.99049896E+02</pdfrwt>
<pdfrwt beam="2">  1        2 0.40463159E+00 0.36006339E+02</pdfrwt>
<totfact> 0.44819582E+00</totfact>
</mgrwt>
</event>
<event>
13    1  0.2038932E-008  0.6252086E+02  0.7546771E-02  0.1398155E+00
         -1   -1    0    0    0  501 -0.00000000000E+00  0.00000000000E+00  0.50234453778E+03  0.50234453778E+03  0.00000000000E+00 0.  1.
          2   -1    0    0  503    0  0.00000000000E+00 -0.00000000000E+00 -0.41979904228E+04  0.41979904228E+04  0.00000000000E+00 0. -1.
         24    2    1    2    0    0 -0.78614287327E+02 -0.14340326552E+03  0.69128545780E+02  0.19477327004E+03  0.80082258627E+02 0.  0.
         25    2    1    2    0    0  0.90005784903E+01  0.18970909289E+03 -0.51839249493E+03  0.56606093307E+03  0.12499460314E+03 0.  0.
         24    2    1    2    0    0  0.83276687702E+01 -0.80651003525E+02  0.14014435766E+02  0.11405496316E+03  0.78982249752E+02 0.  0.
        -11    1    5    5    0    0  0.20032612448E+02 -0.80897775227E+02 -0.13245589309E+02  0.84387210134E+02  0.00000000000E+00 0.  1.
         12    1    5    5    0    0 -0.11704943678E+02  0.24677170138E+00  0.27260025075E+02  0.29667753030E+02  0.00000000000E+00 0. -1.
        -11    1    3    3    0    0 -0.79423626383E+02 -0.92391114400E+02  0.19111371046E+02  0.12332670007E+03  0.00000000000E+00 0.  1.
         12    1    3    3    0    0  0.80933905556E+00 -0.51012151118E+02  0.50017174734E+02  0.71446569965E+02  0.00000000000E+00 0. -1.
          5    1    4    4  502    0 -0.75275430451E+01  0.46099313945E+02 -0.27726887917E+02  0.54522297862E+02  0.47000000000E+01 0.  1.
         -5    1    4    4    0  502  0.16528121535E+02  0.14360977895E+03 -0.49066560701E+03  0.51153863521E+03  0.47000000000E+01 0.  1.
          1    1    1    2  503    0  0.58159990258E+02 -0.23002668298E+02 -0.35397231624E+04  0.35402756635E+04  0.00000000000E+00 0. -1.
         -2    1    1    2    0  501  0.31260498082E+01  0.57347844447E+02  0.27932679077E+03  0.28517013079E+03  0.00000000000E+00 0.  1.
<mgrwt>
<rscale>  0 0.59922944E+02</rscale>
<asrwt>0</asrwt>
<pdfrwt beam="2">  1        2 0.61735155E+00 0.62520856E+02</pdfrwt>
<pdfrwt beam="1">  1       -1 0.73874195E-01 0.57432982E+02</pdfrwt>
<totfact> 0.13822467E+00</totfact>
</mgrwt>
</event>
<event>
13    1  0.2038932E-008  0.5634086E+02  0.7546771E-02  0.1500965E+00
          2   -1    0    0  503    0  0.00000000000E+00  0.00000000000E+00  0.64474333023E+03  0.64474333023E+03  0.00000000000E+00 0. -1.
          2   -1    0    0  502    0 -0.00000000000E+00 -0.00000000000E+00 -0.10820663776E+04  0.10820663776E+04  0.00000000000E+00 0. -1.
         24    2    1    2    0    0  0.48826996634E+02 -0.93580990007E+02 -0.50580269788E+03  0.52396168355E+03  0.86936754897E+02 0.  0.
         25    2    1    2    0    0  0.23837951986E+02  0.42673898409E+02 -0.15010753541E+03  0.20138202796E+03  0.12503255352E+03 0.  0.
         24    2    1    2    0    0 -0.33678076471E+02 -0.10119542338E+02 -0.36620092857E+02  0.93442279032E+02  0.78446225772E+02 0.  0.
        -13    1    3    3    0    0  0.21665306863E+02 -0.36437138936E+00 -0.23427030604E+02  0.31911503426E+02  0.00000000000E+00 0.  1.
         14    1    3    3    0    0  0.27161689771E+02 -0.93216618618E+02 -0.48237566728E+03  0.49205018012E+03  0.00000000000E+00 0. -1.
        -13    1    5    5    0    0 -0.41931848442E+02 -0.83297479725E+01  0.11753106927E+02  0.44337344728E+02  0.00000000000E+00 0.  1.
         14    1    5    5    0    0  0.82537719711E+01 -0.17897943660E+01 -0.48373199785E+02  0.49104934304E+02  0.00000000000E+00 0. -1.
          5    1    4    4  501    0  0.74235859674E+02  0.14817026554E+02 -0.75484730175E+02  0.10700720362E+03  0.47000000000E+01 0. -1.
         -5    1    4    4    0  501 -0.50397907687E+02  0.27856871855E+02 -0.74622805231E+02  0.94374824341E+02  0.47000000000E+01 0. -1.
          1    1    1    2  502    0 -0.29320238426E+02  0.55404684562E+01 -0.32435828855E+03  0.32572791180E+03  0.00000000000E+00 0. -1.
          1    1    1    2  503    0 -0.96666337227E+01  0.55486165481E+02  0.57956556728E+03  0.58229580553E+03  0.00000000000E+00 0. -1.
<mgrwt>
<rscale>  0 0.41001972E+02</rscale>
<asrwt>0</asrwt>
<pdfrwt beam="1">  1        2 0.94815196E-01 0.56340857E+02</pdfrwt>
<pdfrwt beam="2">  1        2 0.15912741E+00 0.29839122E+02</pdfrwt>
<totfact> 0.22292458E+02</totfact>
</mgrwt>
</event>
<event>
13    1  0.2038932E-008  0.2996318E+03  0.7546771E-02  0.1194273E+00
          2   -1    0    0  503    0  0.00000000000E+00  0.00000000000E+00  0.14811517041E+04  0.14811517041E+04  0.00000000000E+00 0. -1.
          2   -1    0    0  502    0 -0.00000000000E+00 -0.00000000000E+00 -0.35968926824E+04  0.35968926824E+04  0.00000000000E+00 0. -1.
         24    2    1    2    0    0 -0.23621910265E+03  0.46124951368E+02 -0.17087980838E+03  0.30617815959E+03  0.81352202814E+02 0.  0.
         25    2    1    2    0    0  0.10897528547E+03  0.23043218287E+03  0.11119155934E+03  0.30489792082E+03  0.12499830201E+03 0.  0.
         24    2    1    2    0    0  0.10600563018E+03  0.17099004135E+02  0.38340793156E+03  0.40694350746E+03  0.84094034894E+02 0.  0.
        -13    1    3    3    0    0 -0.22286773131E+03  0.62669435217E+02 -0.14715309611E+03  0.27432010037E+03  0.00000000000E+00 0.  1.
         14    1    3    3    0    0 -0.13351371339E+02 -0.16544483849E+02 -0.23726712263E+02  0.31858059220E+02  0.00000000000E+00 0. -1.
        -13    1    5    5    0    0  0.52438912621E+02 -0.33864707369E+02  0.17152251882E+03  0.18252844278E+03  0.00000000000E+00 0.  1.
         14    1    5    5    0    0  0.53566717558E+02  0.50963711504E+02  0.21188541275E+03  0.22441506468E+03  0.00000000000E+00 0. -1.
          5    1    4    4  501    0  0.93571033102E+02  0.14950844968E+03  0.13134814646E+03  0.21996077001E+03  0.47000000000E+01 0.  1.
         -5    1    4    4    0  501  0.15404252371E+02  0.80923733190E+02 -0.20156587124E+02  0.84937150817E+02  0.47000000000E+01 0.  1.
          1    1    1    2  502    0  0.10124211267E+03 -0.28624407714E+03 -0.32406372153E+04  0.32548295191E+04  0.00000000000E+00 0. -1.
          1    1    1    2  503    0 -0.80003925671E+02 -0.74120612372E+01  0.80117655445E+03  0.80519527953E+03  0.00000000000E+00 0. -1.
<mgrwt>
<rscale>  0 0.15515922E+03</rscale>
<asrwt>0</asrwt>
<pdfrwt beam="1">  1        2 0.21781643E+00 0.80346542E+02</pdfrwt>
<pdfrwt beam="2">  1        2 0.52895480E+00 0.29963184E+03</pdfrwt>
<totfact> 0.28547651E+00</totfact>
</mgrwt>
</event>
<event>
13    1  0.2038932E-008  0.1783640E+03  0.7546771E-02  0.1358168E+00
         -1   -1    0    0    0  501 -0.00000000000E+00  0.00000000000E+00  0.18403635546E+04  0.18403635546E+04  0.00000000000E+00 0.  1.
          2   -1    0    0  503    0  0.00000000000E+00 -0.00000000000E+00 -0.96683524888E+03  0.96683524888E+03  0.00000000000E+00 0. -1.
         24    2    1    2    0    0 -0.16161680386E+03 -0.12510180158E+03  0.34404013334E+02  0.22223048845E+03  0.80201632248E+02 0.  0.
         25    2    1    2    0    0 -0.15188951349E+03  0.65088951473E+01 -0.48966455545E+03  0.52773956672E+03  0.12499953356E+03 0.  0.
         24    2    1    2    0    0 -0.50407603403E+02  0.51420898373E+02  0.76884385878E+02  0.13151549270E+03  0.78740591552E+02 0.  0.
        -11    1    5    5    0    0 -0.10459438704E+02  0.63912518565E+02  0.49216525981E+02  0.81341725559E+02  0.00000000000E+00 0.  1.
         12    1    5    5    0    0 -0.39948164699E+02 -0.12491620192E+02  0.27667859897E+02  0.50173767141E+02  0.00000000000E+00 0. -1.
        -13    1    3    3    0    0 -0.15075108884E+03 -0.75678927764E+02  0.31063473516E+02  0.17151714282E+03  0.00000000000E+00 0.  1.
         14    1    3    3    0    0 -0.10865715026E+02 -0.49422873820E+02  0.33405398186E+01  0.50713345640E+02  0.00000000000E+00 0. -1.
          5    1    4    4  502    0 -0.11648444202E+03  0.43032184790E+02 -0.43718204746E+03  0.45450041450E+03  0.47000000000E+01 0. -1.
         -5    1    4    4    0  502 -0.35405071474E+02 -0.36523289642E+02 -0.52482507991E+02  0.73239152217E+02  0.47000000000E+01 0. -1.
          1    1    1    2  503    0  0.68969857029E+01 -0.27055329270E+02 -0.31482506203E+03  0.31606072033E+03  0.00000000000E+00 0. -1.
         -2    1    1    2    0  501  0.35701693505E+03  0.94227337335E+02  0.15667295240E+04  0.16096525353E+04  0.00000000000E+00 0.  1.
<mgrwt>
<rscale>  0 0.70569304E+02</rscale>
<asrwt>0</asrwt>
<pdfrwt beam="2">  1        2 0.14218165E+00 0.27920588E+02</pdfrwt>
<pdfrwt beam="1">  1       -1 0.27064170E+00 0.17836396E+03</pdfrwt>
<totfact> 0.23231874E+00</totfact>
</mgrwt>
</event>
<event>
13    1  0.2038932E-008  0.1908365E+03  0.7546771E-02  0.1291304E+00
          2   -1    0    0  502    0  0.00000000000E+00  0.00000000000E+00  0.16909928663E+04  0.16909928663E+04  0.00000000000E+00 0. -1.
          2   -1    0    0  503    0 -0.00000000000E+00 -0.00000000000E+00 -0.19533852299E+04  0.19533852299E+04  0.00000000000E+00 0. -1.
         24    2    1    2    0    0 -0.99934967890E+02 -0.10915148915E+03 -0.36511247963E+03  0.40226353995E+03  0.81288298063E+02 0.  0.
         25    2    1    2    0    0 -0.25809496686E+02  0.36078997454E+03  0.59638144606E+02  0.38731856182E+03  0.12499369661E+03 0.  0.
         24    2    1    2    0    0 -0.92428218958E+01 -0.12495484588E+03 -0.17730414173E+03  0.23133941253E+03  0.79887557549E+02 0.  0.
        -11    1    3    3    0    0  0.88746317319E+01 -0.37564655021E+02 -0.83691029421E+02  0.92163174863E+02  0.00000000000E+00 0.  1.
         12    1    3    3    0    0 -0.10880959962E+03 -0.71586834127E+02 -0.28142145021E+03  0.31010036508E+03  0.00000000000E+00 0. -1.
        -13    1    5    5    0    0 -0.30510197917E+02 -0.11310380010E+03 -0.16896824569E+03  0.20560547129E+03  0.00000000000E+00 0.  1.
         14    1    5    5    0    0  0.21267376021E+02 -0.11851045780E+02 -0.83358960368E+01  0.25733941238E+02  0.00000000000E+00 0. -1.
          5    1    4    4  501    0 -0.30933054121E+02  0.10134012533E+03  0.70825830505E+02  0.12753455651E+03  0.47000000000E+01 0. -1.
         -5    1    4    4    0  501  0.51235574347E+01  0.25944984921E+03 -0.11187685899E+02  0.25978400531E+03  0.47000000000E+01 0. -1.
          1    1    1    2  502    0  0.46998062115E+02  0.47270309328E+01  0.14163219811E+04  0.14171094230E+04  0.00000000000E+00 0. -1.
          1    1    1    2  503    0  0.87989224357E+02 -0.13141067045E+03 -0.11959358678E+04  0.12063471589E+04  0.00000000000E+00 0. -1.
<mgrwt>
<rscale>  0 0.94943128E+02</rscale>
<asrwt>0</asrwt>
<pdfrwt beam="1">  1        2 0.24867542E+00 0.47235185E+02</pdfrwt>
<pdfrwt beam="2">  1        2 0.28726253E+00 0.19083650E+03</pdfrwt>
<totfact> 0.19503904E+01</totfact>
</mgrwt>
</event>
<event>
13    1  0.2038932E-008  0.1235675E+03  0.7546771E-02  0.1364766E+00
          2   -1    0    0  502    0  0.00000000000E+00  0.00000000000E+00  0.27812348144E+04  0.27812348144E+04  0.00000000000E+00 0. -1.
          4   -1    0    0  503    0 -0.00000000000E+00 -0.00000000000E+00 -0.80549096341E+03  0.80549096341E+03  0.00000000000E+00 0. -1.
         24    2    1    2    0    0  0.65999927400E+01 -0.76348727240E+02 -0.34678323889E+02  0.11694815161E+03  0.81250205918E+02 0.  0.
         25    2    1    2    0    0  0.76697807061E+01  0.20243569615E+03  0.20884617635E+04  0.21019839890E+04  0.12500046168E+03 0.  0.
         24    2    1    2    0    0  0.30328951841E+02  0.30399400859E+02  0.43965206814E+02  0.10123636827E+03  0.80448082370E+02 0.  0.
        -11    1    3    3    0    0 -0.24650025165E+02  0.44519082482E+01 -0.72589563137E+01  0.26079410930E+02  0.00000000000E+00 0.  1.
         12    1    3    3    0    0  0.31250017905E+02 -0.80800635488E+02 -0.27419367575E+02  0.90868740679E+02  0.00000000000E+00 0. -1.
        -13    1    5    5    0    0  0.35238844579E+02 -0.19763765863E+02  0.24204835145E+02  0.47098372082E+02  0.00000000000E+00 0.  1.
         14    1    5    5    0    0 -0.49098927377E+01  0.50163166722E+02  0.19760371669E+02  0.54137996184E+02  0.00000000000E+00 0. -1.
          5    1    4    4  501    0 -0.46152801108E+02  0.10645296230E+03  0.74278698803E+03  0.75180909400E+03  0.47000000000E+01 0.  1.
         -5    1    4    4    0  501  0.53822581814E+02  0.95982733845E+02  0.13456747755E+04  0.13501748949E+04  0.47000000000E+01 0.  1.
          1    1    1    2  502    0 -0.11948211869E+02  0.36212862714E+02  0.55785753507E+03  0.55915933384E+03  0.00000000000E+00 0. -1.
          3    1    1    2  503    0 -0.32650513419E+02 -0.19269923248E+03 -0.67986233051E+03  0.70739793517E+03  0.00000000000E+00 0. -1.
<mgrwt>
<rscale>  0 0.68644084E+02</rscale>
<asrwt>0</asrwt>
<pdfrwt beam="1">  1        2 0.40900512E+00 0.38133072E+02</pdfrwt>
<pdfrwt beam="2">  1        4 0.11845455E+00 0.12356755E+03</pdfrwt>
<totfact> 0.12995752E+00</totfact>
</mgrwt>
</event>
<event>
13    1  0.2038932E-008  0.9929441E+02  0.7546771E-02  0.1303041E+00
          2   -1    0    0  503    0  0.00000000000E+00  0.00000000000E+00  0.12052624053E+04  0.12052624053E+04  0.00000000000E+00 0. -1.
          2   -1    0    0  502    0 -0.00000000000E+00 -0.00000000000E+00 -0.22391427381E+04  0.22391427381E+04  0.00000000000E+00 0. -1.
         24    2    1    2    0    0  0.19799922814E+02 -0.50945483220E+02 -0.38322032224E+03  0.39528458021E+03  0.80028774638E+02 0.  0.
         25    2    1    2    0    0  0.28014659684E+02  0.70023025832E+02  0.77737349557E+02  0.16539143582E+03  0.12499274468E+03 0.  0.
         24    2    1    2    0    0  0.61029930053E+02  0.70458335803E+02 -0.93093821713E+02  0.15492605265E+03  0.81526637999E+02 0.  0.
        -11    1    3    3    0    0 -0.13131270413E+02  0.65046165457E+01 -0.19874073172E+03  0.19928025177E+03  0.00000000000E+00 0.  1.
         12    1    3    3    0    0  0.32931193228E+02 -0.57450099766E+02 -0.18447959051E+03  0.19600432844E+03  0.00000000000E+00 0. -1.
        -13    1    5    5    0    0  0.43001026060E+02  0.11142142395E+02 -0.80085918179E+02  0.91580510317E+02  0.00000000000E+00 0.  1.
         14    1    5    5    0    0  0.18028903993E+02  0.59316193408E+02 -0.13007903534E+02  0.63345542337E+02  0.00000000000E+00 0. -1.
          5    1    4    4  501    0  0.20788232709E+02  0.96323451323E+02  0.19008691876E+02  0.10046779713E+03  0.47000000000E+01 0.  1.
         -5    1    4    4    0  501  0.72264269753E+01 -0.26300425491E+02  0.58728657681E+02  0.64923638690E+02  0.47000000000E+01 0.  1.
          1    1    1    2  502    0 -0.10006262292E+02 -0.80817286947E+02 -0.16787127425E+04  0.16806867736E+04  0.00000000000E+00 0. -1.
          1    1    1    2  503    0 -0.98838250259E+02 -0.87185914686E+01  0.10434092040E+04  0.10481163011E+04  0.00000000000E+00 0. -1.
<mgrwt>
<rscale>  0 0.89922076E+02</rscale>
<asrwt>0</asrwt>
<pdfrwt beam="1">  1        2 0.17724448E+00 0.99294415E+02</pdfrwt>
<pdfrwt beam="2">  1        2 0.32928569E+00 0.81434386E+02</pdfrwt>
<totfact> 0.25371797E+01</totfact>
</mgrwt>
</event>
<event>
13    1  0.2038932E-008  0.5606098E+02  0.7546771E-02  0.1510311E+00
          2   -1    0    0  503    0  0.00000000000E+00  0.00000000000E+00  0.13750237795E+04  0.13750237795E+04  0.00000000000E+00 0. -1.
         -1   -1    0    0    0  501 -0.00000000000E+00 -0.00000000000E+00 -0.36516157020E+03  0.36516157020E+03  0.00000000000E+00 0.  1.
         24    2    1    2    0    0  0.45733639678E+01 -0.12160568059E+03  0.95822813728E+02  0.17392483010E+03  0.79113701004E+02 0.  0.
         25    2    1    2    0    0  0.91249204065E+02  0.40117944579E+02 -0.54366826810E+02  0.16886680016E+03  0.12499751046E+03 0.  0.
         24    2    1    2    0    0 -0.31266075997E+02  0.49339744838E+02  0.50595228107E+03  0.51567882305E+03  0.80777223888E+02 0.  0.
        -11    1    5    5    0    0 -0.54881954701E+02  0.52385553081E+02  0.38667043213E+03  0.39404352324E+03  0.00000000000E+00 0.  1.
         12    1    5    5    0    0  0.23615878704E+02 -0.30458082429E+01  0.11928184894E+03  0.12163529982E+03  0.00000000000E+00 0. -1.
        -13    1    3    3    0    0  0.20118614511E+02 -0.26094225440E+01 -0.10783770622E+00  0.20287418880E+02  0.00000000000E+00 0.  1.
         14    1    3    3    0    0 -0.15545250543E+02 -0.11899625804E+03  0.95930651434E+02  0.15363741122E+03  0.00000000000E+00 0. -1.
          5    1    4    4  502    0 -0.12192330419E+02 -0.11036757401E+02  0.23871513766E+02  0.29366683579E+02  0.47000000000E+01 0.  1.
         -5    1    4    4    0  502  0.10344153448E+03  0.51154701981E+02 -0.78238340575E+02  0.13950011658E+03  0.47000000000E+01 0.  1.
          1    1    1    2  503    0 -0.88197554552E+01  0.26718560458E+02  0.66804300621E+03  0.66863527255E+03  0.00000000000E+00 0. -1.
         -2    1    1    2    0  501 -0.55736736580E+02  0.54294307101E+01 -0.20558906485E+03  0.21307962387E+03  0.00000000000E+00 0.  1.
<mgrwt>
<rscale>  0 0.39716074E+02</rscale>
<asrwt>0</asrwt>
<pdfrwt beam="1">  1        2 0.20220938E+00 0.28136623E+02</pdfrwt>
<pdfrwt beam="2">  1       -1 0.53700232E-01 0.56060976E+02</pdfrwt>
<totfact> 0.85437789E+01</totfact>
</mgrwt>
</event>
<event>
13    1  0.2038932E-008  0.7217964E+02  0.7546771E-02  0.1429303E+00
          2   -1    0    0  502    0  0.00000000000E+00  0.00000000000E+00  0.86492867906E+03  0.86492867906E+03  0.00000000000E+00 0. -1.
          2   -1    0    0  503    0 -0.00000000000E+00 -0.00000000000E+00 -0.24279732427E+04  0.24279732427E+04  0.00000000000E+00 0. -1.
         24    2    1    2    0    0  0.27708920887E+03  0.11419594814E+03 -0.14175226608E+04  0.14510687729E+04  0.80068380385E+02 0.  0.
         25    2    1    2    0    0 -0.14432955038E+03 -0.93412435649E+01  0.34008861768E+03  0.39013297787E+03  0.12500077838E+03 0.  0.
         24    2    1    2    0    0 -0.85831105640E+02 -0.22255847580E+02 -0.66764198451E+03  0.67817726018E+03  0.79474997921E+02 0.  0.
        -11    1    5    5    0    0 -0.41658265067E+02 -0.29084453328E+02 -0.54981005919E+03  0.55215253115E+03  0.00000000000E+00 0.  1.
         12    1    5    5    0    0 -0.44172840573E+02  0.68286057480E+01 -0.11783192532E+03  0.12602472902E+03  0.00000000000E+00 0. -1.
        -11    1    3    3    0    0  0.41300094581E+02  0.60425885876E+01 -0.34997465446E+03  0.35245491833E+03  0.00000000000E+00 0.  1.
         12    1    3    3    0    0  0.23578911429E+03  0.10815335956E+03 -0.10675480064E+04  0.10986138546E+04  0.00000000000E+00 0. -1.
          5    1    4    4  501    0 -0.13217019529E+03  0.40220260791E+02  0.26973153112E+03  0.30309044654E+03  0.47000000000E+01 0.  1.
         -5    1    4    4    0  501 -0.12159355084E+02 -0.49561504356E+02  0.70357086562E+02  0.87042531326E+02  0.47000000000E+01 0.  1.
          1    1    1    2  502    0  0.95057813456E+01 -0.37889865391E+02  0.47257739946E+03  0.47418920302E+03  0.00000000000E+00 0. -1.
          1    1    1    2  503    0 -0.56434334203E+02 -0.44708991609E+02 -0.29054593540E+03  0.29933370774E+03  0.00000000000E+00 0. -1.
<mgrwt>
<rscale>  0 0.53100195E+02</rscale>
<asrwt>0</asrwt>
<pdfrwt beam="1">  1        2 0.12719540E+00 0.39064073E+02</pdfrwt>
<pdfrwt beam="2">  1        2 0.35705488E+00 0.72179640E+02</pdfrwt>
<totfact> 0.33838083E+01</totfact>
</mgrwt>
</event>
<event>
13    1  0.2038932E-008  0.5449141E+02  0.7546771E-02  0.1433146E+00
          2   -1    0    0  502    0  0.00000000000E+00  0.00000000000E+00  0.34924430172E+04  0.34924430172E+04  0.00000000000E+00 0. -1.
          2   -1    0    0  503    0 -0.00000000000E+00 -0.00000000000E+00 -0.33503121751E+04  0.33503121751E+04  0.00000000000E+00 0. -1.
         24    2    1    2    0    0 -0.16253992915E+04  0.31465906958E+03 -0.51757836770E+03  0.17366836910E+04  0.85145105234E+02 0.  0.
         25    2    1    2    0    0  0.12394298062E+04 -0.37612681618E+03  0.34674593307E+03  0.13466682363E+04  0.12499988094E+03 0.  0.
         24    2    1    2    0    0  0.39269545660E+03  0.49528466267E+02  0.11657873313E+04  0.12337768618E+04  0.80513677030E+02 0.  0.
        -11    1    3    3    0    0 -0.93291145928E+03  0.14434459379E+03 -0.31848040021E+03  0.99628756789E+03  0.00000000000E+00 0.  1.
         12    1    3    3    0    0 -0.69248783224E+03  0.17031447579E+03 -0.19909796749E+03  0.74039612311E+03  0.00000000000E+00 0. -1.
        -13    1    5    5    0    0  0.15765049392E+03 -0.46454711191E+01  0.55844221426E+03  0.58028696806E+03  0.00000000000E+00 0.  1.
         14    1    5    5    0    0  0.23504496268E+03  0.54173937386E+02  0.60734511706E+03  0.65348989371E+03  0.00000000000E+00 0. -1.
          5    1    4    4  501    0  0.46805910753E+03 -0.85046725402E+02  0.15286157985E+03  0.49970093680E+03  0.47000000000E+01 0. -1.
         -5    1    4    4    0  501  0.77137069863E+03 -0.29108009078E+03  0.19388435322E+03  0.84696729947E+03  0.47000000000E+01 0. -1.
          1    1    1    2  502    0 -0.38438295752E+02 -0.32383631950E+02  0.83520592052E+03  0.83671687677E+03  0.00000000000E+00 0. -1.
          1    1    1    2  503    0  0.31712324511E+02  0.44322912282E+02 -0.16880299750E+04  0.16889095265E+04  0.00000000000E+00 0. -1.
<mgrwt>
<rscale>  0 0.52333651E+02</rscale>
<asrwt>0</asrwt>
<pdfrwt beam="1">  1        2 0.51359457E+00 0.50261339E+02</pdfrwt>
<pdfrwt beam="2">  1        2 0.49269296E+00 0.54491406E+02</pdfrwt>
<totfact> 0.56339484E-01</totfact>
</mgrwt>
</event>
<event>
13    1  0.2038932E-008  0.8100870E+02  0.7546771E-02  0.1354815E+00
          2   -1    0    0  503    0  0.00000000000E+00  0.00000000000E+00  0.55810109115E+03  0.55810109115E+03  0.00000000000E+00 0. -1.
          2   -1    0    0  502    0 -0.00000000000E+00 -0.00000000000E+00 -0.13426482869E+04  0.13426482869E+04  0.00000000000E+00 0. -1.
         24    2    1    2    0    0 -0.36919024859E+02  0.64856192519E+02 -0.66942378870E+03  0.67841276662E+03  0.80909411897E+02 0.  0.
         25    2    1    2    0    0 -0.49038473644E+02 -0.18678075835E+03  0.21394347099E+03  0.31414839895E+03  0.12500233676E+03 0.  0.
         24    2    1    2    0    0  0.55996626430E+02 -0.18328665520E+02 -0.22835423700E+02  0.10072007830E+03  0.78431597236E+02 0.  0.
        -11    1    5    5    0    0 -0.19332122727E+02 -0.83271558665E+01 -0.11203565023E+02  0.23845174841E+02  0.00000000000E+00 0.  1.
         12    1    5    5    0    0  0.75328749157E+02 -0.10001509654E+02 -0.11631858678E+02  0.76874903455E+02  0.00000000000E+00 0. -1.
        -13    1    3    3    0    0 -0.47395703182E+02  0.66911468770E+01 -0.38108564916E+03  0.38407993455E+03  0.00000000000E+00 0.  1.
         14    1    3    3    0    0  0.10476678323E+02  0.58165045642E+02 -0.28833813953E+03  0.29433283207E+03  0.00000000000E+00 0. -1.
          5    1    4    4  501    0 -0.43960716023E+02 -0.52685603269E+02  0.93245952957E+01  0.69407171262E+02  0.47000000000E+01 0. -1.
         -5    1    4    4    0  501 -0.50777576207E+01 -0.13409515508E+03  0.20461887570E+03  0.24474122769E+03  0.47000000000E+01 0. -1.
          1    1    1    2  502    0  0.20813220499E+02  0.77676796274E+02 -0.54988853611E+03  0.55573759723E+03  0.00000000000E+00 0. -1.
          1    1    1    2  503    0  0.91476515733E+01  0.62576435075E+02  0.24365708175E+03  0.25173053697E+03  0.00000000000E+00 0. -1.
<mgrwt>
<rscale>  0 0.71575926E+02</rscale>
<asrwt>0</asrwt>
<pdfrwt beam="1">  1        2 0.82073691E-01 0.63241519E+02</pdfrwt>
<pdfrwt beam="2">  1        2 0.19744828E+00 0.81008698E+02</pdfrwt>
<totfact> 0.17974821E+02</totfact>
</mgrwt>
</event>
<event>
13    1  0.2038932E-008  0.1190931E+03  0.7546771E-02  0.1304659E+00
          2   -1    0    0  502    0  0.00000000000E+00  0.00000000000E+00  0.10836415221E+04  0.10836415221E+04  0.00000000000E+00 0. -1.
          2   -1    0    0  503    0 -0.00000000000E+00 -0.00000000000E+00 -0.37855029471E+03  0.37855029471E+03  0.00000000000E+00 0. -1.
         24    2    1    2    0    0 -0.19008910489E+02 -0.13094539159E+02  0.48906694897E+02  0.91046354842E+02  0.73244578573E+02 0.  0.
         25    2    1    2    0    0 -0.10435844365E+03  0.13188239945E+03  0.46783278324E+03  0.51261802220E+03  0.12500428621E+03 0.  0.
         24    2    1    2    0    0 -0.50081270812E+02 -0.53281729759E+02  0.15477385397E+03  0.18974054423E+03  0.81850179234E+02 0.  0.
        -11    1    5    5    0    0  0.17462239271E+02  0.24413874335E+01  0.50992404593E+02  0.53954754185E+02  0.00000000000E+00 0.  1.
         12    1    5    5    0    0 -0.67543510083E+02 -0.55723117192E+02  0.10378144938E+03  0.13578579005E+03  0.00000000000E+00 0. -1.
        -13    1    3    3    0    0 -0.32449553477E+02  0.18176654535E+02  0.83866302450E+01  0.38127416092E+02  0.00000000000E+00 0.  1.
         14    1    3    3    0    0  0.13440642988E+02 -0.31271193694E+02  0.40520064652E+02  0.52918938750E+02  0.00000000000E+00 0. -1.
          5    1    4    4  501    0 -0.54043212073E+01  0.24604202708E+02  0.24415213046E+03  0.24549323064E+03  0.47000000000E+01 0. -1.
         -5    1    4    4    0  501 -0.98954122439E+02  0.10727819674E+03  0.22368065277E+03  0.26712479157E+03  0.47000000000E+01 0. -1.
          1    1    1    2  502    0  0.62407910960E+02 -0.24091828247E+02  0.33672064248E+03  0.34330155055E+03  0.00000000000E+00 0. -1.
          1    1    1    2  503    0  0.11104071399E+03 -0.41414302287E+02 -0.30314274722E+03  0.32548534497E+03  0.00000000000E+00 0. -1.
<mgrwt>
<rscale>  0 0.89257656E+02</rscale>
<asrwt>0</asrwt>
<pdfrwt beam="1">  1        2 0.15935905E+00 0.66896663E+02</pdfrwt>
<pdfrwt beam="2">  1        2 0.55669161E-01 0.11909307E+03</pdfrwt>
<totfact> 0.37299378E+02</totfact>
</mgrwt>
</event>
<event>
13    1  0.2038932E-008  0.3656797E+02  0.7546771E-02  0.1538185E+00
          2   -1    0    0  503    0  0.00000000000E+00  0.00000000000E+00  0.17848882053E+04  0.17848882053E+04  0.00000000000E+00 0. -1.
          2   -1    0    0  502    0 -0.00000000000E+00 -0.00000000000E+00 -0.30906451251E+04  0.30906451251E+04  0.00000000000E+00 0. -1.
         24    2    1    2    0    0  0.15364259838E+04  0.24782114142E+03 -0.65286942980E+03  0.16894333940E+04  0.76984273385E+02 0.  0.
         25    2    1    2    0    0 -0.63093518644E+03  0.37130552090E+03 -0.38326143393E+03  0.83573994699E+03  0.12499973164E+03 0.  0.
         24    2    1    2    0    0 -0.96515868976E+03 -0.64672322367E+03 -0.34450228381E+03  0.12144435194E+04  0.80056316788E+02 0.  0.
        -11    1    3    3    0    0  0.49025915520E+03  0.78788961989E+02 -0.16968186397E+03  0.52474153138E+03  0.00000000000E+00 0.  1.
         12    1    3    3    0    0  0.10461668286E+04  0.16903217943E+03 -0.48318756583E+03  0.11646918626E+04  0.00000000000E+00 0. -1.
        -13    1    5    5    0    0 -0.58379886453E+03 -0.34469113607E+03 -0.19204541649E+03  0.70463787544E+03  0.00000000000E+00 0.  1.
         14    1    5    5    0    0 -0.38135982523E+03 -0.30203208760E+03 -0.15245686732E+03  0.50980564398E+03  0.00000000000E+00 0. -1.
          5    1    4    4  501    0 -0.84602045789E+02  0.21712776608E+02 -0.84481281760E+02  0.12160644632E+03  0.47000000000E+01 0. -1.
         -5    1    4    4    0  501 -0.54633314066E+03  0.34959274430E+03 -0.29878015217E+03  0.71413350067E+03  0.47000000000E+01 0. -1.
          1    1    1    2  502    0  0.36554950574E+02  0.20731847753E+00 -0.52935883420E+03  0.53061952728E+03  0.00000000000E+00 0. -1.
          1    1    1    2  503    0  0.23112941790E+02  0.27389242871E+02  0.60423506201E+03  0.60529694272E+03  0.00000000000E+00 0. -1.
<mgrwt>
<rscale>  0 0.36201261E+02</rscale>
<asrwt>0</asrwt>
<pdfrwt beam="1">  1        2 0.26248356E+00 0.35838230E+02</pdfrwt>
<pdfrwt beam="2">  1        2 0.45450663E+00 0.36567970E+02</pdfrwt>
<totfact> 0.61503483E+00</totfact>
</mgrwt>
</event>
<event>
13    1  0.2038932E-008  0.5979087E+02  0.7546771E-02  0.1468016E+00
          2   -1    0    0  503    0  0.00000000000E+00  0.00000000000E+00  0.12846487343E+04  0.12846487343E+04  0.00000000000E+00 0. -1.
          2   -1    0    0  502    0 -0.00000000000E+00 -0.00000000000E+00 -0.27662761144E+04  0.27662761144E+04  0.00000000000E+00 0. -1.
         24    2    1    2    0    0  0.92149495263E+03  0.68817932059E+03  0.94976514332E+02  0.11579788033E+04  0.95659007131E+02 0.  0.
         25    2    1    2    0    0 -0.52093252480E+03 -0.67540836310E+03  0.77716154682E+02  0.86557097649E+03  0.12500464911E+03 0.  0.
         24    2    1    2    0    0 -0.31724087985E+03 -0.58459879216E+02 -0.41776993149E+03  0.53439232620E+03  0.83570983714E+02 0.  0.
        -11    1    5    5    0    0 -0.24601550230E+03 -0.73752370215E+02 -0.35541995446E+03  0.43850471321E+03  0.00000000000E+00 0.  1.
         12    1    5    5    0    0 -0.71225377553E+02  0.15292490999E+02 -0.62349977028E+02  0.95887612985E+02  0.00000000000E+00 0. -1.
        -13    1    3    3    0    0  0.68296742360E+03  0.51406201515E+03  0.11228141961E+03  0.86215507556E+03  0.00000000000E+00 0.  1.
         14    1    3    3    0    0  0.23852752903E+03  0.17411730544E+03 -0.17304905279E+02  0.29582372776E+03  0.00000000000E+00 0. -1.
          5    1    4    4  501    0 -0.90101100312E+02 -0.58971033383E+02 -0.10653350917E+02  0.10831147188E+03  0.47000000000E+01 0.  1.
         -5    1    4    4    0  501 -0.43083142449E+03 -0.61643732971E+03  0.88369505599E+02  0.75725950461E+03  0.47000000000E+01 0.  1.
          1    1    1    2  502    0 -0.30543940863E+02  0.17964563083E+02 -0.13575928014E+04  0.13580551801E+04  0.00000000000E+00 0. -1.
          1    1    1    2  503    0 -0.52777607110E+02  0.27724358641E+02  0.12104268369E+03  0.13492756260E+03  0.00000000000E+00 0. -1.
<mgrwt>
<rscale>  0 0.46029395E+02</rscale>
<asrwt>0</asrwt>
<pdfrwt beam="1">  1        2 0.18891893E+00 0.59790871E+02</pdfrwt>
<pdfrwt beam="2">  1        2 0.40680531E+00 0.35435263E+02</pdfrwt>
<totfact> 0.14899940E+01</totfact>
</mgrwt>
</event>
<event>
13    1  0.2038932E-008  0.5655199E+02  0.7546771E-02  0.1414038E+00
          2   -1    0    0  503    0  0.00000000000E+00  0.00000000000E+00  0.13828537735E+04  0.13828537735E+04  0.00000000000E+00 0. -1.
          2   -1    0    0  502    0 -0.00000000000E+00 -0.00000000000E+00 -0.15155919468E+04  0.15155919468E+04  0.00000000000E+00 0. -1.
         24    2    1    2    0    0 -0.72021188635E+02 -0.63804349357E+02  0.17218338840E+03  0.21352333142E+03  0.81774367693E+02 0.  0.
         25    2    1    2    0    0  0.49456996556E+02  0.26900145921E+02 -0.93417445483E+02  0.16589670741E+03  0.12500114420E+03 0.  0.
         24    2    1    2    0    0  0.59807576778E+02  0.68050949826E+02  0.56204871434E+03  0.57478208444E+03  0.79169497204E+02 0.  0.
        -11    1    5    5    0    0  0.70173873720E+02  0.65071038872E+02  0.36179835767E+03  0.37424145183E+03  0.00000000000E+00 0.  1.
         12    1    5    5    0    0 -0.10366296943E+02  0.29799109537E+01  0.20025035667E+03  0.20054063261E+03  0.00000000000E+00 0. -1.
        -13    1    3    3    0    0 -0.21000770878E+02  0.12487721296E+02  0.85088956882E+01  0.25872318537E+02  0.00000000000E+00 0.  1.
         14    1    3    3    0    0 -0.51020417758E+02 -0.76292070653E+02  0.16367449271E+03  0.18765101288E+03  0.00000000000E+00 0. -1.
          5    1    4    4  501    0  0.32419077728E+02  0.41171522608E+02  0.15330411205E+02  0.54801481571E+02  0.47000000000E+01 0.  1.
         -5    1    4    4    0  501  0.17037918828E+02 -0.14271376687E+02 -0.10874785669E+03  0.11109522584E+03  0.47000000000E+01 0.  1.
          1    1    1    2  502    0 -0.50598194484E+02  0.24122300502E+02 -0.13569373890E+04  0.13580946728E+04  0.00000000000E+00 0. -1.
          1    1    1    2  503    0  0.13354809785E+02 -0.55269046892E+02  0.58338455839E+03  0.58614892430E+03  0.00000000000E+00 0. -1.
<mgrwt>
<rscale>  0 0.56302495E+02</rscale>
<asrwt>0</asrwt>
<pdfrwt beam="1">  1        2 0.20336085E+00 0.56551986E+02</pdfrwt>
<pdfrwt beam="2">  1        2 0.22288117E+00 0.56054105E+02</pdfrwt>
<totfact> 0.49036426E+01</totfact>
</mgrwt>
</event>
<event>
13    1  0.2038932E-008  0.1131610E+03  0.7546771E-02  0.1318612E+00
          2   -1    0    0  502    0  0.00000000000E+00  0.00000000000E+00  0.70800722690E+03  0.70800722690E+03  0.00000000000E+00 0. -1.
          2   -1    0    0  503    0 -0.00000000000E+00 -0.00000000000E+00 -0.29477710769E+04  0.29477710769E+04  0.00000000000E+00 0. -1.
         24    2    1    2    0    0  0.31781159129E+02 -0.15836801622E+02 -0.27804369382E+03  0.29130315988E+03  0.79299362675E+02 0.  0.
         25    2    1    2    0    0  0.19523839174E+03  0.71247174333E+02 -0.68163607970E+02  0.25192495973E+03  0.12500287366E+03 0.  0.
         24    2    1    2    0    0 -0.68128303949E+02 -0.41947386883E+01 -0.13405860874E+03  0.16975285931E+03  0.78646430535E+02 0.  0.
        -13    1    5    5    0    0  0.17249458599E+02  0.19145506656E+01 -0.13961478459E+02  0.22274025388E+02  0.00000000000E+00 0.  1.
         14    1    5    5    0    0 -0.85377762548E+02 -0.61092893539E+01 -0.12009713028E+03  0.14747883392E+03  0.00000000000E+00 0. -1.
        -13    1    3    3    0    0  0.35677789143E+02 -0.21577431531E+02 -0.59530917821E+02  0.72680261187E+02  0.00000000000E+00 0.  1.
         14    1    3    3    0    0 -0.38966300140E+01  0.57406299099E+01 -0.21851277600E+03  0.21862289869E+03  0.00000000000E+00 0. -1.
          5    1    4    4  501    0  0.65066165142E+02  0.89350748647E+02 -0.24057445755E+02  0.11321666320E+03  0.47000000000E+01 0. -1.
         -5    1    4    4    0  501  0.13017222659E+03 -0.18103574314E+02 -0.44106162214E+02  0.13870829652E+03  0.47000000000E+01 0. -1.
          1    1    1    2  502    0 -0.11236249731E+03 -0.10162197915E+02  0.58585717661E+03  0.59662151525E+03  0.00000000000E+00 0. -1.
          1    1    1    2  503    0 -0.46528749608E+02 -0.41053436108E+02 -0.23453551161E+04  0.23461758096E+04  0.00000000000E+00 0. -1.
<mgrwt>
<rscale>  0 0.83795814E+02</rscale>
<asrwt>0</asrwt>
<pdfrwt beam="1">  1        2 0.10411871E+00 0.11316102E+03</pdfrwt>
<pdfrwt beam="2">  1        2 0.43349573E+00 0.62050859E+02</pdfrwt>
<totfact> 0.23190633E+01</totfact>
</mgrwt>
</event>
<event>
13    1  0.2038932E-008  0.4137273E+02  0.7546771E-02  0.1550638E+00
         -1   -1    0    0    0  501 -0.00000000000E+00  0.00000000000E+00  0.51924269937E+03  0.51924269937E+03  0.00000000000E+00 0.  1.
          2   -1    0    0  503    0  0.00000000000E+00 -0.00000000000E+00 -0.47491455560E+03  0.47491455560E+03  0.00000000000E+00 0. -1.
         24    2    1    2    0    0 -0.34080031766E+02 -0.24275596827E+02  0.38511832859E+03  0.39559158870E+03  0.80161242935E+02 0.  0.
         25    2    1    2    0    0 -0.12449255490E+03  0.60105137984E+02 -0.15290914585E+03  0.24107144029E+03  0.12499283420E+03 0.  0.
         24    2    1    2    0    0  0.11640891617E+03 -0.72556523262E+02 -0.11592643648E+03  0.19635082415E+03  0.79367642268E+02 0.  0.
        -11    1    3    3    0    0 -0.51659746264E+02 -0.25264317439E+02  0.36196033750E+03  0.36650006963E+03  0.00000000000E+00 0.  1.
         12    1    3    3    0    0  0.17579714499E+02  0.98872061248E+00  0.23157991096E+02  0.29091519072E+02  0.00000000000E+00 0. -1.
        -11    1    5    5    0    0 -0.72478478397E+01 -0.24048985621E+02 -0.12823725962E+02  0.28201648095E+02  0.00000000000E+00 0.  1.
         12    1    5    5    0    0  0.12365676401E+03 -0.48507537641E+02 -0.10310271052E+03  0.16814917606E+03  0.00000000000E+00 0. -1.
          5    1    4    4  502    0 -0.27199746007E+02  0.81450757812E+02 -0.60795478953E+02  0.10531966764E+03  0.47000000000E+01 0. -1.
         -5    1    4    4    0  502 -0.97292808896E+02 -0.21345619828E+02 -0.92113666898E+02  0.13575177265E+03  0.47000000000E+01 0. -1.
          1    1    1    2  503    0  0.40622738826E+02  0.75438472402E+01 -0.10747675798E+03  0.11514499575E+03  0.00000000000E+00 0. -1.
         -2    1    1    2    0  501  0.15409316744E+01  0.29183134864E+02  0.35522155482E+02  0.45998406071E+02  0.00000000000E+00 0.  1.
<mgrwt>
<rscale>  0 0.34771654E+02</rscale>
<asrwt>0</asrwt>
<pdfrwt beam="2">  1        2 0.69840375E-01 0.41372730E+02</pdfrwt>
<pdfrwt beam="1">  1       -1 0.76359221E-01 0.29223789E+02</pdfrwt>
<totfact> 0.15493775E+02</totfact>
</mgrwt>
</event>
<event>
13    1  0.2038932E-008  0.1678565E+03  0.7546771E-02  0.1264593E+00
         -1   -1    0    0    0  501 -0.00000000000E+00  0.00000000000E+00  0.41613723879E+04  0.41613723879E+04  0.00000000000E+00 0.  1.
          2   -1    0    0  503    0  0.00000000000E+00 -0.00000000000E+00 -0.61878014213E+03  0.61878014213E+03  0.00000000000E+00 0. -1.
         24    2    1    2    0    0  0.84265472480E+02 -0.18411064246E+02  0.13468808070E+04  0.13521385633E+04  0.82165376294E+02 0.  0.
         25    2    1    2    0    0 -0.18180630419E+03  0.35118681084E+02  0.50665552919E+02  0.22905121147E+03  0.12494240760E+03 0.  0.
         24    2    1    2    0    0 -0.10110857047E+03 -0.61309845564E+02  0.12862376561E+03  0.19369534636E+03  0.83618024000E+02 0.  0.
        -11    1    5    5    0    0  0.63339509056E+01  0.77854628577E+01  0.31968651113E+02  0.33507118944E+02  0.00000000000E+00 0.  1.
         12    1    5    5    0    0 -0.10744252137E+03 -0.69095308422E+02  0.96655114498E+02  0.16018822742E+03  0.00000000000E+00 0. -1.
        -13    1    3    3    0    0  0.81317056942E+02  0.17429012511E+02  0.93979655015E+03  0.94346901905E+03  0.00000000000E+00 0.  1.
         14    1    3    3    0    0  0.29484155376E+01 -0.35840076757E+02  0.40708425686E+03  0.40866954430E+03  0.00000000000E+00 0. -1.
          5    1    4    4  502    0 -0.12449874060E+03 -0.28600363228E+02  0.62711696203E+02  0.14238245689E+03  0.47000000000E+01 0.  1.
         -5    1    4    4    0  502 -0.57307563591E+02  0.63719044312E+02 -0.12046143285E+02  0.86668754582E+02  0.47000000000E+01 0.  1.
          1    1    1    2  503    0  0.34528946094E+02  0.60087687320E+02 -0.48927236093E+03  0.49415606994E+03  0.00000000000E+00 0. -1.
         -2    1    1    2    0  501  0.16412045609E+03 -0.15485458594E+02  0.25056944812E+04  0.25111113390E+04  0.00000000000E+00 0.  1.
<mgrwt>
<rscale>  0 0.10785549E+03</rscale>
<asrwt>0</asrwt>
<pdfrwt beam="2">  1        2 0.90997082E-01 0.69302080E+02</pdfrwt>
<pdfrwt beam="1">  1       -1 0.61196651E+00 0.16785654E+03</pdfrwt>
<totfact> 0.30193097E-02</totfact>
</mgrwt>
</event>
<event>
13    1  0.2038932E-008  0.2020768E+03  0.7546771E-02  0.1257482E+00
         -1   -1    0    0    0  501 -0.00000000000E+00  0.00000000000E+00  0.12142530522E+04  0.12142530522E+04  0.00000000000E+00 0.  1.
          2   -1    0    0  503    0  0.00000000000E+00 -0.00000000000E+00 -0.46645499224E+04  0.46645499224E+04  0.00000000000E+00 0. -1.
         24    2    1    2    0    0  0.93756284481E+02  0.13418615553E+03  0.62690084998E+03  0.65289664473E+03  0.80456123308E+02 0.  0.
         25    2    1    2    0    0  0.32811372475E+02 -0.39982355784E+02 -0.28707703609E+04  0.28739552036E+04  0.12498348981E+03 0.  0.
         24    2    1    2    0    0  0.12230268500E+03 -0.76309961666E+01  0.10946840580E+03  0.18309159500E+03  0.80765224133E+02 0.  0.
        -11    1    5    5    0    0  0.10213114728E+03 -0.14182857236E+02  0.40236312189E+02  0.11068371833E+03  0.00000000000E+00 0.  1.
         12    1    5    5    0    0  0.20171537715E+02  0.65518610694E+01  0.69232093613E+02  0.72407876666E+02  0.00000000000E+00 0. -1.
        -13    1    3    3    0    0  0.16756648180E+02 -0.84738457799E+01  0.43259631911E+02  0.47159167439E+02  0.00000000000E+00 0.  1.
         14    1    3    3    0    0  0.76999636301E+02  0.14266000131E+03  0.58364121807E+03  0.60573747729E+03  0.00000000000E+00 0. -1.
          5    1    4    4  502    0  0.65332374160E+02 -0.29745206030E+01 -0.23306719346E+04  0.23315940735E+04  0.47000000000E+01 0.  1.
         -5    1    4    4    0  502 -0.32521001685E+02 -0.37007835181E+02 -0.54009842623E+03  0.54236113009E+03  0.47000000000E+01 0.  1.
          1    1    1    2  503    0 -0.18774765259E+02  0.58801403468E+02 -0.16983361440E+04  0.16994574884E+04  0.00000000000E+00 0. -1.
         -2    1    1    2    0  501 -0.23009557670E+03 -0.14537420704E+03  0.38244037887E+03  0.46940204290E+03  0.00000000000E+00 0.  1.
<mgrwt>
<rscale>  0 0.11168433E+03</rscale>
<asrwt>0</asrwt>
<pdfrwt beam="2">  1        2 0.68596322E+00 0.61725982E+02</pdfrwt>
<pdfrwt beam="1">  1       -1 0.17856663E+00 0.20207683E+03</pdfrwt>
<totfact> 0.73397021E-02</totfact>
</mgrwt>
</event>
<event>
13    1  0.2038932E-008  0.1396237E+03  0.7546771E-02  0.1224719E+00
          2   -1    0    0  503    0  0.00000000000E+00  0.00000000000E+00  0.12028656520E+04  0.12028656520E+04  0.00000000000E+00 0. -1.
         -1   -1    0    0    0  501 -0.00000000000E+00 -0.00000000000E+00 -0.14744076105E+04  0.14744076105E+04  0.00000000000E+00 0.  1.
         24    2    1    2    0    0  0.21698755586E+02 -0.14777301315E+03 -0.48096601241E+03  0.50997169525E+03  0.80219233633E+02 0.  0.
         25    2    1    2    0    0  0.14105504146E+03  0.36006557262E+02  0.58698666103E+03  0.61755378222E+03  0.12500534718E+03 0.  0.
         24    2    1    2    0    0 -0.11156944763E+03 -0.11285780445E+02 -0.16965528307E+03  0.22065116500E+03  0.85609059426E+02 0.  0.
        -11    1    3    3    0    0  0.25112290551E+02 -0.15037838711E+03 -0.48201441278E+03  0.50555136294E+03  0.00000000000E+00 0.  1.
         12    1    3    3    0    0 -0.34135349648E+01  0.26053739533E+01  0.10484003618E+01  0.44203323078E+01  0.00000000000E+00 0. -1.
        -13    1    5    5    0    0  0.66856751026E+01  0.20668828288E+01 -0.54849725691E+02  0.55294327599E+02  0.00000000000E+00 0.  1.
         14    1    5    5    0    0 -0.11825512273E+03 -0.13352663273E+02 -0.11480555738E+03  0.16535683740E+03  0.00000000000E+00 0. -1.
          5    1    4    4  502    0  0.44164186921E+02  0.71618699645E+02  0.32948981400E+03  0.34009607625E+03  0.47000000000E+01 0. -1.
         -5    1    4    4    0  502  0.96890854536E+02 -0.35612142383E+02  0.25749684702E+03  0.27745770597E+03  0.47000000000E+01 0. -1.
          1    1    1    2  503    0 -0.12449845605E+03 -0.28576811524E+01  0.54662246764E+03  0.56062835643E+03  0.00000000000E+00 0. -1.
         -2    1    1    2    0  501  0.73314106642E+02  0.12590991749E+03 -0.75452979174E+03  0.76846826361E+03  0.00000000000E+00 0.  1.
<mgrwt>
<rscale>  0 0.13186174E+03</rscale>
<asrwt>0</asrwt>
<pdfrwt beam="1">  1        2 0.17689201E+00 0.12453125E+03</pdfrwt>
<pdfrwt beam="2">  1       -1 0.21682465E+00 0.13962374E+03</pdfrwt>
<totfact> 0.35555025E+00</totfact>
</mgrwt>
</event>
<event>
13    1  0.2038932E-008  0.7307476E+02  0.7546771E-02  0.1447338E+00
          2   -1    0    0  502    0  0.00000000000E+00  0.00000000000E+00  0.17597865692E+04  0.17597865692E+04  0.00000000000E+00 0. -1.
          2   -1    0    0  503    0 -0.00000000000E+00 -0.00000000000E+00 -0.43179285707E+03  0.43179285707E+03  0.00000000000E+00 0. -1.
         24    2    1    2    0    0 -0.14234908478E+02  0.10887897902E+02 -0.56752723531E+02  0.10295763036E+03  0.84013231582E+02 0.  0.
         25    2    1    2    0    0  0.66603729311E+02  0.72151911071E+02  0.10414445455E+04  0.10535049258E+04  0.12499572959E+03 0.  0.
         24    2    1    2    0    0 -0.60490638969E+02 -0.14876236136E+02  0.18118092674E+03  0.20798352872E+03  0.80933307106E+02 0.  0.
        -11    1    3    3    0    0 -0.11647213003E+02 -0.36016307673E+02 -0.33473772009E+02  0.50530440347E+02  0.00000000000E+00 0.  1.
         12    1    3    3    0    0 -0.25876954749E+01  0.46904205575E+02 -0.23278951522E+02  0.52427190011E+02  0.00000000000E+00 0. -1.
        -13    1    5    5    0    0 -0.36734302308E+01  0.14093212025E+02 -0.13549093419E+01  0.14626978299E+02  0.00000000000E+00 0.  1.
         14    1    5    5    0    0 -0.56817208738E+02 -0.28969448161E+02  0.18253583608E+03  0.19335655042E+03  0.00000000000E+00 0. -1.
          5    1    4    4  501    0  0.37167309620E+02  0.10320633518E+03  0.86226358289E+03  0.86922582388E+03  0.47000000000E+01 0. -1.
         -5    1    4    4    0  501  0.29436419690E+02 -0.31054424112E+02  0.17918096257E+03  0.18427910193E+03  0.47000000000E+01 0. -1.
          1    1    1    2  502    0 -0.32840914187E+02 -0.76030431554E+01  0.49002197452E+03  0.49118007636E+03  0.00000000000E+00 0. -1.
          1    1    1    2  503    0  0.40962732323E+02 -0.60560529682E+02 -0.32790101108E+03  0.33595326499E+03  0.00000000000E+00 0. -1.
<mgrwt>
<rscale>  0 0.49631798E+02</rscale>
<asrwt>0</asrwt>
<pdfrwt beam="1">  1        2 0.25879214E+00 0.33709523E+02</pdfrwt>
<pdfrwt beam="2">  1        2 0.63498950E-01 0.73074763E+02</pdfrwt>
<totfact> 0.16060444E+02</totfact>
</mgrwt>
</event>
<event>
13    1  0.2038932E-008  0.4861384E+02  0.7546771E-02  0.1471012E+00
          2   -1    0    0  503    0  0.00000000000E+00  0.00000000000E+00  0.34439779619E+03  0.34439779619E+03  0.00000000000E+00 0. -1.
          2   -1    0    0  502    0 -0.00000000000E+00 -0.00000000000E+00 -0.19416404831E+04  0.19416404831E+04  0.00000000000E+00 0. -1.
         24    2    1    2    0    0 -0.39609612947E+02  0.95428863688E+02 -0.14504446222E+03  0.19565808261E+03  0.81046898832E+02 0.  0.
         25    2    1    2    0    0  0.42202131762E+02 -0.89873621082E+02 -0.53327129641E+03  0.55665543018E+03  0.12501481786E+03 0.  0.
         24    2    1    2    0    0 -0.81255391869E+00 -0.15049914820E+02  0.95289947707E+00  0.81264147491E+02  0.79848565861E+02 0.  0.
        -11    1    3    3    0    0 -0.20451465902E+02  0.47693758348E+02 -0.13309254914E+03  0.14285161420E+03  0.00000000000E+00 0.  1.
         12    1    3    3    0    0 -0.19158147045E+02  0.47735105340E+02 -0.11951913072E+02  0.52806468411E+02  0.00000000000E+00 0. -1.
        -13    1    5    5    0    0  0.33543008798E+02 -0.14789688567E+02  0.20228655118E+02  0.41869640732E+02  0.00000000000E+00 0.  1.
         14    1    5    5    0    0 -0.34355562716E+02 -0.26022625298E+00 -0.19275755641E+02  0.39394506759E+02  0.00000000000E+00 0. -1.
          5    1    4    4  501    0 -0.12016770459E+02 -0.80556917875E+02 -0.44588614804E+03  0.45328839253E+03  0.47000000000E+01 0. -1.
         -5    1    4    4    0  501  0.54218902221E+02 -0.93167032070E+01 -0.87385148363E+02  0.10336703764E+03  0.47000000000E+01 0. -1.
          1    1    1    2  502    0 -0.30291218428E+02 -0.30033643557E+02 -0.11835527144E+04  0.11843211581E+04  0.00000000000E+00 0. -1.
          1    1    1    2  503    0  0.28511253532E+02  0.39528315771E+02  0.26367288668E+03  0.26813946091E+03  0.00000000000E+00 0. -1.
<mgrwt>
<rscale>  0 0.45537861E+02</rscale>
<asrwt>0</asrwt>
<pdfrwt beam="1">  1        2 0.50646735E-01 0.48613844E+02</pdfrwt>
<pdfrwt beam="2">  1        2 0.28553536E+00 0.42656508E+02</pdfrwt>
<totfact> 0.16313229E+02</totfact>
</mgrwt>
</event>
<event>
13    1  0.2038932E-008  0.8407799E+02  0.7546771E-02  0.1338912E+00
          2   -1    0    0  502    0  0.00000000000E+00  0.00000000000E+00  0.13676548975E+04  0.13676548975E+04  0.00000000000E+00 0. -1.
          2   -1    0    0  503    0 -0.00000000000E+00 -0.00000000000E+00 -0.44567187438E+04  0.44567187438E+04  0.00000000000E+00 0. -1.
         24    2    1    2    0    0  0.78180922645E+02  0.30547920056E+02 -0.79376646872E+03  0.80223971895E+03  0.80485574499E+02 0.  0.
         25    2    1    2    0    0 -0.76600777263E+02  0.39905980720E+01  0.37765527897E+03  0.40513288847E+03  0.12500217453E+03 0.  0.
         24    2    1    2    0    0 -0.57078881092E+02 -0.22223181372E+02 -0.31367693222E+03  0.32808074038E+03  0.74107259704E+02 0.  0.
        -11    1    5    5    0    0 -0.37618916846E+02 -0.35139757165E+02 -0.29102929002E+03  0.29554700656E+03  0.00000000000E+00 0.  1.
         12    1    5    5    0    0 -0.19459964246E+02  0.12916575793E+02 -0.22647642206E+02  0.32533733818E+02  0.00000000000E+00 0. -1.
        -13    1    3    3    0    0 -0.14606183894E+02 -0.44325375557E+01 -0.16467438368E+03  0.16538029096E+03  0.00000000000E+00 0.  1.
         14    1    3    3    0    0  0.92787106538E+02  0.34980457612E+02 -0.62909208504E+03  0.63685942799E+03  0.00000000000E+00 0. -1.
          5    1    4    4  501    0 -0.61827053585E+01 -0.29917992064E+02  0.27135040097E+03  0.27310518524E+03  0.47000000000E+01 0. -1.
         -5    1    4    4    0  501 -0.70418071905E+02  0.33908590136E+02  0.10630487800E+03  0.13202770324E+03  0.47000000000E+01 0. -1.
          1    1    1    2  502    0  0.61698194216E+02  0.57241187335E+02  0.96261925740E+03  0.96629139260E+03  0.00000000000E+00 0. -1.
          1    1    1    2  503    0 -0.61994585053E+01 -0.69556524091E+02 -0.33218949817E+04  0.33226289009E+04  0.00000000000E+00 0. -1.
<mgrwt>
<rscale>  0 0.76624768E+02</rscale>
<asrwt>0</asrwt>
<pdfrwt beam="1">  1        2 0.20112573E+00 0.84077985E+02</pdfrwt>
<pdfrwt beam="2">  1        2 0.65539980E+00 0.69832251E+02</pdfrwt>
<totfact> 0.11087492E+00</totfact>
</mgrwt>
</event>
<event>
13    1  0.2038932E-008  0.7224117E+02  0.7546771E-02  0.1420033E+00
          2   -1    0    0  503    0  0.00000000000E+00  0.00000000000E+00  0.85267259395E+03  0.85267259395E+03  0.00000000000E+00 0. -1.
         -3   -1    0    0    0  501 -0.00000000000E+00 -0.00000000000E+00 -0.14048129874E+04  0.14048129874E+04  0.00000000000E+00 0.  1.
         24    2    1    2    0    0  0.67189617417E+02  0.40581363466E+02 -0.33497776208E+03  0.35330894114E+03  0.80348086789E+02 0.  0.
         25    2    1    2    0    0 -0.13084221222E+03 -0.26271935429E+02 -0.55571889934E+03  0.58502790830E+03  0.12499703722E+03 0.  0.
         24    2    1    2    0    0 -0.28821871209E+02 -0.34097774226E+02  0.24397706954E+02  0.94724588609E+02  0.79900820492E+02 0.  0.
        -11    1    5    5    0    0 -0.51128736729E+02 -0.28714121367E+01  0.42597649190E+01  0.51386168609E+02  0.00000000000E+00 0.  1.
         12    1    5    5    0    0  0.22306865520E+02 -0.31226362090E+02  0.20137942035E+02  0.43338420000E+02  0.00000000000E+00 0. -1.
        -13    1    3    3    0    0  0.27286387846E+02  0.60246561811E+02 -0.16922012857E+03  0.18168557203E+03  0.00000000000E+00 0.  1.
         14    1    3    3    0    0  0.39903229570E+02 -0.19665198346E+02 -0.16575763351E+03  0.17162336911E+03  0.00000000000E+00 0. -1.
          5    1    4    4  502    0 -0.15223464226E+03 -0.38683819209E+02 -0.46237924651E+03  0.48835282510E+03  0.47000000000E+01 0.  1.
         -5    1    4    4    0  502  0.21392430044E+02  0.12411883780E+02 -0.93339652830E+02  0.96675083204E+02  0.47000000000E+01 0.  1.
          1    1    1    2  503    0  0.57797670180E+02  0.43297713224E+02  0.76662668452E+03  0.77002060756E+03  0.00000000000E+00 0. -1.
         -4    1    1    2    0  501  0.34676795830E+02 -0.23509367034E+02 -0.45246812348E+03  0.45440353571E+03  0.00000000000E+00 0.  1.
<mgrwt>
<rscale>  0 0.55013873E+02</rscale>
<asrwt>0</asrwt>
<pdfrwt beam="1">  1        2 0.12539303E+00 0.72241172E+02</pdfrwt>
<pdfrwt beam="2">  1       -3 0.20659015E+00 0.41894755E+02</pdfrwt>
<totfact> 0.34751799E+00</totfact>
</mgrwt>
</event>
<event>
13    1  0.2038932E-008  0.1488546E+03  0.7546771E-02  0.1416401E+00
          2   -1    0    0  502    0  0.00000000000E+00  0.00000000000E+00  0.14916662976E+04  0.14916662976E+04  0.00000000000E+00 0. -1.
          2   -1    0    0  503    0 -0.00000000000E+00 -0.00000000000E+00 -0.25766752146E+04  0.25766752146E+04  0.00000000000E+00 0. -1.
         24    2    1    2    0    0  0.99877314986E+01 -0.13886662806E+03 -0.27622544672E+03  0.31981565921E+03  0.81227232425E+02 0.  0.
         25    2    1    2    0    0 -0.26864075561E+02  0.37301207270E+03  0.31379605521E+03  0.50393572908E+03  0.12499427924E+03 0.  0.
         24    2    1    2    0    0  0.18915937318E+02  0.14661741788E+02 -0.73558000791E+03  0.74041622617E+03  0.81027529835E+02 0.  0.
        -11    1    3    3    0    0  0.22911105579E+02 -0.10293950974E+03 -0.12354692448E+03  0.16243553790E+03  0.00000000000E+00 0.  1.
         12    1    3    3    0    0 -0.12923374080E+02 -0.35927118320E+02 -0.15267852224E+03  0.15738012131E+03  0.00000000000E+00 0. -1.
        -13    1    5    5    0    0 -0.81102220817E+01 -0.10927617591E+02 -0.22016339750E+02  0.25882576078E+02  0.00000000000E+00 0.  1.
         14    1    5    5    0    0  0.27026159400E+02  0.25589359378E+02 -0.71356366816E+03  0.71453365010E+03  0.00000000000E+00 0. -1.
          5    1    4    4  501    0  0.21101299658E+02  0.31327028318E+03  0.22354887545E+03  0.38546040637E+03  0.47000000000E+01 0.  1.
         -5    1    4    4    0  501 -0.47965375219E+02  0.59741789528E+02  0.90247179760E+02  0.11847532271E+03  0.47000000000E+01 0.  1.
          1    1    1    2  502    0  0.49614934433E+00  0.20903689240E+02  0.10459003216E+04  0.10461093123E+04  0.00000000000E+00 0. -1.
          1    1    1    2  503    0 -0.25357426004E+01 -0.26971087567E+03 -0.14328998392E+04  0.14580645855E+04  0.00000000000E+00 0. -1.
<mgrwt>
<rscale>  0 0.55789669E+02</rscale>
<asrwt>0</asrwt>
<pdfrwt beam="1">  1        2 0.21936269E+00 0.20909576E+02</pdfrwt>
<pdfrwt beam="2">  1        2 0.37892283E+00 0.14885462E+03</pdfrwt>
<totfact> 0.13036556E+01</totfact>
</mgrwt>
</event>
<event>
13    1  0.2038932E-008  0.5788198E+02  0.7546771E-02  0.1435013E+00
         -1   -1    0    0    0  501 -0.00000000000E+00  0.00000000000E+00  0.11602602982E+04  0.11602602982E+04  0.00000000000E+00 0.  1.
          2   -1    0    0  503    0  0.00000000000E+00 -0.00000000000E+00 -0.21336155699E+04  0.21336155699E+04  0.00000000000E+00 0. -1.
         24    2    1    2    0    0  0.22071336381E+02 -0.12533157405E+02  0.87160716669E+02  0.12124659299E+03  0.80371150659E+02 0.  0.
         25    2    1    2    0    0 -0.44239602455E+01 -0.79482952960E+02 -0.88793289056E+03  0.90021488192E+03  0.12499961704E+03 0.  0.
         24    2    1    2    0    0 -0.32538979171E+02  0.75975409373E+02  0.12032557927E+03  0.16636285635E+03  0.79795406836E+02 0.  0.
        -11    1    5    5    0    0  0.84907572209E+00  0.19347004632E+02  0.93295646427E+02  0.95284338483E+02  0.00000000000E+00 0.  1.
         12    1    5    5    0    0 -0.33388054893E+02  0.56628404741E+02  0.27029932843E+02  0.71078517869E+02  0.00000000000E+00 0. -1.
        -13    1    3    3    0    0 -0.25598720653E+02 -0.14851576570E+02  0.11417685189E+02  0.31721087005E+02  0.00000000000E+00 0.  1.
         14    1    3    3    0    0  0.47670057033E+02  0.23184191651E+01  0.75743031480E+02  0.89525505990E+02  0.00000000000E+00 0. -1.
          5    1    4    4  502    0  0.29000670068E+01 -0.11314346910E+03 -0.66173431456E+03  0.67135999885E+03  0.47000000000E+01 0. -1.
         -5    1    4    4    0  502 -0.73240272523E+01  0.33660516139E+02 -0.22619857600E+03  0.22885488307E+03  0.47000000000E+01 0. -1.
          1    1    1    2  503    0 -0.61675629228E+01  0.57673456901E+02 -0.11981778214E+04  0.11995809094E+04  0.00000000000E+00 0. -1.
         -2    1    1    2    0  501  0.21059165958E+02 -0.41632755908E+02  0.90526914427E+03  0.90647062743E+03  0.00000000000E+00 0.  1.
<mgrwt>
<rscale>  0 0.51966690E+02</rscale>
<asrwt>0</asrwt>
<pdfrwt beam="2">  1        2 0.31376699E+00 0.57881978E+02</pdfrwt>
<pdfrwt beam="1">  1       -1 0.17062651E+00 0.46655920E+02</pdfrwt>
<totfact> 0.29510826E+00</totfact>
</mgrwt>
</event>
<event>
13    1  0.2038932E-008  0.1292796E+03  0.7546771E-02  0.1257294E+00
          2   -1    0    0  503    0  0.00000000000E+00  0.00000000000E+00  0.17680787955E+04  0.17680787955E+04  0.00000000000E+00 0. -1.
          2   -1    0    0  502    0 -0.00000000000E+00 -0.00000000000E+00 -0.21615903432E+04  0.21615903432E+04  0.00000000000E+00 0. -1.
         24    2    1    2    0    0  0.15263168114E+03 -0.55625330859E+02 -0.46817667956E+03  0.50137178524E+03  0.76116070799E+02 0.  0.
         25    2    1    2    0    0 -0.34581273107E+03  0.80656942793E+01  0.14593131826E+03  0.39568654415E+03  0.12498156336E+03 0.  0.
         24    2    1    2    0    0  0.20678306450E+02  0.78329166997E+02 -0.39374169283E+03  0.40958967595E+03  0.78537451019E+02 0.  0.
        -11    1    5    5    0    0 -0.30052773983E+02  0.34795613022E+02 -0.15835418763E+03  0.16489376171E+03  0.00000000000E+00 0.  1.
         12    1    5    5    0    0  0.50731080434E+02  0.43533553975E+02 -0.23538750519E+03  0.24469591424E+03  0.00000000000E+00 0. -1.
        -13    1    3    3    0    0  0.27243868487E+02  0.15909259225E+02 -0.12803061788E+03  0.13186042626E+03  0.00000000000E+00 0.  1.
         14    1    3    3    0    0  0.12538781265E+03 -0.71534590084E+02 -0.34014606168E+03  0.36951135898E+03  0.00000000000E+00 0. -1.
          5    1    4    4  501    0 -0.22442417464E+03  0.26540325185E+01  0.27888372207E+02  0.22621473284E+03  0.47000000000E+01 0. -1.
         -5    1    4    4    0  501 -0.12138855643E+03  0.54116617609E+01  0.11804294605E+03  0.16947181131E+03  0.47000000000E+01 0. -1.
          1    1    1    2  502    0  0.77884901950E+02  0.57250668044E+02 -0.11453982571E+04  0.11494698188E+04  0.00000000000E+00 0. -1.
          1    1    1    2  503    0  0.94617841535E+02 -0.88020198462E+02  0.14678737635E+04  0.14735513146E+04  0.00000000000E+00 0. -1.
<mgrwt>
<rscale>  0 0.11178786E+03</rscale>
<asrwt>0</asrwt>
<pdfrwt beam="1">  1        2 0.26001159E+00 0.12927958E+03</pdfrwt>
<pdfrwt beam="2">  1        2 0.31788093E+00 0.96662800E+02</pdfrwt>
<totfact> 0.13858836E+01</totfact>
</mgrwt>
</event>
<event>
13    1  0.2038932E-008  0.9122390E+02  0.7546771E-02  0.1403665E+00
          2   -1    0    0  502    0  0.00000000000E+00  0.00000000000E+00  0.25386867129E+04  0.25386867129E+04  0.00000000000E+00 0. -1.
          2   -1    0    0  503    0 -0.00000000000E+00 -0.00000000000E+00 -0.70602785084E+03  0.70602785084E+03  0.00000000000E+00 0. -1.
         24    2    1    2    0    0 -0.15417050602E+03  0.15845071070E+03 -0.29590420744E+02  0.23723723280E+03  0.80812987669E+02 0.  0.
         25    2    1    2    0    0  0.58593365098E+01 -0.15212801277E+03  0.18311935205E+04  0.18417578065E+04  0.12499937621E+03 0.  0.
         24    2    1    2    0    0  0.10462017672E+03 -0.80493319112E+02  0.33554787258E+02  0.16526019408E+03  0.93597287362E+02 0.  0.
        -13    1    3    3    0    0 -0.44175254199E+02  0.76932654764E+02  0.21198329905E+02  0.91211050006E+02  0.00000000000E+00 0.  1.
         14    1    3    3    0    0 -0.10999525183E+03  0.81518055940E+02 -0.50788750649E+02  0.14602618279E+03  0.00000000000E+00 0. -1.
        -13    1    5    5    0    0  0.11779424903E+03 -0.82358220164E+02  0.41703105591E+02  0.14965797857E+03  0.00000000000E+00 0.  1.
         14    1    5    5    0    0 -0.13174072313E+02  0.18649010524E+01 -0.81483183325E+01  0.15602215512E+02  0.00000000000E+00 0. -1.
          5    1    4    4  501    0 -0.56631115561E+02 -0.99713292910E+02  0.10032339650E+04  0.10097773530E+04  0.47000000000E+01 0.  1.
         -5    1    4    4    0  501  0.62490452071E+02 -0.52414719861E+02  0.82795955553E+03  0.83198045352E+03  0.47000000000E+01 0.  1.
          1    1    1    2  502    0  0.33856530008E+02 -0.16547784537E+02  0.49410573719E+03  0.49554068786E+03  0.00000000000E+00 0. -1.
          1    1    1    2  503    0  0.98344627919E+01  0.90718405716E+02 -0.49660476215E+03  0.50491864254E+03  0.00000000000E+00 0. -1.
<mgrwt>
<rscale>  0 0.58631846E+02</rscale>
<asrwt>0</asrwt>
<pdfrwt beam="1">  1        2 0.37333628E+00 0.37684132E+02</pdfrwt>
<pdfrwt beam="2">  1        2 0.10382763E+00 0.91223898E+02</pdfrwt>
<totfact> 0.40375365E+01</totfact>
</mgrwt>
</event>
<event>
13    1  0.2038932E-008  0.1354447E+03  0.7546771E-02  0.1238019E+00
          2   -1    0    0  502    0  0.00000000000E+00  0.00000000000E+00  0.40427805624E+04  0.40427805624E+04  0.00000000000E+00 0. -1.
          2   -1    0    0  503    0 -0.00000000000E+00 -0.00000000000E+00 -0.23919498214E+03  0.23919498214E+03  0.00000000000E+00 0. -1.
         24    2    1    2    0    0  0.10297503472E+03  0.89609041338E+02  0.14430734113E+03  0.21437437124E+03  0.80610943884E+02 0.  0.
         25    2    1    2    0    0 -0.41156988030E+02 -0.12831334615E+03  0.23389577096E+04  0.23461681818E+04  0.12499503032E+03 0.  0.
         24    2    1    2    0    0  0.67629112413E+02 -0.91741767161E+02  0.16674507200E+03  0.21792238275E+03  0.81829072935E+02 0.  0.
        -11    1    3    3    0    0  0.58525696840E+02  0.68559303616E+01  0.29083029621E+02  0.65712126611E+02  0.00000000000E+00 0.  1.
         12    1    3    3    0    0  0.44449337877E+02  0.82753110976E+02  0.11522431151E+03  0.14866224463E+03  0.00000000000E+00 0. -1.
        -13    1    5    5    0    0  0.19434926652E+02 -0.92626127601E+00 -0.27831219630E+01  0.19655027392E+02  0.00000000000E+00 0.  1.
         14    1    5    5    0    0  0.48194185761E+02 -0.90815505885E+02  0.16952819397E+03  0.19826735536E+03  0.00000000000E+00 0. -1.
          5    1    4    4  501    0 -0.18189595172E+02 -0.11052332277E+03  0.90620714853E+03  0.91311541017E+03  0.47000000000E+01 0. -1.
         -5    1    4    4    0  501 -0.22967392858E+02 -0.17790023377E+02  0.14327505611E+04  0.14330527717E+04  0.47000000000E+01 0. -1.
          1    1    1    2  502    0 -0.13377623382E+03 -0.21193798661E+02  0.12914397214E+04  0.12985229347E+04  0.00000000000E+00 0. -1.
          1    1    1    2  503    0  0.43290747236E+01  0.15163987063E+03 -0.13786426390E+03  0.20498767405E+03  0.00000000000E+00 0. -1.
<mgrwt>
<rscale>  0 0.12313107E+03</rscale>
<asrwt>0</asrwt>
<pdfrwt beam="1">  1        2 0.59452651E+00 0.13544467E+03</pdfrwt>
<pdfrwt beam="2">  1        2 0.35175735E-01 0.11193694E+03</pdfrwt>
<totfact> 0.14611327E+01</totfact>
</mgrwt>
</event>
<event>
13    1  0.2038932E-008  0.8638213E+02  0.7546771E-02  0.1394844E+00
          2   -1    0    0  503    0  0.00000000000E+00  0.00000000000E+00  0.41100929909E+03  0.41100929909E+03  0.00000000000E+00 0. -1.
          2   -1    0    0  502    0 -0.00000000000E+00 -0.00000000000E+00 -0.18409453313E+04  0.18409453313E+04  0.00000000000E+00 0. -1.
         24    2    1    2    0    0 -0.10971953269E+03 -0.36513911163E+02 -0.68397783299E+03  0.69853634307E+03  0.82193095803E+02 0.  0.
         25    2    1    2    0    0  0.12462510186E+03 -0.30241515053E+02 -0.14354833001E+03  0.22951721254E+03  0.12500425016E+03 0.  0.
         24    2    1    2    0    0 -0.53007399307E+02  0.59134067146E+01 -0.43042679611E+03  0.44205315877E+03  0.85434276513E+02 0.  0.
        -13    1    5    5    0    0 -0.42972680846E+02  0.41423335578E+02 -0.32291928938E+03  0.32838911597E+03  0.00000000000E+00 0.  1.
         14    1    5    5    0    0 -0.10034718461E+02 -0.35509928863E+02 -0.10750750673E+03  0.11366404280E+03  0.00000000000E+00 0. -1.
        -13    1    3    3    0    0 -0.20120707501E+02  0.22627161563E+02 -0.90628778421E+02  0.95553162108E+02  0.00000000000E+00 0.  1.
         14    1    3    3    0    0 -0.89598825188E+02 -0.59141072726E+02 -0.59334905457E+03  0.60298318096E+03  0.00000000000E+00 0. -1.
          5    1    4    4  501    0  0.24229557507E+02 -0.36005865123E+02 -0.11776779832E+03  0.12559792236E+03  0.47000000000E+01 0.  1.
         -5    1    4    4    0  501  0.10039554435E+03  0.57643500692E+01 -0.25780531694E+02  0.10391929018E+03  0.47000000000E+01 0.  1.
          1    1    1    2  502    0  0.34187261119E+02 -0.25547302459E+02 -0.52076205396E+03  0.52250794284E+03  0.00000000000E+00 0. -1.
          1    1    1    2  503    0  0.39145690187E+01  0.86389321961E+02  0.34877898089E+03  0.35933997316E+03  0.00000000000E+00 0. -1.
<mgrwt>
<rscale>  0 0.60717696E+02</rscale>
<asrwt>0</asrwt>
<pdfrwt beam="1">  1        2 0.60442545E-01 0.86382129E+02</pdfrwt>
<pdfrwt beam="2">  1        2 0.27072725E+00 0.42678255E+02</pdfrwt>
<totfact> 0.15135514E+02</totfact>
</mgrwt>
</event>
<event>
13    1  0.2038932E-008  0.1768224E+03  0.7546771E-02  0.1242066E+00
          2   -1    0    0  503    0  0.00000000000E+00  0.00000000000E+00  0.22487306192E+04  0.22487306192E+04  0.00000000000E+00 0. -1.
          2   -1    0    0  502    0 -0.00000000000E+00 -0.00000000000E+00 -0.28251085538E+04  0.28251085538E+04  0.00000000000E+00 0. -1.
         24    2    1    2    0    0  0.12554413606E+03  0.93200214964E+02 -0.29146969209E+02  0.17875761204E+03  0.81591224279E+02 0.  0.
         25    2    1    2    0    0 -0.22153198754E+03 -0.15112672591E+03 -0.17840033282E+03  0.34549795577E+03  0.12500579948E+03 0.  0.
         24    2    1    2    0    0 -0.14392568319E+03 -0.65265724406E+02  0.34368884771E+03  0.38626677278E+03  0.78139482031E+02 0.  0.
        -13    1    3    3    0    0  0.88682019249E+02  0.15922523615E+02 -0.73019031058E+01  0.90395492616E+02  0.00000000000E+00 0.  1.
         14    1    3    3    0    0  0.36862116815E+02  0.77277691349E+02 -0.21845066103E+02  0.88362119426E+02  0.00000000000E+00 0. -1.
        -13    1    5    5    0    0 -0.13881557243E+03 -0.31993883986E+02  0.27094793108E+03  0.30611460782E+03  0.00000000000E+00 0.  1.
         14    1    5    5    0    0 -0.51101107616E+01 -0.33271840420E+02  0.72740916626E+02  0.80152164965E+02  0.00000000000E+00 0. -1.
          5    1    4    4  501    0 -0.77163974397E+02 -0.11427420855E+03 -0.12782621374E+03  0.18808111177E+03  0.47000000000E+01 0.  1.
         -5    1    4    4    0  501 -0.14436801315E+03 -0.36852517358E+02 -0.50574119080E+02  0.15741684400E+03  0.47000000000E+01 0.  1.
          1    1    1    2  502    0 -0.69040444797E+02  0.44780438489E+02 -0.24224921646E+04  0.24238894690E+04  0.00000000000E+00 0. -1.
          1    1    1    2  503    0  0.30895397946E+03  0.78411796864E+02  0.17099726843E+04  0.17394273633E+04  0.00000000000E+00 0. -1.
<mgrwt>
<rscale>  0 0.12062734E+03</rscale>
<asrwt>0</asrwt>
<pdfrwt beam="1">  1        2 0.33069568E+00 0.17682237E+03</pdfrwt>
<pdfrwt beam="2">  1        2 0.41545714E+00 0.82291377E+02</pdfrwt>
<totfact> 0.37333130E+00</totfact>
</mgrwt>
</event>
<event>
13    1  0.2038932E-008  0.1104706E+03  0.7546771E-02  0.1346596E+00
          2   -1    0    0  503    0  0.00000000000E+00  0.00000000000E+00  0.19135011161E+04  0.19135011161E+04  0.00000000000E+00 0. -1.
         -1   -1    0    0    0  501 -0.00000000000E+00 -0.00000000000E+00 -0.26608400927E+03  0.26608400927E+03  0.00000000000E+00 0.  1.
         24    2    1    2    0    0  0.78272559293E+01  0.85107252010E+02  0.15430029267E+03  0.19356272156E+03  0.79708447354E+02 0.  0.
         25    2    1    2    0    0  0.46213634700E+02 -0.79147155975E+02 -0.62071041233E+02  0.16696684602E+03  0.12500056471E+03 0.  0.
         24    2    1    2    0    0 -0.59519005735E+02  0.67958229109E+02  0.64107357078E+03  0.65286029812E+03  0.84204588767E+02 0.  0.
        -11    1    5    5    0    0 -0.36901315497E+02 -0.77561206261E+01  0.11874588684E+03  0.12458912527E+03  0.00000000000E+00 0.  1.
         12    1    5    5    0    0 -0.22617690239E+02  0.75714349735E+02  0.52232768393E+03  0.52827117286E+03  0.00000000000E+00 0. -1.
        -13    1    3    3    0    0 -0.44018662623E+01  0.21846070300E+02 -0.40096283577E+01  0.22642975372E+02  0.00000000000E+00 0.  1.
         14    1    3    3    0    0  0.12229122192E+02  0.63261181710E+02  0.15830992103E+03  0.17091974619E+03  0.00000000000E+00 0. -1.
          5    1    4    4  502    0  0.82094476115E+02 -0.58100870626E+02 -0.11533202849E+02  0.10134258209E+03  0.47000000000E+01 0.  1.
         -5    1    4    4    0  502 -0.35880841415E+02 -0.21046285350E+02 -0.50537838384E+02  0.65624263929E+02  0.47000000000E+01 0.  1.
          1    1    1    2  503    0 -0.41562336870E+02  0.27325032422E+02  0.10147052453E+04  0.10159236291E+04  0.00000000000E+00 0. -1.
         -2    1    1    2    0  501  0.47040451976E+02 -0.10124335757E+03 -0.10059096072E+03  0.15027163057E+03  0.00000000000E+00 0.  1.
<mgrwt>
<rscale>  0 0.74127100E+02</rscale>
<asrwt>0</asrwt>
<pdfrwt beam="1">  1        2 0.28139722E+00 0.49740177E+02</pdfrwt>
<pdfrwt beam="2">  1       -1 0.39130002E-01 0.11047060E+03</pdfrwt>
<totfact> 0.79770759E+01</totfact>
</mgrwt>
</event>
<event>
13    1  0.2038932E-008  0.1345651E+03  0.7546771E-02  0.1385531E+00
          2   -1    0    0  502    0  0.00000000000E+00  0.00000000000E+00  0.24431163569E+04  0.24431163569E+04  0.00000000000E+00 0. -1.
          2   -1    0    0  503    0 -0.00000000000E+00 -0.00000000000E+00 -0.10797207704E+04  0.10797207704E+04  0.00000000000E+00 0. -1.
         24    2    1    2    0    0  0.31192601832E+02 -0.14273804552E+03  0.11142789385E+04  0.11266294805E+04  0.79556931546E+02 0.  0.
         25    2    1    2    0    0 -0.10142686391E+03  0.22689691694E+03 -0.12310525418E+02  0.27846864347E+03  0.12499446674E+03 0.  0.
         24    2    1    2    0    0 -0.33815263734E+02  0.38434331787E+02 -0.39943444777E+02  0.10439721327E+03  0.81747351247E+02 0.  0.
        -11    1    3    3    0    0  0.13194913180E+02  0.73508355268E+01  0.90848465201E+02  0.92095516428E+02  0.00000000000E+00 0.  1.
         12    1    3    3    0    0  0.17997688652E+02 -0.15008888105E+03  0.10234304733E+04  0.10345339641E+04  0.00000000000E+00 0. -1.
        -13    1    5    5    0    0 -0.50230702293E+02  0.18173950063E+02 -0.52987992107E+02  0.75240568986E+02  0.00000000000E+00 0.  1.
         14    1    5    5    0    0  0.16415438559E+02  0.20260381724E+02  0.13044547330E+02  0.29156644281E+02  0.00000000000E+00 0. -1.
          5    1    4    4  501    0 -0.34413456578E+02  0.33046420406E+02 -0.50666427288E+02  0.69753342210E+02  0.47000000000E+01 0.  1.
         -5    1    4    4    0  501 -0.67013407335E+02  0.19385049654E+03  0.38355901870E+02  0.20871530126E+03  0.47000000000E+01 0.  1.
          1    1    1    2  502    0  0.76756209961E+02 -0.11133236516E+03  0.11531495120E+04  0.11610513375E+04  0.00000000000E+00 0. -1.
          1    1    1    2  503    0  0.27293315854E+02 -0.11260838043E+02 -0.85177889384E+03  0.85229045258E+03  0.00000000000E+00 0. -1.
<mgrwt>
<rscale>  0 0.63032117E+02</rscale>
<asrwt>0</asrwt>
<pdfrwt beam="1">  1        2 0.35928182E+00 0.13456509E+03</pdfrwt>
<pdfrwt beam="2">  1        2 0.15878247E+00 0.29525101E+02</pdfrwt>
<totfact> 0.23703931E+01</totfact>
</mgrwt>
</event>
<event>
13    1  0.2038932E-008  0.1349095E+03  0.7546771E-02  0.1294797E+00
          2   -1    0    0  503    0  0.00000000000E+00  0.00000000000E+00  0.89774745354E+03  0.89774745354E+03  0.00000000000E+00 0. -1.
          2   -1    0    0  502    0 -0.00000000000E+00 -0.00000000000E+00 -0.52883419191E+04  0.52883419191E+04  0.00000000000E+00 0. -1.
         24    2    1    2    0    0  0.44419320845E+03 -0.10732543288E+03 -0.22937777564E+04  0.23400733559E+04  0.75502056322E+02 0.  0.
         25    2    1    2    0    0 -0.56508097746E+03  0.22145931327E+02  0.11287524138E+03  0.59006112307E+03  0.12499742189E+03 0.  0.
         24    2    1    2    0    0  0.16235146311E+03  0.21280027567E+02 -0.45366401781E+03  0.48895811894E+03  0.80362701996E+02 0.  0.
        -13    1    3    3    0    0  0.25265429948E+03 -0.75565052654E+02 -0.14917109997E+04  0.15148418990E+04  0.00000000000E+00 0.  1.
         14    1    3    3    0    0  0.19153890897E+03 -0.31760380229E+02 -0.80206675666E+03  0.82523145695E+03  0.00000000000E+00 0. -1.
        -13    1    5    5    0    0  0.47103877783E+02 -0.30398504475E+02 -0.13520551559E+03  0.14636726350E+03  0.00000000000E+00 0.  1.
         14    1    5    5    0    0  0.11524758533E+03  0.51678532043E+02 -0.31845850222E+03  0.34259085544E+03  0.00000000000E+00 0. -1.
          5    1    4    4  501    0 -0.48589579221E+03  0.13194465996E+02  0.50422022761E+02  0.48870572454E+03  0.47000000000E+01 0. -1.
         -5    1    4    4    0  501 -0.79185185246E+02  0.89514653313E+01  0.62453218619E+02  0.10135539852E+03  0.47000000000E+01 0. -1.
          1    1    1    2  502    0 -0.41887119050E+02  0.12857466655E+03 -0.22574119119E+04  0.22614584930E+04  0.00000000000E+00 0. -1.
          1    1    1    2  503    0  0.42342494972E+00 -0.64675192560E+02  0.50138397909E+03  0.50553828175E+03  0.00000000000E+00 0. -1.
<mgrwt>
<rscale>  0 0.93410288E+02</rscale>
<asrwt>0</asrwt>
<pdfrwt beam="1">  1        2 0.13202168E+00 0.64676579E+02</pdfrwt>
<pdfrwt beam="2">  1        2 0.77769736E+00 0.13490945E+03</pdfrwt>
<totfact> 0.28175368E-01</totfact>
</mgrwt>
</event>
<event>
13    1  0.2038932E-008  0.9922164E+02  0.7546771E-02  0.1378539E+00
          2   -1    0    0  502    0  0.00000000000E+00  0.00000000000E+00  0.10830322370E+04  0.10830322370E+04  0.00000000000E+00 0. -1.
          2   -1    0    0  503    0 -0.00000000000E+00 -0.00000000000E+00 -0.18989080618E+04  0.18989080618E+04  0.00000000000E+00 0. -1.
         24    2    1    2    0    0  0.93404940298E+02  0.29688663209E+02 -0.75016103628E+03  0.76078169336E+03  0.80257741092E+02 0.  0.
         25    2    1    2    0    0 -0.10786943381E+03 -0.84761203989E+02  0.60004859593E+01  0.18569288865E+03  0.12500226642E+03 0.  0.
         24    2    1    2    0    0  0.46846867040E+02 -0.35901236519E+02  0.42493078244E+03  0.43636207346E+03  0.79763159141E+02 0.  0.
        -11    1    5    5    0    0  0.15699070343E+02 -0.24930419384E+02  0.38285399451E+02  0.48308989138E+02  0.00000000000E+00 0.  1.
         12    1    5    5    0    0  0.31147796697E+02 -0.10970817135E+02  0.38664538298E+03  0.38805308432E+03  0.00000000000E+00 0. -1.
        -13    1    3    3    0    0  0.10363211494E+03  0.10356709067E+02 -0.64688801061E+03  0.65521826511E+03  0.00000000000E+00 0.  1.
         14    1    3    3    0    0 -0.10227174639E+02  0.19331954142E+02 -0.10327302568E+03  0.10556342825E+03  0.00000000000E+00 0. -1.
          5    1    4    4  501    0 -0.57849209031E+02  0.14943715028E+02  0.36220685909E+02  0.70027663763E+02  0.47000000000E+01 0. -1.
         -5    1    4    4    0  501 -0.50020224784E+02 -0.99704919017E+02 -0.30220199950E+02  0.11566522489E+03  0.47000000000E+01 0. -1.
          1    1    1    2  502    0 -0.61333861046E+01  0.12425192641E+03  0.54377287337E+03  0.55782174344E+03  0.00000000000E+00 0. -1.
          1    1    1    2  503    0 -0.26248987419E+02 -0.33278149115E+02 -0.10404189303E+04  0.10412818999E+04  0.00000000000E+00 0. -1.
<mgrwt>
<rscale>  0 0.64849504E+02</rscale>
<asrwt>0</asrwt>
<pdfrwt beam="1">  1        2 0.15926945E+00 0.99221641E+02</pdfrwt>
<pdfrwt beam="2">  1        2 0.27925118E+00 0.42384485E+02</pdfrwt>
<totfact> 0.46009768E+01</totfact>
</mgrwt>
</event>
<event>
13    1  0.2038932E-008  0.5526931E+02  0.7546771E-02  0.1423187E+00
          2   -1    0    0  503    0  0.00000000000E+00  0.00000000000E+00  0.23827029982E+04  0.23827029982E+04  0.00000000000E+00 0. -1.
          2   -1    0    0  502    0 -0.00000000000E+00 -0.00000000000E+00 -0.60335778956E+03  0.60335778956E+03  0.00000000000E+00 0. -1.
         24    2    1    2    0    0 -0.22337365106E+02 -0.46938851695E+02 -0.13161338247E+03  0.15034510237E+03  0.50787337824E+02 0.  0.
         25    2    1    2    0    0 -0.10425299308E+03  0.29981222004E+03  0.33568347791E+03  0.47860609977E+03  0.12499739014E+03 0.  0.
         24    2    1    2    0    0  0.10842575578E+03 -0.15526560710E+03  0.10310592852E+04  0.10513738645E+04  0.80250856565E+02 0.  0.
        -11    1    3    3    0    0 -0.10568700628E+01 -0.42754719918E+02 -0.49503514084E+02  0.65419270527E+02  0.00000000000E+00 0.  1.
         12    1    3    3    0    0 -0.21280495044E+02 -0.41841317772E+01 -0.82109868382E+02  0.84925831840E+02  0.00000000000E+00 0. -1.
        -13    1    5    5    0    0  0.35518970933E+02 -0.54502825657E+02  0.18249749490E+03  0.19374594434E+03  0.00000000000E+00 0.  1.
         14    1    5    5    0    0  0.72906784848E+02 -0.10076278145E+03  0.84856179034E+03  0.85762792015E+03  0.00000000000E+00 0. -1.
          5    1    4    4  501    0 -0.13288319836E+03  0.25558962712E+03  0.28861069369E+03  0.40780169741E+03  0.47000000000E+01 0. -1.
         -5    1    4    4    0  501  0.28630205280E+02  0.44222592921E+02  0.47072784225E+02  0.70804402361E+02  0.47000000000E+01 0. -1.
          1    1    1    2  502    0  0.30974483452E+02 -0.45714793597E+02 -0.37797992690E+03  0.38199225924E+03  0.00000000000E+00 0. -1.
          1    1    1    2  503    0 -0.12809881043E+02 -0.51892967646E+02  0.92219575487E+03  0.92374346192E+03  0.00000000000E+00 0. -1.
<mgrwt>
<rscale>  0 0.54352378E+02</rscale>
<asrwt>0</asrwt>
<pdfrwt beam="1">  1        2 0.35039750E+00 0.53450661E+02</pdfrwt>
<pdfrwt beam="2">  1        2 0.88729087E-01 0.55269308E+02</pdfrwt>
<totfact> 0.55009916E+01</totfact>
</mgrwt>
</event>
<event>
13    1  0.2038932E-008  0.7557181E+02  0.7546771E-02  0.1430189E+00
          2   -1    0    0  502    0  0.00000000000E+00  0.00000000000E+00  0.17877826297E+04  0.17877826297E+04  0.00000000000E+00 0. -1.
          2   -1    0    0  503    0 -0.00000000000E+00 -0.00000000000E+00 -0.28764573942E+04  0.28764573942E+04  0.00000000000E+00 0. -1.
         24    2    1    2    0    0  0.39617653457E+03  0.13723255752E+03 -0.79466481337E+03  0.90203145830E+03  0.79874681627E+02 0.  0.
         25    2    1    2    0    0  0.44548651410E+03 -0.44307445495E+03 -0.62632373689E+03  0.89592685793E+03  0.12502121613E+03 0.  0.
         24    2    1    2    0    0 -0.80662192421E+03  0.33312541827E+03  0.22591766388E+03  0.90405431513E+03  0.68293051980E+02 0.  0.
        -11    1    3    3    0    0  0.23400579772E+03  0.64012371500E+02 -0.38048660568E+03  0.45124976917E+03  0.00000000000E+00 0.  1.
         12    1    3    3    0    0  0.16217073685E+03  0.73220186023E+02 -0.41417820769E+03  0.45078168913E+03  0.00000000000E+00 0. -1.
        -13    1    5    5    0    0 -0.44802915699E+03  0.19189524937E+03  0.91674651717E+02  0.49594168408E+03  0.00000000000E+00 0.  1.
         14    1    5    5    0    0 -0.35859276722E+03  0.14123016890E+03  0.13424301216E+03  0.40811263105E+03  0.00000000000E+00 0. -1.
          5    1    4    4  501    0  0.91654352036E+02 -0.17100139051E+03 -0.19985775772E+03  0.27858070487E+03  0.47000000000E+01 0.  1.
         -5    1    4    4    0  501  0.35383216206E+03 -0.27207306444E+03 -0.42646597917E+03  0.61734615306E+03  0.47000000000E+01 0.  1.
          1    1    1    2  502    0 -0.71894103126E+02 -0.23365823670E+02  0.10325593765E+04  0.10353229399E+04  0.00000000000E+00 0. -1.
          1    1    1    2  503    0  0.36852978666E+02 -0.39176971685E+01 -0.92616325459E+03  0.92690445276E+03  0.00000000000E+00 0. -1.
<mgrwt>
<rscale>  0 0.52922010E+02</rscale>
<asrwt>0</asrwt>
<pdfrwt beam="1">  1        2 0.26290921E+00 0.75571814E+02</pdfrwt>
<pdfrwt beam="2">  1        2 0.42300843E+00 0.37060631E+02</pdfrwt>
<totfact> 0.72947777E+00</totfact>
</mgrwt>
</event>
<event>
13    1  0.2038932E-008  0.1045610E+03  0.7546771E-02  0.1281175E+00
          2   -1    0    0  502    0  0.00000000000E+00  0.00000000000E+00  0.25576879428E+04  0.25576879428E+04  0.00000000000E+00 0. -1.
          2   -1    0    0  503    0 -0.00000000000E+00 -0.00000000000E+00 -0.46635019113E+03  0.46635019113E+03  0.00000000000E+00 0. -1.
         24    2    1    2    0    0  0.75385308106E+02  0.21774711015E+02 -0.60096763340E+02  0.12793960471E+03  0.81239391749E+02 0.  0.
         25    2    1    2    0    0 -0.73661508501E+02  0.10168577702E+03 -0.65712971112E+02  0.18896981579E+03  0.12500152649E+03 0.  0.
         24    2    1    2    0    0  0.34529937904E+01  0.10008504971E+03  0.67751443819E+03  0.68988531290E+03  0.82987894630E+02 0.  0.
        -11    1    3    3    0    0  0.57061491004E+02  0.15007374004E+02  0.57263971649E+01  0.59279226164E+02  0.00000000000E+00 0.  1.
         12    1    3    3    0    0  0.18323817102E+02  0.67673370108E+01 -0.65823160505E+02  0.68660378547E+02  0.00000000000E+00 0. -1.
        -13    1    5    5    0    0 -0.16341579351E+01  0.11078673338E+03  0.50729145280E+03  0.51925041054E+03  0.00000000000E+00 0.  1.
         14    1    5    5    0    0  0.50871517255E+01 -0.10701683677E+02  0.17022298540E+03  0.17063490236E+03  0.00000000000E+00 0. -1.
          5    1    4    4  501    0 -0.36388341488E+02  0.11264328326E+03 -0.84543364953E+02  0.14554137287E+03  0.47000000000E+01 0.  1.
         -5    1    4    4    0  501 -0.37273167012E+02 -0.10957506240E+02  0.18830393841E+02  0.43428442919E+02  0.47000000000E+01 0.  1.
          1    1    1    2  502    0  0.69816376194E+02 -0.13495917911E+03  0.17608673761E+04  0.17674111640E+04  0.00000000000E+00 0. -1.
          1    1    1    2  503    0 -0.74993169590E+02 -0.88586358636E+02 -0.22123432820E+03  0.24983223650E+03  0.00000000000E+00 0. -1.
<mgrwt>
<rscale>  0 0.99582910E+02</rscale>
<asrwt>0</asrwt>
<pdfrwt beam="1">  1        2 0.37613058E+00 0.10456102E+03</pdfrwt>
<pdfrwt beam="2">  1        2 0.68580911E-01 0.94841807E+02</pdfrwt>
<totfact> 0.54079532E+01</totfact>
</mgrwt>
</event>
<event>
13    1  0.2038932E-008  0.1502182E+03  0.7546771E-02  0.1332341E+00
          2   -1    0    0  502    0  0.00000000000E+00  0.00000000000E+00  0.25960070401E+04  0.25960070401E+04  0.00000000000E+00 0. -1.
          2   -1    0    0  503    0 -0.00000000000E+00 -0.00000000000E+00 -0.32573034804E+03  0.32573034804E+03  0.00000000000E+00 0. -1.
         24    2    1    2    0    0 -0.10185825804E+03  0.81493073922E+02 -0.65292908802E+02  0.16716660051E+03  0.81641181746E+02 0.  0.
         25    2    1    2    0    0 -0.12761775120E+03 -0.53714861427E+02  0.38974279327E+03  0.43208598446E+03  0.12500910488E+03 0.  0.
         24    2    1    2    0    0  0.38835146321E+02  0.14769908213E+02  0.63668409155E+02  0.11386454646E+03  0.84765263151E+02 0.  0.
        -13    1    5    5    0    0  0.24371335732E+02  0.48620672249E+02  0.52005960081E+02  0.75249927969E+02  0.00000000000E+00 0.  1.
         14    1    5    5    0    0  0.14463810588E+02 -0.33850764036E+02  0.11662449074E+02  0.38614618488E+02  0.00000000000E+00 0. -1.
        -13    1    3    3    0    0 -0.75930186155E+02  0.13450725911E+02 -0.14701143107E+02  0.78501202575E+02  0.00000000000E+00 0.  1.
         14    1    3    3    0    0 -0.25928071889E+02  0.68042348010E+02 -0.50591765695E+02  0.88665397934E+02  0.00000000000E+00 0. -1.
          5    1    4    4  501    0 -0.79599119947E+02  0.72544363170E+01  0.31209866740E+03  0.32220539247E+03  0.47000000000E+01 0.  1.
         -5    1    4    4    0  501 -0.48018631255E+02 -0.60969297744E+02  0.77644125870E+02  0.10988059199E+03  0.47000000000E+01 0.  1.
          1    1    1    2  502    0 -0.28128794927E+02 -0.30363731632E+02  0.19715454506E+04  0.19719798805E+04  0.00000000000E+00 0. -1.
          1    1    1    2  503    0  0.21876965785E+03 -0.12184389076E+02 -0.89387052201E+02  0.23664037617E+03  0.00000000000E+00 0. -1.
<mgrwt>
<rscale>  0 0.78851935E+02</rscale>
<asrwt>0</asrwt>
<pdfrwt beam="1">  1        2 0.38176573E+00 0.41390643E+02</pdfrwt>
<pdfrwt beam="2">  1        2 0.47901523E-01 0.15021820E+03</pdfrwt>
<totfact> 0.86230083E+01</totfact>
</mgrwt>
</event>
<event>
13    1  0.2038932E-008  0.9646974E+02  0.7546771E-02  0.1414768E+00
          2   -1    0    0  503    0  0.00000000000E+00  0.00000000000E+00  0.13861076512E+04  0.13861076512E+04  0.00000000000E+00 0. -1.
          2   -1    0    0  502    0 -0.00000000000E+00 -0.00000000000E+00 -0.74315956125E+03  0.74315956125E+03  0.00000000000E+00 0. -1.
         24    2    1    2    0    0 -0.30078785626E+02  0.67623252923E+01 -0.59516403931E+02  0.10223270756E+03  0.77193664048E+02 0.  0.
         25    2    1    2    0    0  0.51568621226E+02 -0.15160560188E+03  0.64907149680E+03  0.68011967055E+03  0.12500150841E+03 0.  0.
         24    2    1    2    0    0  0.41839769494E+02  0.60625035803E+02  0.10775340713E+03  0.15163297932E+03  0.77173845261E+02 0.  0.
        -13    1    3    3    0    0 -0.31145488544E+02  0.39444494055E+02 -0.39172194820E+02  0.63721035890E+02  0.00000000000E+00 0.  1.
         14    1    3    3    0    0  0.10667029176E+01 -0.32682168762E+02 -0.20344209110E+02  0.38511671665E+02  0.00000000000E+00 0. -1.
        -13    1    5    5    0    0 -0.15554008004E+02  0.33301620122E+02  0.16177625175E+02  0.40157696947E+02  0.00000000000E+00 0.  1.
         14    1    5    5    0    0  0.57393777498E+02  0.27323415681E+02  0.91575781952E+02  0.11147528237E+03  0.00000000000E+00 0. -1.
          5    1    4    4  501    0  0.71699834355E+02 -0.11187693765E+03  0.29946575225E+03  0.32765704967E+03  0.47000000000E+01 0.  1.
         -5    1    4    4    0  501 -0.20131213129E+02 -0.39728664226E+02  0.34960574454E+03  0.35246262088E+03  0.47000000000E+01 0.  1.
          1    1    1    2  502    0 -0.66737224121E+02  0.51722268972E+02 -0.62149632741E+03  0.62720549676E+03  0.00000000000E+00 0. -1.
          1    1    1    2  503    0  0.34076190276E+01  0.32495971809E+02  0.56713591736E+03  0.56807635826E+03  0.00000000000E+00 0. -1.
<mgrwt>
<rscale>  0 0.56143271E+02</rscale>
<asrwt>0</asrwt>
<pdfrwt beam="1">  1        2 0.20383936E+00 0.32674150E+02</pdfrwt>
<pdfrwt beam="2">  1        2 0.10928817E+00 0.96469745E+02</pdfrwt>
<totfact> 0.13150720E+02</totfact>
</mgrwt>
</event>
<event>
13    1  0.2038932E-008  0.7393374E+02  0.7546771E-02  0.1373899E+00
          2   -1    0    0  502    0  0.00000000000E+00  0.00000000000E+00  0.31379520878E+04  0.31379520878E+04  0.00000000000E+00 0. -1.
          2   -1    0    0  503    0 -0.00000000000E+00 -0.00000000000E+00 -0.39573445496E+04  0.39573445496E+04  0.00000000000E+00 0. -1.
         24    2    1    2    0    0 -0.38093762206E+03  0.13255664967E+04 -0.75918661033E+03  0.15766579252E+04  0.85122822124E+02 0.  0.
         25    2    1    2    0    0 -0.53636147235E+03 -0.24105430121E+03  0.37941922485E+03  0.71089774232E+03  0.12500338671E+03 0.  0.
         24    2    1    2    0    0  0.10237016110E+04 -0.11061590460E+04  0.33489952096E+03  0.15469877597E+04  0.97265698705E+02 0.  0.
        -11    1    3    3    0    0 -0.24679308525E+02  0.87883180282E+02 -0.27219123385E+02  0.95254408421E+02  0.00000000000E+00 0.  1.
         12    1    3    3    0    0 -0.35625831354E+03  0.12376833164E+04 -0.73196748695E+03  0.14814035168E+04  0.00000000000E+00 0. -1.
        -13    1    5    5    0    0  0.69614729677E+03 -0.70231197884E+03  0.18719771445E+03  0.10064323915E+04  0.00000000000E+00 0.  1.
         14    1    5    5    0    0  0.32755431422E+03 -0.40384706715E+03  0.14770180651E+03  0.54055536816E+03  0.00000000000E+00 0. -1.
          5    1    4    4  501    0 -0.34433050010E+03 -0.17599393408E+03  0.18034671118E+03  0.42671346870E+03  0.47000000000E+01 0.  1.
         -5    1    4    4    0  501 -0.19203097225E+03 -0.65060367134E+02  0.19907251367E+03  0.28418427362E+03  0.47000000000E+01 0.  1.
          1    1    1    2  502    0 -0.54519529852E+02  0.49922065492E+02  0.12415821145E+04  0.12437808243E+04  0.00000000000E+00 0. -1.
          1    1    1    2  503    0 -0.51882986724E+02 -0.28275214989E+02 -0.20161067118E+04  0.20169723859E+04  0.00000000000E+00 0. -1.
<mgrwt>
<rscale>  0 0.66095080E+02</rscale>
<asrwt>0</asrwt>
<pdfrwt beam="1">  1        2 0.46146354E+00 0.73933742E+02</pdfrwt>
<pdfrwt beam="2">  1        2 0.58196243E+00 0.59087495E+02</pdfrwt>
<totfact> 0.35172293E-01</totfact>
</mgrwt>
</event>
<event>
13    1  0.2038932E-008  0.1679145E+03  0.7546771E-02  0.1292775E+00
          2   -1    0    0  503    0  0.00000000000E+00  0.00000000000E+00  0.26652383600E+04  0.26652383600E+04  0.00000000000E+00 0. -1.
          2   -1    0    0  502    0 -0.00000000000E+00 -0.00000000000E+00 -0.57950729466E+03  0.57950729466E+03  0.00000000000E+00 0. -1.
         24    2    1    2    0    0  0.17313533712E+03  0.10915046022E+03  0.39681372346E+03  0.45353716908E+03  0.79656542046E+02 0.  0.
         25    2    1    2    0    0 -0.31838497670E+03 -0.47353545006E+02  0.65178302211E+03  0.73760185018E+03  0.12499611940E+03 0.  0.
         24    2    1    2    0    0 -0.50284219761E+02 -0.58536176580E+02  0.27081037809E+03  0.29277478306E+03  0.80148774120E+02 0.  0.
        -11    1    5    5    0    0  0.29144818174E+00 -0.64640263437E+01 -0.46126067920E+01  0.79463652089E+01  0.00000000000E+00 0.  1.
         12    1    5    5    0    0 -0.50575667943E+02 -0.52072150236E+02  0.27542298488E+03  0.28482841786E+03  0.00000000000E+00 0. -1.
        -11    1    3    3    0    0  0.14513467376E+03  0.53054264853E+02  0.25008826915E+03  0.29397784086E+03  0.00000000000E+00 0.  1.
         12    1    3    3    0    0  0.28000663356E+02  0.56096195370E+02  0.14672545430E+03  0.15955932822E+03  0.00000000000E+00 0. -1.
          5    1    4    4  501    0 -0.15538675613E+03  0.30570178028E+02  0.37433002000E+03  0.40647833108E+03  0.47000000000E+01 0.  1.
         -5    1    4    4    0  501 -0.16299822057E+03 -0.77923723034E+02  0.27745300211E+03  0.33112351910E+03  0.47000000000E+01 0.  1.
          1    1    1    2  502    0  0.32783500502E+02  0.41582039834E+02 -0.49018328151E+03  0.49303496165E+03  0.00000000000E+00 0. -1.
          1    1    1    2  503    0  0.16275035884E+03 -0.44842778472E+02  0.12565072232E+04  0.12677968907E+04  0.00000000000E+00 0. -1.
<mgrwt>
<rscale>  0 0.94293507E+02</rscale>
<asrwt>0</asrwt>
<pdfrwt beam="1">  1        2 0.39194681E+00 0.16791450E+03</pdfrwt>
<pdfrwt beam="2">  1        2 0.85221662E-01 0.52951147E+02</pdfrwt>
<totfact> 0.35796438E+01</totfact>
</mgrwt>
</event>
<event>
13    1  0.2038932E-008  0.1192594E+03  0.7546771E-02  0.1334535E+00
          2   -1    0    0  502    0  0.00000000000E+00  0.00000000000E+00  0.12052139789E+04  0.12052139789E+04  0.00000000000E+00 0. -1.
          2   -1    0    0  503    0 -0.00000000000E+00 -0.00000000000E+00 -0.24019991770E+04  0.24019991770E+04  0.00000000000E+00 0. -1.
         24    2    1    2    0    0  0.37574647541E+02  0.17598612914E+02 -0.81037069306E+03  0.81572575438E+03  0.83583974998E+02 0.  0.
         25    2    1    2    0    0 -0.13079358037E+01  0.38420151637E+03  0.71780098686E+03  0.82369364694E+03  0.12498180427E+03 0.  0.
         24    2    1    2    0    0 -0.22118605528E+02 -0.22540487410E+03 -0.34658264319E+03  0.42157480589E+03  0.79430462785E+02 0.  0.
        -11    1    5    5    0    0 -0.40376223449E+02 -0.55555147752E+02 -0.87310619778E+02  0.11108446421E+03  0.00000000000E+00 0.  1.
         12    1    5    5    0    0  0.18257617920E+02 -0.16984972635E+03 -0.25927202341E+03  0.31049034168E+03  0.00000000000E+00 0. -1.
        -11    1    3    3    0    0  0.41208458245E+02 -0.25734786990E+02 -0.36069270722E+03  0.36395005885E+03  0.00000000000E+00 0.  1.
         12    1    3    3    0    0 -0.36338107040E+01  0.43333399904E+02 -0.44967798583E+03  0.45177569553E+03  0.00000000000E+00 0. -1.
          5    1    4    4  501    0  0.62198450581E+01  0.19581471398E+03  0.23889341944E+03  0.30898906863E+03  0.47000000000E+01 0.  1.
         -5    1    4    4    0  501 -0.75277808619E+01  0.18838680239E+03  0.47890756742E+03  0.51470457831E+03  0.47000000000E+01 0.  1.
          1    1    1    2  502    0 -0.45716665881E+02 -0.22928342714E+02  0.38727627914E+03  0.39063875745E+03  0.00000000000E+00 0. -1.
          1    1    1    2  503    0  0.31568559672E+02 -0.15346691246E+03 -0.11449091279E+04  0.11555801912E+04  0.00000000000E+00 0. -1.
<mgrwt>
<rscale>  0 0.78098763E+02</rscale>
<asrwt>0</asrwt>
<pdfrwt beam="1">  1        2 0.17723735E+00 0.51144134E+02</pdfrwt>
<pdfrwt beam="2">  1        2 0.35323517E+00 0.11925936E+03</pdfrwt>
<totfact> 0.21022294E+01</totfact>
</mgrwt>
</event>
<event>
13    1  0.2038932E-008  0.1477364E+03  0.7546771E-02  0.1408294E+00
          2   -1    0    0  502    0  0.00000000000E+00  0.00000000000E+00  0.13347699826E+04  0.13347699826E+04  0.00000000000E+00 0. -1.
          2   -1    0    0  503    0 -0.00000000000E+00 -0.00000000000E+00 -0.18410978460E+04  0.18410978460E+04  0.00000000000E+00 0. -1.
         24    2    1    2    0    0 -0.97978793275E+02 -0.56671957821E+03 -0.77229911349E+03  0.96646718320E+03  0.82716209070E+02 0.  0.
         25    2    1    2    0    0  0.30402597768E+02  0.17035499798E+03  0.45449147666E+03  0.50212721328E+03  0.12499637063E+03 0.  0.
         24    2    1    2    0    0  0.89229116271E+02  0.23262957116E+03  0.12980479630E+02  0.26248989461E+03  0.81572663021E+02 0.  0.
        -13    1    5    5    0    0  0.44429613738E+02  0.17283466226E+03  0.40279482628E+02  0.18294329115E+03  0.00000000000E+00 0.  1.
         14    1    5    5    0    0  0.44799502533E+02  0.59794908899E+02 -0.27299002998E+02  0.79546603461E+02  0.00000000000E+00 0. -1.
        -13    1    3    3    0    0 -0.10094094255E+03 -0.40802773928E+03 -0.59515495480E+03  0.72861864520E+03  0.00000000000E+00 0.  1.
         14    1    3    3    0    0  0.29621492795E+01 -0.15869183892E+03 -0.17714415869E+03  0.23784853800E+03  0.00000000000E+00 0. -1.
          5    1    4    4  501    0 -0.16392406320E+02  0.47729739582E+02  0.32593685466E+02  0.60260080964E+02  0.47000000000E+01 0. -1.
         -5    1    4    4    0  501  0.46795004087E+02  0.12262525839E+03  0.42189779120E+03  0.44186713232E+03  0.47000000000E+01 0. -1.
          1    1    1    2  502    0 -0.15436686584E+02  0.16285216732E+02  0.61482018244E+03  0.61522951515E+03  0.00000000000E+00 0. -1.
          1    1    1    2  503    0 -0.62162341800E+01  0.14744979234E+03 -0.81632088868E+03  0.82955402242E+03  0.00000000000E+00 0. -1.
<mgrwt>
<rscale>  0 0.57576268E+02</rscale>
<asrwt>0</asrwt>
<pdfrwt beam="1">  1        2 0.19628970E+00 0.22438796E+02</pdfrwt>
<pdfrwt beam="2">  1        2 0.27074968E+00 0.14773638E+03</pdfrwt>
<totfact> 0.35471085E+01</totfact>
</mgrwt>
</event>
<event>
13    1  0.2038932E-008  0.1457472E+03  0.7546771E-02  0.1259008E+00
         -3   -1    0    0    0  501 -0.00000000000E+00  0.00000000000E+00  0.10549047643E+04  0.10549047643E+04  0.00000000000E+00 0.  1.
          2   -1    0    0  503    0  0.00000000000E+00 -0.00000000000E+00 -0.19009857661E+04  0.19009857661E+04  0.00000000000E+00 0. -1.
         24    2    1    2    0    0 -0.53174350910E+03 -0.16800680477E+03  0.58141586086E+03  0.81002319432E+03  0.84354763664E+02 0.  0.
         25    2    1    2    0    0  0.51397298347E+03 -0.56420566988E+02 -0.11783002456E+04  0.12928144415E+04  0.12500481314E+03 0.  0.
         24    2    1    2    0    0  0.15124968374E+03  0.21403498163E+03 -0.54698400828E+01  0.27471405751E+03  0.82161146818E+02 0.  0.
        -11    1    5    5    0    0  0.13895200138E+03  0.20118231162E+03  0.18114320381E+02  0.24517363194E+03  0.00000000000E+00 0.  1.
         12    1    5    5    0    0  0.12297682364E+02  0.12852670018E+02 -0.23584160464E+02  0.29540425571E+02  0.00000000000E+00 0. -1.
        -13    1    3    3    0    0 -0.38272578427E+03 -0.15871806416E+03  0.41446772458E+03  0.58604943866E+03  0.00000000000E+00 0.  1.
         14    1    3    3    0    0 -0.14901772483E+03 -0.92887406117E+01  0.16694813628E+03  0.22397375565E+03  0.00000000000E+00 0. -1.
          5    1    4    4  502    0  0.65863713898E+02 -0.32843121574E+02 -0.26726053389E+03  0.27724895387E+03  0.47000000000E+01 0. -1.
         -5    1    4    4    0  502  0.44810926957E+03 -0.23577445414E+02 -0.91103971173E+03  0.10155654877E+04  0.47000000000E+01 0. -1.
          1    1    1    2  503    0 -0.12640678631E+03 -0.73615552860E+02 -0.38609771445E+03  0.41287936538E+03  0.00000000000E+00 0. -1.
         -4    1    1    2    0  501 -0.70723718008E+01  0.84007942984E+02  0.14237093744E+03  0.16545947164E+03  0.00000000000E+00 0.  1.
<mgrwt>
<rscale>  0 0.11084780E+03</rscale>
<asrwt>0</asrwt>
<pdfrwt beam="2">  1        2 0.27955672E+00 0.14574719E+03</pdfrwt>
<pdfrwt beam="1">  1       -3 0.15513306E+00 0.84305118E+02</pdfrwt>
<totfact> 0.19399228E+00</totfact>
</mgrwt>
</event>
<event>
13    1  0.2038932E-008  0.7804819E+02  0.7546771E-02  0.1343332E+00
          2   -1    0    0  503    0  0.00000000000E+00  0.00000000000E+00  0.91211999241E+03  0.91211999241E+03  0.00000000000E+00 0. -1.
          2   -1    0    0  502    0 -0.00000000000E+00 -0.00000000000E+00 -0.23710249733E+04  0.23710249733E+04  0.00000000000E+00 0. -1.
         24    2    1    2    0    0 -0.60444664652E+02 -0.22265367432E+02 -0.40585134123E+03  0.41874611291E+03  0.80521374968E+02 0.  0.
         25    2    1    2    0    0 -0.50643559325E+02  0.16328636941E+03 -0.55083858562E+03  0.59014861520E+03  0.12500012831E+03 0.  0.
         24    2    1    2    0    0 -0.21687377445E+01 -0.42334397278E+02 -0.52781692034E+03  0.53484115932E+03  0.75282532408E+02 0.  0.
        -11    1    3    3    0    0 -0.39916131985E+02  0.25824119141E+02 -0.24627105949E+03  0.25081789702E+03  0.00000000000E+00 0.  1.
         12    1    3    3    0    0 -0.20528532667E+02 -0.48089486573E+02 -0.15958028174E+03  0.16792821589E+03  0.00000000000E+00 0. -1.
        -13    1    5    5    0    0 -0.38494528965E+02 -0.17764728708E+02 -0.27499603013E+03  0.27824491179E+03  0.00000000000E+00 0.  1.
         14    1    5    5    0    0  0.36325791220E+02 -0.24569668570E+02 -0.25282089021E+03  0.25659624753E+03  0.00000000000E+00 0. -1.
          5    1    4    4  501    0  0.55606911996E+01  0.11169171202E+03 -0.18351129012E+03  0.21495218869E+03  0.47000000000E+01 0.  1.
         -5    1    4    4    0  501 -0.56204250525E+02  0.51594657393E+02 -0.36732729550E+03  0.37519642651E+03  0.47000000000E+01 0.  1.
          1    1    1    2  502    0  0.52312919572E+02 -0.50060067375E+02 -0.85364598590E+03  0.85671122389E+03  0.00000000000E+00 0. -1.
          1    1    1    2  503    0  0.60944042149E+02 -0.48626537329E+02  0.87924785224E+03  0.88269785435E+03  0.00000000000E+00 0. -1.
<mgrwt>
<rscale>  0 0.75174261E+02</rscale>
<asrwt>0</asrwt>
<pdfrwt beam="1">  1        2 0.13413529E+00 0.78048187E+02</pdfrwt>
<pdfrwt beam="2">  1        2 0.34868014E+00 0.72406159E+02</pdfrwt>
<totfact> 0.32823740E+01</totfact>
</mgrwt>
</event>
<event>
13    1  0.2038932E-008  0.1013727E+03  0.7546771E-02  0.1411276E+00
          2   -1    0    0  503    0  0.00000000000E+00  0.00000000000E+00  0.65651617459E+03  0.65651617459E+03  0.00000000000E+00 0. -1.
          2   -1    0    0  502    0 -0.00000000000E+00 -0.00000000000E+00 -0.12990377512E+04  0.12990377512E+04  0.00000000000E+00 0. -1.
         24    2    1    2    0    0  0.34882848549E+02 -0.14604841914E+03 -0.40507600277E+03  0.43933606091E+03  0.79891504789E+02 0.  0.
         25    2    1    2    0    0 -0.13552335191E+03  0.18689168352E+03  0.73215231101E+02  0.27254386317E+03  0.12499842802E+03 0.  0.
         24    2    1    2    0    0  0.30978745265E+02 -0.28649146981E+02 -0.26077238505E+03  0.27704046489E+03  0.83478896142E+02 0.  0.
        -11    1    3    3    0    0  0.59696467194E+02 -0.87706886496E+02 -0.27094065989E+03  0.29097251986E+03  0.00000000000E+00 0.  1.
         12    1    3    3    0    0 -0.24813618645E+02 -0.58341532647E+02 -0.13413534288E+03  0.14836354105E+03  0.00000000000E+00 0. -1.
        -13    1    5    5    0    0 -0.17202744851E+02 -0.61250093087E+01 -0.17613519027E+03  0.17707923487E+03  0.00000000000E+00 0.  1.
         14    1    5    5    0    0  0.48181490117E+02 -0.22524137673E+02 -0.84637194783E+02  0.99961230027E+02  0.00000000000E+00 0. -1.
          5    1    4    4  501    0 -0.11987161638E+03  0.19791934904E+03  0.88310303379E+02  0.24771369123E+03  0.47000000000E+01 0.  1.
         -5    1    4    4    0  501 -0.15651735530E+02 -0.11027665522E+02 -0.15095072278E+02  0.24830171949E+02  0.47000000000E+01 0.  1.
          1    1    1    2  502    0  0.95694839839E+02  0.63266767169E+01 -0.50316967312E+03  0.51222773173E+03  0.00000000000E+00 0. -1.
          1    1    1    2  503    0 -0.26033081743E+02 -0.18520794110E+02  0.45328125323E+03  0.45440580508E+03  0.00000000000E+00 0. -1.
<mgrwt>
<rscale>  0 0.56910099E+02</rscale>
<asrwt>0</asrwt>
<pdfrwt beam="1">  1        2 0.96546498E-01 0.31949040E+02</pdfrwt>
<pdfrwt beam="2">  1        2 0.19103496E+00 0.10137266E+03</pdfrwt>
<totfact> 0.15856243E+02</totfact>
</mgrwt>
</event>
<event>
13    1  0.2038932E-008  0.9455675E+02  0.7546771E-02  0.1409747E+00
          2   -1    0    0  502    0  0.00000000000E+00  0.00000000000E+00  0.38521075564E+03  0.38521075564E+03  0.00000000000E+00 0. -1.
          2   -1    0    0  503    0 -0.00000000000E+00 -0.00000000000E+00 -0.76202658080E+03  0.76202658080E+03  0.00000000000E+00 0. -1.
         24    2    1    2    0    0 -0.61636848594E+02 -0.82251183666E+02 -0.10565624425E+03  0.16800143241E+03  0.80603232081E+02 0.  0.
         25    2    1    2    0    0  0.17754164476E+03 -0.80817570053E+02  0.11477806567E+03  0.25855809543E+03  0.12500307635E+03 0.  0.
         24    2    1    2    0    0 -0.55704883928E+02  0.10191566769E+03  0.44852297799E+02  0.14598853123E+03  0.76230474335E+02 0.  0.
        -11    1    3    3    0    0 -0.15603240505E+02 -0.65562752029E+02 -0.97250542195E+02  0.11831992024E+03  0.00000000000E+00 0.  1.
         12    1    3    3    0    0 -0.46033608089E+02 -0.16688431637E+02 -0.84057020562E+01  0.49681512168E+02  0.00000000000E+00 0. -1.
        -13    1    5    5    0    0  0.12457468329E+02  0.49721524762E+02  0.28317019687E+02  0.58559987583E+02  0.00000000000E+00 0.  1.
         14    1    5    5    0    0 -0.68162352257E+02  0.52194142932E+02  0.16535278113E+02  0.87428543645E+02  0.00000000000E+00 0. -1.
          5    1    4    4  501    0  0.19233348958E+03 -0.56210773023E+02  0.87583891997E+02  0.21873465742E+03  0.47000000000E+01 0.  1.
         -5    1    4    4    0  501 -0.14791844817E+02 -0.24606797030E+02  0.27194173675E+02  0.39823438011E+02  0.47000000000E+01 0.  1.
          1    1    1    2  502    0 -0.38564455722E+02  0.88234693173E+02  0.38803297674E+02  0.10381846770E+03  0.00000000000E+00 0. -1.
          1    1    1    2  503    0 -0.21635456520E+02 -0.27081607148E+02 -0.46959324206E+03  0.47087080968E+03  0.00000000000E+00 0. -1.
<mgrwt>
<rscale>  0 0.57250304E+02</rscale>
<asrwt>0</asrwt>
<pdfrwt beam="1">  1        2 0.56648641E-01 0.94556751E+02</pdfrwt>
<pdfrwt beam="2">  1        2 0.11206273E+00 0.34662753E+02</pdfrwt>
<totfact> 0.58082805E+02</totfact>
</mgrwt>
</event>
<event>
13    1  0.2038932E-008  0.9181800E+02  0.7546771E-02  0.1399180E+00
          2   -1    0    0  502    0  0.00000000000E+00  0.00000000000E+00  0.16606925480E+04  0.16606925480E+04  0.00000000000E+00 0. -1.
          2   -1    0    0  503    0 -0.00000000000E+00 -0.00000000000E+00 -0.34806651847E+04  0.34806651847E+04  0.00000000000E+00 0. -1.
         24    2    1    2    0    0  0.57835885864E+02 -0.75366678466E+02 -0.10132336175E+04  0.10208768939E+04  0.80759786458E+02 0.  0.
         25    2    1    2    0    0  0.57669254418E+02  0.10502815140E+03  0.48192374019E+02  0.17973205824E+03  0.12499780939E+03 0.  0.
         24    2    1    2    0    0 -0.19573853725E+03 -0.90823550536E+02 -0.16401207135E+04  0.16563279238E+04  0.82847715419E+02 0.  0.
        -11    1    3    3    0    0  0.81004766883E+01  0.97862403914E+01 -0.28320760330E+02  0.31039550404E+02  0.00000000000E+00 0.  1.
         12    1    3    3    0    0  0.49735409175E+02 -0.85152918857E+02 -0.98491285712E+03  0.98983734353E+03  0.00000000000E+00 0. -1.
        -13    1    5    5    0    0 -0.55907617457E+02  0.85357243447E+01 -0.30120137412E+03  0.30646498666E+03  0.00000000000E+00 0.  1.
         14    1    5    5    0    0 -0.13983091979E+03 -0.99359274881E+02 -0.13389193394E+04  0.13498629371E+04  0.00000000000E+00 0. -1.
          5    1    4    4  501    0  0.82891032378E+02  0.11614906730E+03  0.51050629916E+02  0.15162383025E+03  0.47000000000E+01 0.  1.
         -5    1    4    4    0  501 -0.25221777960E+02 -0.11120915901E+02 -0.28582558968E+01  0.28108227990E+02  0.47000000000E+01 0.  1.
          1    1    1    2  502    0 -0.85384136466E+01  0.37839262186E+02  0.15317490509E+04  0.15322401473E+04  0.00000000000E+00 0. -1.
          1    1    1    2  503    0  0.88771810611E+02  0.23322815413E+02 -0.74655973067E+03  0.75218070936E+03  0.00000000000E+00 0. -1.
<mgrwt>
<rscale>  0 0.59679809E+02</rscale>
<asrwt>0</asrwt>
<pdfrwt beam="1">  1        2 0.24421949E+00 0.38790647E+02</pdfrwt>
<pdfrwt beam="2">  1        2 0.51186253E+00 0.91818001E+02</pdfrwt>
<totfact> 0.35911514E+00</totfact>
</mgrwt>
</event>
<event>
13    1  0.2038932E-008  0.1579883E+03  0.7546771E-02  0.1243959E+00
          2   -1    0    0  502    0  0.00000000000E+00  0.00000000000E+00  0.88460251835E+03  0.88460251835E+03  0.00000000000E+00 0. -1.
          2   -1    0    0  503    0 -0.00000000000E+00 -0.00000000000E+00 -0.15446076595E+04  0.15446076595E+04  0.00000000000E+00 0. -1.
         24    2    1    2    0    0 -0.17889714777E+02 -0.15348733802E+02 -0.21875591521E+03  0.23448324224E+03  0.81071665380E+02 0.  0.
         25    2    1    2    0    0 -0.22670287556E+03  0.13359957611E+02 -0.26581874075E+03  0.37128751698E+03  0.12498853977E+03 0.  0.
         24    2    1    2    0    0 -0.65701355507E+02 -0.88461831700E+01 -0.16356148397E+03  0.19293925277E+03  0.77963280770E+02 0.  0.
        -11    1    3    3    0    0 -0.34696265053E+02  0.21207550049E+02 -0.14345758704E+03  0.14910959147E+03  0.00000000000E+00 0.  1.
         12    1    3    3    0    0  0.16806550276E+02 -0.36556283850E+02 -0.75298328163E+02  0.85373650767E+02  0.00000000000E+00 0. -1.
        -11    1    5    5    0    0 -0.67792143702E+02  0.10689330026E+02 -0.15839548724E+03  0.17262435200E+03  0.00000000000E+00 0.  1.
         12    1    5    5    0    0  0.20907881951E+01 -0.19535513196E+02 -0.51659967274E+01  0.20314900770E+02  0.00000000000E+00 0. -1.
          5    1    4    4  501    0 -0.61345173321E+02 -0.11447474237E+02 -0.16382426711E+03  0.17537033800E+03  0.47000000000E+01 0. -1.
         -5    1    4    4    0  501 -0.16535770224E+03  0.24807431848E+02 -0.10199447364E+03  0.19591717897E+03  0.47000000000E+01 0. -1.
          1    1    1    2  502    0 -0.36056209377E+02 -0.82804515515E+02  0.76735117313E+03  0.77264769522E+03  0.00000000000E+00 0. -1.
          1    1    1    2  503    0  0.34635015522E+03  0.93639474876E+02 -0.77922017436E+03  0.85785247065E+03  0.00000000000E+00 0. -1.
<mgrwt>
<rscale>  0 0.11947930E+03</rscale>
<asrwt>0</asrwt>
<pdfrwt beam="1">  1        2 0.13008861E+00 0.90356737E+02</pdfrwt>
<pdfrwt beam="2">  1        2 0.22714818E+00 0.15798826E+03</pdfrwt>
<totfact> 0.79014302E+01</totfact>
</mgrwt>
</event>
<event>
13    1  0.2038932E-008  0.1402170E+03  0.7546771E-02  0.1413610E+00
          2   -1    0    0  503    0  0.00000000000E+00  0.00000000000E+00  0.17272957216E+04  0.17272957216E+04  0.00000000000E+00 0. -1.
          2   -1    0    0  502    0 -0.00000000000E+00 -0.00000000000E+00 -0.28669516985E+04  0.28669516985E+04  0.00000000000E+00 0. -1.
         24    2    1    2    0    0 -0.12650329451E+04  0.10019433029E+03 -0.12023598983E+04  0.17495594415E+04  0.70296929779E+02 0.  0.
         25    2    1    2    0    0  0.67082528183E+03 -0.31957838456E+03  0.31289996251E+03  0.81588403630E+03  0.12499388597E+03 0.  0.
         24    2    1    2    0    0  0.73220752445E+03  0.26241414922E+03  0.61518562412E+02  0.78426210392E+03  0.79331390694E+02 0.  0.
        -11    1    5    5    0    0  0.10203068140E+03  0.49828195571E+02  0.34387964956E+02  0.11864080729E+03  0.00000000000E+00 0.  1.
         12    1    5    5    0    0  0.63017684306E+03  0.21258595365E+03  0.27130597455E+02  0.66562129663E+03  0.00000000000E+00 0. -1.
        -13    1    3    3    0    0 -0.99771234224E+03  0.50325179379E+02 -0.94040355274E+03  0.13719771804E+04  0.00000000000E+00 0.  1.
         14    1    3    3    0    0 -0.26732060282E+03  0.49869150915E+02 -0.26195634553E+03  0.37758226106E+03  0.00000000000E+00 0. -1.
          5    1    4    4  501    0  0.40077317792E+03 -0.23476623313E+03  0.14433844219E+03  0.48640518115E+03  0.47000000000E+01 0. -1.
         -5    1    4    4    0  501  0.27005210390E+03 -0.84812151430E+02  0.16856152033E+03  0.32947885514E+03  0.47000000000E+01 0. -1.
          1    1    1    2  502    0  0.71815610307E+00 -0.22671406372E+02 -0.76742052392E+03  0.76775567008E+03  0.00000000000E+00 0. -1.
          1    1    1    2  503    0 -0.13871801732E+03 -0.20358688584E+02  0.45570592033E+03  0.47678616837E+03  0.00000000000E+00 0. -1.
<mgrwt>
<rscale>  0 0.56396023E+02</rscale>
<asrwt>0</asrwt>
<pdfrwt beam="1">  1        2 0.25401408E+00 0.14021702E+03</pdfrwt>
<pdfrwt beam="2">  1        2 0.42161054E+00 0.22682778E+02</pdfrwt>
<totfact> 0.81329711E+00</totfact>
</mgrwt>
</event>
<event>
13    1  0.2038932E-008  0.6142687E+02  0.7546771E-02  0.1481332E+00
          2   -1    0    0  502    0  0.00000000000E+00  0.00000000000E+00  0.19610714516E+04  0.19610714516E+04  0.00000000000E+00 0. -1.
          2   -1    0    0  503    0 -0.00000000000E+00 -0.00000000000E+00 -0.11173906151E+04  0.11173906151E+04  0.00000000000E+00 0. -1.
         24    2    1    2    0    0 -0.30157259556E+03 -0.19366951884E+03 -0.24044660089E+03  0.43873593385E+03  0.78871660682E+02 0.  0.
         25    2    1    2    0    0  0.55264169100E+03  0.43197126290E+03  0.13785444978E+02  0.71260787696E+03  0.12493173015E+03 0.  0.
         24    2    1    2    0    0 -0.32545004877E+03 -0.27129302739E+03  0.73619920575E+03  0.85434061964E+03  0.91602308217E+02 0.  0.
        -13    1    5    5    0    0 -0.19231768937E+03 -0.18238477978E+03  0.53644841927E+03  0.59835374828E+03  0.00000000000E+00 0.  1.
         14    1    5    5    0    0 -0.13313235939E+03 -0.88908247607E+02  0.19975078647E+03  0.25598687135E+03  0.00000000000E+00 0. -1.
        -13    1    3    3    0    0 -0.34029063480E+02 -0.34129580683E+02 -0.65971015578E+02  0.81700552846E+02  0.00000000000E+00 0.  1.
         14    1    3    3    0    0 -0.26754353208E+03 -0.15953993815E+03 -0.17447558531E+03  0.35703538101E+03  0.00000000000E+00 0. -1.
          5    1    4    4  501    0  0.28751014149E+03  0.14755675562E+03  0.18451126558E+02  0.32372459231E+03  0.47000000000E+01 0. -1.
         -5    1    4    4    0  501  0.26513154951E+03  0.28441450728E+03 -0.46656815798E+01  0.38888328465E+03  0.47000000000E+01 0. -1.
          1    1    1    2  502    0  0.61234110695E+02  0.45055569443E+01  0.70145045189E+03  0.70413255344E+03  0.00000000000E+00 0. -1.
          1    1    1    2  503    0  0.13146842628E+02  0.28485726377E+02 -0.36730766529E+03  0.36864508278E+03  0.00000000000E+00 0. -1.
<mgrwt>
<rscale>  0 0.43899383E+02</rscale>
<asrwt>0</asrwt>
<pdfrwt beam="1">  1        2 0.28839286E+00 0.61426867E+02</pdfrwt>
<pdfrwt beam="2">  1        2 0.16432215E+00 0.31373175E+02</pdfrwt>
<totfact> 0.42300035E+01</totfact>
</mgrwt>
</event>
<event>
13    1  0.2038932E-008  0.1117956E+03  0.7546771E-02  0.1332771E+00
          2   -1    0    0  502    0  0.00000000000E+00  0.00000000000E+00  0.17291582362E+04  0.17291582362E+04  0.00000000000E+00 0. -1.
          2   -1    0    0  503    0 -0.00000000000E+00 -0.00000000000E+00 -0.27003729198E+04  0.27003729198E+04  0.00000000000E+00 0. -1.
         24    2    1    2    0    0  0.68042576751E+01  0.21361750861E+02 -0.25586050772E+03  0.27690071387E+03  0.10347358894E+03 0.  0.
         25    2    1    2    0    0 -0.81226308399E+02 -0.17202128478E+03  0.32242806087E+03  0.39468062732E+03  0.12499563013E+03 0.  0.
         24    2    1    2    0    0  0.22576396370E+02  0.11795377479E+03 -0.62343119038E+03  0.64002284818E+03  0.80870330754E+02 0.  0.
        -11    1    5    5    0    0 -0.60433482460E+01 -0.32327405970E+01 -0.16023012008E+03  0.16037663188E+03  0.00000000000E+00 0.  1.
         12    1    5    5    0    0  0.28619744616E+02  0.12118651538E+03 -0.46320107030E+03  0.47964621631E+03  0.00000000000E+00 0. -1.
        -13    1    3    3    0    0 -0.16487872582E+02 -0.15429884257E+02 -0.61253660855E+01  0.23397678948E+02  0.00000000000E+00 0.  1.
         14    1    3    3    0    0  0.23292130257E+02  0.36791635118E+02 -0.24973514163E+03  0.25350303492E+03  0.00000000000E+00 0. -1.
          5    1    4    4  501    0 -0.97660144238E+02 -0.17923375543E+03  0.31342785427E+03  0.37406062703E+03  0.47000000000E+01 0.  1.
         -5    1    4    4    0  501  0.16433835839E+02  0.72124706491E+01  0.90002065927E+01  0.20620000290E+02  0.47000000000E+01 0.  1.
          1    1    1    2  502    0 -0.55031670414E+02  0.64374799473E+01  0.13495043485E+04  0.13506412967E+04  0.00000000000E+00 0. -1.
          1    1    1    2  503    0  0.10687732477E+03  0.26268279186E+02 -0.17638553948E+04  0.17672856699E+04  0.00000000000E+00 0. -1.
<mgrwt>
<rscale>  0 0.78703561E+02</rscale>
<asrwt>0</asrwt>
<pdfrwt beam="1">  1        2 0.25428798E+00 0.55406912E+02</pdfrwt>
<pdfrwt beam="2">  1        2 0.39711366E+00 0.11179563E+03</pdfrwt>
<totfact> 0.83062730E+00</totfact>
</mgrwt>
</event>
<event>
13    1  0.2038932E-008  0.1230653E+03  0.7546771E-02  0.1261128E+00
          2   -1    0    0  503    0  0.00000000000E+00  0.00000000000E+00  0.12204072282E+04  0.12204072282E+04  0.00000000000E+00 0. -1.
          2   -1    0    0  502    0 -0.00000000000E+00 -0.00000000000E+00 -0.28399741403E+04  0.28399741403E+04  0.00000000000E+00 0. -1.
         24    2    1    2    0    0 -0.17127921486E+03 -0.15371564884E+03 -0.18638200857E+03  0.30747688568E+03  0.82696505143E+02 0.  0.
         25    2    1    2    0    0  0.85843121376E+02 -0.11108277481E+03  0.15994335082E+03  0.24680981595E+03  0.12499914173E+03 0.  0.
         24    2    1    2    0    0  0.18339765975E+02  0.17465880076E+03 -0.73141767345E+03  0.75658662886E+03  0.81298648442E+02 0.  0.
        -11    1    5    5    0    0 -0.24017869846E+02  0.31405151701E+02 -0.95541438828E+02  0.10339878219E+03  0.00000000000E+00 0.  1.
         12    1    5    5    0    0  0.42357635821E+02  0.14325364906E+03 -0.63587623462E+03  0.65318784667E+03  0.00000000000E+00 0. -1.
        -13    1    3    3    0    0  0.87910847956E+01 -0.90899170632E+01 -0.42378241001E+01  0.13336750624E+02  0.00000000000E+00 0.  1.
         14    1    3    3    0    0 -0.18007029966E+03 -0.14462573178E+03 -0.18214418447E+03  0.29414013505E+03  0.00000000000E+00 0. -1.
          5    1    4    4  501    0  0.23984001139E+02  0.22503359533E+02  0.60728306558E+02  0.69221750327E+02  0.47000000000E+01 0. -1.
         -5    1    4    4    0  501  0.61859120237E+02 -0.13358613434E+03  0.99215044262E+02  0.17758806563E+03  0.47000000000E+01 0. -1.
          1    1    1    2  502    0  0.12303689865E+03  0.99364469366E+01 -0.18009584553E+04  0.18051836941E+04  0.00000000000E+00 0. -1.
          1    1    1    2  503    0 -0.55940571140E+02  0.80203175954E+02  0.93924787447E+03  0.94432434398E+03  0.00000000000E+00 0. -1.
<mgrwt>
<rscale>  0 0.10969930E+03</rscale>
<asrwt>0</asrwt>
<pdfrwt beam="1">  1        2 0.17947165E+00 0.97784952E+02</pdfrwt>
<pdfrwt beam="2">  1        2 0.41764325E+00 0.12306531E+03</pdfrwt>
<totfact> 0.11816966E+01</totfact>
</mgrwt>
</event>
<event>
13    1  0.2038932E-008  0.1286562E+03  0.7546771E-02  0.1258074E+00
          2   -1    0    0  503    0  0.00000000000E+00  0.00000000000E+00  0.23166279996E+04  0.23166279996E+04  0.00000000000E+00 0. -1.
         -1   -1    0    0    0  501 -0.00000000000E+00 -0.00000000000E+00 -0.87811397399E+03  0.87811397399E+03  0.00000000000E+00 0.  1.
         24    2    1    2    0    0 -0.46511874188E+02 -0.11842302985E+03 -0.32769450563E+03  0.36056266178E+03  0.80214559872E+02 0.  0.
         25    2    1    2    0    0  0.19466615807E+03  0.34192985778E+02  0.34788691931E+03  0.41918255502E+03  0.12499852974E+03 0.  0.
         24    2    1    2    0    0  0.11160150950E+02  0.82370140535E+01  0.49443143541E+02  0.95561459650E+02  0.80591381410E+02 0.  0.
        -11    1    3    3    0    0 -0.51490542545E+02 -0.12874340242E+03 -0.29619454884E+03  0.32704334637E+03  0.00000000000E+00 0.  1.
         12    1    3    3    0    0  0.49786683573E+01  0.10320372572E+02 -0.31499956783E+02  0.33519315416E+02  0.00000000000E+00 0. -1.
        -11    1    5    5    0    0 -0.19468815388E+02 -0.21629799165E+02 -0.13750078139E+01  0.29133719828E+02  0.00000000000E+00 0.  1.
         12    1    5    5    0    0  0.30628966338E+02  0.29866813219E+02  0.50818151355E+02  0.66427739822E+02  0.00000000000E+00 0. -1.
          5    1    4    4  502    0  0.10465266749E+03  0.65720739304E+02  0.26618417250E+03  0.29350894378E+03  0.47000000000E+01 0. -1.
         -5    1    4    4    0  502  0.90013490572E+02 -0.31527753526E+02  0.81702746807E+02  0.12567361124E+03  0.47000000000E+01 0. -1.
          1    1    1    2  503    0 -0.33749317726E+02  0.10417038084E+03  0.18337826556E+04  0.18370490773E+04  0.00000000000E+00 0. -1.
         -2    1    1    2    0  501 -0.12556511710E+03 -0.28177350823E+02 -0.46490418722E+03  0.48238621977E+03  0.00000000000E+00 0.  1.
<mgrwt>
<rscale>  0 0.11135864E+03</rscale>
<asrwt>0</asrwt>
<pdfrwt beam="1">  1        2 0.34068059E+00 0.96386704E+02</pdfrwt>
<pdfrwt beam="2">  1       -1 0.12913441E+00 0.12865621E+03</pdfrwt>
<totfact> 0.43088828E+00</totfact>
</mgrwt>
</event>
<event>
13    1  0.2038932E-008  0.1426472E+03  0.7546771E-02  0.1354415E+00
         -3   -1    0    0    0  501 -0.00000000000E+00  0.00000000000E+00  0.56847491115E+03  0.56847491115E+03  0.00000000000E+00 0.  1.
          2   -1    0    0  503    0  0.00000000000E+00 -0.00000000000E+00 -0.28843589569E+04  0.28843589569E+04  0.00000000000E+00 0. -1.
         24    2    1    2    0    0 -0.85801505727E+01  0.77376064999E+02 -0.17265363701E+02  0.11040199398E+03  0.76353343559E+02 0.  0.
         25    2    1    2    0    0 -0.29019744015E+02 -0.19589483621E+03 -0.20663589376E+04  0.20795853828E+04  0.12497668991E+03 0.  0.
         24    2    1    2    0    0  0.11502315439E+02  0.79696370364E+00 -0.11750669563E+03  0.14319097613E+03  0.81011688753E+02 0.  0.
        -11    1    3    3    0    0  0.21163305638E+02  0.24061407945E+01  0.12185093967E+02  0.24538776132E+02  0.00000000000E+00 0.  1.
         12    1    3    3    0    0 -0.29743456211E+02  0.74969924204E+02 -0.29450457667E+02  0.85863217849E+02  0.00000000000E+00 0. -1.
        -13    1    5    5    0    0 -0.27001954928E+02 -0.23402091164E+02 -0.60536600523E+02  0.70295401299E+02  0.00000000000E+00 0.  1.
         14    1    5    5    0    0  0.38504270368E+02  0.24199054868E+02 -0.56970095106E+02  0.72895574828E+02  0.00000000000E+00 0. -1.
          5    1    4    4  502    0 -0.51375903809E+02 -0.88757172124E+02 -0.14451202059E+04  0.14487621678E+04  0.47000000000E+01 0.  1.
         -5    1    4    4    0  502  0.22356159793E+02 -0.10713766408E+03 -0.62123873163E+03  0.63082321503E+03  0.47000000000E+01 0.  1.
          1    1    1    2  503    0  0.35416787031E+02  0.66544357552E+01 -0.61048529690E+03  0.61154797690E+03  0.00000000000E+00 0. -1.
         -4    1    1    2    0  501 -0.93192078824E+01  0.11106737175E+03  0.49573224804E+03  0.50810753827E+03  0.00000000000E+00 0.  1.
<mgrwt>
<rscale>  0 0.71697328E+02</rscale>
<asrwt>0</asrwt>
<pdfrwt beam="2">  1        2 0.42417044E+00 0.36036514E+02</pdfrwt>
<pdfrwt beam="1">  1       -3 0.83599250E-01 0.14264717E+03</pdfrwt>
<totfact> 0.32538460E+00</totfact>
</mgrwt>
</event>
<event>
13    1  0.2038932E-008  0.6200730E+02  0.7546771E-02  0.1448683E+00
         -1   -1    0    0    0  501 -0.00000000000E+00  0.00000000000E+00  0.71834392740E+03  0.71834392740E+03  0.00000000000E+00 0.  1.
          2   -1    0    0  503    0  0.00000000000E+00 -0.00000000000E+00 -0.16564491080E+04  0.16564491080E+04  0.00000000000E+00 0. -1.
         24    2    1    2    0    0 -0.60287042514E+02 -0.11919956056E+03  0.30612113808E+03  0.34316054653E+03  0.78777831802E+02 0.  0.
         25    2    1    2    0    0  0.91252235514E+02  0.15736420533E+03 -0.16672601549E+03  0.27660517462E+03  0.12498957869E+03 0.  0.
         24    2    1    2    0    0 -0.82532252113E+02 -0.44408389582E+02  0.83976430889E+01  0.12476877058E+03  0.81933192281E+02 0.  0.
        -13    1    5    5    0    0 -0.36649283719E+02 -0.64591706003E+02  0.74039762413E+01  0.74632950804E+02  0.00000000000E+00 0.  1.
         14    1    5    5    0    0 -0.45882968393E+02  0.20183316421E+02  0.99366684766E+00  0.50135819771E+02  0.00000000000E+00 0. -1.
        -13    1    3    3    0    0 -0.91613001869E+01 -0.53523599550E+02  0.20562540564E+03  0.21267466368E+03  0.00000000000E+00 0.  1.
         14    1    3    3    0    0 -0.51125742327E+02 -0.65675961009E+02  0.10049573244E+03  0.13048588285E+03  0.00000000000E+00 0. -1.
          5    1    4    4  502    0 -0.59903515833E+01  0.93805622451E+02 -0.11699090254E+03  0.15014772856E+03  0.47000000000E+01 0. -1.
         -5    1    4    4    0  502  0.97242587097E+02  0.63558582882E+02 -0.49735112947E+02  0.12645744606E+03  0.47000000000E+01 0. -1.
          1    1    1    2  503    0  0.43076609025E+02  0.44649640433E+02 -0.13559441905E+04  0.13573628227E+04  0.00000000000E+00 0. -1.
         -2    1    1    2    0  501  0.84904500880E+01 -0.38405895625E+02  0.27004624419E+03  0.27289572104E+03  0.00000000000E+00 0.  1.
<mgrwt>
<rscale>  0 0.49385683E+02</rscale>
<asrwt>0</asrwt>
<pdfrwt beam="2">  1        2 0.24359545E+00 0.62007304E+02</pdfrwt>
<pdfrwt beam="1">  1       -1 0.10563881E+00 0.39333199E+02</pdfrwt>
<totfact> 0.15690001E+01</totfact>
</mgrwt>
</event>
<event>
13    1  0.2038932E-008  0.2569127E+03  0.7546771E-02  0.1265690E+00
         -3   -1    0    0    0  501 -0.00000000000E+00  0.00000000000E+00  0.11723261324E+04  0.11723261324E+04  0.00000000000E+00 0.  1.
          2   -1    0    0  503    0  0.00000000000E+00 -0.00000000000E+00 -0.11449788310E+04  0.11449788310E+04  0.00000000000E+00 0. -1.
         24    2    1    2    0    0 -0.56988389516E+02 -0.13485571522E+02  0.24850205372E+03  0.26783302480E+03  0.80942703781E+02 0.  0.
         25    2    1    2    0    0  0.29966339213E+03  0.14216683096E+03 -0.56069588957E+03  0.66333488417E+03  0.12499492616E+03 0.  0.
         24    2    1    2    0    0 -0.17991642371E+02  0.93543756000E+01 -0.27732623931E+02  0.87480041222E+02  0.80451573285E+02 0.  0.
        -11    1    5    5    0    0 -0.74710884918E+01 -0.34943490168E+02 -0.35036475561E+01  0.35904598794E+02  0.00000000000E+00 0.  1.
         12    1    5    5    0    0 -0.10520553880E+02  0.44297865768E+02 -0.24228976375E+02  0.51575442428E+02  0.00000000000E+00 0. -1.
        -13    1    3    3    0    0  0.12463642866E+02  0.72541526467E+01  0.76779652732E+01  0.16337572489E+02  0.00000000000E+00 0.  1.
         14    1    3    3    0    0 -0.69452032382E+02 -0.20739724168E+02  0.24082408844E+03  0.25149545231E+03  0.00000000000E+00 0. -1.
          5    1    4    4  502    0  0.19402185476E+03  0.12594933646E+03 -0.46679994138E+03  0.52099135382E+03  0.47000000000E+01 0. -1.
         -5    1    4    4    0  502  0.10564153737E+03  0.16217494497E+02 -0.93895948187E+02  0.14234353035E+03  0.47000000000E+01 0. -1.
          1    1    1    2  503    0 -0.19034968656E+03 -0.10925997988E+03 -0.43917562961E+03  0.49096433681E+03  0.00000000000E+00 0. -1.
         -4    1    1    2    0  501 -0.34333673689E+02 -0.28775655157E+02  0.80644939082E+03  0.80769267635E+03  0.00000000000E+00 0.  1.
<mgrwt>
<rscale>  0 0.10728053E+03</rscale>
<asrwt>0</asrwt>
<pdfrwt beam="2">  1        2 0.16837924E+00 0.25691267E+03</pdfrwt>
<pdfrwt beam="1">  1       -3 0.17240090E+00 0.44797762E+02</pdfrwt>
<totfact> 0.35174874E+00</totfact>
</mgrwt>
</event>
<event>
13    1  0.2038932E-008  0.9452676E+02  0.7546771E-02  0.1386518E+00
          2   -1    0    0  502    0  0.00000000000E+00  0.00000000000E+00  0.50765734076E+03  0.50765734076E+03  0.00000000000E+00 0. -1.
          2   -1    0    0  503    0 -0.00000000000E+00 -0.00000000000E+00 -0.31247812908E+04  0.31247812908E+04  0.00000000000E+00 0. -1.
         24    2    1    2    0    0  0.12203492010E+03 -0.10308468155E+03 -0.99510928235E+03  0.10111958623E+04  0.82192546933E+02 0.  0.
         25    2    1    2    0    0 -0.18620171417E+03  0.56897769508E+02  0.26851482793E+03  0.35444788407E+03  0.12499862065E+03 0.  0.
         24    2    1    2    0    0 -0.27621565749E+02  0.64048789293E+02 -0.50346870273E+02  0.11738125469E+03  0.79864593550E+02 0.  0.
        -11    1    5    5    0    0  0.27403727406E+02  0.19299963673E+02 -0.69415040867E+01  0.34229188604E+02  0.00000000000E+00 0.  1.
         12    1    5    5    0    0 -0.55025293155E+02  0.44748825620E+02 -0.43405366186E+02  0.83152066089E+02  0.00000000000E+00 0. -1.
        -13    1    3    3    0    0 -0.47205366650E+01 -0.35779460183E+02 -0.20921940857E+03  0.21230924181E+03  0.00000000000E+00 0.  1.
         14    1    3    3    0    0  0.12675545677E+03 -0.67305221368E+02 -0.78588987378E+03  0.79888662046E+03  0.00000000000E+00 0. -1.
          5    1    4    4  501    0 -0.41499324476E+02 -0.20081166078E+02  0.85994138753E+01  0.47132654095E+02  0.47000000000E+01 0. -1.
         -5    1    4    4    0  501 -0.14470238969E+03  0.76978935586E+02  0.25991541406E+03  0.30731522997E+03  0.47000000000E+01 0. -1.
          1    1    1    2  502    0  0.28223182451E+00 -0.41695754663E+02  0.15066157202E+03  0.15632506164E+03  0.00000000000E+00 0. -1.
          1    1    1    2  503    0  0.91506127988E+02  0.23833877414E+02 -0.19908441974E+04  0.19930885689E+04  0.00000000000E+00 0. -1.
<mgrwt>
<rscale>  0 0.62781008E+02</rscale>
<asrwt>0</asrwt>
<pdfrwt beam="1">  1        2 0.74655493E-01 0.41696710E+02</pdfrwt>
<pdfrwt beam="2">  1        2 0.45952665E+00 0.94526762E+02</pdfrwt>
<totfact> 0.25627791E+01</totfact>
</mgrwt>
</event>
<event>
13    1  0.2038932E-008  0.1138728E+03  0.7546771E-02  0.1325428E+00
          2   -1    0    0  502    0  0.00000000000E+00  0.00000000000E+00  0.12950173468E+04  0.12950173468E+04  0.00000000000E+00 0. -1.
          2   -1    0    0  503    0 -0.00000000000E+00 -0.00000000000E+00 -0.11903766679E+04  0.11903766679E+04  0.00000000000E+00 0. -1.
         24    2    1    2    0    0  0.55436164461E+03  0.92417085383E+02 -0.55049465818E+03  0.78937678272E+03  0.64912138459E+02 0.  0.
         25    2    1    2    0    0 -0.84261208218E+02 -0.20693648729E+03  0.62967240838E+02  0.26365297840E+03  0.12500143447E+03 0.  0.
         24    2    1    2    0    0 -0.38560637730E+03  0.26602682087E+02  0.34335924118E+03  0.52324758956E+03  0.80575992543E+02 0.  0.
        -11    1    3    3    0    0  0.40071698666E+03  0.96022968646E+02 -0.40064841777E+03  0.57472921326E+03  0.00000000000E+00 0.  1.
         12    1    3    3    0    0  0.15364465795E+03 -0.36058832635E+01 -0.14984624041E+03  0.21464756946E+03  0.00000000000E+00 0. -1.
        -13    1    5    5    0    0 -0.26104513764E+03 -0.19645662250E+02  0.23515251697E+03  0.35189092368E+03  0.00000000000E+00 0.  1.
         14    1    5    5    0    0 -0.12456123966E+03  0.46248344336E+02  0.10820672421E+03  0.17135666589E+03  0.00000000000E+00 0. -1.
          5    1    4    4  501    0 -0.27478539991E+02 -0.15050996224E+03  0.91742033381E+02  0.17845730465E+03  0.47000000000E+01 0. -1.
         -5    1    4    4    0  501 -0.56782668227E+02 -0.56426525043E+02 -0.28774792543E+02  0.85195673747E+02  0.47000000000E+01 0. -1.
          1    1    1    2  502    0  0.23939628177E+02  0.52863230985E+02  0.56760533583E+03  0.57056414561E+03  0.00000000000E+00 0. -1.
          1    1    1    2  503    0 -0.10843368727E+03  0.35053488831E+02 -0.31879648073E+03  0.33855251844E+03  0.00000000000E+00 0. -1.
<mgrwt>
<rscale>  0 0.81290732E+02</rscale>
<asrwt>0</asrwt>
<pdfrwt beam="1">  1        2 0.19044373E+00 0.58031259E+02</pdfrwt>
<pdfrwt beam="2">  1        2 0.17505539E+00 0.11387282E+03</pdfrwt>
<totfact> 0.75103789E+01</totfact>
</mgrwt>
</event>
<event>
13    1  0.2038932E-008  0.1503560E+03  0.7546771E-02  0.1324447E+00
          2   -1    0    0  503    0  0.00000000000E+00  0.00000000000E+00  0.26367461964E+04  0.26367461964E+04  0.00000000000E+00 0. -1.
          2   -1    0    0  502    0 -0.00000000000E+00 -0.00000000000E+00 -0.69350254924E+03  0.69350254924E+03  0.00000000000E+00 0. -1.
         24    2    1    2    0    0  0.25180795689E+02  0.47691578082E+02 -0.18599166085E+03  0.20929134397E+03  0.79381418865E+02 0.  0.
         25    2    1    2    0    0 -0.18600145023E+03  0.13938040710E+03  0.46996817508E+03  0.53899774206E+03  0.12500017194E+03 0.  0.
         24    2    1    2    0    0  0.46809180840E+02 -0.35235726671E+02  0.58536658671E+03  0.59350004843E+03  0.78457700727E+02 0.  0.
        -11    1    3    3    0    0  0.36738400459E+02  0.62142484473E+02 -0.11379977575E+03  0.13476567592E+03  0.00000000000E+00 0.  1.
         12    1    3    3    0    0 -0.11557604769E+02 -0.14450906391E+02 -0.72191885099E+02  0.74525668046E+02  0.00000000000E+00 0. -1.
        -11    1    5    5    0    0  0.30331549984E+01  0.11761677127E+02  0.32853617830E+03  0.32876063866E+03  0.00000000000E+00 0.  1.
         12    1    5    5    0    0  0.43776025841E+02 -0.46997403798E+02  0.25683040841E+03  0.26473940977E+03  0.00000000000E+00 0. -1.
          5    1    4    4  501    0 -0.65807885681E+02  0.57433387998E+02  0.31274740415E+03  0.32474959689E+03  0.47000000000E+01 0. -1.
         -5    1    4    4    0  501 -0.12019356455E+03  0.81947019097E+02  0.15722077093E+03  0.21424814517E+03  0.47000000000E+01 0. -1.
          1    1    1    2  502    0 -0.36124609767E+02 -0.25700994407E+02 -0.44990752333E+03  0.45208661570E+03  0.00000000000E+00 0. -1.
          1    1    1    2  503    0  0.15013608347E+03 -0.12613526410E+03  0.15238080696E+04  0.15363729955E+04  0.00000000000E+00 0. -1.
<mgrwt>
<rscale>  0 0.81645122E+02</rscale>
<asrwt>0</asrwt>
<pdfrwt beam="1">  1        2 0.38775679E+00 0.15035601E+03</pdfrwt>
<pdfrwt beam="2">  1        2 0.10198567E+00 0.44334282E+02</pdfrwt>
<totfact> 0.31005722E+01</totfact>
</mgrwt>
</event>
<event>
13    1  0.2038932E-008  0.1437656E+03  0.7546771E-02  0.1279148E+00
          2   -1    0    0  503    0  0.00000000000E+00  0.00000000000E+00  0.17566109478E+04  0.17566109478E+04  0.00000000000E+00 0. -1.
          2   -1    0    0  502    0 -0.00000000000E+00 -0.00000000000E+00 -0.22496400528E+04  0.22496400528E+04  0.00000000000E+00 0. -1.
         24    2    1    2    0    0 -0.32476273805E+03 -0.22678082329E+03 -0.11728694878E+04  0.12404765924E+04  0.79113608537E+02 0.  0.
         25    2    1    2    0    0  0.77170540220E+02  0.30652309922E+03  0.48502901510E+02  0.34334890619E+03  0.12499694913E+03 0.  0.
         24    2    1    2    0    0  0.46847210183E+02 -0.49547677493E+02 -0.22941926043E+03  0.25253712539E+03  0.80573998273E+02 0.  0.
        -11    1    5    5    0    0 -0.20244849493E+02  0.15804264249E+01 -0.32653820206E+02  0.38452875740E+02  0.00000000000E+00 0.  1.
         12    1    5    5    0    0  0.67092059676E+02 -0.51128103918E+02 -0.19676544023E+03  0.21408424965E+03  0.00000000000E+00 0. -1.
        -11    1    3    3    0    0 -0.42006792017E+02 -0.13896519048E+02 -0.21015685966E+03  0.21476403209E+03  0.00000000000E+00 0.  1.
         12    1    3    3    0    0 -0.28275594603E+03 -0.21288430424E+03 -0.96271262810E+03  0.10257125603E+04  0.00000000000E+00 0. -1.
          5    1    4    4  501    0  0.55970126974E+00  0.11247048560E+02 -0.26501231994E+02  0.29175583354E+02  0.47000000000E+01 0.  1.
         -5    1    4    4    0  501  0.76610838950E+02  0.29527605066E+03  0.75004133504E+02  0.31417332283E+03  0.47000000000E+01 0.  1.
          1    1    1    2  502    0  0.66933232096E+02  0.21567703495E+02 -0.64926682339E+03  0.65306403312E+03  0.00000000000E+00 0. -1.
          1    1    1    2  503    0  0.13381175555E+03 -0.51762301934E+02  0.15100235651E+04  0.15168243435E+04  0.00000000000E+00 0. -1.
<mgrwt>
<rscale>  0 0.10054811E+03</rscale>
<asrwt>0</asrwt>
<pdfrwt beam="1">  1        2 0.25832514E+00 0.14376557E+03</pdfrwt>
<pdfrwt beam="2">  1        2 0.33082942E+00 0.70322282E+02</pdfrwt>
<totfact> 0.13095729E+01</totfact>
</mgrwt>
</event>
<event>
13    1  0.2038932E-008  0.1627976E+03  0.7546771E-02  0.1279549E+00
          2   -1    0    0  502    0  0.00000000000E+00  0.00000000000E+00  0.10178210445E+04  0.10178210445E+04  0.00000000000E+00 0. -1.
          2   -1    0    0  503    0 -0.00000000000E+00 -0.00000000000E+00 -0.13980926344E+04  0.13980926344E+04  0.00000000000E+00 0. -1.
         24    2    1    2    0    0 -0.25419910530E+03  0.30224732033E+03 -0.88812419153E+03  0.97518527574E+03  0.79063990916E+02 0.  0.
         25    2    1    2    0    0  0.82759262374E+02 -0.25641354076E+03 -0.69830508116E+02  0.30512520775E+03  0.12501237196E+03 0.  0.
         24    2    1    2    0    0  0.92164250336E+02 -0.76762177154E+01  0.12525384965E+03  0.17555486098E+03  0.81103692894E+02 0.  0.
        -11    1    5    5    0    0  0.47696421282E+02 -0.43788350644E+02  0.77408953481E+02  0.10091835479E+03  0.00000000000E+00 0.  1.
         12    1    5    5    0    0  0.44467829054E+02  0.36112132928E+02  0.47844896173E+02  0.74636506183E+02  0.00000000000E+00 0. -1.
        -13    1    3    3    0    0 -0.54157727824E+02  0.63721819395E+02 -0.27687228206E+03  0.28922619232E+03  0.00000000000E+00 0.  1.
         14    1    3    3    0    0 -0.20004137748E+03  0.23852550093E+03 -0.61125190947E+03  0.68595908342E+03  0.00000000000E+00 0. -1.
          5    1    4    4  501    0  0.18253741301E+02 -0.95989162439E+02 -0.87510502495E+02  0.13125279587E+03  0.47000000000E+01 0.  1.
         -5    1    4    4    0  501  0.64505521072E+02 -0.16042437832E+03  0.17679994379E+02  0.17387241187E+03  0.47000000000E+01 0.  1.
          1    1    1    2  502    0  0.14097210602E+03 -0.33606263682E+02  0.69487891146E+03  0.70983041442E+03  0.00000000000E+00 0. -1.
          1    1    1    2  503    0 -0.61696513430E+02 -0.45512981660E+01 -0.24244965138E+03  0.25021792010E+03  0.00000000000E+00 0. -1.
<mgrwt>
<rscale>  0 0.10035606E+03</rscale>
<asrwt>0</asrwt>
<pdfrwt beam="1">  1        2 0.14967957E+00 0.16279762E+03</pdfrwt>
<pdfrwt beam="2">  1        2 0.20560186E+00 0.61864158E+02</pdfrwt>
<totfact> 0.81372629E+01</totfact>
</mgrwt>
</event>
<event>
13    1  0.2038932E-008  0.6159445E+02  0.7546771E-02  0.1444555E+00
          2   -1    0    0  502    0  0.00000000000E+00  0.00000000000E+00  0.13246829784E+04  0.13246829784E+04  0.00000000000E+00 0. -1.
          2   -1    0    0  503    0 -0.00000000000E+00 -0.00000000000E+00 -0.11640364528E+04  0.11640364528E+04  0.00000000000E+00 0. -1.
         24    2    1    2    0    0 -0.25868987270E+03  0.26898449479E+03  0.56949262894E+03  0.68579622595E+03  0.81984757316E+02 0.  0.
         25    2    1    2    0    0  0.77908305734E+02 -0.33838958232E+03  0.33915913047E+03  0.50122937089E+03  0.12499901174E+03 0.  0.
         24    2    1    2    0    0  0.15780015724E+03  0.31584490351E+02 -0.74263668394E+02  0.19339358003E+03  0.77379032686E+02 0.  0.
        -11    1    3    3    0    0 -0.28110978009E+02  0.35291677527E+02  0.12728608787E+03  0.13504620599E+03  0.00000000000E+00 0.  1.
         12    1    3    3    0    0 -0.23057889469E+03  0.23369281727E+03  0.44220654107E+03  0.55075001996E+03  0.00000000000E+00 0. -1.
        -13    1    5    5    0    0  0.15835127049E+03  0.11824336050E+02 -0.66558019698E+02  0.17217697225E+03  0.00000000000E+00 0.  1.
         14    1    5    5    0    0 -0.55111325032E+00  0.19760154301E+02 -0.77056486956E+01  0.21216607779E+02  0.00000000000E+00 0. -1.
          5    1    4    4  501    0 -0.19732667134E+02 -0.59125002297E+01  0.30808895430E+02  0.37357915477E+02  0.47000000000E+01 0. -1.
         -5    1    4    4    0  501  0.97640972867E+02 -0.33247708209E+03  0.30835023504E+03  0.46387145541E+03  0.47000000000E+01 0. -1.
          1    1    1    2  502    0 -0.35858976953E+02  0.19515961099E+02  0.21428440575E+03  0.21813882166E+03  0.00000000000E+00 0. -1.
          1    1    1    2  503    0  0.58840386683E+02  0.18304636074E+02 -0.88802597113E+03  0.89016143267E+03  0.00000000000E+00 0. -1.
<mgrwt>
<rscale>  0 0.50146159E+02</rscale>
<asrwt>0</asrwt>
<pdfrwt beam="1">  1        2 0.19480632E+00 0.40825715E+02</pdfrwt>
<pdfrwt beam="2">  1        2 0.17118183E+00 0.61594446E+02</pdfrwt>
<totfact> 0.79732147E+01</totfact>
</mgrwt>
</event>
<event>
13    1  0.2038932E-008  0.1165615E+03  0.7546771E-02  0.1384850E+00
          2   -1    0    0  503    0  0.00000000000E+00  0.00000000000E+00  0.37677267266E+04  0.37677267266E+04  0.00000000000E+00 0. -1.
          2   -1    0    0  502    0 -0.00000000000E+00 -0.00000000000E+00 -0.14817081291E+04  0.14817081291E+04  0.00000000000E+00 0. -1.
         24    2    1    2    0    0 -0.15865598618E+02 -0.52519120904E+02 -0.32155656100E+03  0.33582357561E+03  0.79805242504E+02 0.  0.
         25    2    1    2    0    0  0.12761991833E+03  0.12317604066E+03  0.15141209131E+03  0.26459323275E+03  0.12499910751E+03 0.  0.
         24    2    1    2    0    0 -0.27718145197E+02 -0.26562918764E+01  0.76896195449E+03  0.77384174110E+03  0.82177864201E+02 0.  0.
        -11    1    5    5    0    0 -0.48632300415E+02  0.20899121835E+02  0.56328101725E+03  0.56576265194E+03  0.00000000000E+00 0.  1.
         12    1    5    5    0    0  0.20914155218E+02 -0.23555413712E+02  0.20568093724E+03  0.20807908916E+03  0.00000000000E+00 0. -1.
        -13    1    3    3    0    0 -0.17585139687E+02 -0.67870688191E+02 -0.30588938680E+03  0.31382158054E+03  0.00000000000E+00 0.  1.
         14    1    3    3    0    0  0.17195410689E+01  0.15351567287E+02 -0.15667174198E+02  0.22001995069E+02  0.00000000000E+00 0. -1.
          5    1    4    4  501    0  0.66582201073E+02  0.38923743501E+02  0.13989261441E+03  0.15981326877E+03  0.47000000000E+01 0.  1.
         -5    1    4    4    0  501  0.61037717258E+02  0.84252297160E+02  0.11519476897E+02  0.10477996399E+03  0.47000000000E+01 0.  1.
          1    1    1    2  502    0  0.43530350552E+01  0.33996051749E+02 -0.10920811689E+04  0.10926188539E+04  0.00000000000E+00 0. -1.
          1    1    1    2  503    0 -0.88389209572E+02 -0.10199667963E+03  0.27792822816E+04  0.27825574524E+04  0.00000000000E+00 0. -1.
<mgrwt>
<rscale>  0 0.63205873E+02</rscale>
<asrwt>0</asrwt>
<pdfrwt beam="1">  1        2 0.55407746E+00 0.11656147E+03</pdfrwt>
<pdfrwt beam="2">  1        2 0.21789826E+00 0.34273612E+02</pdfrwt>
<totfact> 0.28168302E+00</totfact>
</mgrwt>
</event>
<event>
13    1  0.2038932E-008  0.8180114E+02  0.7546771E-02  0.1411412E+00
          2   -1    0    0  503    0  0.00000000000E+00  0.00000000000E+00  0.59132688204E+03  0.59132688204E+03  0.00000000000E+00 0. -1.
         -1   -1    0    0    0  501 -0.00000000000E+00 -0.00000000000E+00 -0.77161245660E+03  0.77161245660E+03  0.00000000000E+00 0.  1.
         24    2    1    2    0    0  0.24807880202E+02 -0.16750889458E+02 -0.42429273526E+02  0.89393821589E+02  0.72766674162E+02 0.  0.
         25    2    1    2    0    0 -0.13426063148E+02 -0.28008264886E+02  0.43763050274E+03  0.45619047045E+03  0.12499826530E+03 0.  0.
         24    2    1    2    0    0  0.47017260129E+02 -0.11695525719E+02  0.61167887565E+01  0.94515505894E+02  0.80921923345E+02 0.  0.
        -11    1    3    3    0    0 -0.57420082637E+01 -0.26964023281E+02  0.87477700805E+01  0.28923220633E+02  0.00000000000E+00 0.  1.
         12    1    3    3    0    0  0.30549888465E+02  0.10213133823E+02 -0.51177043607E+02  0.60470600956E+02  0.00000000000E+00 0. -1.
        -13    1    5    5    0    0  0.24012942374E+02 -0.17015025264E+02  0.42166755268E+02  0.51421471547E+02  0.00000000000E+00 0.  1.
         14    1    5    5    0    0  0.23004317755E+02  0.53194995455E+01 -0.36049966512E+02  0.43094034347E+02  0.00000000000E+00 0. -1.
          5    1    4    4  502    0 -0.45279288368E+02 -0.64011387608E+02  0.23097871107E+03  0.24396911006E+03  0.47000000000E+01 0.  1.
         -5    1    4    4    0  502  0.31853225220E+02  0.36003122723E+02  0.20665179167E+03  0.21222136039E+03  0.47000000000E+01 0.  1.
          1    1    1    2  503    0  0.39545115878E+02 -0.68820695062E+00  0.59686368826E+02  0.71601343857E+02  0.00000000000E+00 0. -1.
         -2    1    1    2    0  501 -0.97944193061E+02  0.57142887013E+02 -0.64128996136E+03  0.65123819685E+03  0.00000000000E+00 0.  1.
<mgrwt>
<rscale>  0 0.56879921E+02</rscale>
<asrwt>0</asrwt>
<pdfrwt beam="1">  1        2 0.86959836E-01 0.39551104E+02</pdfrwt>
<pdfrwt beam="2">  1       -1 0.11347242E+00 0.81801140E+02</pdfrwt>
<totfact> 0.51838855E+01</totfact>
</mgrwt>
</event>
<event>
13    1  0.2038932E-008  0.6008457E+02  0.7546771E-02  0.1402300E+00
          2   -1    0    0  502    0  0.00000000000E+00  0.00000000000E+00  0.39914853248E+04  0.39914853248E+04  0.00000000000E+00 0. -1.
          2   -1    0    0  503    0 -0.00000000000E+00 -0.00000000000E+00 -0.27243197058E+03  0.27243197058E+03  0.00000000000E+00 0. -1.
         24    2    1    2    0    0 -0.82140165956E+02 -0.50477485765E+01  0.11162400532E+03  0.16851037551E+03  0.95725343887E+02 0.  0.
         25    2    1    2    0    0 -0.12956090759E+03  0.10113829972E+03  0.20934967751E+04  0.21036572921E+04  0.12502108227E+03 0.  0.
         24    2    1    2    0    0  0.11531691480E+03 -0.67295181323E+02  0.46689241714E+01  0.15712422445E+03  0.82701818534E+02 0.  0.
        -13    1    3    3    0    0 -0.47508378109E+02  0.38569939234E+02  0.26273107745E+02  0.66595513315E+02  0.00000000000E+00 0.  1.
         14    1    3    3    0    0 -0.34631787846E+02 -0.43617687811E+02  0.85350897580E+02  0.10191486220E+03  0.00000000000E+00 0. -1.
        -13    1    5    5    0    0 -0.25606718553E+01 -0.31743048797E+02  0.11382219987E+02  0.33819123571E+02  0.00000000000E+00 0.  1.
         14    1    5    5    0    0  0.11787758666E+03 -0.35552132526E+02 -0.67132958157E+01  0.12330510088E+03  0.00000000000E+00 0. -1.
          5    1    4    4  501    0 -0.78400493081E+02 -0.36396763065E+01  0.11998583308E+04  0.12024316981E+04  0.47000000000E+01 0.  1.
         -5    1    4    4    0  501 -0.51160414514E+02  0.10477797603E+03  0.89363844427E+03  0.90122559404E+03  0.47000000000E+01 0.  1.
          1    1    1    2  502    0  0.38177172534E+02 -0.43441441546E+02  0.16658893775E+04  0.16668929400E+04  0.00000000000E+00 0. -1.
          1    1    1    2  503    0  0.58206986217E+02  0.14646071726E+02 -0.15662572778E+03  0.16773246336E+03  0.00000000000E+00 0. -1.
<mgrwt>
<rscale>  0 0.58948034E+02</rscale>
<asrwt>0</asrwt>
<pdfrwt beam="1">  1        2 0.58698310E+00 0.57832995E+02</pdfrwt>
<pdfrwt beam="2">  1        2 0.40063527E-01 0.60084570E+02</pdfrwt>
<totfact> 0.16358255E+01</totfact>
</mgrwt>
</event>
<event>
13    1  0.2038932E-008  0.9527305E+02  0.7546771E-02  0.1315030E+00
          2   -1    0    0  503    0  0.00000000000E+00  0.00000000000E+00  0.64276012039E+03  0.64276012039E+03  0.00000000000E+00 0. -1.
          2   -1    0    0  502    0 -0.00000000000E+00 -0.00000000000E+00 -0.18401339302E+04  0.18401339302E+04  0.00000000000E+00 0. -1.
         24    2    1    2    0    0  0.14575532015E+02 -0.36070173427E+02 -0.29328048492E+03  0.31296055628E+03  0.10206548587E+03 0.  0.
         25    2    1    2    0    0 -0.61520650429E+02 -0.43553487725E+02 -0.29262196595E+03  0.32699408945E+03  0.12496328604E+03 0.  0.
         24    2    1    2    0    0  0.73726291963E+02  0.59757610580E+02  0.33456266730E+03  0.35723295181E+03  0.81710864398E+02 0.  0.
        -13    1    3    3    0    0  0.51593319745E+02 -0.14067616527E+02 -0.23186478606E+03  0.23795177556E+03  0.00000000000E+00 0.  1.
         14    1    3    3    0    0 -0.37017787730E+02 -0.22002556900E+02 -0.61415698859E+02  0.75008780719E+02  0.00000000000E+00 0. -1.
        -13    1    5    5    0    0  0.56665528320E+02  0.31641664765E+02  0.92797046458E+02  0.11324075627E+03  0.00000000000E+00 0.  1.
         14    1    5    5    0    0  0.17060763643E+02  0.28115945814E+02  0.24176562084E+03  0.24399219554E+03  0.00000000000E+00 0. -1.
          5    1    4    4  501    0  0.19315236844E+02  0.14142222742E+02 -0.82679416203E+01  0.25759070190E+02  0.47000000000E+01 0.  1.
         -5    1    4    4    0  501 -0.80835887274E+02 -0.57695710467E+02 -0.28435402433E+03  0.30123501926E+03  0.47000000000E+01 0.  1.
          1    1    1    2  502    0 -0.13098826439E+02  0.94736034080E+02 -0.12085764715E+04  0.12123545615E+04  0.00000000000E+00 0. -1.
          1    1    1    2  503    0 -0.13682347110E+02 -0.74869983508E+02  0.26254244524E+03  0.27335189154E+03  0.00000000000E+00 0. -1.
<mgrwt>
<rscale>  0 0.85154123E+02</rscale>
<asrwt>0</asrwt>
<pdfrwt beam="1">  1        2 0.94523548E-01 0.76109927E+02</pdfrwt>
<pdfrwt beam="2">  1        2 0.27060793E+00 0.95273046E+02</pdfrwt>
<totfact> 0.86515064E+01</totfact>
</mgrwt>
</event>
<event>
13    1  0.2038932E-008  0.1104770E+03  0.7546771E-02  0.1426412E+00
          2   -1    0    0  502    0  0.00000000000E+00  0.00000000000E+00  0.10338600065E+04  0.10338600065E+04  0.00000000000E+00 0. -1.
          2   -1    0    0  503    0 -0.00000000000E+00 -0.00000000000E+00 -0.18271245535E+04  0.18271245535E+04  0.00000000000E+00 0. -1.
         24    2    1    2    0    0 -0.12040480094E+03  0.74685535575E+02 -0.12984241162E+03  0.20847755218E+03  0.80799706642E+02 0.  0.
         25    2    1    2    0    0  0.15025211812E+03 -0.50811865111E+02  0.53151618906E+03  0.56858752099E+03  0.12499906062E+03 0.  0.
         24    2    1    2    0    0  0.16187808267E+02 -0.11566153954E+03 -0.38322228976E+03  0.40885613535E+03  0.81635648964E+02 0.  0.
        -11    1    3    3    0    0 -0.11761229014E+03  0.36731233288E+02 -0.85135573309E+02  0.14976615149E+03  0.00000000000E+00 0.  1.
         12    1    3    3    0    0 -0.27925108019E+01  0.37954302288E+02 -0.44706838312E+02  0.58711400687E+02  0.00000000000E+00 0. -1.
        -11    1    5    5    0    0 -0.32681749164E+02 -0.60533235354E+02 -0.18090935939E+03  0.19354732141E+03  0.00000000000E+00 0.  1.
         12    1    5    5    0    0  0.48869557430E+02 -0.55128304183E+02 -0.20231293037E+03  0.21530881394E+03  0.00000000000E+00 0. -1.
          5    1    4    4  501    0  0.12996252781E+03 -0.51130612479E+02  0.25081599193E+03  0.28711556902E+03  0.47000000000E+01 0. -1.
         -5    1    4    4    0  501  0.20289590313E+02  0.31874736794E+00  0.28070019713E+03  0.28147195196E+03  0.47000000000E+01 0. -1.
          1    1    1    2  502    0 -0.20758795633E+02 -0.15803145048E+02  0.42882048504E+03  0.42961340224E+03  0.00000000000E+00 0. -1.
          1    1    1    2  503    0 -0.25276329820E+02  0.10759101412E+03 -0.12405365197E+04  0.12454499492E+04  0.00000000000E+00 0. -1.
<mgrwt>
<rscale>  0 0.53687069E+02</rscale>
<asrwt>0</asrwt>
<pdfrwt beam="1">  1        2 0.15203824E+00 0.26089595E+02</pdfrwt>
<pdfrwt beam="2">  1        2 0.26869478E+00 0.11047705E+03</pdfrwt>
<totfact> 0.51580263E+01</totfact>
</mgrwt>
</event>
<event>
13    1  0.2038932E-008  0.1320102E+03  0.7546771E-02  0.1297222E+00
          2   -1    0    0  503    0  0.00000000000E+00  0.00000000000E+00  0.51025522644E+03  0.51025522644E+03  0.00000000000E+00 0. -1.
          2   -1    0    0  502    0 -0.00000000000E+00 -0.00000000000E+00 -0.30795038301E+04  0.30795038301E+04  0.00000000000E+00 0. -1.
         24    2    1    2    0    0 -0.16157299945E+02 -0.39523202597E+02 -0.79404515191E+03  0.79956494416E+03  0.83506016308E+02 0.  0.
         25    2    1    2    0    0  0.19308017366E+03  0.17280815600E+03  0.14254379606E+03  0.32107578230E+03  0.12501324706E+03 0.  0.
         24    2    1    2    0    0 -0.24983201344E+02 -0.49360828111E+02 -0.28110600917E+03  0.29763414386E+03  0.80652609996E+02 0.  0.
        -11    1    3    3    0    0  0.14056954008E+02  0.14328205205E+02 -0.41817846719E+03  0.41865991669E+03  0.00000000000E+00 0.  1.
         12    1    3    3    0    0 -0.30214253954E+02 -0.53851407802E+02 -0.37586668473E+03  0.38090502747E+03  0.00000000000E+00 0. -1.
        -13    1    5    5    0    0 -0.94294159698E+01 -0.62475357974E+02 -0.26272499519E+03  0.27021566819E+03  0.00000000000E+00 0.  1.
         14    1    5    5    0    0 -0.15553785374E+02  0.13114529863E+02 -0.18381013979E+02  0.27418475667E+02  0.00000000000E+00 0. -1.
          5    1    4    4  501    0  0.73796984252E+02  0.14395668032E+03  0.10392973820E+03  0.19233564718E+03  0.47000000000E+01 0. -1.
         -5    1    4    4    0  501  0.11928318941E+03  0.28851475679E+02  0.38614057859E+02  0.12874013512E+03  0.47000000000E+01 0. -1.
          1    1    1    2  502    0 -0.95426658875E+02 -0.11527505270E+03 -0.18971682229E+04  0.19030611790E+04  0.00000000000E+00 0. -1.
          1    1    1    2  503    0 -0.56513013500E+02  0.31350927406E+02  0.26052698420E+03  0.26842300729E+03  0.00000000000E+00 0. -1.
<mgrwt>
<rscale>  0 0.92365442E+02</rscale>
<asrwt>0</asrwt>
<pdfrwt beam="1">  1        2 0.75037531E-01 0.64626630E+02</pdfrwt>
<pdfrwt beam="2">  1        2 0.45286822E+00 0.13201021E+03</pdfrwt>
<totfact> 0.25481601E+01</totfact>
</mgrwt>
</event>
<event>
13    1  0.2038932E-008  0.2376281E+03  0.7546771E-02  0.1192034E+00
          2   -1    0    0  502    0  0.00000000000E+00  0.00000000000E+00  0.16683321170E+04  0.16683321170E+04  0.00000000000E+00 0. -1.
          2   -1    0    0  503    0 -0.00000000000E+00 -0.00000000000E+00 -0.23497317851E+04  0.23497317851E+04  0.00000000000E+00 0. -1.
         24    2    1    2    0    0 -0.20544509086E+03 -0.21853677675E+03 -0.57835295917E+03  0.65679167424E+03  0.83169404336E+02 0.  0.
         25    2    1    2    0    0 -0.48435818787E+02  0.49271359690E+02  0.45227858876E+03  0.47429288623E+03  0.12499649858E+03 0.  0.
         24    2    1    2    0    0  0.77015804212E+02 -0.37944077443E+02  0.30157610757E+03  0.32382013955E+03  0.80871175400E+02 0.  0.
        -11    1    5    5    0    0  0.23973738078E+01 -0.41827767331E+02  0.13259154449E+03  0.13905332499E+03  0.00000000000E+00 0.  1.
         12    1    5    5    0    0  0.74618430404E+02  0.38836898875E+01  0.16898456308E+03  0.18476681456E+03  0.00000000000E+00 0. -1.
        -13    1    3    3    0    0  0.15673480227E+01 -0.14092681205E+02 -0.66785820853E+02  0.68274490920E+02  0.00000000000E+00 0.  1.
         14    1    3    3    0    0 -0.20701243888E+03 -0.20444409554E+03 -0.51156713832E+03  0.58851718332E+03  0.00000000000E+00 0. -1.
          5    1    4    4  501    0 -0.25844592551E+02 -0.40912177607E+02  0.12819873087E+03  0.13710854764E+03  0.47000000000E+01 0.  1.
         -5    1    4    4    0  501 -0.22591226236E+02  0.90183537296E+02  0.32407985789E+03  0.33718433859E+03  0.47000000000E+01 0.  1.
          1    1    1    2  502    0  0.10331941366E+03 -0.10330412148E+02  0.84221689376E+03  0.84859349207E+03  0.00000000000E+00 0. -1.
          1    1    1    2  503    0  0.73545691777E+02  0.21753990665E+03 -0.16991182991E+04  0.17145657100E+04  0.00000000000E+00 0. -1.
<mgrwt>
<rscale>  0 0.15707963E+03</rscale>
<asrwt>0</asrwt>
<pdfrwt beam="1">  1        2 0.24534296E+00 0.10383457E+03</pdfrwt>
<pdfrwt beam="2">  1        2 0.34554879E+00 0.23762806E+03</pdfrwt>
<totfact> 0.11532242E+01</totfact>
</mgrwt>
</event>
<event>
13    1  0.2038932E-008  0.6513307E+02  0.7546771E-02  0.1393806E+00
          2   -1    0    0  503    0  0.00000000000E+00  0.00000000000E+00  0.19155343614E+04  0.19155343614E+04  0.00000000000E+00 0. -1.
          2   -1    0    0  502    0 -0.00000000000E+00 -0.00000000000E+00 -0.12769327392E+04  0.12769327392E+04  0.00000000000E+00 0. -1.
         24    2    1    2    0    0 -0.26163424364E+01  0.19882519634E+02 -0.32014336174E+03  0.33055224818E+03  0.79817647669E+02 0.  0.
         25    2    1    2    0    0 -0.82754521887E+02 -0.66252513318E+02  0.36752368999E+03  0.40241347876E+03  0.12500095509E+03 0.  0.
         24    2    1    2    0    0  0.24062376097E+02 -0.99337682212E+01  0.15448968832E+01  0.82854150445E+02  0.78643155106E+02 0.  0.
        -11    1    3    3    0    0 -0.36060561030E+02 -0.69597596698E+01 -0.10670424374E+03  0.11284767586E+03  0.00000000000E+00 0.  1.
         12    1    3    3    0    0  0.33444218594E+02  0.26842279304E+02 -0.21343911800E+03  0.21770457232E+03  0.00000000000E+00 0. -1.
        -11    1    5    5    0    0  0.60170341997E+01 -0.43804083943E+02 -0.23609804195E+01  0.44278399917E+02  0.00000000000E+00 0.  1.
         12    1    5    5    0    0  0.18045341898E+02  0.33870315722E+02  0.39058773027E+01  0.38575750528E+02  0.00000000000E+00 0. -1.
          5    1    4    4  501    0 -0.93108337813E+02 -0.79416201988E+00  0.16821718995E+03  0.19232500165E+03  0.47000000000E+01 0.  1.
         -5    1    4    4    0  501  0.10353815926E+02 -0.65458351298E+02  0.19930650004E+03  0.21008847712E+03  0.47000000000E+01 0.  1.
          1    1    1    2  502    0 -0.38295232808E+01  0.56944276274E+02 -0.89185757766E+03  0.89368185316E+03  0.00000000000E+00 0. -1.
          1    1    1    2  503    0  0.65138011507E+02 -0.64051436989E+00  0.14815339747E+04  0.14829653701E+04  0.00000000000E+00 0. -1.
<mgrwt>
<rscale>  0 0.60969936E+02</rscale>
<asrwt>0</asrwt>
<pdfrwt beam="1">  1        2 0.28169623E+00 0.65133070E+02</pdfrwt>
<pdfrwt beam="2">  1        2 0.18778423E+00 0.57072899E+02</pdfrwt>
<totfact> 0.35275344E+01</totfact>
</mgrwt>
</event>
<event>
13    1  0.2038932E-008  0.1105412E+03  0.7546771E-02  0.1357572E+00
          2   -1    0    0  502    0  0.00000000000E+00  0.00000000000E+00  0.18847525964E+04  0.18847525964E+04  0.00000000000E+00 0. -1.
          2   -1    0    0  503    0 -0.00000000000E+00 -0.00000000000E+00 -0.72484667060E+03  0.72484667060E+03  0.00000000000E+00 0. -1.
         24    2    1    2    0    0  0.12388380167E+03 -0.17174553144E+03  0.30111713778E+03  0.37715536483E+03  0.82042151763E+02 0.  0.
         25    2    1    2    0    0 -0.30046260329E+03  0.61936789154E+02 -0.39349943953E+03  0.51437418615E+03  0.12500021055E+03 0.  0.
         24    2    1    2    0    0  0.67449881983E+02  0.14530115492E+03  0.26254740857E+03  0.31440814523E+03  0.65264292244E+02 0.  0.
        -13    1    3    3    0    0  0.11350960787E+02 -0.82429029504E+02  0.10244981905E+03  0.13198240276E+03  0.00000000000E+00 0.  1.
         14    1    3    3    0    0  0.11253284088E+03 -0.89316501941E+02  0.19866731873E+03  0.24517296206E+03  0.00000000000E+00 0. -1.
        -13    1    5    5    0    0  0.54810577704E+02  0.14472180378E+03  0.21307265000E+03  0.26334113635E+03  0.00000000000E+00 0.  1.
         14    1    5    5    0    0  0.12639304279E+02  0.57935113883E+00  0.49474758576E+02  0.51067008885E+02  0.00000000000E+00 0. -1.
          5    1    4    4  501    0 -0.78804212808E+02 -0.21388534401E+02 -0.17032205585E+03  0.18894249408E+03  0.47000000000E+01 0.  1.
         -5    1    4    4    0  501 -0.22165839048E+03  0.83325323555E+02 -0.22317738369E+03  0.32543169207E+03  0.47000000000E+01 0.  1.
          1    1    1    2  502    0  0.83312490578E+02 -0.72689584888E+02  0.11916345217E+04  0.11967529319E+04  0.00000000000E+00 0. -1.
          1    1    1    2  503    0  0.25816429059E+02  0.37197172262E+02 -0.20189370271E+03  0.20690863884E+03  0.00000000000E+00 0. -1.
<mgrwt>
<rscale>  0 0.70746798E+02</rscale>
<asrwt>0</asrwt>
<pdfrwt beam="1">  1        2 0.27716950E+00 0.11054120E+03</pdfrwt>
<pdfrwt beam="2">  1        2 0.10659510E+00 0.45278225E+02</pdfrwt>
<totfact> 0.71904160E+01</totfact>
</mgrwt>
</event>
<event>
13    1  0.2038932E-008  0.5873972E+02  0.7546771E-02  0.1416017E+00
          2   -1    0    0  503    0  0.00000000000E+00  0.00000000000E+00  0.28883049084E+04  0.28883049084E+04  0.00000000000E+00 0. -1.
          2   -1    0    0  502    0 -0.00000000000E+00 -0.00000000000E+00 -0.12890579576E+04  0.12890579576E+04  0.00000000000E+00 0. -1.
         24    2    1    2    0    0 -0.62168193848E+02 -0.17015398177E+03 -0.29753856016E+03  0.36216894710E+03  0.99095356201E+02 0.  0.
         25    2    1    2    0    0 -0.13202965398E+03  0.23207928936E+03  0.12456002208E+04  0.12800139532E+04  0.12499273693E+03 0.  0.
         24    2    1    2    0    0  0.14413686675E+03 -0.15793849335E+03 -0.39063179006E+01  0.22771477393E+03  0.78222470594E+02 0.  0.
        -13    1    5    5    0    0  0.55529410863E+01 -0.24328429025E+02 -0.23423896339E+02  0.34225524587E+02  0.00000000000E+00 0.  1.
         14    1    5    5    0    0  0.13858392566E+03 -0.13361006433E+03  0.19517578438E+02  0.19348924934E+03  0.00000000000E+00 0. -1.
        -13    1    3    3    0    0  0.20657933578E+01 -0.12751208414E+03 -0.20828729017E+03  0.24422775098E+03  0.00000000000E+00 0.  1.
         14    1    3    3    0    0 -0.64233987206E+02 -0.42641897631E+02 -0.89251269989E+02  0.11794119611E+03  0.00000000000E+00 0. -1.
          5    1    4    4  501    0 -0.14909964562E+03  0.17644282385E+03  0.10795345569E+04  0.11039835706E+04  0.47000000000E+01 0.  1.
         -5    1    4    4    0  501  0.17069991634E+02  0.55636465504E+02  0.16606566388E+03  0.17603038268E+03  0.47000000000E+01 0.  1.
          1    1    1    2  502    0  0.11338171210E+02  0.51921831415E+02 -0.82475002457E+03  0.82646054578E+03  0.00000000000E+00 0. -1.
          1    1    1    2  503    0  0.38722809873E+02  0.44091354353E+02  0.14798416326E+04  0.14810046459E+04  0.00000000000E+00 0. -1.
<mgrwt>
<rscale>  0 0.55872572E+02</rscale>
<asrwt>0</asrwt>
<pdfrwt beam="1">  1        2 0.42475072E+00 0.58739720E+02</pdfrwt>
<pdfrwt beam="2">  1        2 0.18956735E+00 0.53145373E+02</pdfrwt>
<totfact> 0.11964797E+01</totfact>
</mgrwt>
</event>
<event>
13    1  0.2038932E-008  0.7563059E+02  0.7546771E-02  0.1409449E+00
          2   -1    0    0  503    0  0.00000000000E+00  0.00000000000E+00  0.14379352311E+04  0.14379352311E+04  0.00000000000E+00 0. -1.
          2   -1    0    0  502    0 -0.00000000000E+00 -0.00000000000E+00 -0.27472137396E+04  0.27472137396E+04  0.00000000000E+00 0. -1.
         24    2    1    2    0    0  0.61935876541E+02  0.20357009857E+01 -0.16990359035E+04  0.17020067140E+04  0.79143262420E+02 0.  0.
         25    2    1    2    0    0 -0.58968636345E+02  0.29485643386E+03  0.23337714713E+03  0.40063361437E+03  0.12499913398E+03 0.  0.
         24    2    1    2    0    0  0.89184125210E+02 -0.27029872186E+03 -0.25320341712E+03  0.38925098326E+03  0.79932160629E+02 0.  0.
        -11    1    5    5    0    0  0.88389192601E+02 -0.20800723620E+03 -0.23084936930E+03  0.32306514976E+03  0.00000000000E+00 0.  1.
         12    1    5    5    0    0  0.79493260872E+00 -0.62291485655E+02 -0.22354047820E+02  0.66185833506E+02  0.00000000000E+00 0. -1.
        -11    1    3    3    0    0 -0.26725084602E+01 -0.21268131704E+02 -0.82425361606E+03  0.82453229125E+03  0.00000000000E+00 0.  1.
         12    1    3    3    0    0  0.64608385001E+02  0.23303832690E+02 -0.87478228746E+03  0.87747442270E+03  0.00000000000E+00 0. -1.
          5    1    4    4  501    0 -0.86845376252E+01  0.23202882595E+02  0.81549640078E+02  0.85359409272E+02  0.47000000000E+01 0. -1.
         -5    1    4    4    0  501 -0.50284098720E+02  0.27165355127E+03  0.15182750705E+03  0.31527420510E+03  0.47000000000E+01 0. -1.
          1    1    1    2  502    0 -0.56025627492E+02 -0.50713742965E+02 -0.63916146193E+03  0.64361333818E+03  0.00000000000E+00 0. -1.
          1    1    1    2  503    0 -0.36125737914E+02  0.24120329973E+02  0.10487451269E+04  0.10496443209E+04  0.00000000000E+00 0. -1.
<mgrwt>
<rscale>  0 0.57317024E+02</rscale>
<asrwt>0</asrwt>
<pdfrwt beam="1">  1        2 0.21146107E+00 0.43437993E+02</pdfrwt>
<pdfrwt beam="2">  1        2 0.40400201E+00 0.75630593E+02</pdfrwt>
<totfact> 0.11656676E+01</totfact>
</mgrwt>
</event>
<event>
13    1  0.2038932E-008  0.7198432E+02  0.7546771E-02  0.1467511E+00
          2   -1    0    0  502    0  0.00000000000E+00  0.00000000000E+00  0.25687069083E+04  0.25687069083E+04  0.00000000000E+00 0. -1.
          2   -1    0    0  503    0 -0.00000000000E+00 -0.00000000000E+00 -0.21588727578E+04  0.21588727578E+04  0.00000000000E+00 0. -1.
         24    2    1    2    0    0  0.28085247538E+02  0.27180392210E+02 -0.26209370153E+03  0.27676184179E+03  0.79852700887E+02 0.  0.
         25    2    1    2    0    0 -0.24300315804E+02 -0.11081284488E+03 -0.29740004263E+03  0.34196625018E+03  0.12499655581E+03 0.  0.
         24    2    1    2    0    0 -0.11866623766E+02  0.38607630353E+02  0.96775339957E+01  0.90578835520E+02  0.80495371909E+02 0.  0.
        -13    1    3    3    0    0  0.10426620335E+01 -0.27619087464E+02 -0.74184470906E+02  0.79165881919E+02  0.00000000000E+00 0.  1.
         14    1    3    3    0    0  0.27042585505E+02  0.54799479674E+02 -0.18790923063E+03  0.19759595987E+03  0.00000000000E+00 0. -1.
        -13    1    5    5    0    0  0.45700259381E+01 -0.13995109138E+02 -0.22405398596E+02  0.26809515160E+02  0.00000000000E+00 0.  1.
         14    1    5    5    0    0 -0.16436649705E+02  0.52602739491E+02  0.32082932592E+02  0.63769320360E+02  0.00000000000E+00 0. -1.
          5    1    4    4  501    0  0.17848210649E+02 -0.12163770682E+03 -0.24087789741E+03  0.27047835736E+03  0.47000000000E+01 0. -1.
         -5    1    4    4    0  501 -0.42148526453E+02  0.10824861938E+02 -0.56522145227E+02  0.71487892815E+02  0.47000000000E+01 0. -1.
          1    1    1    2  502    0  0.28951850948E+02  0.65930340490E+02  0.24882980231E+04  0.24893396858E+04  0.00000000000E+00 0. -1.
          1    1    1    2  503    0 -0.20870158916E+02 -0.20905518172E+02 -0.15286476624E+04  0.15289330528E+04  0.00000000000E+00 0. -1.
<mgrwt>
<rscale>  0 0.46112990E+02</rscale>
<asrwt>0</asrwt>
<pdfrwt beam="1">  1        2 0.37775102E+00 0.71984321E+02</pdfrwt>
<pdfrwt beam="2">  1        2 0.31748129E+00 0.29539875E+02</pdfrwt>
<totfact> 0.69999652E+00</totfact>
</mgrwt>
</event>
<event>
13    1  0.2038932E-008  0.1123017E+03  0.7546771E-02  0.1405695E+00
          2   -1    0    0  502    0  0.00000000000E+00  0.00000000000E+00  0.14961248089E+04  0.14961248089E+04  0.00000000000E+00 0. -1.
          2   -1    0    0  503    0 -0.00000000000E+00 -0.00000000000E+00 -0.20270072786E+04  0.20270072786E+04  0.00000000000E+00 0. -1.
         24    2    1    2    0    0 -0.14366667604E+03 -0.36321318668E+03 -0.73515966250E+03  0.83651549193E+03  0.82064036489E+02 0.  0.
         25    2    1    2    0    0  0.24036964999E+03  0.20460627196E+02 -0.55282132156E+02  0.27725420413E+03  0.12497029115E+03 0.  0.
         24    2    1    2    0    0 -0.85509960723E+02  0.20403694218E+03 -0.37830596895E+03  0.44566240235E+03  0.80972486495E+02 0.  0.
        -11    1    3    3    0    0 -0.11544993136E+02 -0.13038250760E+03 -0.26186958910E+03  0.29276025490E+03  0.00000000000E+00 0.  1.
         12    1    3    3    0    0 -0.13212168290E+03 -0.23283067908E+03 -0.47329007340E+03  0.54375523703E+03  0.00000000000E+00 0. -1.
        -13    1    5    5    0    0 -0.22119736818E+02  0.41318163353E+02 -0.28936670864E+02  0.55079980941E+02  0.00000000000E+00 0.  1.
         14    1    5    5    0    0 -0.63390223906E+02  0.16271877882E+03 -0.34936929808E+03  0.39058242141E+03  0.00000000000E+00 0. -1.
          5    1    4    4  501    0  0.12899383499E+03  0.67668825055E+02 -0.40415659874E+01  0.14579747462E+03  0.47000000000E+01 0.  1.
         -5    1    4    4    0  501  0.11137581500E+03 -0.47208197858E+02 -0.51240566169E+02  0.13145672951E+03  0.47000000000E+01 0.  1.
          1    1    1    2  502    0  0.87243639484E+01  0.28835508923E+02  0.12959035063E+04  0.12962536399E+04  0.00000000000E+00 0. -1.
          1    1    1    2  503    0 -0.19917377173E+02  0.10988010839E+03 -0.65803821237E+03  0.66744634921E+03  0.00000000000E+00 0. -1.
<mgrwt>
<rscale>  0 0.58165706E+02</rscale>
<asrwt>0</asrwt>
<pdfrwt beam="1">  1        2 0.22001836E+00 0.30126419E+02</pdfrwt>
<pdfrwt beam="2">  1        2 0.29808930E+00 0.11230174E+03</pdfrwt>
<totfact> 0.24278435E+01</totfact>
</mgrwt>
</event>
<event>
13    1  0.2038932E-008  0.1569997E+03  0.7546771E-02  0.1278348E+00
          2   -1    0    0  503    0  0.00000000000E+00  0.00000000000E+00  0.23587817647E+04  0.23587817647E+04  0.00000000000E+00 0. -1.
          2   -1    0    0  502    0 -0.00000000000E+00 -0.00000000000E+00 -0.38576704072E+03  0.38576704072E+03  0.00000000000E+00 0. -1.
         24    2    1    2    0    0 -0.17662276875E+03 -0.96627408773E+02 -0.48025234895E+02  0.22241097374E+03  0.81411052616E+02 0.  0.
         25    2    1    2    0    0 -0.40917229102E+02 -0.66701783131E+02  0.71573290820E+03  0.73076793429E+03  0.12499932156E+03 0.  0.
         24    2    1    2    0    0  0.46156490004E+02  0.10339826430E+03  0.22571576068E+03  0.26350279567E+03  0.75262846589E+02 0.  0.
        -13    1    5    5    0    0 -0.58402572154E+01  0.83567259554E+01 -0.28297269987E+01  0.10580681827E+02  0.00000000000E+00 0.  1.
         14    1    5    5    0    0  0.51996747219E+02  0.95041538345E+02  0.22854548768E+03  0.25292211385E+03  0.00000000000E+00 0. -1.
        -13    1    3    3    0    0 -0.12338112888E+03 -0.21807451478E+02 -0.25582760281E+02  0.12787863593E+03  0.00000000000E+00 0.  1.
         14    1    3    3    0    0 -0.53241639867E+02 -0.74819957296E+02 -0.22442474614E+02  0.94532337812E+02  0.00000000000E+00 0. -1.
          5    1    4    4  501    0 -0.65036489717E+01 -0.97499743834E+02  0.40869220078E+03  0.42023791175E+03  0.47000000000E+01 0.  1.
         -5    1    4    4    0  501 -0.34413580131E+02  0.30797960703E+02  0.30704070742E+03  0.31053002254E+03  0.47000000000E+01 0.  1.
          1    1    1    2  502    0  0.14960541113E+03 -0.11925858163E+01 -0.19825680209E+03  0.24837262505E+03  0.00000000000E+00 0. -1.
          1    1    1    2  503    0  0.21778096718E+02  0.61123513421E+02  0.12778480920E+04  0.12794944766E+04  0.00000000000E+00 0. -1.
<mgrwt>
<rscale>  0 0.10093213E+03</rscale>
<asrwt>0</asrwt>
<pdfrwt beam="1">  1        2 0.34687966E+00 0.64887359E+02</pdfrwt>
<pdfrwt beam="2">  1        2 0.56730448E-01 0.15699969E+03</pdfrwt>
<totfact> 0.87941478E+01</totfact>
</mgrwt>
</event>
<event>
13    1  0.2038932E-008  0.1605951E+03  0.7546771E-02  0.1381341E+00
          2   -1    0    0  502    0  0.00000000000E+00  0.00000000000E+00  0.27965314284E+04  0.27965314284E+04  0.00000000000E+00 0. -1.
          2   -1    0    0  503    0 -0.00000000000E+00 -0.00000000000E+00 -0.76000045239E+03  0.76000045239E+03  0.00000000000E+00 0. -1.
         24    2    1    2    0    0 -0.27100340697E+02  0.10869638941E+03 -0.18728162647E+01  0.13745241903E+03  0.79626167308E+02 0.  0.
         25    2    1    2    0    0  0.10142032975E+03 -0.12135893198E+03  0.34754942585E+03  0.40177007028E+03  0.12495804219E+03 0.  0.
         24    2    1    2    0    0 -0.91192630359E+02 -0.16806165784E+03  0.89431825612E+02  0.23035401536E+03  0.92217700543E+02 0.  0.
        -13    1    5    5    0    0 -0.10752563287E+03 -0.16272421833E+03  0.80660029722E+02  0.21106153925E+03  0.00000000000E+00 0.  1.
         14    1    5    5    0    0  0.16333002507E+02 -0.53374395030E+01  0.87717958900E+01  0.19292476111E+02  0.00000000000E+00 0. -1.
        -13    1    3    3    0    0 -0.54865818520E+02  0.71286824117E+02 -0.86653122010E+01  0.90372324138E+02  0.00000000000E+00 0.  1.
         14    1    3    3    0    0  0.27765477823E+02  0.37409565293E+02  0.67924959363E+01  0.47080094893E+02  0.00000000000E+00 0. -1.
          5    1    4    4  501    0  0.62406074553E+02  0.97661287223E+01  0.13230690958E+03  0.14668709464E+03  0.47000000000E+01 0.  1.
         -5    1    4    4    0  501  0.39014255199E+02 -0.13112506070E+03  0.21524251627E+03  0.25508297564E+03  0.47000000000E+01 0.  1.
          1    1    1    2  502    0  0.21400853053E+02  0.15553291779E+03  0.21911026139E+04  0.21967200891E+04  0.00000000000E+00 0. -1.
          1    1    1    2  503    0 -0.45282117482E+01  0.25191282613E+02 -0.58968007311E+03  0.59023528703E+03  0.00000000000E+00 0. -1.
<mgrwt>
<rscale>  0 0.64112674E+02</rscale>
<asrwt>0</asrwt>
<pdfrwt beam="1">  1        2 0.41125462E+00 0.16059506E+03</pdfrwt>
<pdfrwt beam="2">  1        2 0.11176477E+00 0.25595027E+02</pdfrwt>
<totfact> 0.23303482E+01</totfact>
</mgrwt>
</event>
<event>
13    1  0.2038932E-008  0.1853571E+03  0.7546771E-02  0.1262728E+00
          2   -1    0    0  503    0  0.00000000000E+00  0.00000000000E+00  0.47262382474E+04  0.47262382474E+04  0.00000000000E+00 0. -1.
          2   -1    0    0  502    0 -0.00000000000E+00 -0.00000000000E+00 -0.43429253073E+03  0.43429253073E+03  0.00000000000E+00 0. -1.
         24    2    1    2    0    0  0.17640542680E+03  0.12156202254E+03 -0.19068516662E+03  0.29921444847E+03  0.85277508605E+02 0.  0.
         25    2    1    2    0    0  0.10246534956E+03 -0.19408965573E+03  0.12177557961E+04  0.12436737101E+04  0.12500070420E+03 0.  0.
         24    2    1    2    0    0 -0.65670462585E+02  0.17856785175E+02  0.88962244378E+02  0.13713234142E+03  0.79117151776E+02 0.  0.
        -11    1    3    3    0    0  0.94498215497E+02  0.37945801473E+02 -0.42418487775E+02  0.11031375565E+03  0.00000000000E+00 0.  1.
         12    1    3    3    0    0  0.81907211301E+02  0.83616221068E+02 -0.14826667885E+03  0.18890069281E+03  0.00000000000E+00 0. -1.
        -11    1    5    5    0    0 -0.38549713270E+02 -0.30310022959E+02  0.39832641303E+02  0.63177663760E+02  0.00000000000E+00 0.  1.
         12    1    5    5    0    0 -0.27120749315E+02  0.48166808134E+02  0.49129603075E+02  0.73954677658E+02  0.00000000000E+00 0. -1.
          5    1    4    4  501    0 -0.24123336711E+02 -0.62641363476E+02  0.25283240701E+03  0.26163369781E+03  0.47000000000E+01 0.  1.
         -5    1    4    4    0  501  0.12658868627E+03 -0.13144829225E+03  0.96492338905E+03  0.98204001230E+03  0.47000000000E+01 0.  1.
          1    1    1    2  502    0 -0.15863647331E+03  0.87952908054E+02 -0.97868219336E+02  0.20610539307E+03  0.00000000000E+00 0. -1.
          1    1    1    2  503    0 -0.54563840461E+02 -0.33282060044E+02  0.32737810621E+04  0.32744048850E+04  0.00000000000E+00 0. -1.
<mgrwt>
<rscale>  0 0.10884293E+03</rscale>
<asrwt>0</asrwt>
<pdfrwt beam="1">  1        2 0.69503501E+00 0.63913287E+02</pdfrwt>
<pdfrwt beam="2">  1        2 0.63866551E-01 0.18535714E+03</pdfrwt>
<totfact> 0.27845810E+00</totfact>
</mgrwt>
</event>
<event>
13    1  0.2038932E-008  0.7019453E+02  0.7546771E-02  0.1424556E+00
          2   -1    0    0  503    0  0.00000000000E+00  0.00000000000E+00  0.26943310485E+04  0.26943310485E+04  0.00000000000E+00 0. -1.
          2   -1    0    0  502    0 -0.00000000000E+00 -0.00000000000E+00 -0.28449162073E+04  0.28449162073E+04  0.00000000000E+00 0. -1.
         24    2    1    2    0    0  0.10374223501E+03  0.87813100792E+02  0.11865512602E+03  0.19749185698E+03  0.80314398754E+02 0.  0.
         25    2    1    2    0    0 -0.16045311008E+03 -0.23637734946E+02  0.18739580029E+03  0.27756830952E+03  0.12499214949E+03 0.  0.
         24    2    1    2    0    0  0.94635765684E+02 -0.69392080913E+02  0.33893298465E+03  0.36760624512E+03  0.80545604024E+02 0.  0.
        -11    1    5    5    0    0 -0.26018382985E+01  0.10206649593E+02  0.69694520050E+02  0.70485965862E+02  0.00000000000E+00 0.  1.
         12    1    5    5    0    0  0.97237603983E+02 -0.79598730506E+02  0.26923846460E+03  0.29712027926E+03  0.00000000000E+00 0. -1.
        -11    1    3    3    0    0 -0.62416551836E+01  0.28741080227E+02  0.41032051745E+02  0.50484029380E+02  0.00000000000E+00 0.  1.
         12    1    3    3    0    0  0.10998389019E+03  0.59072020565E+02  0.77623074273E+02  0.14700782760E+03  0.00000000000E+00 0. -1.
          5    1    4    4  501    0 -0.12139654337E+03 -0.10874673333E+02  0.20006447037E+03  0.23431445019E+03  0.47000000000E+01 0. -1.
         -5    1    4    4    0  501 -0.39056566712E+02 -0.12763061614E+02 -0.12668670085E+02  0.43253859328E+02  0.47000000000E+01 0. -1.
          1    1    1    2  502    0  0.18049448779E+02 -0.37532587907E+02 -0.27452811505E+04  0.27455970340E+04  0.00000000000E+00 0. -1.
          1    1    1    2  503    0 -0.55974339396E+02  0.42749302974E+02  0.19497120807E+04  0.19509838101E+04  0.00000000000E+00 0. -1.
<mgrwt>
<rscale>  0 0.54068439E+02</rscale>
<asrwt>0</asrwt>
<pdfrwt beam="1">  1        2 0.39622516E+00 0.70194533E+02</pdfrwt>
<pdfrwt beam="2">  1        2 0.41837003E+00 0.41647062E+02</pdfrwt>
<totfact> 0.27353422E+00</totfact>
</mgrwt>
</event>
<event>
13    1  0.2038932E-008  0.3699769E+03  0.7546771E-02  0.1214222E+00
          2   -1    0    0  502    0  0.00000000000E+00  0.00000000000E+00  0.13308761952E+04  0.13308761952E+04  0.00000000000E+00 0. -1.
          2   -1    0    0  503    0 -0.00000000000E+00 -0.00000000000E+00 -0.14763250464E+04  0.14763250464E+04  0.00000000000E+00 0. -1.
         24    2    1    2    0    0 -0.29676035998E+03  0.12188694410E+03 -0.16701484972E+03  0.37123822646E+03  0.83670319495E+02 0.  0.
         25    2    1    2    0    0  0.12325015629E+03 -0.20572299424E+03  0.34579103390E+03  0.43898659867E+03  0.12500097323E+03 0.  0.
         24    2    1    2    0    0 -0.17107474636E+03 -0.80189334988E+02  0.12549841794E+03  0.24168406082E+03  0.83453184850E+02 0.  0.
        -11    1    5    5    0    0 -0.51181452778E+02  0.14849496176E+02  0.37820428540E+02  0.65348553619E+02  0.00000000000E+00 0.  1.
         12    1    5    5    0    0 -0.11989329358E+03 -0.95038831164E+02  0.87677989401E+02  0.17633550720E+03  0.00000000000E+00 0. -1.
        -11    1    3    3    0    0 -0.77505143237E+02  0.55740071665E+02 -0.85472000257E+02  0.12813846279E+03  0.00000000000E+00 0.  1.
         12    1    3    3    0    0 -0.21925521674E+03  0.66146872436E+02 -0.81542849460E+02  0.24309976367E+03  0.00000000000E+00 0. -1.
          5    1    4    4  501    0  0.10791754873E+03 -0.10046197039E+03  0.12302960259E+03  0.19208638144E+03  0.47000000000E+01 0. -1.
         -5    1    4    4    0  501  0.15332607555E+02 -0.10526102385E+03  0.22276143130E+03  0.24690021724E+03  0.47000000000E+01 0. -1.
          1    1    1    2  502    0 -0.45002776231E+02  0.26991376892E+02  0.61294920386E+03  0.61519144241E+03  0.00000000000E+00 0. -1.
          1    1    1    2  503    0  0.38958772628E+03  0.13703400823E+03 -0.10626726572E+04  0.11401009132E+04  0.00000000000E+00 0. -1.
<mgrwt>
<rscale>  0 0.13933806E+03</rscale>
<asrwt>0</asrwt>
<pdfrwt beam="1">  1        2 0.19571709E+00 0.52476512E+02</pdfrwt>
<pdfrwt beam="2">  1        2 0.21710662E+00 0.36997687E+03</pdfrwt>
<totfact> 0.47542847E+01</totfact>
</mgrwt>
</event>
<event>
13    1  0.2038932E-008  0.1227030E+03  0.7546771E-02  0.1294922E+00
          2   -1    0    0  502    0  0.00000000000E+00  0.00000000000E+00  0.14150135394E+04  0.14150135394E+04  0.00000000000E+00 0. -1.
          2   -1    0    0  503    0 -0.00000000000E+00 -0.00000000000E+00 -0.85360311514E+03  0.85360311514E+03  0.00000000000E+00 0. -1.
         24    2    1    2    0    0  0.87816918144E+02 -0.68112614488E+02 -0.32422337146E+03  0.35199264522E+03  0.80167875893E+02 0.  0.
         25    2    1    2    0    0 -0.24525599784E+03  0.18830888582E+02  0.14215976190E+03  0.31038756239E+03  0.12500373649E+03 0.  0.
         24    2    1    2    0    0  0.45642665352E+02 -0.97206624655E+01  0.89471996108E+02  0.12881073706E+03  0.80057627460E+02 0.  0.
        -11    1    3    3    0    0  0.79022792185E+02 -0.77364214402E+02 -0.31996422990E+03  0.33853645560E+03  0.00000000000E+00 0.  1.
         12    1    3    3    0    0  0.87941259591E+01  0.92515999140E+01 -0.42591415615E+01  0.13456189624E+02  0.00000000000E+00 0. -1.
        -13    1    5    5    0    0  0.42888952066E+02 -0.29777593517E+02  0.19119527530E+02  0.55603269849E+02  0.00000000000E+00 0.  1.
         14    1    5    5    0    0  0.27537132861E+01  0.20056931051E+02  0.70352468578E+02  0.73207467208E+02  0.00000000000E+00 0. -1.
          5    1    4    4  501    0 -0.25662927130E+03  0.14405546618E+02  0.11788950594E+03  0.28281818943E+03  0.47000000000E+01 0. -1.
         -5    1    4    4    0  501  0.11373273459E+02  0.44253419647E+01  0.24270255964E+02  0.27569372957E+02  0.47000000000E+01 0. -1.
          1    1    1    2  502    0  0.77860714757E+02  0.12139926974E+03  0.10577199815E+04  0.10675072050E+04  0.00000000000E+00 0. -1.
          1    1    1    2  503    0  0.33935699589E+02 -0.62396881369E+02 -0.40371794375E+03  0.40991850485E+03  0.00000000000E+00 0. -1.
<mgrwt>
<rscale>  0 0.93356134E+02</rscale>
<asrwt>0</asrwt>
<pdfrwt beam="1">  1        2 0.20809023E+00 0.12270296E+03</pdfrwt>
<pdfrwt beam="2">  1        2 0.12552987E+00 0.71028181E+02</pdfrwt>
<totfact> 0.98732810E+01</totfact>
</mgrwt>
</event>
<event>
13    1  0.2038932E-008  0.6062401E+02  0.7546771E-02  0.1502182E+00
          2   -1    0    0  503    0  0.00000000000E+00  0.00000000000E+00  0.19489595720E+04  0.19489595720E+04  0.00000000000E+00 0. -1.
          2   -1    0    0  502    0 -0.00000000000E+00 -0.00000000000E+00 -0.17592297235E+04  0.17592297235E+04  0.00000000000E+00 0. -1.
         24    2    1    2    0    0 -0.20930501573E+03 -0.85529497648E+02 -0.46720035604E+03  0.52521759272E+03  0.80333445371E+02 0.  0.
         25    2    1    2    0    0  0.14889689611E+03 -0.55989536677E+02  0.10914229367E+04  0.11100107053E+04  0.12495849418E+03 0.  0.
         24    2    1    2    0    0 -0.15620113967E+02  0.99744399938E+02 -0.28202696442E+03  0.31042299085E+03  0.81426600742E+02 0.  0.
        -11    1    3    3    0    0  0.65641096388E+01 -0.56133383073E+01 -0.28701673333E+02  0.29973040460E+02  0.00000000000E+00 0.  1.
         12    1    3    3    0    0 -0.21586912537E+03 -0.79916159341E+02 -0.43849868270E+03  0.49524455226E+03  0.00000000000E+00 0. -1.
        -13    1    5    5    0    0  0.27492075988E+02  0.74817341140E+02 -0.16517992957E+03  0.18340626465E+03  0.00000000000E+00 0.  1.
         14    1    5    5    0    0 -0.43112189955E+02  0.24927058798E+02 -0.11684703484E+03  0.12701672620E+03  0.00000000000E+00 0. -1.
          5    1    4    4  501    0  0.15195062201E+03 -0.72482426402E+01  0.77445410515E+03  0.78926724215E+03  0.47000000000E+01 0.  1.
         -5    1    4    4    0  501 -0.30537259053E+01 -0.48741294037E+02  0.31696883158E+03  0.32074346319E+03  0.47000000000E+01 0.  1.
          1    1    1    2  502    0  0.49321805136E+02  0.35214137649E+02 -0.95630759311E+03  0.95822590687E+03  0.00000000000E+00 0. -1.
          1    1    1    2  503    0  0.26706428456E+02  0.65604967386E+01  0.80384182540E+03  0.80431209969E+03  0.00000000000E+00 0. -1.
<mgrwt>
<rscale>  0 0.40831191E+02</rscale>
<asrwt>0</asrwt>
<pdfrwt beam="1">  1        2 0.28661170E+00 0.27500426E+02</pdfrwt>
<pdfrwt beam="2">  1        2 0.25871025E+00 0.60624010E+02</pdfrwt>
<totfact> 0.21813843E+01</totfact>
</mgrwt>
</event>
<event>
13    1  0.2038932E-008  0.1467256E+03  0.7546771E-02  0.1376915E+00
          2   -1    0    0  502    0  0.00000000000E+00  0.00000000000E+00  0.19019936981E+04  0.19019936981E+04  0.00000000000E+00 0. -1.
          2   -1    0    0  503    0 -0.00000000000E+00 -0.00000000000E+00 -0.78382596008E+03  0.78382596008E+03  0.00000000000E+00 0. -1.
         24    2    1    2    0    0  0.67542916309E+01  0.28988782767E+02 -0.66474097965E+02  0.10419296552E+03  0.74507706857E+02 0.  0.
         25    2    1    2    0    0  0.57307219972E+01  0.93838427758E+02  0.82696817737E+02  0.17692378466E+03  0.12499908086E+03 0.  0.
         24    2    1    2    0    0  0.11689577591E+03 -0.84202460658E+02  0.14487863381E+03  0.21952255453E+03  0.80284846685E+02 0.  0.
        -11    1    3    3    0    0 -0.23120345213E+02 -0.86652625501E+01 -0.34485662388E+01  0.24930498329E+02  0.00000000000E+00 0.  1.
         12    1    3    3    0    0  0.29874636844E+02  0.37654045317E+02 -0.63025531726E+02  0.79262467187E+02  0.00000000000E+00 0. -1.
        -11    1    5    5    0    0 -0.97880975320E+00 -0.34944940151E+02  0.47047253548E+02  0.58613573318E+02  0.00000000000E+00 0.  1.
         12    1    5    5    0    0  0.11787458566E+03 -0.49257520507E+02  0.97831380266E+02  0.16090898121E+03  0.00000000000E+00 0. -1.
          5    1    4    4  501    0  0.15212142410E+02  0.58981713145E+02  0.11370991763E+03  0.12908248188E+03  0.47000000000E+01 0. -1.
         -5    1    4    4    0  501 -0.94814204129E+01  0.34856714613E+02 -0.31013099889E+02  0.47841302777E+02  0.47000000000E+01 0. -1.
          1    1    1    2  502    0 -0.14689229414E+03 -0.15451943162E+02  0.15673057672E+04  0.15742501315E+04  0.00000000000E+00 0. -1.
          1    1    1    2  503    0  0.17511504605E+02 -0.23172806705E+02 -0.61023938280E+03  0.61093022195E+03  0.00000000000E+00 0. -1.
<mgrwt>
<rscale>  0 0.65281659E+02</rscale>
<asrwt>0</asrwt>
<pdfrwt beam="1">  1        2 0.27970495E+00 0.14672560E+03</pdfrwt>
<pdfrwt beam="2">  1        2 0.11526852E+00 0.29045340E+02</pdfrwt>
<totfact> 0.63750975E+01</totfact>
</mgrwt>
</event>
<event>
13    1  0.2038932E-008  0.1319267E+03  0.7546771E-02  0.1230354E+00
          2   -1    0    0  502    0  0.00000000000E+00  0.00000000000E+00  0.76603847485E+03  0.76603847485E+03  0.00000000000E+00 0. -1.
          2   -1    0    0  503    0 -0.00000000000E+00 -0.00000000000E+00 -0.25608554138E+04  0.25608554138E+04  0.00000000000E+00 0. -1.
         24    2    1    2    0    0 -0.30205004666E+02 -0.12596069001E+03 -0.47763451143E+03  0.50116179204E+03  0.79056799527E+02 0.  0.
         25    2    1    2    0    0 -0.10227833372E+03 -0.83689449143E+02 -0.14383090083E+03  0.23190123281E+03  0.12500428912E+03 0.  0.
         24    2    1    2    0    0  0.78059364372E+02 -0.87723136962E+01 -0.55544644866E+03  0.56673340190E+03  0.80596362499E+02 0.  0.
        -11    1    3    3    0    0 -0.19420493643E+02 -0.13525388981E+03 -0.41446868979E+03  0.43641157764E+03  0.00000000000E+00 0.  1.
         12    1    3    3    0    0 -0.10784511023E+02  0.92931998022E+01 -0.63165821649E+02  0.64750214402E+02  0.00000000000E+00 0. -1.
        -13    1    5    5    0    0  0.35271039218E+02  0.35908250335E+02 -0.27142878474E+03  0.27605621499E+03  0.00000000000E+00 0.  1.
         14    1    5    5    0    0  0.42788325154E+02 -0.44680564032E+02 -0.28401766392E+03  0.29067718691E+03  0.00000000000E+00 0. -1.
          5    1    4    4  501    0 -0.59923141256E+02 -0.34396586270E+02 -0.15122007147E+03  0.16632350411E+03  0.47000000000E+01 0.  1.
         -5    1    4    4    0  501 -0.42355192459E+02 -0.49292862873E+02  0.73891706377E+01  0.65577728698E+02  0.47000000000E+01 0.  1.
          1    1    1    2  502    0  0.11759026275E+03  0.39733579364E+02  0.69225787929E+03  0.70329737570E+03  0.00000000000E+00 0. -1.
          1    1    1    2  503    0 -0.63166288742E+02  0.17868887348E+03 -0.13101629573E+04  0.13238000862E+04  0.00000000000E+00 0. -1.
<mgrwt>
<rscale>  0 0.12806596E+03</rscale>
<asrwt>0</asrwt>
<pdfrwt beam="1">  1        2 0.11265272E+00 0.12431823E+03</pdfrwt>
<pdfrwt beam="2">  1        2 0.37659639E+00 0.13192668E+03</pdfrwt>
<totfact> 0.29802018E+01</totfact>
</mgrwt>
</event>
<event>
13    1  0.2038932E-008  0.1825850E+03  0.7546771E-02  0.1191214E+00
          2   -1    0    0  502    0  0.00000000000E+00  0.00000000000E+00  0.15100128695E+04  0.15100128695E+04  0.00000000000E+00 0. -1.
          2   -1    0    0  503    0 -0.00000000000E+00 -0.00000000000E+00 -0.11605770699E+04  0.11605770699E+04  0.00000000000E+00 0. -1.
         24    2    1    2    0    0 -0.99068629523E+02  0.42760651568E+00 -0.38611480754E+02  0.13186751093E+03  0.77996267796E+02 0.  0.
         25    2    1    2    0    0 -0.31250638958E+03  0.15627220098E+03  0.16842497219E+03  0.40751936285E+03  0.12499526197E+03 0.  0.
         24    2    1    2    0    0 -0.34978344678E+02  0.10233480376E+03  0.17662207905E+02  0.13576503633E+03  0.80151698949E+02 0.  0.
        -11    1    5    5    0    0 -0.55014368848E+02  0.56588121836E+02 -0.85109923788E+01  0.79380308036E+02  0.00000000000E+00 0.  1.
         12    1    5    5    0    0  0.20036024170E+02  0.45746681925E+02  0.26173200284E+02  0.56384728294E+02  0.00000000000E+00 0. -1.
        -13    1    3    3    0    0 -0.99397446887E+01 -0.29160658661E+02 -0.18134616554E+02  0.35749221748E+02  0.00000000000E+00 0.  1.
         14    1    3    3    0    0 -0.89128884834E+02  0.29588265177E+02 -0.20476864200E+02  0.96118289183E+02  0.00000000000E+00 0. -1.
          5    1    4    4  501    0 -0.83475501862E+02 -0.13469462303E+02  0.53158621948E+02  0.99987573794E+02  0.47000000000E+01 0. -1.
         -5    1    4    4    0  501 -0.22903088771E+03  0.16974166328E+03  0.11526635024E+03  0.30753178905E+03  0.47000000000E+01 0. -1.
          1    1    1    2  502    0  0.14038475070E+03 -0.15800770587E+03  0.10589348011E+04  0.10798227754E+04  0.00000000000E+00 0. -1.
          1    1    1    2  503    0  0.30616861308E+03 -0.10102690538E+03 -0.85697470083E+03  0.91561525386E+03  0.00000000000E+00 0. -1.
<mgrwt>
<rscale>  0 0.15779081E+03</rscale>
<asrwt>0</asrwt>
<pdfrwt beam="1">  1        2 0.22206072E+00 0.13636357E+03</pdfrwt>
<pdfrwt beam="2">  1        2 0.17067310E+00 0.18258499E+03</pdfrwt>
<totfact> 0.55670560E+01</totfact>
</mgrwt>
</event>
<event>
13    1  0.2038932E-008  0.1121780E+03  0.7546771E-02  0.1330716E+00
          2   -1    0    0  503    0  0.00000000000E+00  0.00000000000E+00  0.11582242343E+04  0.11582242343E+04  0.00000000000E+00 0. -1.
          2   -1    0    0  502    0 -0.00000000000E+00 -0.00000000000E+00 -0.86277258973E+03  0.86277258973E+03  0.00000000000E+00 0. -1.
         24    2    1    2    0    0  0.51629497843E+01  0.59731690973E+02 -0.24801227297E+03  0.26743151262E+03  0.80093666666E+02 0.  0.
         25    2    1    2    0    0  0.54258709622E+02 -0.86697866411E+02 -0.30798227213E+03  0.34776363342E+03  0.12500374866E+03 0.  0.
         24    2    1    2    0    0  0.23438222219E+02 -0.87005024270E+02  0.25082354535E+03  0.27821521185E+03  0.79824987899E+02 0.  0.
        -11    1    5    5    0    0 -0.20703702208E+02 -0.62431738521E+02  0.10512896167E+03  0.12400993445E+03  0.00000000000E+00 0.  1.
         12    1    5    5    0    0  0.44141924427E+02 -0.24573285749E+02  0.14569458368E+03  0.15420527740E+03  0.00000000000E+00 0. -1.
        -13    1    3    3    0    0  0.23486382503E+02 -0.11424196637E+02 -0.54376317933E+02  0.60323348579E+02  0.00000000000E+00 0.  1.
         14    1    3    3    0    0 -0.18323432718E+02  0.71155887610E+02 -0.19363595504E+03  0.20710816404E+03  0.00000000000E+00 0. -1.
          5    1    4    4  501    0 -0.22640249627E+02 -0.78402089154E+02 -0.18712027437E+03  0.20419489603E+03  0.47000000000E+01 0.  1.
         -5    1    4    4    0  501  0.76898959249E+02 -0.82957772571E+01 -0.12086199776E+03  0.14356873739E+03  0.47000000000E+01 0.  1.
          1    1    1    2  502    0  0.12343182845E+02  0.54851283230E+02 -0.25679424544E+03  0.26287697108E+03  0.00000000000E+00 0. -1.
          1    1    1    2  503    0 -0.95203064470E+02  0.59119916477E+02  0.85741688978E+03  0.86470949508E+03  0.00000000000E+00 0. -1.
<mgrwt>
<rscale>  0 0.79416482E+02</rscale>
<asrwt>0</asrwt>
<pdfrwt beam="1">  1        2 0.17032709E+00 0.11217804E+03</pdfrwt>
<pdfrwt beam="2">  1        2 0.12687832E+00 0.56222926E+02</pdfrwt>
<totfact> 0.13469856E+02</totfact>
</mgrwt>
</event>
<event>
13    1  0.2038932E-008  0.1618087E+03  0.7546771E-02  0.1235803E+00
          2   -1    0    0  503    0  0.00000000000E+00  0.00000000000E+00  0.37768072479E+04  0.37768072479E+04  0.00000000000E+00 0. -1.
          2   -1    0    0  502    0 -0.00000000000E+00 -0.00000000000E+00 -0.10031779069E+04  0.10031779069E+04  0.00000000000E+00 0. -1.
         24    2    1    2    0    0  0.34638150146E+03 -0.71896440894E+01 -0.21219101347E+03  0.41421241862E+03  0.80715958782E+02 0.  0.
         25    2    1    2    0    0  0.16353412222E+03 -0.19521940116E+03  0.68938223090E+03  0.74547109619E+03  0.12500108503E+03 0.  0.
         24    2    1    2    0    0 -0.52775386529E+03  0.10233789141E+03  0.48277728181E+03  0.72698278741E+03  0.80205255480E+02 0.  0.
        -11    1    3    3    0    0  0.40225833257E+02 -0.27697890214E+02 -0.26696141693E+02  0.55659453508E+02  0.00000000000E+00 0.  1.
         12    1    3    3    0    0  0.30615566821E+03  0.20508246124E+02 -0.18549487178E+03  0.35855296511E+03  0.00000000000E+00 0. -1.
        -13    1    5    5    0    0 -0.16901585189E+03 -0.25133148746E+01  0.16832271836E+03  0.23854813447E+03  0.00000000000E+00 0.  1.
         14    1    5    5    0    0 -0.35873801340E+03  0.10485120628E+03  0.31445456346E+03  0.48843465294E+03  0.00000000000E+00 0. -1.
          5    1    4    4  501    0  0.30337374048E+02 -0.63928487266E+02  0.74930272352E+02  0.10316900437E+03  0.47000000000E+01 0. -1.
         -5    1    4    4    0  501  0.13319674817E+03 -0.13129091390E+03  0.61445195855E+03  0.64230209182E+03  0.47000000000E+01 0. -1.
          1    1    1    2  502    0  0.11205547055E+03  0.11764512897E+03 -0.52660127861E+03  0.55109501131E+03  0.00000000000E+00 0. -1.
          1    1    1    2  503    0 -0.94217228942E+02 -0.17573975123E+02  0.23402621204E+04  0.23422238413E+04  0.00000000000E+00 0. -1.
<mgrwt>
<rscale>  0 0.12453155E+03</rscale>
<asrwt>0</asrwt>
<pdfrwt beam="1">  1        2 0.55541283E+00 0.95842218E+02</pdfrwt>
<pdfrwt beam="2">  1        2 0.14752616E+00 0.16180873E+03</pdfrwt>
<totfact> 0.46291422E+00</totfact>
</mgrwt>
</event>
<event>
13    1  0.2038932E-008  0.8146134E+02  0.7546771E-02  0.1392154E+00
          2   -1    0    0  503    0  0.00000000000E+00  0.00000000000E+00  0.10336908736E+04  0.10336908736E+04  0.00000000000E+00 0. -1.
         -3   -1    0    0    0  501 -0.00000000000E+00 -0.00000000000E+00 -0.97815034759E+03  0.97815034759E+03  0.00000000000E+00 0.  1.
         24    2    1    2    0    0  0.15848043944E+03 -0.47541378215E+01  0.29393534759E+03  0.34352352954E+03  0.80447344716E+02 0.  0.
         25    2    1    2    0    0 -0.16759768544E+03  0.93627595958E+02  0.63138745370E+02  0.23762369392E+03  0.12499363126E+03 0.  0.
         24    2    1    2    0    0  0.57912873147E+01  0.24536127518E+02  0.41241546802E+03  0.42077428922E+03  0.79554532479E+02 0.  0.
        -11    1    5    5    0    0  0.21349118414E+02  0.49572448961E+02  0.26838834512E+03  0.27376178760E+03  0.00000000000E+00 0.  1.
         12    1    5    5    0    0 -0.15557831100E+02 -0.25036321443E+02  0.14402712290E+03  0.14701250162E+03  0.00000000000E+00 0. -1.
        -13    1    3    3    0    0  0.28779455681E+02 -0.28720574185E+02  0.38250453670E+02  0.55823164160E+02  0.00000000000E+00 0.  1.
         14    1    3    3    0    0  0.12970098376E+03  0.23966436364E+02  0.25568489392E+03  0.28770036538E+03  0.00000000000E+00 0. -1.
          5    1    4    4  502    0 -0.16355442485E+03  0.32564327801E+02  0.36843088773E+02  0.17085077853E+03  0.47000000000E+01 0. -1.
         -5    1    4    4    0  502 -0.40432605883E+01  0.61063268157E+02  0.26295656597E+02  0.66772915393E+02  0.47000000000E+01 0. -1.
          1    1    1    2  503    0  0.28874789296E+02 -0.36116218278E+02  0.14239519769E+03  0.14971481892E+03  0.00000000000E+00 0. -1.
         -4    1    1    2    0  501 -0.25548830616E+02 -0.77293367377E+02 -0.85634423263E+03  0.86020488963E+03  0.00000000000E+00 0.  1.
<mgrwt>
<rscale>  0 0.61374017E+02</rscale>
<asrwt>0</asrwt>
<pdfrwt beam="1">  1        2 0.15201336E+00 0.46239968E+02</pdfrwt>
<pdfrwt beam="2">  1       -3 0.14384564E+00 0.81461343E+02</pdfrwt>
<totfact> 0.69213155E+00</totfact>
</mgrwt>
</event>
<event>
13    1  0.2038932E-008  0.2464293E+03  0.7546771E-02  0.1192517E+00
          2   -1    0    0  503    0  0.00000000000E+00  0.00000000000E+00  0.20785140467E+04  0.20785140467E+04  0.00000000000E+00 0. -1.
          2   -1    0    0  502    0 -0.00000000000E+00 -0.00000000000E+00 -0.14237666354E+04  0.14237666354E+04  0.00000000000E+00 0. -1.
         24    2    1    2    0    0  0.13555227391E+01  0.12629042055E+03 -0.27633935913E+03  0.31412902932E+03  0.79765267471E+02 0.  0.
         25    2    1    2    0    0 -0.97479374566E+01 -0.35673986545E+03  0.56686910067E+03  0.68141321379E+03  0.12500014694E+03 0.  0.
         24    2    1    2    0    0 -0.83650060109E+02 -0.10747000088E+02  0.97365996140E+02  0.15302995350E+03  0.82614761982E+02 0.  0.
        -11    1    5    5    0    0 -0.90749819972E+02 -0.43526867072E+01  0.48012919312E+02  0.10276047940E+03  0.00000000000E+00 0.  1.
         12    1    5    5    0    0  0.70997598626E+01 -0.63943133803E+01  0.49353076828E+02  0.50269474098E+02  0.00000000000E+00 0. -1.
        -11    1    3    3    0    0 -0.10861849668E+02  0.47854463842E+02 -0.19256194916E+03  0.19871621412E+03  0.00000000000E+00 0.  1.
         12    1    3    3    0    0  0.12217372407E+02  0.78435956706E+02 -0.83777409969E+02  0.11541281521E+03  0.00000000000E+00 0. -1.
          5    1    4    4  501    0 -0.52812734922E+02 -0.68545435894E+02  0.13415054066E+03  0.15970635338E+03  0.47000000000E+01 0. -1.
         -5    1    4    4    0  501  0.43064797466E+02 -0.28819442956E+03  0.43271856002E+03  0.52170686040E+03  0.47000000000E+01 0. -1.
          1    1    1    2  502    0  0.19085046047E+03  0.25369318253E+03 -0.10173081795E+04  0.10656922920E+04  0.00000000000E+00 0. -1.
          1    1    1    2  503    0 -0.98807985645E+02 -0.12496737537E+02  0.12841598531E+04  0.12880161936E+04  0.00000000000E+00 0. -1.
<mgrwt>
<rscale>  0 0.15666253E+03</rscale>
<asrwt>0</asrwt>
<pdfrwt beam="1">  1        2 0.30566383E+00 0.99595113E+02</pdfrwt>
<pdfrwt beam="2">  1        2 0.20937745E+00 0.24642925E+03</pdfrwt>
<totfact> 0.21472900E+01</totfact>
</mgrwt>
</event>
<event>
13    1  0.2038932E-008  0.1632772E+03  0.7546771E-02  0.1318396E+00
          2   -1    0    0  503    0  0.00000000000E+00  0.00000000000E+00  0.21268104057E+04  0.21268104057E+04  0.00000000000E+00 0. -1.
          2   -1    0    0  502    0 -0.00000000000E+00 -0.00000000000E+00 -0.70092681510E+03  0.70092681510E+03  0.00000000000E+00 0. -1.
         24    2    1    2    0    0  0.24525328610E+02 -0.29725569605E+03 -0.27653814119E+03  0.41398951837E+03  0.77146206700E+02 0.  0.
         25    2    1    2    0    0 -0.13724210440E+03  0.10628450198E+03  0.17768301435E+03  0.27808081981E+03  0.12500359265E+03 0.  0.
         24    2    1    2    0    0  0.36236440188E+02  0.73696266922E+02  0.18739835677E+03  0.21900914624E+03  0.78119412836E+02 0.  0.
        -11    1    5    5    0    0  0.56320730565E+02  0.73364315709E+02  0.16293424061E+03  0.18735504870E+03  0.00000000000E+00 0.  1.
         12    1    5    5    0    0 -0.20084290378E+02  0.33195121354E+00  0.24464116155E+02  0.31654097536E+02  0.00000000000E+00 0. -1.
        -13    1    3    3    0    0  0.25261407040E+02 -0.97431380791E+02 -0.51589651268E+02  0.11310395557E+03  0.00000000000E+00 0.  1.
         14    1    3    3    0    0 -0.73607843003E+00 -0.19982431526E+03 -0.22494848992E+03  0.30088556279E+03  0.00000000000E+00 0. -1.
          5    1    4    4  501    0 -0.16040604198E+02 -0.21222225621E+02  0.61593223327E+02  0.67256962488E+02  0.47000000000E+01 0. -1.
         -5    1    4    4    0  501 -0.12120150020E+03  0.12750672760E+03  0.11608979103E+03  0.21082385732E+03  0.47000000000E+01 0. -1.
          1    1    1    2  502    0  0.49980091405E+02  0.15125064204E+03 -0.26744704952E+03  0.31129196995E+03  0.00000000000E+00 0. -1.
          1    1    1    2  503    0  0.26500244197E+02 -0.33975714892E+02  0.16047874102E+04  0.16053657664E+04  0.00000000000E+00 0. -1.
<mgrwt>
<rscale>  0 0.83877034E+02</rscale>
<asrwt>0</asrwt>
<pdfrwt beam="1">  1        2 0.31276623E+00 0.43088422E+02</pdfrwt>
<pdfrwt beam="2">  1        2 0.10307747E+00 0.16327720E+03</pdfrwt>
<totfact> 0.61334567E+01</totfact>
</mgrwt>
</event>
<event>
13    1  0.2038932E-008  0.4220772E+02  0.7546771E-02  0.1517789E+00
          2   -1    0    0  502    0  0.00000000000E+00  0.00000000000E+00  0.41710438121E+03  0.41710438121E+03  0.00000000000E+00 0. -1.
          2   -1    0    0  503    0 -0.00000000000E+00 -0.00000000000E+00 -0.28537183786E+04  0.28537183786E+04  0.00000000000E+00 0. -1.
         24    2    1    2    0    0 -0.57657299092E+02 -0.28985120933E+02 -0.12143688490E+04  0.12187836143E+04  0.81100527955E+02 0.  0.
         25    2    1    2    0    0  0.66920757184E+02  0.88088905201E+02  0.11961282467E+03  0.20534371304E+03  0.12498307765E+03 0.  0.
         24    2    1    2    0    0 -0.72244328839E+02 -0.48804107911E+02 -0.33987380521E+03  0.35974706277E+03  0.79389304725E+02 0.  0.
        -11    1    3    3    0    0 -0.59831457728E+02  0.38153262230E+01 -0.48763424125E+03  0.49130592637E+03  0.00000000000E+00 0.  1.
         12    1    3    3    0    0  0.21741586357E+01 -0.32800447156E+02 -0.72673460772E+03  0.72747768788E+03  0.00000000000E+00 0. -1.
        -13    1    5    5    0    0 -0.19282228612E+02  0.21245164701E+02 -0.61779010048E+02  0.68116132054E+02  0.00000000000E+00 0.  1.
         14    1    5    5    0    0 -0.52962100227E+02 -0.70049272612E+02 -0.27809479516E+03  0.29163093071E+03  0.00000000000E+00 0. -1.
          5    1    4    4  501    0  0.69812225008E+02 -0.74798868665E+01  0.60766167062E+02  0.92974795120E+02  0.47000000000E+01 0.  1.
         -5    1    4    4    0  501 -0.28914678244E+01  0.95568792068E+02  0.58846657608E+02  0.11236891792E+03  0.47000000000E+01 0.  1.
          1    1    1    2  502    0  0.31055158207E+02  0.17270735173E+02  0.24082049400E+03  0.24342804168E+03  0.00000000000E+00 0. -1.
          1    1    1    2  503    0  0.31925712540E+02 -0.27570411531E+02 -0.12428046619E+04  0.12435203281E+04  0.00000000000E+00 0. -1.
<mgrwt>
<rscale>  0 0.38727645E+02</rscale>
<asrwt>0</asrwt>
<pdfrwt beam="1">  1        2 0.61338878E-01 0.35534506E+02</pdfrwt>
<pdfrwt beam="2">  1        2 0.41966448E+00 0.42207719E+02</pdfrwt>
<totfact> 0.49547735E+01</totfact>
</mgrwt>
</event>
<event>
13    1  0.2038932E-008  0.1708960E+03  0.7546771E-02  0.1230945E+00
          2   -1    0    0  502    0  0.00000000000E+00  0.00000000000E+00  0.59921245615E+03  0.59921245615E+03  0.00000000000E+00 0. -1.
          2   -1    0    0  503    0 -0.00000000000E+00 -0.00000000000E+00 -0.21359410391E+04  0.21359410391E+04  0.00000000000E+00 0. -1.
         24    2    1    2    0    0 -0.16305107621E+03  0.23111455665E+03 -0.96339873340E+03  0.10072765029E+04  0.80431598246E+02 0.  0.
         25    2    1    2    0    0 -0.84661716758E+02  0.62594679725E+02  0.29965576340E+03  0.34131728705E+03  0.12497285181E+03 0.  0.
         24    2    1    2    0    0  0.26593444713E+02 -0.41165743176E+02 -0.83754777559E+02  0.12644771997E+03  0.81069929127E+02 0.  0.
        -11    1    5    5    0    0  0.39543968405E+02  0.61261033990E+01 -0.59601762731E+02  0.71788750517E+02  0.00000000000E+00 0.  1.
         12    1    5    5    0    0 -0.12950523692E+02 -0.47291846575E+02 -0.24153014828E+02  0.54658969453E+02  0.00000000000E+00 0. -1.
        -11    1    3    3    0    0 -0.56483764657E+01  0.60504294009E+02 -0.16577395561E+03  0.17656069242E+03  0.00000000000E+00 0.  1.
         12    1    3    3    0    0 -0.15740269975E+03  0.17061026264E+03 -0.79762477779E+03  0.83071581046E+03  0.00000000000E+00 0. -1.
          5    1    4    4  501    0  0.69355935002E+01  0.49280954146E+02  0.35325274590E+02  0.61210129257E+02  0.47000000000E+01 0. -1.
         -5    1    4    4    0  501 -0.91597310258E+02  0.13313725579E+02  0.26433048881E+03  0.28010715780E+03  0.47000000000E+01 0. -1.
          1    1    1    2  502    0  0.68444004478E+02  0.66514034563E+02  0.19345066629E+03  0.21571244477E+03  0.00000000000E+00 0. -1.
          1    1    1    2  503    0  0.15267534378E+03 -0.31905752776E+03 -0.98268150163E+03  0.10443995405E+04  0.00000000000E+00 0. -1.
<mgrwt>
<rscale>  0 0.12767649E+03</rscale>
<asrwt>0</asrwt>
<pdfrwt beam="1">  1        2 0.88119480E-01 0.95387150E+02</pdfrwt>
<pdfrwt beam="2">  1        2 0.31410897E+00 0.17089603E+03</pdfrwt>
<totfact> 0.62997733E+01</totfact>
</mgrwt>
</event>
<event>
13    1  0.2038932E-008  0.1065786E+03  0.7546771E-02  0.1287079E+00
          2   -1    0    0  503    0  0.00000000000E+00  0.00000000000E+00  0.19003576338E+04  0.19003576338E+04  0.00000000000E+00 0. -1.
         -1   -1    0    0    0  501 -0.00000000000E+00 -0.00000000000E+00 -0.91028593169E+03  0.91028593169E+03  0.00000000000E+00 0.  1.
         24    2    1    2    0    0  0.18533365174E+02 -0.26715975001E+02 -0.28754637206E+03  0.29958216748E+03  0.77519868667E+02 0.  0.
         25    2    1    2    0    0 -0.14041343928E+03  0.36164891532E+02  0.57159716808E+03  0.60280319441E+03  0.12499814125E+03 0.  0.
         24    2    1    2    0    0  0.10447883286E+02  0.54762528223E+02  0.39019732320E+03  0.40136214482E+03  0.75693642368E+02 0.  0.
        -13    1    3    3    0    0  0.17605922820E+01  0.27365380494E+02 -0.96770307994E+02  0.10058059576E+03  0.00000000000E+00 0.  1.
         14    1    3    3    0    0  0.16772772892E+02 -0.54081355495E+02 -0.19077606407E+03  0.19900157171E+03  0.00000000000E+00 0. -1.
        -13    1    5    5    0    0 -0.27294986603E+02  0.47254183404E+02  0.20003178492E+03  0.20734196179E+03  0.00000000000E+00 0.  1.
         14    1    5    5    0    0  0.37742869889E+02  0.75083448194E+01  0.19016553828E+03  0.19402018302E+03  0.00000000000E+00 0. -1.
          5    1    4    4  502    0  0.57323966585E+01 -0.29615262989E+02  0.10970665629E+03  0.11387521508E+03  0.47000000000E+01 0.  1.
         -5    1    4    4    0  502 -0.14614583594E+03  0.65780154522E+02  0.46189051179E+03  0.48892797933E+03  0.47000000000E+01 0.  1.
          1    1    1    2  503    0 -0.36189159069E+01 -0.11511667909E+03  0.90100852581E+03  0.90833986478E+03  0.00000000000E+00 0. -1.
         -2    1    1    2    0  501  0.11505110673E+03  0.50905234340E+02 -0.58518494289E+03  0.59855619405E+03  0.00000000000E+00 0.  1.
<mgrwt>
<rscale>  0 0.96842804E+02</rscale>
<asrwt>0</asrwt>
<pdfrwt beam="1">  1        2 0.27946436E+00 0.87996399E+02</pdfrwt>
<pdfrwt beam="2">  1       -1 0.13386558E+00 0.10657855E+03</pdfrwt>
<totfact> 0.63973968E+00</totfact>
</mgrwt>
</event>
<event>
13    1  0.2038932E-008  0.3018856E+03  0.7546771E-02  0.1257417E+00
          2   -1    0    0  502    0  0.00000000000E+00  0.00000000000E+00  0.25788936143E+04  0.25788936143E+04  0.00000000000E+00 0. -1.
          2   -1    0    0  503    0 -0.00000000000E+00 -0.00000000000E+00 -0.28334157890E+04  0.28334157890E+04  0.00000000000E+00 0. -1.
         24    2    1    2    0    0 -0.18898390723E+03  0.90944962282E+02 -0.17510316310E+03  0.28501395813E+03  0.81153775292E+02 0.  0.
         25    2    1    2    0    0  0.30729619975E+03  0.77114989831E+02 -0.32265190793E+02  0.34211532868E+03  0.12499671813E+03 0.  0.
         24    2    1    2    0    0 -0.77080036224E+02  0.10175109203E+03 -0.93673922415E+03  0.94881274740E+03  0.80440281302E+02 0.  0.
        -11    1    5    5    0    0 -0.58611678627E+02  0.16276827433E+02 -0.30077223701E+03  0.30686186231E+03  0.00000000000E+00 0.  1.
         12    1    5    5    0    0 -0.18468357597E+02  0.85474264596E+02 -0.63596698713E+03  0.64195088509E+03  0.00000000000E+00 0. -1.
        -13    1    3    3    0    0 -0.98559761155E+02  0.87355099937E+01 -0.52945771175E+02  0.11222116707E+03  0.00000000000E+00 0.  1.
         14    1    3    3    0    0 -0.90424146075E+02  0.82209452289E+02 -0.12215739193E+03  0.17279279106E+03  0.00000000000E+00 0. -1.
          5    1    4    4  501    0  0.28005846532E+03  0.10591088583E+03 -0.37760239539E+02  0.30182409683E+03  0.47000000000E+01 0. -1.
         -5    1    4    4    0  501  0.27237734432E+02 -0.28795896002E+02  0.54950487467E+01  0.40291231854E+02  0.47000000000E+01 0. -1.
          1    1    1    2  502    0 -0.18445274496E+02 -0.30430942521E+03  0.23528497702E+04  0.23725190190E+04  0.00000000000E+00 0. -1.
          1    1    1    2  503    0 -0.22786981800E+02  0.34498381069E+02 -0.14632643668E+04  0.14638483501E+04  0.00000000000E+00 0. -1.
<mgrwt>
<rscale>  0 0.11172005E+03</rscale>
<asrwt>0</asrwt>
<pdfrwt beam="1">  1        2 0.37924906E+00 0.30188557E+03</pdfrwt>
<pdfrwt beam="2">  1        2 0.41667879E+00 0.41344707E+02</pdfrwt>
<totfact> 0.26287936E+00</totfact>
</mgrwt>
</event>
<event>
13    1  0.2038932E-008  0.1976447E+03  0.7546771E-02  0.1321742E+00
          2   -1    0    0  502    0  0.00000000000E+00  0.00000000000E+00  0.88450647583E+03  0.88450647583E+03  0.00000000000E+00 0. -1.
          2   -1    0    0  503    0 -0.00000000000E+00 -0.00000000000E+00 -0.16953135331E+04  0.16953135331E+04  0.00000000000E+00 0. -1.
         24    2    1    2    0    0  0.24965960522E+02  0.38155201568E+02 -0.30752169932E+03  0.32106302234E+03  0.80204427368E+02 0.  0.
         25    2    1    2    0    0  0.17198996302E+03  0.13115200068E+03 -0.36048287486E+03  0.43858482582E+03  0.12500940649E+03 0.  0.
         24    2    1    2    0    0  0.47315211115E+02 -0.15276388007E+03  0.28089423018E+03  0.33302868106E+03  0.80193525950E+02 0.  0.
        -11    1    5    5    0    0 -0.52915629645E+01 -0.75944952881E+02  0.18159776493E+03  0.19690958518E+03  0.00000000000E+00 0.  1.
         12    1    5    5    0    0  0.52606774080E+02 -0.76818927189E+02  0.99296465253E+02  0.13611909589E+03  0.00000000000E+00 0. -1.
        -13    1    3    3    0    0  0.42853099744E+02 -0.72028856660E+01 -0.13976086052E+03  0.14636040398E+03  0.00000000000E+00 0.  1.
         14    1    3    3    0    0 -0.17887139221E+02  0.45358087234E+02 -0.16776083880E+03  0.17470261836E+03  0.00000000000E+00 0. -1.
          5    1    4    4  501    0  0.13869550761E+03  0.14944824664E+03 -0.25597392011E+03  0.32728574676E+03  0.47000000000E+01 0. -1.
         -5    1    4    4    0  501  0.33294455411E+02 -0.18296245958E+02 -0.10450895475E+03  0.11129907906E+03  0.47000000000E+01 0. -1.
          1    1    1    2  502    0 -0.21754640388E+03  0.53500807971E+01  0.50912532896E+03  0.55368191391E+03  0.00000000000E+00 0. -1.
          1    1    1    2  503    0 -0.26724730777E+02 -0.21893402979E+02 -0.93282204225E+03  0.93346156581E+03  0.00000000000E+00 0. -1.
<mgrwt>
<rscale>  0 0.82632554E+02</rscale>
<asrwt>0</asrwt>
<pdfrwt beam="1">  1        2 0.13007448E+00 0.19764474E+03</pdfrwt>
<pdfrwt beam="2">  1        2 0.24931081E+00 0.34547537E+02</pdfrwt>
<totfact> 0.73968042E+01</totfact>
</mgrwt>
</event>
<event>
13    1  0.2038932E-008  0.1331840E+03  0.7546771E-02  0.1323198E+00
          2   -1    0    0  503    0  0.00000000000E+00  0.00000000000E+00  0.75709365430E+03  0.75709365430E+03  0.00000000000E+00 0. -1.
          2   -1    0    0  502    0 -0.00000000000E+00 -0.00000000000E+00 -0.11235997477E+04  0.11235997477E+04  0.00000000000E+00 0. -1.
         24    2    1    2    0    0 -0.97692778277E+02  0.14423184498E+03 -0.34199510915E+02  0.19436558346E+03  0.79130711190E+02 0.  0.
         25    2    1    2    0    0 -0.23539500654E+03 -0.71632799187E+02 -0.37447666567E+03  0.46518806739E+03  0.12500039154E+03 0.  0.
         24    2    1    2    0    0  0.16043772215E+03 -0.12830289561E+03  0.16088857427E+03  0.27352806775E+03  0.82040080468E+02 0.  0.
        -11    1    5    5    0    0  0.75518761052E+02 -0.17776495144E+02  0.83995657979E+02  0.11434315725E+03  0.00000000000E+00 0.  1.
         12    1    5    5    0    0  0.84918961103E+02 -0.11052640047E+03  0.76892916295E+02  0.15918491050E+03  0.00000000000E+00 0. -1.
        -13    1    3    3    0    0 -0.69290675118E+02  0.13729932795E+03 -0.62513112496E+01  0.15392005070E+03  0.00000000000E+00 0.  1.
         14    1    3    3    0    0 -0.28402103160E+02  0.69325170326E+01 -0.27948199666E+02  0.40445532767E+02  0.00000000000E+00 0. -1.
          5    1    4    4  501    0 -0.66060154057E+02  0.21937611959E+02 -0.16946154494E+03  0.18326076499E+03  0.47000000000E+01 0. -1.
         -5    1    4    4    0  501 -0.16933485248E+03 -0.93570411146E+02 -0.20501512074E+03  0.28192730240E+03  0.47000000000E+01 0. -1.
          1    1    1    2  502    0  0.43882801696E+02  0.25210101126E+02 -0.52134564773E+03  0.52379627136E+03  0.00000000000E+00 0. -1.
          1    1    1    2  503    0  0.12876726096E+03  0.30493748689E+02  0.40262715665E+03  0.42381541203E+03  0.00000000000E+00 0. -1.
<mgrwt>
<rscale>  0 0.82099214E+02</rscale>
<asrwt>0</asrwt>
<pdfrwt beam="1">  1        2 0.11133730E+00 0.13318400E+03</pdfrwt>
<pdfrwt beam="2">  1        2 0.16523526E+00 0.50608789E+02</pdfrwt>
<totfact> 0.16700390E+02</totfact>
</mgrwt>
</event>
<event>
13    1  0.2038932E-008  0.2079369E+03  0.7546771E-02  0.1196594E+00
          2   -1    0    0  503    0  0.00000000000E+00  0.00000000000E+00  0.40391594532E+04  0.40391594532E+04  0.00000000000E+00 0. -1.
         -1   -1    0    0    0  501 -0.00000000000E+00 -0.00000000000E+00 -0.25614058606E+03  0.25614058606E+03  0.00000000000E+00 0.  1.
         24    2    1    2    0    0  0.12050745701E+02 -0.73305366175E+02  0.34142093870E+02  0.11468202652E+03  0.80420068708E+02 0.  0.
         25    2    1    2    0    0  0.14803722400E+03  0.32967865869E+02  0.26307507474E+04  0.26380821135E+04  0.12500337119E+03 0.  0.
         24    2    1    2    0    0 -0.59805031938E+02  0.15183284945E+03 -0.15919105333E+02  0.18282891552E+03  0.80889668183E+02 0.  0.
        -13    1    5    5    0    0 -0.56630279800E+02  0.16192953831E+03 -0.15280970554E+02  0.17222564277E+03  0.00000000000E+00 0.  1.
         14    1    5    5    0    0 -0.31747521378E+01 -0.10096688857E+02 -0.63813477927E+00  0.10603272750E+02  0.00000000000E+00 0. -1.
        -13    1    3    3    0    0 -0.24165764341E+01 -0.24563415468E+01 -0.22540734144E+02  0.22802590888E+02  0.00000000000E+00 0.  1.
         14    1    3    3    0    0  0.14467322135E+02 -0.70849024629E+02  0.56682828013E+02  0.91879435633E+02  0.00000000000E+00 0. -1.
          5    1    4    4  502    0  0.11035959166E+03 -0.93383391299E+01  0.22851634002E+04  0.22878505851E+04  0.47000000000E+01 0. -1.
         -5    1    4    4    0  502  0.37677632344E+02  0.42306204999E+02  0.34558734719E+03  0.35023152842E+03  0.47000000000E+01 0. -1.
          1    1    1    2  503    0  0.90276699826E+00 -0.21320024176E+03  0.11875892015E+04  0.12065750161E+04  0.00000000000E+00 0. -1.
         -2    1    1    2    0  501 -0.10118570476E+03  0.10170489262E+03 -0.53544070287E+02  0.15313196757E+03  0.00000000000E+00 0.  1.
<mgrwt>
<rscale>  0 0.15320066E+03</rscale>
<asrwt>0</asrwt>
<pdfrwt beam="1">  1        2 0.59399400E+00 0.20793688E+03</pdfrwt>
<pdfrwt beam="2">  1       -1 0.37667736E-01 0.11287292E+03</pdfrwt>
<totfact> 0.47239882E+00</totfact>
</mgrwt>
</event>
<event>
13    1  0.2038932E-008  0.5088639E+02  0.7546771E-02  0.1544774E+00
          2   -1    0    0  502    0  0.00000000000E+00  0.00000000000E+00  0.97715439562E+03  0.97715439562E+03  0.00000000000E+00 0. -1.
          2   -1    0    0  503    0 -0.00000000000E+00 -0.00000000000E+00 -0.29590951878E+04  0.29590951878E+04  0.00000000000E+00 0. -1.
         24    2    1    2    0    0  0.63202664188E+02 -0.50944565310E+02 -0.64609298908E+03  0.65586040791E+03  0.78273869398E+02 0.  0.
         25    2    1    2    0    0 -0.42430970328E+02  0.10927022573E+03 -0.17387865025E+04  0.17472097255E+04  0.12499181654E+03 0.  0.
         24    2    1    2    0    0 -0.50202399606E+02 -0.51378451398E+02 -0.26262594980E+03  0.28456058935E+03  0.82718276750E+02 0.  0.
        -11    1    5    5    0    0 -0.15991375239E+02 -0.68532739072E+02 -0.15196934302E+03  0.16747280862E+03  0.00000000000E+00 0.  1.
         12    1    5    5    0    0 -0.34211024367E+02  0.17154287674E+02 -0.11065660677E+03  0.11708778073E+03  0.00000000000E+00 0. -1.
        -13    1    3    3    0    0  0.51534110470E+02 -0.67072841877E+02 -0.39370911589E+03  0.40269268505E+03  0.00000000000E+00 0.  1.
         14    1    3    3    0    0  0.11668553718E+02  0.16128276567E+02 -0.25238387319E+03  0.25316772286E+03  0.00000000000E+00 0. -1.
          5    1    4    4  501    0 -0.14434300670E+02  0.63243766475E+02 -0.28133181658E+03  0.28875214987E+03  0.47000000000E+01 0.  1.
         -5    1    4    4    0  501 -0.27996669658E+02  0.46026459255E+02 -0.14574546859E+04  0.14584575757E+04  0.47000000000E+01 0.  1.
          1    1    1    2  502    0  0.50561084537E+02  0.57948631752E+01  0.95589151592E+03  0.95724531543E+03  0.00000000000E+00 0. -1.
          1    1    1    2  503    0 -0.21130378791E+02 -0.12742072197E+02 -0.29032686671E+03  0.29137354521E+03  0.00000000000E+00 0. -1.
<mgrwt>
<rscale>  0 0.35434717E+02</rscale>
<asrwt>0</asrwt>
<pdfrwt beam="1">  1        2 0.14369918E+00 0.50886385E+02</pdfrwt>
<pdfrwt beam="2">  1        2 0.43516104E+00 0.24674953E+02</pdfrwt>
<totfact> 0.18735886E+01</totfact>
</mgrwt>
</event>
<event>
13    1  0.2038932E-008  0.1127323E+03  0.7546771E-02  0.1278928E+00
          2   -1    0    0  502    0  0.00000000000E+00  0.00000000000E+00  0.76479185750E+03  0.76479185750E+03  0.00000000000E+00 0. -1.
          2   -1    0    0  503    0 -0.00000000000E+00 -0.00000000000E+00 -0.10020515407E+04  0.10020515407E+04  0.00000000000E+00 0. -1.
         24    2    1    2    0    0 -0.27708445768E+02  0.16956010236E+01 -0.30751442731E+03  0.31920297451E+03  0.80961613747E+02 0.  0.
         25    2    1    2    0    0  0.57377953254E+02  0.13149119892E+03  0.16879611392E+03  0.25436316558E+03  0.12500530797E+03 0.  0.
         24    2    1    2    0    0 -0.25473010459E+02 -0.11693879469E+02 -0.85442801969E+02  0.12240277886E+03  0.83044245943E+02 0.  0.
        -13    1    3    3    0    0 -0.49493069135E+01  0.31718325421E+02 -0.53366410452E+02  0.62277777505E+02  0.00000000000E+00 0.  1.
         14    1    3    3    0    0 -0.22759138855E+02 -0.30022724397E+02 -0.25414801686E+03  0.25692519700E+03  0.00000000000E+00 0. -1.
        -13    1    5    5    0    0 -0.37246173155E+02  0.24447940281E+02 -0.25244182756E+02  0.51207889643E+02  0.00000000000E+00 0.  1.
         14    1    5    5    0    0  0.11773162696E+02 -0.36141819751E+02 -0.60198619213E+02  0.71194889212E+02  0.00000000000E+00 0. -1.
          5    1    4    4  501    0  0.24761976405E+02  0.78051091841E+02  0.88008114855E+01  0.82490440027E+02  0.47000000000E+01 0. -1.
         -5    1    4    4    0  501  0.32615976849E+02  0.53440107075E+02  0.15999530243E+03  0.17187272556E+03  0.47000000000E+01 0. -1.
          1    1    1    2  502    0  0.99727683195E+02 -0.37107735609E+02  0.51509985121E+03  0.52597571385E+03  0.00000000000E+00 0. -1.
          1    1    1    2  503    0 -0.10392418022E+03 -0.84385184862E+02 -0.52819841906E+03  0.54489876542E+03  0.00000000000E+00 0. -1.
<mgrwt>
<rscale>  0 0.10065335E+03</rscale>
<asrwt>0</asrwt>
<pdfrwt beam="1">  1        2 0.11246939E+00 0.89868633E+02</pdfrwt>
<pdfrwt beam="2">  1        2 0.14736052E+00 0.11273229E+03</pdfrwt>
<totfact> 0.18690836E+02</totfact>
</mgrwt>
</event>
<event>
13    1  0.2038932E-008  0.1505554E+03  0.7546771E-02  0.1315772E+00
          2   -1    0    0  502    0  0.00000000000E+00  0.00000000000E+00  0.31176352878E+04  0.31176352878E+04  0.00000000000E+00 0. -1.
          2   -1    0    0  503    0 -0.00000000000E+00 -0.00000000000E+00 -0.12693511392E+04  0.12693511392E+04  0.00000000000E+00 0. -1.
         24    2    1    2    0    0 -0.15562270642E+02 -0.28544185761E+02 -0.55546425118E+02  0.10164474178E+03  0.78672062261E+02 0.  0.
         25    2    1    2    0    0 -0.18345417278E+02 -0.43320064106E+02  0.17806788025E+04  0.17856805467E+04  0.12499933966E+03 0.  0.
         24    2    1    2    0    0  0.31829550937E+03  0.12132455005E+03  0.76102554297E+03  0.83840460209E+03  0.87924524593E+02 0.  0.
        -11    1    5    5    0    0  0.21426884917E+03  0.12427091705E+03  0.54103085727E+03  0.59503679640E+03  0.00000000000E+00 0.  1.
         12    1    5    5    0    0  0.10402666021E+03 -0.29463670063E+01  0.21999468569E+03  0.24336780569E+03  0.00000000000E+00 0. -1.
        -13    1    3    3    0    0 -0.47404454531E+02 -0.20014236178E+02 -0.27390887790E+02  0.58292475441E+02  0.00000000000E+00 0.  1.
         14    1    3    3    0    0  0.31842183889E+02 -0.85299495831E+01 -0.28155537328E+02  0.43352266341E+02  0.00000000000E+00 0. -1.
          5    1    4    4  501    0  0.39205097902E+02 -0.33649818864E+02  0.35198729379E+03  0.35578995910E+03  0.47000000000E+01 0.  1.
         -5    1    4    4    0  501 -0.57550515180E+02 -0.96702452419E+01  0.14286915088E+04  0.14298905876E+04  0.47000000000E+01 0.  1.
          1    1    1    2  502    0 -0.47805864783E+02 -0.18733903548E+01  0.49786733194E+03  0.50016076467E+03  0.00000000000E+00 0. -1.
          1    1    1    2  503    0 -0.23658195667E+03 -0.47586909825E+02 -0.11357411038E+04  0.11610957717E+04  0.00000000000E+00 0. -1.
<mgrwt>
<rscale>  0 0.84870234E+02</rscale>
<asrwt>0</asrwt>
<pdfrwt beam="1">  1        2 0.45847578E+00 0.47842557E+02</pdfrwt>
<pdfrwt beam="2">  1        2 0.18666929E+00 0.15055543E+03</pdfrwt>
<totfact> 0.90061973E+00</totfact>
</mgrwt>
</event>
<event>
13    1  0.2038932E-008  0.8045734E+02  0.7546771E-02  0.1426522E+00
          2   -1    0    0  503    0  0.00000000000E+00  0.00000000000E+00  0.30070150981E+04  0.30070150981E+04  0.00000000000E+00 0. -1.
         -1   -1    0    0    0  501 -0.00000000000E+00 -0.00000000000E+00 -0.43446900849E+03  0.43446900849E+03  0.00000000000E+00 0.  1.
         24    2    1    2    0    0 -0.70431303919E+02  0.89275220199E+02 -0.15250417428E+03  0.20639030988E+03  0.80055001872E+02 0.  0.
         25    2    1    2    0    0  0.12643080911E+03 -0.14563568503E+03  0.14976558124E+04  0.15151874439E+04  0.12500222173E+03 0.  0.
         24    2    1    2    0    0 -0.45211956748E+02 -0.28967206215E+02  0.22026906223E+03  0.24862346358E+03  0.10203894746E+03 0.  0.
        -11    1    5    5    0    0 -0.76429948103E+02 -0.33519442404E+02  0.15159311384E+03  0.17304786087E+03  0.00000000000E+00 0.  1.
         12    1    5    5    0    0  0.31217991355E+02  0.45522361882E+01  0.68675948393E+02  0.75575602718E+02  0.00000000000E+00 0. -1.
        -11    1    3    3    0    0 -0.72937469247E+02  0.10088672703E+03 -0.12493607743E+03  0.17637185023E+03  0.00000000000E+00 0.  1.
         12    1    3    3    0    0  0.25061653282E+01 -0.11611506829E+02 -0.27568096852E+02  0.30018459646E+02  0.00000000000E+00 0. -1.
          5    1    4    4  502    0  0.32297035888E+02  0.19643079693E+01  0.58306563843E+03  0.58398166559E+03  0.47000000000E+01 0.  1.
         -5    1    4    4    0  502  0.94133773223E+02 -0.14759999300E+03  0.91459017399E+03  0.93120577831E+03  0.47000000000E+01 0.  1.
          1    1    1    2  503    0 -0.34765648372E+02  0.85173439801E+01  0.12319616210E+04  0.12324814932E+04  0.00000000000E+00 0. -1.
         -2    1    1    2    0  501  0.23978099928E+02  0.76810327062E+02 -0.22483623178E+03  0.23880139602E+03  0.00000000000E+00 0.  1.
<mgrwt>
<rscale>  0 0.53664451E+02</rscale>
<asrwt>0</asrwt>
<pdfrwt beam="1">  1        2 0.44220809E+00 0.35793791E+02</pdfrwt>
<pdfrwt beam="2">  1       -1 0.63892503E-01 0.80457342E+02</pdfrwt>
<totfact> 0.10315661E+01</totfact>
</mgrwt>
</event>
<event>
13    1  0.2038932E-008  0.4593950E+02  0.7546771E-02  0.1485849E+00
          2   -1    0    0  502    0  0.00000000000E+00  0.00000000000E+00  0.28526512666E+04  0.28526512666E+04  0.00000000000E+00 0. -1.
          2   -1    0    0  503    0 -0.00000000000E+00 -0.00000000000E+00 -0.78100094231E+03  0.78100094231E+03  0.00000000000E+00 0. -1.
         24    2    1    2    0    0 -0.19134253819E+03 -0.80621451343E+02 -0.11893459060E+03  0.25257626911E+03  0.80855114481E+02 0.  0.
         25    2    1    2    0    0  0.33986610801E+03  0.11181125778E+02  0.14450333099E+04  0.14897581347E+04  0.12499617710E+03 0.  0.
         24    2    1    2    0    0 -0.12978367460E+03  0.15298122869E+03  0.18455404073E+03  0.28443719057E+03  0.81223536663E+02 0.  0.
        -11    1    5    5    0    0 -0.10734358096E+03  0.66276465197E+02  0.96415734635E+02  0.15878037693E+03  0.00000000000E+00 0.  1.
         12    1    5    5    0    0 -0.22440093645E+02  0.86704763490E+02  0.88138306092E+02  0.12565681364E+03  0.00000000000E+00 0. -1.
        -13    1    3    3    0    0  0.61251144532E+01 -0.12038629704E+02 -0.43367177972E+01  0.14186358006E+02  0.00000000000E+00 0.  1.
         14    1    3    3    0    0 -0.19746765265E+03 -0.68582821639E+02 -0.11459787281E+03  0.23838991111E+03  0.00000000000E+00 0. -1.
          5    1    4    4  501    0  0.20540069344E+03 -0.45458815172E+02  0.71731745397E+03  0.74754422512E+03  0.47000000000E+01 0.  1.
         -5    1    4    4    0  501  0.13446541457E+03  0.56639940950E+02  0.72771585590E+03  0.74221390956E+03  0.47000000000E+01 0.  1.
          1    1    1    2  502    0 -0.39266199138E+01 -0.45697914883E+02  0.10826632635E+04  0.10836343755E+04  0.00000000000E+00 0. -1.
          1    1    1    2  503    0 -0.14813275296E+02 -0.37842988239E+02 -0.52166569920E+03  0.52324623898E+03  0.00000000000E+00 0. -1.
<mgrwt>
<rscale>  0 0.43208024E+02</rscale>
<asrwt>0</asrwt>
<pdfrwt beam="1">  1        2 0.41950754E+00 0.45939499E+02</pdfrwt>
<pdfrwt beam="2">  1        2 0.11485308E+00 0.40638958E+02</pdfrwt>
<totfact> 0.25097636E+01</totfact>
</mgrwt>
</event>
<event>
13    1  0.2038932E-008  0.1448165E+03  0.7546771E-02  0.1314152E+00
          2   -1    0    0  502    0  0.00000000000E+00  0.00000000000E+00  0.23606174266E+04  0.23606174266E+04  0.00000000000E+00 0. -1.
          2   -1    0    0  503    0 -0.00000000000E+00 -0.00000000000E+00 -0.15520805477E+04  0.15520805477E+04  0.00000000000E+00 0. -1.
         24    2    1    2    0    0  0.65625402210E+02 -0.39538300105E+01 -0.56877063153E+03  0.57810474240E+03  0.79892025247E+02 0.  0.
         25    2    1    2    0    0 -0.18237886481E+03 -0.73479322489E+02  0.24861880928E+03  0.34073073809E+03  0.12499944954E+03 0.  0.
         24    2    1    2    0    0 -0.19573767622E+02  0.10212609677E+03 -0.18384975064E+02  0.13266946004E+03  0.80313798936E+02 0.  0.
        -11    1    3    3    0    0  0.90423378279E+01 -0.36096412005E+02 -0.16678019301E+03  0.17088109203E+03  0.00000000000E+00 0.  1.
         12    1    3    3    0    0  0.56583064382E+02  0.32142581995E+02 -0.40199043853E+03  0.40722365037E+03  0.00000000000E+00 0. -1.
        -11    1    5    5    0    0 -0.28351125788E+02  0.35049470217E+02  0.25731242251E+02  0.51907114384E+02  0.00000000000E+00 0.  1.
         12    1    5    5    0    0  0.87773581663E+01  0.67076626556E+02 -0.44116217314E+02  0.80762345661E+02  0.00000000000E+00 0. -1.
          5    1    4    4  501    0 -0.70663510143E+02  0.23826826882E+02  0.13374627172E+03  0.15320314796E+03  0.47000000000E+01 0. -1.
         -5    1    4    4    0  501 -0.11171535467E+03 -0.97306149371E+02  0.11487253756E+03  0.18752759013E+03  0.47000000000E+01 0. -1.
          1    1    1    2  502    0  0.28684162398E+01  0.50388068506E+02  0.19969721952E+04  0.19976098553E+04  0.00000000000E+00 0. -1.
          1    1    1    2  503    0  0.13345881398E+03 -0.75081012778E+02 -0.84989851906E+03  0.86358317852E+03  0.00000000000E+00 0. -1.
<mgrwt>
<rscale>  0 0.85491742E+02</rscale>
<asrwt>0</asrwt>
<pdfrwt beam="1">  1        2 0.34714962E+00 0.50469647E+02</pdfrwt>
<pdfrwt beam="2">  1        2 0.22824714E+00 0.14481650E+03</pdfrwt>
<totfact> 0.15261850E+01</totfact>
</mgrwt>
</event>
<event>
13    1  0.2038932E-008  0.5789703E+02  0.7546771E-02  0.1503007E+00
          2   -1    0    0  503    0  0.00000000000E+00  0.00000000000E+00  0.24501056415E+04  0.24501056415E+04  0.00000000000E+00 0. -1.
          2   -1    0    0  502    0 -0.00000000000E+00 -0.00000000000E+00 -0.99489744481E+03  0.99489744481E+03  0.00000000000E+00 0. -1.
         24    2    1    2    0    0  0.23933043648E+02  0.45274779908E+02 -0.59270578009E+03  0.60045157669E+03  0.81359436594E+02 0.  0.
         25    2    1    2    0    0 -0.85356697692E+02 -0.13584050720E+02  0.17109006568E+04  0.17176367784E+04  0.12499901135E+03 0.  0.
         24    2    1    2    0    0  0.31390698539E+02 -0.26705328373E+02 -0.28476914160E+02  0.91518842052E+02  0.76591208975E+02 0.  0.
        -11    1    5    5    0    0 -0.81973852197E+01 -0.39525275306E+02  0.12394325665E+01  0.40385402134E+02  0.00000000000E+00 0.  1.
         12    1    5    5    0    0  0.39588083758E+02  0.12819946934E+02 -0.29716346726E+02  0.51133439918E+02  0.00000000000E+00 0. -1.
        -13    1    3    3    0    0  0.14274825033E+00  0.33486640439E+02 -0.54357589130E+03  0.54460639462E+03  0.00000000000E+00 0.  1.
         14    1    3    3    0    0  0.23790295398E+02  0.11788139469E+02 -0.49129888795E+02  0.55845182069E+02  0.00000000000E+00 0. -1.
          5    1    4    4  501    0  0.15536361252E+02  0.34234566533E+01  0.36346918972E+02  0.39953561733E+02  0.47000000000E+01 0. -1.
         -5    1    4    4    0  501 -0.10089305894E+03 -0.17007507373E+02  0.16745537379E+04  0.16776832167E+04  0.47000000000E+01 0. -1.
          1    1    1    2  502    0 -0.24314221366E+02  0.15122973927E+02 -0.33313912147E+03  0.33436740265E+03  0.00000000000E+00 0. -1.
          1    1    1    2  503    0  0.54347176870E+02 -0.20108374743E+02  0.69862935563E+03  0.70102848652E+03  0.00000000000E+00 0. -1.
<mgrwt>
<rscale>  0 0.40716129E+02</rscale>
<asrwt>0</asrwt>
<pdfrwt beam="1">  1        2 0.36030965E+00 0.57897034E+02</pdfrwt>
<pdfrwt beam="2">  1        2 0.14630845E+00 0.28633646E+02</pdfrwt>
<totfact> 0.29115404E+01</totfact>
</mgrwt>
</event>
<event>
13    1  0.2038932E-008  0.8713375E+02  0.7546771E-02  0.1310349E+00
          2   -1    0    0  503    0  0.00000000000E+00  0.00000000000E+00  0.27482632650E+04  0.27482632650E+04  0.00000000000E+00 0. -1.
          2   -1    0    0  502    0 -0.00000000000E+00 -0.00000000000E+00 -0.26528584898E+04  0.26528584898E+04  0.00000000000E+00 0. -1.
         24    2    1    2    0    0  0.75977896774E+03 -0.58892933554E+03 -0.77251854675E+03  0.12356861032E+04  0.77674953562E+02 0.  0.
         25    2    1    2    0    0 -0.64753813688E+03  0.56643085927E+03  0.42478847769E+02  0.87039028459E+03  0.12500095179E+03 0.  0.
         24    2    1    2    0    0 -0.57772511255E+02  0.21905560916E+02 -0.19703226446E+01  0.10263856100E+03  0.81934579857E+02 0.  0.
        -11    1    3    3    0    0  0.57649932754E+03 -0.47627097584E+03 -0.62808809577E+03  0.97656549863E+03  0.00000000000E+00 0.  1.
         12    1    3    3    0    0  0.18327964020E+03 -0.11265835970E+03 -0.14443045099E+03  0.25912060454E+03  0.00000000000E+00 0. -1.
        -13    1    5    5    0    0 -0.73788426378E+02  0.11800177462E+02  0.16124597291E+02  0.76445920056E+02  0.00000000000E+00 0.  1.
         14    1    5    5    0    0  0.16015915123E+02  0.10105383454E+02 -0.18094919935E+02  0.26192640941E+02  0.00000000000E+00 0. -1.
          5    1    4    4  501    0 -0.33388054606E+03  0.35253853693E+03 -0.18110351964E+02  0.48591122019E+03  0.47000000000E+01 0. -1.
         -5    1    4    4    0  501 -0.31365759082E+03  0.21389232234E+03  0.60589199734E+02  0.38447906440E+03  0.47000000000E+01 0. -1.
          1    1    1    2  502    0 -0.27086010744E+02  0.82976843015E+02 -0.11799457587E+04  0.11831698111E+04  0.00000000000E+00 0. -1.
          1    1    1    2  503    0 -0.27382308862E+02 -0.82383927663E+02  0.20073605555E+04  0.20092369950E+04  0.00000000000E+00 0. -1.
<mgrwt>
<rscale>  0 0.86974399E+02</rscale>
<asrwt>0</asrwt>
<pdfrwt beam="1">  1        2 0.40415636E+00 0.86815335E+02</pdfrwt>
<pdfrwt beam="2">  1        2 0.39012625E+00 0.87133755E+02</pdfrwt>
<totfact> 0.27796750E+00</totfact>
</mgrwt>
</event>
<event>
13    1  0.2038932E-008  0.5589162E+02  0.7546771E-02  0.1552132E+00
          2   -1    0    0  503    0  0.00000000000E+00  0.00000000000E+00  0.14159496915E+04  0.14159496915E+04  0.00000000000E+00 0. -1.
          2   -1    0    0  502    0 -0.00000000000E+00 -0.00000000000E+00 -0.16211227206E+04  0.16211227206E+04  0.00000000000E+00 0. -1.
         24    2    1    2    0    0 -0.31196658328E+03  0.24811858414E+03 -0.92587895723E+03  0.10126205969E+04  0.96242656953E+02 0.  0.
         25    2    1    2    0    0  0.25299679371E+02  0.62879993901E+02  0.22922803147E+02  0.14402141170E+03  0.12499097853E+03 0.  0.
         24    2    1    2    0    0  0.32608957197E+03 -0.32813591412E+03  0.44436095960E+03  0.64645235457E+03  0.80227160239E+02 0.  0.
        -11    1    5    5    0    0  0.32171011088E+03 -0.29984591312E+03  0.40556045099E+03  0.59823427390E+03  0.00000000000E+00 0.  1.
         12    1    5    5    0    0  0.43794610832E+01 -0.28290000996E+02  0.38800508606E+02  0.48218080673E+02  0.00000000000E+00 0. -1.
        -13    1    3    3    0    0 -0.18708675989E+03  0.20572875778E+03 -0.61719485265E+03  0.67694553964E+03  0.00000000000E+00 0.  1.
         14    1    3    3    0    0 -0.12487982339E+03  0.42389826361E+02 -0.30868410458E+03  0.33567505730E+03  0.00000000000E+00 0. -1.
          5    1    4    4  501    0  0.29932604547E+02  0.86417384485E+02  0.52573269648E+02  0.10559338918E+03  0.47000000000E+01 0. -1.
         -5    1    4    4    0  501 -0.46329251764E+01 -0.23537390584E+02 -0.29650466501E+02  0.38428022521E+02  0.47000000000E+01 0. -1.
          1    1    1    2  502    0 -0.55827710812E+02  0.33549077645E+01 -0.48852777563E+03  0.49171879796E+03  0.00000000000E+00 0. -1.
          1    1    1    2  503    0  0.16405042760E+02  0.13782428314E+02  0.74194994102E+03  0.74225925103E+03  0.00000000000E+00 0. -1.
<mgrwt>
<rscale>  0 0.34605539E+02</rscale>
<asrwt>0</asrwt>
<pdfrwt beam="1">  1        2 0.20822789E+00 0.21426170E+02</pdfrwt>
<pdfrwt beam="2">  1        2 0.23840040E+00 0.55891620E+02</pdfrwt>
<totfact> 0.45506803E+01</totfact>
</mgrwt>
</event>
<event>
13    1  0.2038932E-008  0.1245229E+03  0.7546771E-02  0.1247118E+00
          2   -1    0    0  503    0  0.00000000000E+00  0.00000000000E+00  0.44128769519E+04  0.44128769519E+04  0.00000000000E+00 0. -1.
          2   -1    0    0  502    0 -0.00000000000E+00 -0.00000000000E+00 -0.10149656633E+04  0.10149656633E+04  0.00000000000E+00 0. -1.
         24    2    1    2    0    0  0.48808985446E+02 -0.14675277187E+03 -0.20918202267E+03  0.27249331192E+03  0.81097431036E+02 0.  0.
         25    2    1    2    0    0 -0.46702425366E+02  0.11719419174E+03  0.16964938765E+04  0.17057642908E+04  0.12499899122E+03 0.  0.
         24    2    1    2    0    0  0.23208307351E+02  0.21803566671E+02 -0.10152213348E+02  0.83770811059E+02  0.76814453718E+02 0.  0.
        -11    1    5    5    0    0 -0.23822798323E+02 -0.44533990602E+01  0.10058270752E+02  0.26239803613E+02  0.00000000000E+00 0.  1.
         12    1    5    5    0    0  0.47031105674E+02  0.26256965731E+02 -0.20210484099E+02  0.57531007447E+02  0.00000000000E+00 0. -1.
        -13    1    3    3    0    0  0.32326493445E+02 -0.12278120263E+03 -0.10633820174E+03  0.16561412695E+03  0.00000000000E+00 0.  1.
         14    1    3    3    0    0  0.16482492001E+02 -0.23971569237E+02 -0.10284382094E+03  0.10687918497E+03  0.00000000000E+00 0. -1.
          5    1    4    4  501    0 -0.33254663603E+02  0.14331193376E+03  0.13523996169E+04  0.13603863410E+04  0.47000000000E+01 0. -1.
         -5    1    4    4    0  501 -0.13447761763E+02 -0.26117742012E+02  0.34409425961E+03  0.34537794984E+03  0.47000000000E+01 0. -1.
          1    1    1    2  502    0 -0.26316170689E+02  0.13230674945E+03 -0.71475112444E+03  0.72736977300E+03  0.00000000000E+00 0. -1.
          1    1    1    2  503    0  0.10013032576E+01 -0.12455173600E+03  0.26355027725E+04  0.26384444284E+04  0.00000000000E+00 0. -1.
<mgrwt>
<rscale>  0 0.11759524E+03</rscale>
<asrwt>0</asrwt>
<pdfrwt beam="1">  1        2 0.64895249E+00 0.12452292E+03</pdfrwt>
<pdfrwt beam="2">  1        2 0.14925966E+00 0.11105297E+03</pdfrwt>
<totfact> 0.15874176E+00</totfact>
</mgrwt>
</event>
<event>
13    1  0.2038932E-008  0.2125799E+03  0.7546771E-02  0.1204225E+00
          2   -1    0    0  503    0  0.00000000000E+00  0.00000000000E+00  0.21851251445E+04  0.21851251445E+04  0.00000000000E+00 0. -1.
          2   -1    0    0  502    0 -0.00000000000E+00 -0.00000000000E+00 -0.18221645758E+04  0.18221645758E+04  0.00000000000E+00 0. -1.
         24    2    1    2    0    0 -0.17728380388E+03 -0.15451718926E+03 -0.79543502958E+03  0.83328989549E+03  0.79687230830E+02 0.  0.
         25    2    1    2    0    0 -0.33016256239E+02  0.25475297734E+02  0.11974795820E+03  0.17802940445E+03  0.12496332016E+03 0.  0.
         24    2    1    2    0    0  0.35006511078E+03  0.29153804391E+00 -0.14031667598E+03  0.38584012265E+03  0.81474928088E+02 0.  0.
        -11    1    3    3    0    0 -0.61104982945E+02 -0.45730446350E+02 -0.14730088827E+03  0.16589950075E+03  0.00000000000E+00 0.  1.
         12    1    3    3    0    0 -0.11617882093E+03 -0.10878674291E+03 -0.64813414130E+03  0.66739039474E+03  0.00000000000E+00 0. -1.
        -11    1    5    5    0    0  0.16397618848E+02 -0.15108482403E+02  0.27545138257E+01  0.22466319032E+02  0.00000000000E+00 0.  1.
         12    1    5    5    0    0  0.33366749193E+03  0.15400020447E+02 -0.14307118981E+03  0.36337380362E+03  0.00000000000E+00 0. -1.
          5    1    4    4  501    0  0.22563111745E+02  0.59988168365E+02  0.74273903912E+02  0.98215972010E+02  0.47000000000E+01 0. -1.
         -5    1    4    4    0  501 -0.55579367984E+02 -0.34512870632E+02  0.45474054286E+02  0.79813432441E+02  0.47000000000E+01 0. -1.
          1    1    1    2  502    0 -0.69209195007E+02  0.20190225852E+03 -0.69826260879E+03  0.73015416557E+03  0.00000000000E+00 0. -1.
          1    1    1    2  503    0 -0.70555855659E+02 -0.73151905041E+02  0.18772269248E+04  0.18799761321E+04  0.00000000000E+00 0. -1.
<mgrwt>
<rscale>  0 0.14698706E+03</rscale>
<asrwt>0</asrwt>
<pdfrwt beam="1">  1        2 0.32134194E+00 0.10163331E+03</pdfrwt>
<pdfrwt beam="2">  1        2 0.26796538E+00 0.21257987E+03</pdfrwt>
<totfact> 0.12081639E+01</totfact>
</mgrwt>
</event>
<event>
13    1  0.2038932E-008  0.1345157E+03  0.7546771E-02  0.1330105E+00
          2   -1    0    0  502    0  0.00000000000E+00  0.00000000000E+00  0.24592761688E+04  0.24592761688E+04  0.00000000000E+00 0. -1.
          2   -1    0    0  503    0 -0.00000000000E+00 -0.00000000000E+00 -0.11264521152E+04  0.11264521152E+04  0.00000000000E+00 0. -1.
         24    2    1    2    0    0 -0.71172315722E+02  0.19837410017E+02 -0.78775329618E+02  0.13374648776E+03  0.78889473769E+02 0.  0.
         25    2    1    2    0    0 -0.61185887942E+02 -0.43258213574E+02  0.12945596173E+04  0.13027362765E+04  0.12498886940E+03 0.  0.
         24    2    1    2    0    0 -0.70134486242E+02 -0.12860059983E+03  0.11985701193E+03  0.20593927262E+03  0.81168468417E+02 0.  0.
        -13    1    5    5    0    0 -0.13335544804E+02 -0.15723421088E+02 -0.11551835371E+02  0.23632765949E+02  0.00000000000E+00 0.  1.
         14    1    5    5    0    0 -0.56798941438E+02 -0.11287717874E+03  0.13140884730E+03  0.18230650667E+03  0.00000000000E+00 0. -1.
        -13    1    3    3    0    0  0.89657303488E+01 -0.12835770294E+02  0.14695393760E+01  0.15725802546E+02  0.00000000000E+00 0.  1.
         14    1    3    3    0    0 -0.80138046070E+02  0.32673180311E+02 -0.80244868994E+02  0.11802068522E+03  0.00000000000E+00 0. -1.
          5    1    4    4  501    0 -0.22094237121E+02 -0.64000041373E+01  0.11151103998E+04  0.11153575253E+04  0.47000000000E+01 0. -1.
         -5    1    4    4    0  501 -0.39091650821E+02 -0.36858209437E+02  0.17944921746E+03  0.18737875124E+03  0.47000000000E+01 0. -1.
          1    1    1    2  502    0  0.18835898691E+02  0.43212059943E+02  0.95795026315E+03  0.95910936805E+03  0.00000000000E+00 0. -1.
          1    1    1    2  503    0  0.18365679121E+03  0.10880934344E+03 -0.96076750914E+03  0.98419687908E+03  0.00000000000E+00 0. -1.
<mgrwt>
<rscale>  0 0.79629873E+02</rscale>
<asrwt>0</asrwt>
<pdfrwt beam="1">  1        2 0.36165826E+00 0.47138871E+02</pdfrwt>
<pdfrwt beam="2">  1        2 0.16565472E+00 0.13451567E+03</pdfrwt>
<totfact> 0.23149909E+01</totfact>
</mgrwt>
</event>
<event>
13    1  0.2038932E-008  0.8685618E+02  0.7546771E-02  0.1328942E+00
          2   -1    0    0  503    0  0.00000000000E+00  0.00000000000E+00  0.14711209001E+04  0.14711209001E+04  0.00000000000E+00 0. -1.
          2   -1    0    0  502    0 -0.00000000000E+00 -0.00000000000E+00 -0.26069284765E+04  0.26069284765E+04  0.00000000000E+00 0. -1.
         24    2    1    2    0    0  0.45102686137E+02 -0.14339813884E+03 -0.89407924639E+03  0.91022995530E+03  0.80892485249E+02 0.  0.
         25    2    1    2    0    0 -0.22783195089E+03  0.36782752658E+02  0.54126880161E+03  0.60154528679E+03  0.12499779088E+03 0.  0.
         24    2    1    2    0    0  0.88609530351E+02 -0.19030963789E+02 -0.38691285364E+03  0.40342457753E+03  0.69541404892E+02 0.  0.
        -11    1    3    3    0    0 -0.28095391232E+01 -0.69512051813E+02 -0.22865337442E+03  0.23900247800E+03  0.00000000000E+00 0.  1.
         12    1    3    3    0    0  0.47912225260E+02 -0.73886087032E+02 -0.66542587197E+03  0.67122747729E+03  0.00000000000E+00 0. -1.
        -13    1    5    5    0    0  0.68528940949E+02 -0.40924915814E+02 -0.32632749318E+03  0.33594746209E+03  0.00000000000E+00 0.  1.
         14    1    5    5    0    0  0.20080589402E+02  0.21893952025E+02 -0.60585360463E+02  0.67477115443E+02  0.00000000000E+00 0. -1.
          5    1    4    4  501    0 -0.17356818831E+03  0.24961241565E+01  0.48808218996E+03  0.51805256566E+03  0.47000000000E+01 0. -1.
         -5    1    4    4    0  501 -0.54263762582E+02  0.34286628501E+02  0.53186611652E+02  0.83492721135E+02  0.47000000000E+01 0. -1.
          1    1    1    2  502    0  0.37813593162E+02  0.78005927383E+02 -0.12764547005E+04  0.12793949332E+04  0.00000000000E+00 0. -1.
          1    1    1    2  503    0  0.56306141238E+02  0.47640422593E+02  0.88037042257E+03  0.88345462381E+03  0.00000000000E+00 0. -1.
<mgrwt>
<rscale>  0 0.80038679E+02</rscale>
<asrwt>0</asrwt>
<pdfrwt beam="1">  1        2 0.21634131E+00 0.73756297E+02</pdfrwt>
<pdfrwt beam="2">  1        2 0.38337183E+00 0.86856178E+02</pdfrwt>
<totfact> 0.12430365E+01</totfact>
</mgrwt>
</event>
<event>
13    1  0.2038932E-008  0.1533686E+03  0.7546771E-02  0.1332673E+00
          2   -1    0    0  502    0  0.00000000000E+00  0.00000000000E+00  0.60249588043E+03  0.60249588043E+03  0.00000000000E+00 0. -1.
          2   -1    0    0  503    0 -0.00000000000E+00 -0.00000000000E+00 -0.17402642384E+04  0.17402642384E+04  0.00000000000E+00 0. -1.
         24    2    1    2    0    0  0.10285110728E+03 -0.25510656810E+03 -0.68783973744E+03  0.74525153318E+03  0.81354974961E+02 0.  0.
         25    2    1    2    0    0  0.24279532344E+02  0.19550404640E+01  0.22547698825E+03  0.25895641098E+03  0.12500093073E+03 0.  0.
         24    2    1    2    0    0 -0.15806557484E+02  0.55757778837E+02 -0.97188979583E+02  0.13950475873E+03  0.81591070556E+02 0.  0.
        -11    1    3    3    0    0  0.67532860747E+02 -0.70972625290E+02 -0.20241893871E+03  0.22488047396E+03  0.00000000000E+00 0.  1.
         12    1    3    3    0    0  0.35318246538E+02 -0.18413394281E+03 -0.48542079872E+03  0.52037105921E+03  0.00000000000E+00 0. -1.
        -11    1    5    5    0    0 -0.32042329479E+01  0.76070997936E+02 -0.75543391545E+02  0.10725608534E+03  0.00000000000E+00 0.  1.
         12    1    5    5    0    0 -0.12602324536E+02 -0.20313219098E+02 -0.21645588038E+02  0.32248673389E+02  0.00000000000E+00 0. -1.
          5    1    4    4  501    0  0.22537407071E+02  0.27127903735E+01 -0.86735150657E+01  0.24751036598E+02  0.47000000000E+01 0. -1.
         -5    1    4    4    0  501  0.17421252732E+01 -0.75774990950E+00  0.23415050332E+03  0.23420537438E+03  0.47000000000E+01 0. -1.
          1    1    1    2  502    0 -0.17995122224E+02  0.36196405864E+02  0.29928091776E+03  0.30199846350E+03  0.00000000000E+00 0. -1.
          1    1    1    2  503    0 -0.93328959920E+02  0.16119734294E+03 -0.87749754697E+03  0.89704895244E+03  0.00000000000E+00 0. -1.
<mgrwt>
<rscale>  0 0.78737489E+02</rscale>
<asrwt>0</asrwt>
<pdfrwt beam="1">  1        2 0.88602337E-01 0.40422818E+02</pdfrwt>
<pdfrwt beam="2">  1        2 0.25592121E+00 0.15336863E+03</pdfrwt>
<totfact> 0.10076547E+02</totfact>
</mgrwt>
</event>
<event>
13    1  0.2038932E-008  0.9200146E+02  0.7546771E-02  0.1359234E+00
          2   -1    0    0  502    0  0.00000000000E+00  0.00000000000E+00  0.22012110761E+04  0.22012110761E+04  0.00000000000E+00 0. -1.
          2   -1    0    0  503    0 -0.00000000000E+00 -0.00000000000E+00 -0.19361396784E+03  0.19361396784E+03  0.00000000000E+00 0. -1.
         24    2    1    2    0    0  0.88059674200E+02 -0.59047579202E+02 -0.45991098403E+02  0.14059117908E+03  0.80059825590E+02 0.  0.
         25    2    1    2    0    0  0.33746060784E+02  0.14238569336E+03  0.11290973183E+03  0.22309521287E+03  0.12494152301E+03 0.  0.
         24    2    1    2    0    0  0.16034608371E+02 -0.17021434700E+02  0.18989391686E+03  0.20843154258E+03  0.82687183886E+02 0.  0.
        -11    1    5    5    0    0  0.40956755733E+02 -0.16904300275E+02  0.52060433848E+02  0.68363001546E+02  0.00000000000E+00 0.  1.
         12    1    5    5    0    0 -0.24922147362E+02 -0.11713442519E+00  0.13783348301E+03  0.14006854103E+03  0.00000000000E+00 0. -1.
        -13    1    3    3    0    0  0.69678632107E+02  0.73559102417E+00 -0.17406444095E+02  0.71823653224E+02  0.00000000000E+00 0.  1.
         14    1    3    3    0    0  0.18381042093E+02 -0.59783170226E+02 -0.28584654308E+02  0.68767525858E+02  0.00000000000E+00 0. -1.
          5    1    4    4  501    0  0.80421949858E+02  0.96230203289E+02  0.85207514316E+02  0.15169163635E+03  0.47000000000E+01 0. -1.
         -5    1    4    4    0  501 -0.46675889073E+02  0.46155490071E+02  0.27702217512E+02  0.71403576518E+02  0.47000000000E+01 0. -1.
          1    1    1    2  502    0 -0.97860893431E+02 -0.30545782317E+02  0.17643873782E+04  0.17673631828E+04  0.00000000000E+00 0. -1.
          1    1    1    2  503    0 -0.39979449924E+02 -0.35770897141E+02 -0.13602820258E+02  0.55343926654E+02  0.00000000000E+00 0. -1.
<mgrwt>
<rscale>  0 0.70253311E+02</rscale>
<asrwt>0</asrwt>
<pdfrwt beam="1">  1        2 0.32370750E+00 0.92001462E+02</pdfrwt>
<pdfrwt beam="2">  1        2 0.28472644E-01 0.53646188E+02</pdfrwt>
<totfact> 0.20468819E+02</totfact>
</mgrwt>
</event>
<event>
13    1  0.2038932E-008  0.7223312E+02  0.7546771E-02  0.1377135E+00
          2   -1    0    0  503    0  0.00000000000E+00  0.00000000000E+00  0.27210483228E+04  0.27210483228E+04  0.00000000000E+00 0. -1.
          2   -1    0    0  502    0 -0.00000000000E+00 -0.00000000000E+00 -0.18635217072E+04  0.18635217072E+04  0.00000000000E+00 0. -1.
         24    2    1    2    0    0 -0.11206156324E+03 -0.97565660674E+02 -0.14880006799E+04  0.14975826049E+04  0.80813258859E+02 0.  0.
         25    2    1    2    0    0  0.21511976699E+03 -0.10199044937E+03  0.45995316493E+03  0.53278553471E+03  0.12499978465E+03 0.  0.
         24    2    1    2    0    0 -0.11596757025E+03  0.69458694112E+02  0.21136384509E+03  0.26482846366E+03  0.84772947421E+02 0.  0.
        -11    1    3    3    0    0 -0.38388593892E+02 -0.81808350741E+02 -0.95823094140E+03  0.96248263748E+03  0.00000000000E+00 0.  1.
         12    1    3    3    0    0 -0.73672969346E+02 -0.15757309932E+02 -0.52976973855E+03  0.53509996740E+03  0.00000000000E+00 0. -1.
        -11    1    5    5    0    0 -0.45228162605E+02  0.33702846799E+02  0.16178922816E+03  0.17133949610E+03  0.00000000000E+00 0.  1.
         12    1    5    5    0    0 -0.70739407647E+02  0.35755847313E+02  0.49574616927E+02  0.93488967557E+02  0.00000000000E+00 0. -1.
          5    1    4    4  501    0  0.28371733642E+02 -0.50933531286E+02  0.41578625303E+02  0.71763862502E+02  0.47000000000E+01 0.  1.
         -5    1    4    4    0  501  0.18674803334E+03 -0.51056918084E+02  0.41837453962E+03  0.46102167221E+03  0.47000000000E+01 0.  1.
          1    1    1    2  502    0  0.51840502527E+01  0.71713247544E+02 -0.30293524458E+03  0.31135097023E+03  0.00000000000E+00 0. -1.
          1    1    1    2  503    0  0.77253162511E+01  0.58384168388E+02  0.19771455301E+04  0.19780224566E+04  0.00000000000E+00 0. -1.
<mgrwt>
<rscale>  0 0.65222915E+02</rscale>
<asrwt>0</asrwt>
<pdfrwt beam="1">  1        2 0.40015417E+00 0.58893052E+02</pdfrwt>
<pdfrwt beam="2">  1        2 0.27404731E+00 0.72233115E+02</pdfrwt>
<totfact> 0.74875394E+00</totfact>
</mgrwt>
</event>
<event>
13    1  0.2038932E-008  0.2591293E+03  0.7546771E-02  0.1335513E+00
          2   -1    0    0  503    0  0.00000000000E+00  0.00000000000E+00  0.34577899371E+04  0.34577899371E+04  0.00000000000E+00 0. -1.
         -1   -1    0    0    0  501 -0.00000000000E+00 -0.00000000000E+00 -0.14893091839E+04  0.14893091839E+04  0.00000000000E+00 0.  1.
         24    2    1    2    0    0  0.55941706509E+03 -0.29900635207E+02  0.44449622767E+03  0.72011208401E+03  0.84516367748E+02 0.  0.
         25    2    1    2    0    0 -0.12429291926E+03 -0.97007067515E+02  0.14319425315E+04  0.14460093748E+04  0.12499838961E+03 0.  0.
         24    2    1    2    0    0 -0.17851097268E+03  0.35558404251E+02  0.11505814116E+04  0.11697622594E+04  0.10665641813E+03 0.  0.
        -11    1    5    5    0    0 -0.66417947354E+02  0.70011767634E+01  0.74559503855E+03  0.74858020393E+03  0.00000000000E+00 0.  1.
         12    1    5    5    0    0 -0.11209302532E+03  0.28557227488E+02  0.40498637300E+03  0.42118205551E+03  0.00000000000E+00 0. -1.
        -11    1    3    3    0    0  0.57248333557E+02 -0.28355734432E+02  0.60031688338E+02  0.87665403524E+02  0.00000000000E+00 0.  1.
         12    1    3    3    0    0  0.50216873154E+03 -0.15449007746E+01  0.38446453933E+03  0.63244668048E+03  0.00000000000E+00 0. -1.
          5    1    4    4  502    0 -0.56872938280E+02 -0.65574770110E+02  0.11819395337E+04  0.11851319474E+04  0.47000000000E+01 0. -1.
         -5    1    4    4    0  502 -0.67419980979E+02 -0.31432297405E+02  0.25000299786E+03  0.26087742734E+03  0.47000000000E+01 0. -1.
          1    1    1    2  503    0 -0.69063599455E+01  0.22292839613E+02  0.26324600852E+03  0.26427850746E+03  0.00000000000E+00 0. -1.
         -2    1    1    2    0  501 -0.24970681321E+03  0.69056458858E+02 -0.13217854262E+04  0.13469368953E+04  0.00000000000E+00 0.  1.
<mgrwt>
<rscale>  0 0.77766282E+02</rscale>
<asrwt>0</asrwt>
<pdfrwt beam="1">  1        2 0.50849852E+00 0.23338134E+02</pdfrwt>
<pdfrwt beam="2">  1       -1 0.21901606E+00 0.25912931E+03</pdfrwt>
<totfact> 0.31181632E-01</totfact>
</mgrwt>
</event>
<event>
13    1  0.2038932E-008  0.1245983E+03  0.7546771E-02  0.1300987E+00
         -1   -1    0    0    0  501 -0.00000000000E+00  0.00000000000E+00  0.12917951708E+04  0.12917951708E+04  0.00000000000E+00 0.  1.
          2   -1    0    0  503    0  0.00000000000E+00 -0.00000000000E+00 -0.46439370122E+03  0.46439370122E+03  0.00000000000E+00 0. -1.
         24    2    1    2    0    0  0.12726656619E+02 -0.26411603450E+03  0.85599712743E+03  0.89992508677E+03  0.84940168193E+02 0.  0.
         25    2    1    2    0    0  0.13118387056E+03  0.21839563600E+03  0.62824645461E+02  0.29065126700E+03  0.12500144484E+03 0.  0.
         24    2    1    2    0    0  0.67688216528E+02 -0.33426632760E+02 -0.24703168529E+02  0.11246095171E+03  0.79612716887E+02 0.  0.
        -11    1    5    5    0    0  0.48782453990E+02 -0.30573684960E+02 -0.53038166888E+02  0.78278510309E+02  0.00000000000E+00 0.  1.
         12    1    5    5    0    0  0.18905762537E+02 -0.28529478000E+01  0.28334998359E+02  0.34182441403E+02  0.00000000000E+00 0. -1.
        -13    1    3    3    0    0  0.20950774855E+01 -0.23944503409E+03  0.82429736605E+03  0.85837314810E+03  0.00000000000E+00 0.  1.
         14    1    3    3    0    0  0.10631579134E+02 -0.24671000416E+02  0.31699761375E+02  0.41551938675E+02  0.00000000000E+00 0. -1.
          5    1    4    4  502    0  0.13140598706E+03  0.21563403937E+03  0.86030652981E+02  0.26681254772E+03  0.47000000000E+01 0.  1.
         -5    1    4    4    0  502 -0.22211650195E+00  0.27615966298E+01 -0.23206007520E+02  0.23838719276E+02  0.47000000000E+01 0.  1.
          1    1    1    2  503    0 -0.15339055435E+03  0.11053629055E+03 -0.21768800842E+03  0.28833141123E+03  0.00000000000E+00 0. -1.
         -2    1    1    2    0  501 -0.58208189349E+02 -0.31389259280E+02  0.15097087360E+03  0.16482015526E+03  0.00000000000E+00 0.  1.
<mgrwt>
<rscale>  0 0.90774287E+02</rscale>
<asrwt>0</asrwt>
<pdfrwt beam="2">  1        2 0.68293192E-01 0.12459832E+03</pdfrwt>
<pdfrwt beam="1">  1       -1 0.18996988E+00 0.66132283E+02</pdfrwt>
<totfact> 0.18104345E+01</totfact>
</mgrwt>
</event>
<event>
13    1  0.2038932E-008  0.1246346E+03  0.7546771E-02  0.1253418E+00
          2   -1    0    0  502    0  0.00000000000E+00  0.00000000000E+00  0.82241633977E+03  0.82241633977E+03  0.00000000000E+00 0. -1.
          2   -1    0    0  503    0 -0.00000000000E+00 -0.00000000000E+00 -0.48495216678E+04  0.48495216678E+04  0.00000000000E+00 0. -1.
         24    2    1    2    0    0 -0.39976451938E+02 -0.70590071683E+02 -0.78773094567E+03  0.79561703790E+03  0.76846296548E+02 0.  0.
         25    2    1    2    0    0 -0.21946668626E+03  0.70475176342E+02 -0.19600504744E+03  0.32737548422E+03  0.12499740872E+03 0.  0.
         24    2    1    2    0    0  0.53906039372E+02  0.16130004178E+02 -0.45109581529E+03  0.46113584998E+03  0.77413173631E+02 0.  0.
        -11    1    5    5    0    0  0.41538508810E+02  0.46663584356E+02 -0.27802056431E+03  0.28495328038E+03  0.00000000000E+00 0.  1.
         12    1    5    5    0    0  0.12367530562E+02 -0.30533580177E+02 -0.17307525098E+03  0.17618256960E+03  0.00000000000E+00 0. -1.
        -11    1    3    3    0    0 -0.60158911543E+02 -0.32224637511E+02 -0.46165264514E+03  0.46666978332E+03  0.00000000000E+00 0.  1.
         12    1    3    3    0    0  0.20182459605E+02 -0.38365434172E+02 -0.32607830053E+03  0.32894725458E+03  0.00000000000E+00 0. -1.
          5    1    4    4  501    0 -0.14053636190E+03  0.53789207764E+02 -0.46742681928E+02  0.15764109934E+03  0.47000000000E+01 0.  1.
         -5    1    4    4    0  501 -0.78930324363E+02  0.16685968578E+02 -0.14926236551E+03  0.16973438488E+03  0.47000000000E+01 0.  1.
          1    1    1    2  502    0  0.92934316154E+02 -0.47026703420E+02  0.74311406122E+03  0.75037777548E+03  0.00000000000E+00 0. -1.
          1    1    1    2  503    0  0.11260278267E+03  0.31011594583E+02 -0.33353875808E+04  0.33374318599E+04  0.00000000000E+00 0. -1.
<mgrwt>
<rscale>  0 0.11395413E+03</rscale>
<asrwt>0</asrwt>
<pdfrwt beam="1">  1        2 0.12094358E+00 0.10418891E+03</pdfrwt>
<pdfrwt beam="2">  1        2 0.71316496E+00 0.12463461E+03</pdfrwt>
<totfact> 0.89308457E-01</totfact>
</mgrwt>
</event>
<event>
13    1  0.2038932E-008  0.2275741E+03  0.7546771E-02  0.1144262E+00
         -3   -1    0    0    0  501 -0.00000000000E+00  0.00000000000E+00  0.63703751814E+03  0.63703751814E+03  0.00000000000E+00 0.  1.
          2   -1    0    0  503    0  0.00000000000E+00 -0.00000000000E+00 -0.40207180556E+04  0.40207180556E+04  0.00000000000E+00 0. -1.
         24    2    1    2    0    0 -0.70947788736E+02  0.10432602875E+03 -0.14923822031E+03  0.20793408487E+03  0.71042439750E+02 0.  0.
         25    2    1    2    0    0 -0.53239466037E+03 -0.27807626360E+03 -0.14279560195E+04  0.15541729441E+04  0.12499865531E+03 0.  0.
         24    2    1    2    0    0 -0.70199529298E+01  0.22977657617E+02  0.20804931162E+02  0.85738208831E+02  0.79630037073E+02 0.  0.
        -11    1    3    3    0    0 -0.37657533950E+02  0.25977527346E+02 -0.13479177845E+02  0.47692871853E+02  0.00000000000E+00 0.  1.
         12    1    3    3    0    0 -0.33290254786E+02  0.78348501402E+02 -0.13575904247E+03  0.16024121301E+03  0.00000000000E+00 0. -1.
        -13    1    5    5    0    0 -0.30846139302E+02  0.39899686681E+02  0.10132739771E+01  0.50442997842E+02  0.00000000000E+00 0.  1.
         14    1    5    5    0    0  0.23826186372E+02 -0.16922029065E+02  0.19791657185E+02  0.35295210990E+02  0.00000000000E+00 0. -1.
          5    1    4    4  502    0 -0.37359708175E+03 -0.12978089149E+03 -0.95562633933E+03  0.10342444826E+04  0.47000000000E+01 0. -1.
         -5    1    4    4    0  502 -0.15879757862E+03 -0.14829537211E+03 -0.47232968014E+03  0.51992846153E+03  0.47000000000E+01 0. -1.
          1    1    1    2  503    0  0.15443270910E+03 -0.27073554015E+03 -0.21062634475E+04  0.21292000622E+04  0.00000000000E+00 0. -1.
         -4    1    1    2    0  501  0.45592969293E+03  0.42150811738E+03  0.27897221875E+03  0.68071027372E+03  0.00000000000E+00 0.  1.
<mgrwt>
<rscale>  0 0.20663060E+03</rscale>
<asrwt>0</asrwt>
<pdfrwt beam="2">  1        2 0.59128206E+00 0.18761454E+03</pdfrwt>
<pdfrwt beam="1">  1       -3 0.93681990E-01 0.22757407E+03</pdfrwt>
<totfact> 0.40897290E-01</totfact>
</mgrwt>
</event>
<event>
13    1  0.2038932E-008  0.1613777E+03  0.7546771E-02  0.1339929E+00
          2   -1    0    0  502    0  0.00000000000E+00  0.00000000000E+00  0.18310440331E+04  0.18310440331E+04  0.00000000000E+00 0. -1.
          2   -1    0    0  503    0 -0.00000000000E+00 -0.00000000000E+00 -0.89124275700E+03  0.89124275700E+03  0.00000000000E+00 0. -1.
         24    2    1    2    0    0 -0.60403523377E+02 -0.10623422499E+03 -0.57886001238E+03  0.59695880268E+03  0.79665563220E+02 0.  0.
         25    2    1    2    0    0  0.11075736596E+02  0.18745998789E+03  0.13020474193E+04  0.13214447547E+04  0.12499935513E+03 0.  0.
         24    2    1    2    0    0  0.60744189359E+02  0.85346002844E+02  0.57215427725E+02  0.14400581847E+03  0.80562235833E+02 0.  0.
        -11    1    3    3    0    0  0.13582985092E+02  0.28965899198E+01 -0.47809618638E+02  0.49786015622E+02  0.00000000000E+00 0.  1.
         12    1    3    3    0    0 -0.73986508469E+02 -0.10913081491E+03 -0.53105039375E+03  0.54717278706E+03  0.00000000000E+00 0. -1.
        -13    1    5    5    0    0  0.17444613779E+02 -0.12836146398E+02  0.22484635089E+02  0.31219225156E+02  0.00000000000E+00 0.  1.
         14    1    5    5    0    0  0.43299575580E+02  0.98182149242E+02  0.34730792636E+02  0.11278659332E+03  0.00000000000E+00 0. -1.
          5    1    4    4  501    0 -0.49557636210E+02  0.13937499706E+03  0.86867118910E+03  0.88118844402E+03  0.47000000000E+01 0. -1.
         -5    1    4    4    0  501  0.60633372806E+02  0.48084990834E+02  0.43337623019E+03  0.44025631072E+03  0.47000000000E+01 0. -1.
          1    1    1    2  502    0 -0.12763203859E+00 -0.13232064274E+03  0.39755939441E+03  0.41900148075E+03  0.00000000000E+00 0. -1.
          1    1    1    2  503    0 -0.11288770540E+02 -0.34251123007E+02 -0.23816095298E+03  0.24087593340E+03  0.00000000000E+00 0. -1.
<mgrwt>
<rscale>  0 0.76287898E+02</rscale>
<asrwt>0</asrwt>
<pdfrwt beam="1">  1        2 0.26927118E+00 0.16137768E+03</pdfrwt>
<pdfrwt beam="2">  1        2 0.13106511E+00 0.36063496E+02</pdfrwt>
<totfact> 0.58527322E+01</totfact>
</mgrwt>
</event>
<event>
13    1  0.2038932E-008  0.1062187E+03  0.7546771E-02  0.1348842E+00
          2   -1    0    0  503    0  0.00000000000E+00  0.00000000000E+00  0.28320219224E+04  0.28320219224E+04  0.00000000000E+00 0. -1.
         -3   -1    0    0    0  501 -0.00000000000E+00 -0.00000000000E+00 -0.16581298550E+04  0.16581298550E+04  0.00000000000E+00 0.  1.
         24    2    1    2    0    0  0.13929401064E+03 -0.58354768831E+02 -0.13866111688E+03  0.22091718882E+03  0.82276354658E+02 0.  0.
         25    2    1    2    0    0 -0.73711134046E+02  0.16953367973E+03  0.23923213745E+04  0.24027068760E+04  0.12499509447E+03 0.  0.
         24    2    1    2    0    0  0.22758744873E+02  0.52770339029E+02 -0.10570527800E+04  0.10616838943E+04  0.80681116780E+02 0.  0.
        -11    1    5    5    0    0 -0.13207844202E+02 -0.15904729456E+02 -0.17070422865E+03  0.17195156657E+03  0.00000000000E+00 0.  1.
         12    1    5    5    0    0  0.35966589075E+02  0.68675068485E+02 -0.88634855131E+03  0.88973232771E+03  0.00000000000E+00 0. -1.
        -11    1    3    3    0    0  0.10659479189E+03 -0.70347409274E+02 -0.13509153224E+03  0.18590570118E+03  0.00000000000E+00 0.  1.
         12    1    3    3    0    0  0.32699218757E+02  0.11992640443E+02 -0.35695846372E+01  0.35011487637E+02  0.00000000000E+00 0. -1.
          5    1    4    4  502    0 -0.24247396177E+02  0.12892401910E+03  0.20641854525E+04  0.20683551463E+04  0.47000000000E+01 0. -1.
         -5    1    4    4    0  502 -0.49463737869E+02  0.40609660633E+02  0.32813592201E+03  0.33435172979E+03  0.47000000000E+01 0. -1.
          1    1    1    2  503    0 -0.47975643004E+02 -0.16537001974E+02  0.37518389887E+03  0.37860017528E+03  0.00000000000E+00 0. -1.
         -4    1    1    2    0  501 -0.40365978466E+02 -0.14741224795E+03 -0.39789930908E+03  0.42624364304E+03  0.00000000000E+00 0.  1.
<mgrwt>
<rscale>  0 0.73417645E+02</rscale>
<asrwt>0</asrwt>
<pdfrwt beam="1">  1        2 0.41647381E+00 0.50745786E+02</pdfrwt>
<pdfrwt beam="2">  1       -3 0.24384263E+00 0.10621869E+03</pdfrwt>
<totfact> 0.22516408E-01</totfact>
</mgrwt>
</event>
<event>
13    1  0.2038932E-008  0.4634484E+02  0.7546771E-02  0.1491312E+00
          2   -1    0    0  503    0  0.00000000000E+00  0.00000000000E+00  0.88355504507E+03  0.88355504507E+03  0.00000000000E+00 0. -1.
          2   -1    0    0  502    0 -0.00000000000E+00 -0.00000000000E+00 -0.29607718250E+04  0.29607718250E+04  0.00000000000E+00 0. -1.
         24    2    1    2    0    0  0.23323488222E+01 -0.32893944691E+02 -0.11077322241E+04  0.11110968622E+04  0.79863041184E+02 0.  0.
         25    2    1    2    0    0 -0.34045711461E+02 -0.33398040679E+02  0.50888778027E+03  0.52618150227E+03  0.12500264331E+03 0.  0.
         24    2    1    2    0    0  0.10203068213E+02 -0.14487152737E+02  0.95164587036E+02  0.12617576594E+03  0.80932348846E+02 0.  0.
        -13    1    3    3    0    0 -0.16194981351E+02 -0.17800882534E+02 -0.92370263486E+02  0.95453729191E+02  0.00000000000E+00 0.  1.
         14    1    3    3    0    0  0.18527330173E+02 -0.15093062157E+02 -0.10153619607E+04  0.10156431330E+04  0.00000000000E+00 0. -1.
        -13    1    5    5    0    0  0.23802375099E+02 -0.24980628050E+02  0.55725564098E+01  0.34951941621E+02  0.00000000000E+00 0.  1.
         14    1    5    5    0    0 -0.13599306886E+02  0.10493475312E+02  0.89592030626E+02  0.91223824320E+02  0.00000000000E+00 0. -1.
          5    1    4    4  501    0 -0.46769203794E+02 -0.66673662518E+02  0.21245095566E+03  0.22757467842E+03  0.47000000000E+01 0. -1.
         -5    1    4    4    0  501  0.12723492333E+02  0.33275621839E+02  0.29643682461E+03  0.29860682385E+03  0.47000000000E+01 0. -1.
          1    1    1    2  502    0  0.19424920842E+02  0.42059000055E+02 -0.18254273602E+04  0.18260151517E+04  0.00000000000E+00 0. -1.
          1    1    1    2  503    0  0.20853735842E+01  0.38720138052E+02  0.25189043705E+03  0.25485758798E+03  0.00000000000E+00 0. -1.
<mgrwt>
<rscale>  0 0.42391972E+02</rscale>
<asrwt>0</asrwt>
<pdfrwt beam="1">  1        2 0.12993457E+00 0.38776254E+02</pdfrwt>
<pdfrwt beam="2">  1        2 0.43540762E+00 0.46344839E+02</pdfrwt>
<totfact> 0.19158476E+01</totfact>
</mgrwt>
</event>
<event>
13    1  0.2038932E-008  0.4226293E+02  0.7546771E-02  0.1546664E+00
          2   -1    0    0  502    0  0.00000000000E+00  0.00000000000E+00  0.13269684627E+04  0.13269684627E+04  0.00000000000E+00 0. -1.
          2   -1    0    0  503    0 -0.00000000000E+00 -0.00000000000E+00 -0.30163332127E+04  0.30163332127E+04  0.00000000000E+00 0. -1.
         24    2    1    2    0    0  0.27294526843E+02 -0.28983162259E+03 -0.92413355489E+03  0.97054347133E+03  0.56430858741E+02 0.  0.
         25    2    1    2    0    0  0.60559664912E+02  0.43487763383E+02 -0.38905204496E+03  0.41538696122E+03  0.12500470106E+03 0.  0.
         24    2    1    2    0    0 -0.12750984928E+03  0.24869535855E+03  0.51771772257E+03  0.59329729357E+03  0.76563015037E+02 0.  0.
        -11    1    5    5    0    0 -0.11974245796E+03  0.19713919104E+03  0.36350222938E+03  0.43050666388E+03  0.00000000000E+00 0.  1.
         12    1    5    5    0    0 -0.77673913268E+01  0.51556167507E+02  0.15421549319E+03  0.16279062969E+03  0.00000000000E+00 0. -1.
        -13    1    3    3    0    0 -0.27978177921E+01 -0.22452087364E+03 -0.68988551886E+03  0.72550636084E+03  0.00000000000E+00 0.  1.
         14    1    3    3    0    0  0.30092344635E+02 -0.65310748955E+02 -0.23424803603E+03  0.24503711049E+03  0.00000000000E+00 0. -1.
          5    1    4    4  501    0  0.23738250793E+02  0.99847093371E+00 -0.33930166777E+03  0.34016497946E+03  0.47000000000E+01 0. -1.
         -5    1    4    4    0  501  0.36821414119E+02  0.42489292449E+02 -0.49750377189E+02  0.75221981767E+02  0.47000000000E+01 0. -1.
          1    1    1    2  502    0  0.98701301694E+01  0.27639715995E+02  0.73452123393E+03  0.73510735030E+03  0.00000000000E+00 0. -1.
          1    1    1    2  503    0  0.29785527360E+02 -0.29991215332E+02 -0.16284181066E+04  0.16289665990E+04  0.00000000000E+00 0. -1.
<mgrwt>
<rscale>  0 0.35219052E+02</rscale>
<asrwt>0</asrwt>
<pdfrwt beam="1">  1        2 0.19514242E+00 0.29349163E+02</pdfrwt>
<pdfrwt beam="2">  1        2 0.44357841E+00 0.42262931E+02</pdfrwt>
<totfact> 0.10868257E+01</totfact>
</mgrwt>
</event>
<event>
13    1  0.2038932E-008  0.3413182E+02  0.7546771E-02  0.1642068E+00
          2   -1    0    0  503    0  0.00000000000E+00  0.00000000000E+00  0.21315786307E+04  0.21315786307E+04  0.00000000000E+00 0. -1.
          2   -1    0    0  502    0 -0.00000000000E+00 -0.00000000000E+00 -0.23220986020E+04  0.23220986020E+04  0.00000000000E+00 0. -1.
         24    2    1    2    0    0  0.86363179564E+01 -0.26373476979E+03 -0.86799287699E+03  0.91346565505E+03  0.10666420993E+03 0.  0.
         25    2    1    2    0    0  0.37553491619E+02  0.18720976855E+03  0.31977221643E+03  0.39285725792E+03  0.12499917009E+03 0.  0.
         24    2    1    2    0    0 -0.15836100326E+02  0.78534392326E+02 -0.68402398422E+02  0.13491882358E+03  0.84295717533E+02 0.  0.
        -11    1    5    5    0    0  0.13077583543E+02  0.57978298028E+00 -0.47384485520E+02  0.49159422368E+02  0.00000000000E+00 0.  1.
         12    1    5    5    0    0 -0.28913683869E+02  0.77954609346E+02 -0.21017912902E+02  0.85759401210E+02  0.00000000000E+00 0. -1.
        -13    1    3    3    0    0  0.37695074325E+02 -0.36377871949E+02 -0.11518574955E+03  0.12653863085E+03  0.00000000000E+00 0.  1.
         14    1    3    3    0    0 -0.29058756368E+02 -0.22735689784E+03 -0.75280712743E+03  0.78692702421E+03  0.00000000000E+00 0. -1.
          5    1    4    4  501    0 -0.97602556354E+01  0.11057751568E+03  0.80645192470E+02  0.13728942652E+03  0.47000000000E+01 0. -1.
         -5    1    4    4    0  501  0.47313747255E+02  0.76632252871E+02  0.23912702396E+03  0.25556783140E+03  0.47000000000E+01 0. -1.
          1    1    1    2  502    0 -0.42084604281E+01  0.19934059231E+02 -0.12929165250E+04  0.12930770350E+04  0.00000000000E+00 0. -1.
          1    1    1    2  503    0 -0.26145248821E+02 -0.21943450324E+02  0.17190196127E+04  0.17193584611E+04  0.00000000000E+00 0. -1.
<mgrwt>
<rscale>  0 0.26370121E+02</rscale>
<asrwt>0</asrwt>
<pdfrwt beam="1">  1        2 0.31346745E+00 0.34131822E+02</pdfrwt>
<pdfrwt beam="2">  1        2 0.34148509E+00 0.20373460E+02</pdfrwt>
<totfact> 0.11080037E+01</totfact>
</mgrwt>
</event>
<event>
13    1  0.2038932E-008  0.1355413E+03  0.7546771E-02  0.1309696E+00
          2   -1    0    0  502    0  0.00000000000E+00  0.00000000000E+00  0.27357160803E+04  0.27357160803E+04  0.00000000000E+00 0. -1.
          2   -1    0    0  503    0 -0.00000000000E+00 -0.00000000000E+00 -0.34438247210E+04  0.34438247210E+04  0.00000000000E+00 0. -1.
         24    2    1    2    0    0  0.68215454759E+02 -0.13959683362E+02 -0.63153423683E+03  0.64091584360E+03  0.84198606017E+02 0.  0.
         25    2    1    2    0    0 -0.54855085760E+02 -0.12011243769E+01  0.39870283748E+03  0.42142426572E+03  0.12499574388E+03 0.  0.
         24    2    1    2    0    0 -0.11721871065E+03  0.13619725878E+02 -0.20244734629E+03  0.24735875211E+03  0.79219323182E+02 0.  0.
        -11    1    3    3    0    0  0.37848660546E+02  0.17657392167E+02 -0.51017321715E+03  0.51187988445E+03  0.00000000000E+00 0.  1.
         12    1    3    3    0    0  0.30366794213E+02 -0.31617075529E+02 -0.12136101968E+03  0.12903595915E+03  0.00000000000E+00 0. -1.
        -11    1    5    5    0    0 -0.66501016027E+02  0.46312500423E+02 -0.12845355204E+03  0.15188004431E+03  0.00000000000E+00 0.  1.
         12    1    5    5    0    0 -0.50717694621E+02 -0.32692774545E+02 -0.73993794249E+02  0.95478707796E+02  0.00000000000E+00 0. -1.
          5    1    4    4  501    0 -0.40108374665E+02 -0.47804510955E+02  0.94879878886E+02  0.11365841105E+03  0.47000000000E+01 0. -1.
         -5    1    4    4    0  501 -0.14746711095E+02  0.46603386578E+02  0.30382295860E+03  0.30776585467E+03  0.47000000000E+01 0. -1.
          1    1    1    2  502    0  0.22479094863E+01 -0.56096150145E+02  0.22968360210E+04  0.22975220431E+04  0.00000000000E+00 0. -1.
          1    1    1    2  503    0  0.10161043216E+03  0.57637232006E+02 -0.25696659161E+04  0.25723198967E+04  0.00000000000E+00 0. -1.
<mgrwt>
<rscale>  0 0.87232162E+02</rscale>
<asrwt>0</asrwt>
<pdfrwt beam="1">  1        2 0.40231119E+00 0.56141172E+02</pdfrwt>
<pdfrwt beam="2">  1        2 0.50644481E+00 0.13554135E+03</pdfrwt>
<totfact> 0.10481006E+00</totfact>
</mgrwt>
</event>
<event>
13    1  0.2038932E-008  0.5861287E+02  0.7546771E-02  0.1436327E+00
          2   -1    0    0  503    0  0.00000000000E+00  0.00000000000E+00  0.74375616905E+03  0.74375616905E+03  0.00000000000E+00 0. -1.
          2   -1    0    0  502    0 -0.00000000000E+00 -0.00000000000E+00 -0.21539943322E+04  0.21539943322E+04  0.00000000000E+00 0. -1.
         24    2    1    2    0    0 -0.18137279871E+02 -0.10636340758E+02 -0.21498178834E+03  0.23150582475E+03  0.83280759550E+02 0.  0.
         25    2    1    2    0    0  0.49345670952E+02  0.60154174761E+01  0.39025872865E+03  0.41280150243E+03  0.12502809535E+03 0.  0.
         24    2    1    2    0    0 -0.18284674630E+02  0.49669067676E+02 -0.44065656110E+03  0.45102777944E+03  0.80290144961E+02 0.  0.
        -11    1    3    3    0    0 -0.33900240545E+02  0.23976105331E+02 -0.15514244964E+03  0.16060280077E+03  0.00000000000E+00 0.  1.
         12    1    3    3    0    0  0.15762960675E+02 -0.34612446089E+02 -0.59839338696E+02  0.70903023977E+02  0.00000000000E+00 0. -1.
        -13    1    5    5    0    0 -0.16885100128E+02  0.18788494403E+02 -0.30040516093E+02  0.39249799177E+02  0.00000000000E+00 0.  1.
         14    1    5    5    0    0 -0.13995745017E+01  0.30880573273E+02 -0.41061604501E+03  0.41177798027E+03  0.00000000000E+00 0. -1.
          5    1    4    4  501    0  0.71348860123E+02  0.31970623912E+02  0.35514832956E+03  0.36368283796E+03  0.47000000000E+01 0. -1.
         -5    1    4    4    0  501 -0.22003189171E+02 -0.25955206436E+02  0.35110399091E+02  0.49118664468E+02  0.47000000000E+01 0. -1.
          1    1    1    2  502    0  0.40579316941E+02 -0.20847446022E+02 -0.14706584106E+04  0.14713658476E+04  0.00000000000E+00 0. -1.
          1    1    1    2  503    0 -0.53503033392E+02 -0.24200698372E+02  0.32579986826E+03  0.33104954696E+03  0.00000000000E+00 0. -1.
<mgrwt>
<rscale>  0 0.51710653E+02</rscale>
<asrwt>0</asrwt>
<pdfrwt beam="1">  1        2 0.10937591E+00 0.58612874E+02</pdfrwt>
<pdfrwt beam="2">  1        2 0.31676387E+00 0.45621234E+02</pdfrwt>
<totfact> 0.56905555E+01</totfact>
</mgrwt>
</event>
<event>
13    1  0.2038932E-008  0.5912635E+02  0.7546771E-02  0.1546784E+00
          2   -1    0    0  502    0  0.00000000000E+00  0.00000000000E+00  0.22434481808E+04  0.22434481808E+04  0.00000000000E+00 0. -1.
          2   -1    0    0  503    0 -0.00000000000E+00 -0.00000000000E+00 -0.19207192473E+04  0.19207192473E+04  0.00000000000E+00 0. -1.
         24    2    1    2    0    0 -0.11304254394E+03 -0.57686680330E+03 -0.48965442843E+03  0.76960960562E+03  0.83567698851E+02 0.  0.
         25    2    1    2    0    0 -0.22919662763E+03  0.85465454749E+03  0.70979393387E+03  0.11412284967E+04  0.12501825283E+03 0.  0.
         24    2    1    2    0    0  0.27528676007E+03 -0.29796892765E+03  0.45743761423E+02  0.42185703317E+03  0.10631360502E+03 0.  0.
        -13    1    5    5    0    0  0.18522220644E+03 -0.12888695493E+03  0.45950233265E+02  0.23028360091E+03  0.00000000000E+00 0.  1.
         14    1    5    5    0    0  0.90064553628E+02 -0.16908197272E+03 -0.20647184196E+00  0.19157343226E+03  0.00000000000E+00 0. -1.
        -13    1    3    3    0    0 -0.68138261053E+01 -0.18850278006E+03 -0.12410012028E+03  0.22578876448E+03  0.00000000000E+00 0.  1.
         14    1    3    3    0    0 -0.10622871783E+03 -0.38836402324E+03 -0.36555430815E+03  0.54382084113E+03  0.00000000000E+00 0. -1.
          5    1    4    4  501    0 -0.72639406054E+02  0.10513397891E+03  0.97107621224E+02  0.16056654986E+03  0.47000000000E+01 0. -1.
         -5    1    4    4    0  501 -0.15655722158E+03  0.74952056857E+03  0.61268631265E+03  0.98066194688E+03  0.47000000000E+01 0. -1.
          1    1    1    2  502    0  0.49675806486E+02  0.32052830084E+02  0.94310947811E+03  0.94496061155E+03  0.00000000000E+00 0. -1.
          1    1    1    2  503    0  0.17276605016E+02 -0.11871646621E+02 -0.88626381144E+03  0.88651168099E+03  0.00000000000E+00 0. -1.
<mgrwt>
<rscale>  0 0.35205438E+02</rscale>
<asrwt>0</asrwt>
<pdfrwt beam="1">  1        2 0.32991885E+00 0.59126348E+02</pdfrwt>
<pdfrwt beam="2">  1        2 0.28245871E+00 0.20962277E+02</pdfrwt>
<totfact> 0.13765293E+01</totfact>
</mgrwt>
</event>
<event>
13    1  0.2038932E-008  0.6838930E+02  0.7546771E-02  0.1481365E+00
          2   -1    0    0  503    0  0.00000000000E+00  0.00000000000E+00  0.12004993539E+04  0.12004993539E+04  0.00000000000E+00 0. -1.
          2   -1    0    0  502    0 -0.00000000000E+00 -0.00000000000E+00 -0.27045768147E+04  0.27045768147E+04  0.00000000000E+00 0. -1.
         24    2    1    2    0    0 -0.83651398168E+02  0.19402775401E+03 -0.19130066580E+02  0.22524631595E+03  0.75667811270E+02 0.  0.
         25    2    1    2    0    0 -0.17182621895E+03  0.12285631993E+03  0.36844348059E+03  0.44271666747E+03  0.12501809630E+03 0.  0.
         24    2    1    2    0    0  0.16697478276E+03 -0.28713868805E+03 -0.25372672204E+03  0.42404985942E+03  0.71497059677E+02 0.  0.
        -11    1    3    3    0    0 -0.21920084426E+02  0.96833898940E+02 -0.42092477774E+02  0.10783816936E+03  0.00000000000E+00 0.  1.
         12    1    3    3    0    0 -0.61731313742E+02  0.97193855068E+02  0.22962411194E+02  0.11740814660E+03  0.00000000000E+00 0. -1.
        -13    1    5    5    0    0  0.15839355419E+03 -0.22108546908E+03 -0.21738986206E+03  0.34817474746E+03  0.00000000000E+00 0.  1.
         14    1    5    5    0    0  0.85812285702E+01 -0.66053218978E+02 -0.36336859977E+02  0.75875111955E+02  0.00000000000E+00 0. -1.
          5    1    4    4  501    0 -0.10789034905E+03  0.96529174728E+02  0.13076546495E+03  0.19514073336E+03  0.47000000000E+01 0.  1.
         -5    1    4    4    0  501 -0.63935869900E+02  0.26327145204E+02  0.23767801564E+03  0.24757593411E+03  0.47000000000E+01 0.  1.
          1    1    1    2  502    0  0.60420130098E+02 -0.31993858878E+02 -0.22055066939E+04  0.22065661051E+04  0.00000000000E+00 0. -1.
          1    1    1    2  503    0  0.28082704264E+02  0.22484729923E+01  0.60584254124E+03  0.60649722067E+03  0.00000000000E+00 0. -1.
<mgrwt>
<rscale>  0 0.43894220E+02</rscale>
<asrwt>0</asrwt>
<pdfrwt beam="1">  1        2 0.17654403E+00 0.28172574E+02</pdfrwt>
<pdfrwt beam="2">  1        2 0.39773188E+00 0.68389298E+02</pdfrwt>
<totfact> 0.16730758E+01</totfact>
</mgrwt>
</event>
<event>
13    1  0.2038932E-008  0.4696651E+02  0.7546771E-02  0.1517477E+00
          2   -1    0    0  502    0  0.00000000000E+00  0.00000000000E+00  0.18082150401E+04  0.18082150401E+04  0.00000000000E+00 0. -1.
          2   -1    0    0  503    0 -0.00000000000E+00 -0.00000000000E+00 -0.36460314719E+04  0.36460314719E+04  0.00000000000E+00 0. -1.
         24    2    1    2    0    0  0.19291144916E+03  0.16227324830E+04 -0.61096116153E+03  0.17464566189E+04  0.79759902985E+02 0.  0.
         25    2    1    2    0    0  0.50081158114E+03 -0.15580154457E+04 -0.89363668779E+03  0.18688059300E+04  0.12499882207E+03 0.  0.
         24    2    1    2    0    0 -0.63237307632E+03 -0.56707651453E+02 -0.41066347047E+03  0.76383525528E+03  0.10811265344E+03 0.  0.
        -11    1    3    3    0    0  0.96169483511E+02  0.10212052811E+04 -0.35189241597E+03  0.10844063206E+04  0.00000000000E+00 0.  1.
         12    1    3    3    0    0  0.96741965652E+02  0.60152720186E+03 -0.25906874556E+03  0.66205029826E+03  0.00000000000E+00 0. -1.
        -13    1    5    5    0    0 -0.23686852137E+03  0.31027531901E+02 -0.14829905402E+03  0.28117968201E+03  0.00000000000E+00 0.  1.
         14    1    5    5    0    0 -0.39550455495E+03 -0.87735183354E+02 -0.26236441645E+03  0.48265557326E+03  0.00000000000E+00 0. -1.
          5    1    4    4  501    0  0.43709163963E+03 -0.14553242900E+04 -0.81214701765E+03  0.17229691694E+04  0.47000000000E+01 0.  1.
         -5    1    4    4    0  501  0.63719941513E+02 -0.10269115567E+03 -0.81489670135E+02  0.14583676058E+03  0.47000000000E+01 0. -1.
          1    1    1    2  502    0 -0.43225398736E+02  0.18363984056E+02  0.57482492138E+03  0.57674028925E+03  0.00000000000E+00 0. -1.
          1    1    1    2  503    0 -0.18124555247E+02 -0.26373369929E+02 -0.49738003341E+03  0.49840841864E+03  0.00000000000E+00 0. -1.
<mgrwt>
<rscale>  0 0.38768132E+02</rscale>
<asrwt>0</asrwt>
<pdfrwt beam="1">  1        2 0.26591398E+00 0.46966510E+02</pdfrwt>
<pdfrwt beam="2">  1        2 0.53618109E+00 0.32000846E+02</pdfrwt>
<totfact> 0.29793308E+00</totfact>
</mgrwt>
</event>
<event>
13    1  0.2038932E-008  0.1794809E+03  0.7546771E-02  0.1305357E+00
          2   -1    0    0  503    0  0.00000000000E+00  0.00000000000E+00  0.24935935930E+04  0.24935935930E+04  0.00000000000E+00 0. -1.
         -3   -1    0    0    0  501 -0.00000000000E+00 -0.00000000000E+00 -0.13692326675E+04  0.13692326675E+04  0.00000000000E+00 0.  1.
         24    2    1    2    0    0 -0.77192974669E+02 -0.65239241170E+02 -0.76492975335E+02  0.14976996692E+03  0.79780660498E+02 0.  0.
         25    2    1    2    0    0  0.21900647413E+03 -0.11910933675E+03  0.74012379925E+03  0.79092308161E+03  0.12500085198E+03 0.  0.
         24    2    1    2    0    0  0.32198794185E+02  0.12541027730E+02  0.66203470821E+03  0.66780452930E+03  0.80491581895E+02 0.  0.
        -11    1    3    3    0    0  0.15251633274E+02 -0.21068472766E+02 -0.19690974104E+02  0.32622497197E+02  0.00000000000E+00 0.  1.
         12    1    3    3    0    0 -0.92444607943E+02 -0.44170768405E+02 -0.56802001231E+02  0.11714746973E+03  0.00000000000E+00 0. -1.
        -13    1    5    5    0    0  0.48277418600E+02 -0.15588767775E+02  0.49964867029E+03  0.50221759482E+03  0.00000000000E+00 0.  1.
         14    1    5    5    0    0 -0.16078624415E+02  0.28129795505E+02  0.16238603792E+03  0.16558693448E+03  0.00000000000E+00 0. -1.
          5    1    4    4  502    0  0.15040396085E+03 -0.10862288858E+03  0.65610362636E+03  0.68184627438E+03  0.47000000000E+01 0.  1.
         -5    1    4    4    0  502  0.68602513277E+02 -0.10486448171E+02  0.84020172891E+02  0.10907680723E+03  0.47000000000E+01 0.  1.
          1    1    1    2  503    0 -0.37384876694E+02 -0.23404271195E+02  0.10144682454E+04  0.10154266147E+04  0.00000000000E+00 0. -1.
         -4    1    1    2    0  501 -0.13662741695E+03  0.19521182138E+03 -0.12157728520E+04  0.12389020680E+04  0.00000000000E+00 0.  1.
<mgrwt>
<rscale>  0 0.88973500E+02</rscale>
<asrwt>0</asrwt>
<pdfrwt beam="1">  1        2 0.36670494E+00 0.44106563E+02</pdfrwt>
<pdfrwt beam="2">  1       -3 0.20135775E+00 0.17948086E+03</pdfrwt>
<totfact> 0.57290937E-01</totfact>
</mgrwt>
</event>
<event>
13    1  0.2038932E-008  0.1864199E+03  0.7546771E-02  0.1277149E+00
          2   -1    0    0  502    0  0.00000000000E+00  0.00000000000E+00  0.16088353163E+04  0.16088353163E+04  0.00000000000E+00 0. -1.
          2   -1    0    0  503    0 -0.00000000000E+00 -0.00000000000E+00 -0.51101993767E+03  0.51101993767E+03  0.00000000000E+00 0. -1.
         24    2    1    2    0    0  0.66677280845E+02 -0.15327990607E+03 -0.72669315347E+02  0.19941478234E+03  0.80900164619E+02 0.  0.
         25    2    1    2    0    0  0.57637459172E+02 -0.68299260253E+02  0.11449968657E+04  0.11552610019E+04  0.12499317709E+03 0.  0.
         24    2    1    2    0    0  0.15211640947E+02  0.13830330686E+02  0.13437077335E+03  0.15739414580E+03  0.79339399640E+02 0.  0.
        -11    1    5    5    0    0 -0.22524214156E+02 -0.91642425492E+01  0.11657958852E+02  0.26967231401E+02  0.00000000000E+00 0.  1.
         12    1    5    5    0    0  0.37735855103E+02  0.22994573235E+02  0.12271281449E+03  0.13042691440E+03  0.00000000000E+00 0. -1.
        -13    1    3    3    0    0  0.36189675264E+02 -0.13362433438E+03 -0.83359204610E+02  0.16159799605E+03  0.00000000000E+00 0.  1.
         14    1    3    3    0    0  0.30487605580E+02 -0.19655571688E+02  0.10689889263E+02  0.37816786284E+02  0.00000000000E+00 0. -1.
          5    1    4    4  501    0 -0.19070349053E+02  0.25466440082E+02  0.21384748010E+03  0.21625228907E+03  0.47000000000E+01 0. -1.
         -5    1    4    4    0  501  0.76707808225E+02 -0.93765700335E+02  0.93114938560E+03  0.93900871280E+03  0.47000000000E+01 0. -1.
          1    1    1    2  502    0 -0.22504865440E+02  0.50487644904E+02  0.21894865252E+03  0.22581847510E+03  0.00000000000E+00 0. -1.
          1    1    1    2  503    0 -0.11702151552E+03  0.15726119073E+03 -0.32783159762E+03  0.38196684883E+03  0.00000000000E+00 0. -1.
<mgrwt>
<rscale>  0 0.10151160E+03</rscale>
<asrwt>0</asrwt>
<pdfrwt beam="1">  1        2 0.23659343E+00 0.55276317E+02</pdfrwt>
<pdfrwt beam="2">  1        2 0.75149991E-01 0.18641990E+03</pdfrwt>
<totfact> 0.14880140E+02</totfact>
</mgrwt>
</event>
<event>
13    1  0.2038932E-008  0.3266950E+03  0.7546771E-02  0.1219118E+00
          2   -1    0    0  503    0  0.00000000000E+00  0.00000000000E+00  0.16112172607E+04  0.16112172607E+04  0.00000000000E+00 0. -1.
          2   -1    0    0  502    0 -0.00000000000E+00 -0.00000000000E+00 -0.21889183299E+04  0.21889183299E+04  0.00000000000E+00 0. -1.
         24    2    1    2    0    0 -0.87738788736E+02  0.85982663363E+02 -0.15634431362E+03  0.21569273240E+03  0.83598426786E+02 0.  0.
         25    2    1    2    0    0  0.14314202066E+02  0.39180301738E+03 -0.39507069849E+03  0.57045422250E+03  0.12499064909E+03 0.  0.
         24    2    1    2    0    0 -0.18534670873E+02 -0.11308457954E+03 -0.72594029381E+03  0.73935162670E+03  0.80745659790E+02 0.  0.
        -11    1    5    5    0    0 -0.46132999405E+02 -0.47391427866E+02 -0.27663041453E+03  0.28442676968E+03  0.00000000000E+00 0.  1.
         12    1    5    5    0    0  0.27598328531E+02 -0.65693151673E+02 -0.44930987928E+03  0.45492485702E+03  0.00000000000E+00 0. -1.
        -11    1    3    3    0    0 -0.78722511258E+01 -0.47493795299E+01 -0.61137444048E+02  0.61824881791E+02  0.00000000000E+00 0.  1.
         12    1    3    3    0    0 -0.79866537611E+02  0.90732042893E+02 -0.95206869572E+02  0.15386785061E+03  0.00000000000E+00 0. -1.
          5    1    4    4  501    0  0.53083996034E+02  0.75507275636E+02 -0.78662476738E+02  0.12136364594E+03  0.47000000000E+01 0. -1.
         -5    1    4    4    0  501 -0.38769793967E+02  0.31629574174E+03 -0.31640822175E+03  0.44909057656E+03  0.47000000000E+01 0. -1.
          1    1    1    2  502    0 -0.91636285889E+01 -0.55686617329E+02 -0.76867294736E+03  0.77074189677E+03  0.00000000000E+00 0. -1.
          1    1    1    2  503    0  0.10112288613E+03 -0.30901448387E+03  0.14683271840E+04  0.15038951122E+04  0.00000000000E+00 0. -1.
<mgrwt>
<rscale>  0 0.13578371E+03</rscale>
<asrwt>0</asrwt>
<pdfrwt beam="1">  1        2 0.23694371E+00 0.32669504E+03</pdfrwt>
<pdfrwt beam="2">  1        2 0.32189975E+00 0.56435551E+02</pdfrwt>
<totfact> 0.15915652E+01</totfact>
</mgrwt>
</event>
<event>
13    1  0.2038932E-008  0.7317043E+02  0.7546771E-02  0.1395381E+00
          2   -1    0    0  503    0  0.00000000000E+00  0.00000000000E+00  0.28617601776E+04  0.28617601776E+04  0.00000000000E+00 0. -1.
          2   -1    0    0  502    0 -0.00000000000E+00 -0.00000000000E+00 -0.84441931635E+03  0.84441931635E+03  0.00000000000E+00 0. -1.
         24    2    1    2    0    0  0.76512639049E+02  0.41259315003E+02 -0.49302642464E+02  0.12808324200E+03  0.80112741293E+02 0.  0.
         25    2    1    2    0    0 -0.42730448896E+02 -0.25477407111E+02  0.16309014604E+04  0.16364410591E+04  0.12499910687E+03 0.  0.
         24    2    1    2    0    0 -0.25878261662E+02  0.49447400938E+02  0.50819835428E+03  0.51748252416E+03  0.80049145152E+02 0.  0.
        -11    1    3    3    0    0  0.24451847515E+02 -0.24270372324E+02 -0.12395413017E+02  0.36614069475E+02  0.00000000000E+00 0.  1.
         12    1    3    3    0    0  0.52060791534E+02  0.65529687327E+02 -0.36907229448E+02  0.91469172521E+02  0.00000000000E+00 0. -1.
        -13    1    5    5    0    0 -0.20978211744E+02  0.64827743977E+02  0.26066458278E+03  0.26942298802E+03  0.00000000000E+00 0.  1.
         14    1    5    5    0    0 -0.49000499180E+01 -0.15380343039E+02  0.24753377150E+03  0.24805953615E+03  0.00000000000E+00 0. -1.
          5    1    4    4  501    0 -0.53805396437E+01  0.43965480618E+02  0.93701311340E+03  0.93807120112E+03  0.47000000000E+01 0.  1.
         -5    1    4    4    0  501 -0.37349909252E+02 -0.69442887729E+02  0.69388834703E+03  0.69836985797E+03  0.47000000000E+01 0.  1.
          1    1    1    2  502    0  0.41986696545E+02 -0.59949477057E+02 -0.74558912979E+03  0.74917285919E+03  0.00000000000E+00 0. -1.
          1    1    1    2  503    0 -0.49890625036E+02 -0.52798317718E+01  0.67313281878E+03  0.67499980949E+03  0.00000000000E+00 0. -1.
<mgrwt>
<rscale>  0 0.60587982E+02</rscale>
<asrwt>0</asrwt>
<pdfrwt beam="1">  1        2 0.42084708E+00 0.50169225E+02</pdfrwt>
<pdfrwt beam="2">  1        2 0.12417931E+00 0.73170426E+02</pdfrwt>
<totfact> 0.21859518E+01</totfact>
</mgrwt>
</event>
<event>
13    1  0.2038932E-008  0.6240641E+02  0.7546771E-02  0.1420727E+00
          2   -1    0    0  503    0  0.00000000000E+00  0.00000000000E+00  0.49993978196E+03  0.49993978196E+03  0.00000000000E+00 0. -1.
          2   -1    0    0  502    0 -0.00000000000E+00 -0.00000000000E+00 -0.89960876039E+03  0.89960876039E+03  0.00000000000E+00 0. -1.
         24    2    1    2    0    0  0.76585755032E+02 -0.58747140720E+01 -0.20276675233E+03  0.23238399369E+03  0.83594703984E+02 0.  0.
         25    2    1    2    0    0 -0.58404717765E+02  0.67303191152E+02  0.36073289631E+02  0.15769114176E+03  0.12499753345E+03 0.  0.
         24    2    1    2    0    0 -0.68378896639E+02 -0.33930922355E+02 -0.11021623211E+03  0.15549236022E+03  0.78760873961E+02 0.  0.
        -13    1    5    5    0    0  0.10176799207E+02  0.13276071881E+02 -0.91775178769E+01  0.19080046149E+02  0.00000000000E+00 0.  1.
         14    1    5    5    0    0 -0.78555695846E+02 -0.47206994236E+02 -0.10103871424E+03  0.13641231407E+03  0.00000000000E+00 0. -1.
        -13    1    3    3    0    0  0.45681400663E+02  0.38184823559E+02 -0.11281222977E+03  0.12755967350E+03  0.00000000000E+00 0.  1.
         14    1    3    3    0    0  0.30904354369E+02 -0.44059537631E+02 -0.89954522551E+02  0.10482432019E+03  0.00000000000E+00 0. -1.
          5    1    4    4  501    0 -0.75019750719E+02  0.56068444934E+01  0.52125593387E+02  0.91643696942E+02  0.47000000000E+01 0. -1.
         -5    1    4    4    0  501  0.16615032954E+02  0.61696346659E+02 -0.16052303756E+02  0.66047444818E+02  0.47000000000E+01 0. -1.
          1    1    1    2  502    0  0.15347343391E+02 -0.60851085014E+02 -0.48474741090E+03  0.48879284761E+03  0.00000000000E+00 0. -1.
          1    1    1    2  503    0  0.34850515980E+02  0.33353530289E+02  0.36198812728E+03  0.36518819907E+03  0.00000000000E+00 0. -1.
<mgrwt>
<rscale>  0 0.54867411E+02</rscale>
<asrwt>0</asrwt>
<pdfrwt beam="1">  1        2 0.73520557E-01 0.48239159E+02</pdfrwt>
<pdfrwt beam="2">  1        2 0.13229541E+00 0.62406410E+02</pdfrwt>
<totfact> 0.35707885E+02</totfact>
</mgrwt>
</event>
<event>
13    1  0.2038932E-008  0.7856387E+02  0.7546771E-02  0.1426220E+00
          2   -1    0    0  502    0  0.00000000000E+00  0.00000000000E+00  0.23391155585E+04  0.23391155585E+04  0.00000000000E+00 0. -1.
          2   -1    0    0  503    0 -0.00000000000E+00 -0.00000000000E+00 -0.33434263099E+03  0.33434263099E+03  0.00000000000E+00 0. -1.
         24    2    1    2    0    0  0.92878419047E+02 -0.52716970511E+02  0.38782265778E+03  0.40837903199E+03  0.70438201131E+02 0.  0.
         25    2    1    2    0    0 -0.13086416174E+02  0.12838381516E+03  0.10413541937E+04  0.10567395105E+04  0.12500471213E+03 0.  0.
         24    2    1    2    0    0 -0.12294424478E+03 -0.72350386462E+02  0.12528127701E+03  0.20238465068E+03  0.70101945157E+02 0.  0.
        -13    1    5    5    0    0 -0.15536634613E+02 -0.45715273274E+02  0.37497208523E+02  0.61133574021E+02  0.00000000000E+00 0.  1.
         14    1    5    5    0    0 -0.10740761017E+03 -0.26635113188E+02  0.87784068490E+02  0.14125107666E+03  0.00000000000E+00 0. -1.
        -13    1    3    3    0    0  0.87262560419E+02 -0.36264100293E+02  0.37514175041E+03  0.38686066267E+03  0.00000000000E+00 0.  1.
         14    1    3    3    0    0  0.56158586282E+01 -0.16452870218E+02  0.12680907370E+02  0.21518369321E+02  0.00000000000E+00 0. -1.
          5    1    4    4  501    0  0.16415172686E+01  0.10031394365E+02  0.58274887808E+03  0.58285647320E+03  0.47000000000E+01 0.  1.
         -5    1    4    4    0  501 -0.14727933443E+02  0.11835242079E+03  0.45860531557E+03  0.47388303726E+03  0.47000000000E+01 0.  1.
          1    1    1    2  502    0  0.79889251314E+02 -0.27687994582E+01  0.72471283729E+03  0.72910812316E+03  0.00000000000E+00 0. -1.
          1    1    1    2  503    0 -0.36737009408E+02 -0.54765872662E+00 -0.27439803824E+03  0.27684687317E+03  0.00000000000E+00 0. -1.
<mgrwt>
<rscale>  0 0.53726367E+02</rscale>
<asrwt>0</asrwt>
<pdfrwt beam="1">  1        2 0.34398757E+00 0.78563874E+02</pdfrwt>
<pdfrwt beam="2">  1        2 0.49168035E-01 0.36741091E+02</pdfrwt>
<totfact> 0.10130079E+02</totfact>
</mgrwt>
</event>
<event>
13    1  0.2038932E-008  0.1160334E+03  0.7546771E-02  0.1311514E+00
          2   -1    0    0  502    0  0.00000000000E+00  0.00000000000E+00  0.26481498006E+04  0.26481498006E+04  0.00000000000E+00 0. -1.
          2   -1    0    0  503    0 -0.00000000000E+00 -0.00000000000E+00 -0.83095283117E+03  0.83095283117E+03  0.00000000000E+00 0. -1.
         24    2    1    2    0    0 -0.18270466807E+03 -0.23467911770E+02 -0.29124466887E+03  0.35373765142E+03  0.79844412914E+02 0.  0.
         25    2    1    2    0    0  0.12833908140E+03 -0.50326144685E+02  0.71199980056E+03  0.73592193551E+03  0.12503494921E+03 0.  0.
         24    2    1    2    0    0 -0.12214692528E+03  0.61373439760E+02 -0.37605155041E+03  0.40849629863E+03  0.82267168210E+02 0.  0.
        -11    1    3    3    0    0 -0.33961846646E+02 -0.35223610411E+02 -0.98558232551E+02  0.11003560770E+03  0.00000000000E+00 0.  1.
         12    1    3    3    0    0 -0.14874282142E+03  0.11755698641E+02 -0.19268643632E+03  0.24370204373E+03  0.00000000000E+00 0. -1.
        -13    1    5    5    0    0  0.12151636157E+02  0.97031058743E+01 -0.32596099364E+02  0.36115346027E+02  0.00000000000E+00 0.  1.
         14    1    5    5    0    0 -0.13429856144E+03  0.51670333886E+02 -0.34345545104E+03  0.37238095260E+03  0.00000000000E+00 0. -1.
          5    1    4    4  501    0  0.12708653325E+03  0.63222558358E+00  0.39939846455E+03  0.41915702323E+03  0.47000000000E+01 0. -1.
         -5    1    4    4    0  501  0.12525481505E+01 -0.50958370268E+02  0.31260133601E+03  0.31676491228E+03  0.47000000000E+01 0. -1.
          1    1    1    2  502    0  0.62925806947E+02  0.14198358001E+02  0.18450336721E+04  0.18461610173E+04  0.00000000000E+00 0. -1.
          1    1    1    2  503    0  0.11358670500E+03 -0.17777413058E+01 -0.72540283961E+02  0.13478572890E+03  0.00000000000E+00 0. -1.
<mgrwt>
<rscale>  0 0.86516221E+02</rscale>
<asrwt>0</asrwt>
<pdfrwt beam="1">  1        2 0.38943379E+00 0.64507756E+02</pdfrwt>
<pdfrwt beam="2">  1        2 0.12219895E+00 0.11603344E+03</pdfrwt>
<totfact> 0.26968771E+01</totfact>
</mgrwt>
</event>
<event>
13    1  0.2038932E-008  0.9708999E+02  0.7546771E-02  0.1368583E+00
          2   -1    0    0  503    0  0.00000000000E+00  0.00000000000E+00  0.27722457105E+03  0.27722457105E+03  0.00000000000E+00 0. -1.
          2   -1    0    0  502    0 -0.00000000000E+00 -0.00000000000E+00 -0.22971982937E+04  0.22971982937E+04  0.00000000000E+00 0. -1.
         24    2    1    2    0    0 -0.19630119669E+02 -0.75906963338E+01 -0.10895216819E+04  0.10926409910E+04  0.79773928085E+02 0.  0.
         25    2    1    2    0    0 -0.77097928027E+02 -0.14590997672E+03  0.83703913915E+02  0.22330343828E+03  0.12499707410E+03 0.  0.
         24    2    1    2    0    0 -0.55309054983E+02  0.10105991404E+03 -0.12603141705E+03  0.18798670122E+03  0.78631316689E+02 0.  0.
        -11    1    3    3    0    0  0.29706647786E+02  0.36617272326E+01 -0.52636268476E+03  0.52721302059E+03  0.00000000000E+00 0.  1.
         12    1    3    3    0    0 -0.49336767455E+02 -0.11252423566E+02 -0.56315899712E+03  0.56542797039E+03  0.00000000000E+00 0. -1.
        -13    1    5    5    0    0 -0.35899369955E+02 -0.62459700208E+00 -0.30145526883E+02  0.46881848040E+02  0.00000000000E+00 0.  1.
         14    1    5    5    0    0 -0.19409685028E+02  0.10168451104E+03 -0.95885890171E+02  0.14110485318E+03  0.00000000000E+00 0. -1.
          5    1    4    4  501    0 -0.49560362362E+01 -0.36891880801E+01  0.61776972240E+02  0.62262803527E+02  0.47000000000E+01 0. -1.
         -5    1    4    4    0  501 -0.72141891791E+02 -0.14222078864E+03  0.21926941675E+02  0.16104063476E+03  0.47000000000E+01 0. -1.
          1    1    1    2  502    0  0.10900609905E+03  0.71382163838E+02 -0.96858072861E+03  0.97730566906E+03  0.00000000000E+00 0. -1.
          1    1    1    2  503    0  0.43031003626E+02 -0.18941404826E+02  0.80456190952E+02  0.93186065226E+02  0.00000000000E+00 0. -1.
<mgrwt>
<rscale>  0 0.67562716E+02</rscale>
<asrwt>0</asrwt>
<pdfrwt beam="1">  1        2 0.40768319E-01 0.47015360E+02</pdfrwt>
<pdfrwt beam="2">  1        2 0.33782328E+00 0.97089986E+02</pdfrwt>
<totfact> 0.12553717E+02</totfact>
</mgrwt>
</event>
<event>
13    1  0.2038932E-008  0.2650268E+03  0.7546771E-02  0.1225425E+00
          2   -1    0    0  502    0  0.00000000000E+00  0.00000000000E+00  0.41827029699E+04  0.41827029699E+04  0.00000000000E+00 0. -1.
          2   -1    0    0  503    0 -0.00000000000E+00 -0.00000000000E+00 -0.11274147804E+04  0.11274147804E+04  0.00000000000E+00 0. -1.
         24    2    1    2    0    0  0.31660561637E+02  0.58012536031E+02 -0.32611801526E+03  0.34236726473E+03  0.80588700096E+02 0.  0.
         25    2    1    2    0    0 -0.99898059611E+02  0.18534974185E+03  0.71867081876E+03  0.75923588508E+03  0.12496893349E+03 0.  0.
         24    2    1    2    0    0 -0.85162652649E+02 -0.12716796071E+02 -0.18399305885E+02  0.12013050874E+03  0.81721541626E+02 0.  0.
        -13    1    5    5    0    0 -0.31831830562E+02  0.22417530904E+02 -0.36899236727E+02  0.53641073813E+02  0.00000000000E+00 0.  1.
         14    1    5    5    0    0 -0.53330822086E+02 -0.35134326975E+02  0.18499930843E+02  0.66489434932E+02  0.00000000000E+00 0. -1.
        -13    1    3    3    0    0  0.31270548387E+02  0.67761497794E+02 -0.32386702765E+03  0.33235420770E+03  0.00000000000E+00 0.  1.
         14    1    3    3    0    0  0.39001325049E+00 -0.97489617624E+01 -0.22509876062E+01  0.10013057025E+02  0.00000000000E+00 0. -1.
          5    1    4    4  501    0  0.13916351935E+02  0.32619218160E+02  0.37114770464E+02  0.51548757804E+02  0.47000000000E+01 0. -1.
         -5    1    4    4    0  501 -0.11381441155E+03  0.15273052369E+03  0.68155604830E+03  0.70768712728E+03  0.47000000000E+01 0. -1.
          1    1    1    2  502    0  0.97358407216E+02 -0.26382372424E+03  0.33773961322E+04  0.33890833939E+04  0.00000000000E+00 0. -1.
          1    1    1    2  503    0  0.56041743406E+02  0.33178242432E+02 -0.69626144027E+03  0.69930069782E+03  0.00000000000E+00 0. -1.
<mgrwt>
<rscale>  0 0.13137844E+03</rscale>
<asrwt>0</asrwt>
<pdfrwt beam="1">  1        2 0.61510337E+00 0.26502684E+03</pdfrwt>
<pdfrwt beam="2">  1        2 0.16579629E+00 0.65126590E+02</pdfrwt>
<totfact> 0.18024448E+00</totfact>
</mgrwt>
</event>
<event>
13    1  0.2038932E-008  0.9277714E+02  0.7546771E-02  0.1382439E+00
          2   -1    0    0  502    0  0.00000000000E+00  0.00000000000E+00  0.93675492234E+03  0.93675492234E+03  0.00000000000E+00 0. -1.
          2   -1    0    0  503    0 -0.00000000000E+00 -0.00000000000E+00 -0.27264680719E+04  0.27264680719E+04  0.00000000000E+00 0. -1.
         24    2    1    2    0    0 -0.21017916996E+03 -0.25253197141E+03 -0.11663910307E+04  0.12144912721E+04  0.81076096767E+02 0.  0.
         25    2    1    2    0    0  0.19870674672E+03  0.28927393939E+02  0.42571240361E+03  0.48700825540E+03  0.12499929974E+03 0.  0.
         24    2    1    2    0    0  0.63674125644E+02  0.10433006891E+03 -0.76976793448E+03  0.78367073662E+03  0.81596525263E+02 0.  0.
        -11    1    5    5    0    0  0.28858866111E+02  0.78948498154E+00 -0.74942973116E+02  0.80311310904E+02  0.00000000000E+00 0.  1.
         12    1    5    5    0    0  0.34815259533E+02  0.10354058393E+03 -0.69482496136E+03  0.70335942572E+03  0.00000000000E+00 0. -1.
        -13    1    3    3    0    0 -0.18880753880E+03 -0.21313686347E+03 -0.10831580980E+04  0.11199585146E+04  0.00000000000E+00 0.  1.
         14    1    3    3    0    0 -0.21371631168E+02 -0.39395107935E+02 -0.83232932757E+02  0.94532757515E+02  0.00000000000E+00 0. -1.
          5    1    4    4  501    0  0.35784537300E+02 -0.40792002283E+02  0.14623318814E+03  0.15604728730E+03  0.47000000000E+01 0.  1.
         -5    1    4    4    0  501  0.16292220942E+03  0.69719396222E+02  0.27947921547E+03  0.33096096811E+03  0.47000000000E+01 0.  1.
          1    1    1    2  502    0  0.15115683967E+01  0.43884497306E+02  0.44536909430E+03  0.44752850647E+03  0.00000000000E+00 0. -1.
          1    1    1    2  503    0 -0.53713270797E+02  0.75390011250E+02 -0.72463568226E+03  0.73052422360E+03  0.00000000000E+00 0. -1.
<mgrwt>
<rscale>  0 0.63827053E+02</rscale>
<asrwt>0</asrwt>
<pdfrwt beam="1">  1        2 0.13775808E+00 0.43910522E+02</pdfrwt>
<pdfrwt beam="2">  1        2 0.40095119E+00 0.92777141E+02</pdfrwt>
<totfact> 0.20988494E+01</totfact>
</mgrwt>
</event>
<event>
13    1  0.2038932E-008  0.8955511E+02  0.7546771E-02  0.1472961E+00
          2   -1    0    0  502    0  0.00000000000E+00  0.00000000000E+00  0.12623605477E+04  0.12623605477E+04  0.00000000000E+00 0. -1.
          2   -1    0    0  503    0 -0.00000000000E+00 -0.00000000000E+00 -0.67905437746E+03  0.67905437746E+03  0.00000000000E+00 0. -1.
         24    2    1    2    0    0 -0.22990009697E+02  0.58877647828E+02 -0.16413013558E+03  0.19366523784E+03  0.81070370550E+02 0.  0.
         25    2    1    2    0    0 -0.99557235824E+01 -0.74002501094E+02  0.38652624571E+03  0.41304103974E+03  0.12499950112E+03 0.  0.
         24    2    1    2    0    0  0.10557759085E+03 -0.66048753098E+02 -0.17857732753E+03  0.23270665987E+03  0.82179450991E+02 0.  0.
        -11    1    5    5    0    0  0.16823844886E+02  0.18846405771E+02 -0.42137398598E+02  0.49130327985E+02  0.00000000000E+00 0.  1.
         12    1    5    5    0    0  0.88753745965E+02 -0.84895158869E+02 -0.13643992893E+03  0.18357633189E+03  0.00000000000E+00 0. -1.
        -13    1    3    3    0    0  0.55160005839E+01 -0.16998558605E+02 -0.54294785255E+02  0.57160309333E+02  0.00000000000E+00 0.  1.
         14    1    3    3    0    0 -0.28506010281E+02  0.75876206433E+02 -0.10983535032E+03  0.13650492850E+03  0.00000000000E+00 0. -1.
          5    1    4    4  501    0  0.34334128019E+02  0.21960318913E+01  0.23605115021E+03  0.23859147180E+03  0.47000000000E+01 0. -1.
         -5    1    4    4    0  501 -0.44289851601E+02 -0.76198532985E+02  0.15047509551E+03  0.17444956793E+03  0.47000000000E+01 0. -1.
          1    1    1    2  502    0 -0.67234377444E+02  0.58985337670E+02  0.81783901514E+03  0.82271525223E+03  0.00000000000E+00 0. -1.
          1    1    1    2  503    0 -0.53974801282E+01  0.22188268694E+02 -0.27835162753E+03  0.27928673547E+03  0.00000000000E+00 0. -1.
<mgrwt>
<rscale>  0 0.45221898E+02</rscale>
<asrwt>0</asrwt>
<pdfrwt beam="1">  1        2 0.18564126E+00 0.89555110E+02</pdfrwt>
<pdfrwt beam="2">  1        2 0.99860938E-01 0.22835325E+02</pdfrwt>
<totfact> 0.16230546E+02</totfact>
</mgrwt>
</event>
<event>
13    1  0.2038932E-008  0.1168543E+03  0.7546771E-02  0.1270837E+00
          2   -1    0    0  503    0  0.00000000000E+00  0.00000000000E+00  0.17218209898E+04  0.17218209898E+04  0.00000000000E+00 0. -1.
         -3   -1    0    0    0  501 -0.00000000000E+00 -0.00000000000E+00 -0.14978025118E+04  0.14978025118E+04  0.00000000000E+00 0.  1.
         24    2    1    2    0    0  0.15759196986E+02 -0.84641256377E+01 -0.19732559076E+03  0.21390187954E+03  0.80601684792E+02 0.  0.
         25    2    1    2    0    0  0.19576362588E+03 -0.16018243645E+03 -0.89482121746E+02  0.29600095265E+03  0.12501081429E+03 0.  0.
         24    2    1    2    0    0  0.18585449168E+02  0.24126921644E+02  0.25329756590E+03  0.26774369749E+03  0.81237327518E+02 0.  0.
        -11    1    3    3    0    0 -0.14895480966E+02  0.29805374114E+02 -0.72460635748E+02  0.79754494621E+02  0.00000000000E+00 0.  1.
         12    1    3    3    0    0  0.30654677952E+02 -0.38269499752E+02 -0.12486495501E+03  0.13414738492E+03  0.00000000000E+00 0. -1.
        -13    1    5    5    0    0 -0.29748488024E+02  0.39105303311E+01  0.55114432592E+02  0.62752414034E+02  0.00000000000E+00 0.  1.
         14    1    5    5    0    0  0.48333937192E+02  0.20216391313E+02  0.19818313331E+03  0.20499128345E+03  0.00000000000E+00 0. -1.
          5    1    4    4  502    0  0.26813760785E+02 -0.38306860096E+02 -0.73206132600E+02  0.86992075203E+02  0.47000000000E+01 0.  1.
         -5    1    4    4    0  502  0.16894986509E+03 -0.12187557636E+03 -0.16275989146E+02  0.20900887744E+03  0.47000000000E+01 0.  1.
          1    1    1    2  503    0 -0.95795114316E+02  0.41590329077E+02  0.13411564697E+04  0.13452163899E+04  0.00000000000E+00 0. -1.
         -4    1    1    2    0  501 -0.13431315772E+03  0.10292931137E+03 -0.10836278451E+04  0.10967605820E+04  0.00000000000E+00 0.  1.
<mgrwt>
<rscale>  0 0.10463663E+03</rscale>
<asrwt>0</asrwt>
<pdfrwt beam="1">  1        2 0.25320897E+00 0.93696390E+02</pdfrwt>
<pdfrwt beam="2">  1       -3 0.22026508E+00 0.11685427E+03</pdfrwt>
<totfact> 0.96539200E-01</totfact>
</mgrwt>
</event>
<event>
13    1  0.2038932E-008  0.1854153E+03  0.7546771E-02  0.1311380E+00
          2   -1    0    0  503    0  0.00000000000E+00  0.00000000000E+00  0.26943896565E+04  0.26943896565E+04  0.00000000000E+00 0. -1.
          2   -1    0    0  502    0 -0.00000000000E+00 -0.00000000000E+00 -0.35047064889E+04  0.35047064889E+04  0.00000000000E+00 0. -1.
         24    2    1    2    0    0 -0.15135866464E+03 -0.12268058475E+03 -0.21572380637E+04  0.21674846913E+04  0.79711055886E+02 0.  0.
         25    2    1    2    0    0  0.19190410625E+03  0.41421729022E+03 -0.87075134476E+01  0.47339582918E+03  0.12499856312E+03 0.  0.
         24    2    1    2    0    0  0.16378880676E+01 -0.80641461274E+02  0.32659835735E+02  0.11382207098E+03  0.73369414739E+02 0.  0.
        -11    1    5    5    0    0 -0.15053148801E+02 -0.22098456458E+02  0.44395149105E+02  0.51825363778E+02  0.00000000000E+00 0.  1.
         12    1    5    5    0    0  0.16691036868E+02 -0.58543004816E+02 -0.11735313369E+02  0.61996707207E+02  0.00000000000E+00 0. -1.
        -11    1    3    3    0    0 -0.91453961489E+01 -0.18949893844E+02 -0.77335863863E+02  0.80147193256E+02  0.00000000000E+00 0.  1.
         12    1    3    3    0    0 -0.14221326849E+03 -0.10373069091E+03 -0.20799021998E+04  0.20873374981E+04  0.00000000000E+00 0. -1.
          5    1    4    4  501    0  0.11542625877E+03  0.34326383542E+03  0.26607579848E+02  0.36315745239E+03  0.47000000000E+01 0. -1.
         -5    1    4    4    0  501  0.76477847481E+02  0.70953454805E+02 -0.35315093295E+02  0.11023837680E+03  0.47000000000E+01 0. -1.
          1    1    1    2  502    0  0.39823919628E+02 -0.69063825666E+01 -0.10552550784E+04  0.10560288458E+04  0.00000000000E+00 0. -1.
          1    1    1    2  503    0 -0.82007249305E+02 -0.20398886163E+03  0.23782239874E+04  0.23883647081E+04  0.00000000000E+00 0. -1.
<mgrwt>
<rscale>  0 0.86568926E+02</rscale>
<asrwt>0</asrwt>
<pdfrwt beam="1">  1        2 0.39623377E+00 0.18541528E+03</pdfrwt>
<pdfrwt beam="2">  1        2 0.51539801E+00 0.40418346E+02</pdfrwt>
<totfact> 0.10756278E+00</totfact>
</mgrwt>
</event>
<event>
13    1  0.2038932E-008  0.1130059E+03  0.7546771E-02  0.1352509E+00
          2   -1    0    0  503    0  0.00000000000E+00  0.00000000000E+00  0.19989720952E+04  0.19989720952E+04  0.00000000000E+00 0. -1.
         -3   -1    0    0    0  501 -0.00000000000E+00 -0.00000000000E+00 -0.34687231223E+03  0.34687231223E+03  0.00000000000E+00 0.  1.
         24    2    1    2    0    0 -0.62226055700E+02 -0.39653433195E+02 -0.11286192504E+03  0.15990339406E+03  0.85946521384E+02 0.  0.
         25    2    1    2    0    0  0.73197025891E+02  0.17358659761E+03  0.54322264104E+03  0.58839349015E+03  0.12500380010E+03 0.  0.
         24    2    1    2    0    0  0.41680422131E+02  0.92210343609E+01  0.12252163697E+03  0.15294428408E+03  0.80982204485E+02 0.  0.
        -13    1    5    5    0    0  0.32591116436E+01 -0.16213115662E+02  0.10054265961E+03  0.10189363734E+03  0.00000000000E+00 0.  1.
         14    1    5    5    0    0  0.38421310488E+02  0.25434150023E+02  0.21978977357E+02  0.51050646741E+02  0.00000000000E+00 0. -1.
        -13    1    3    3    0    0  0.16894301785E+00 -0.40630152955E+02 -0.13962897806E+02  0.42962779077E+02  0.00000000000E+00 0.  1.
         14    1    3    3    0    0 -0.62394998718E+02  0.97671975929E+00 -0.98899027229E+02  0.11694061499E+03  0.00000000000E+00 0. -1.
          5    1    4    4  502    0  0.87045370097E+02  0.17624853251E+03  0.41402994443E+03  0.45834847720E+03  0.47000000000E+01 0. -1.
         -5    1    4    4    0  502 -0.13848344206E+02 -0.26619348994E+01  0.12919269661E+03  0.13004501295E+03  0.47000000000E+01 0. -1.
          1    1    1    2  503    0 -0.32820929564E+02 -0.32558170808E+02  0.12531626191E+04  0.12540150708E+04  0.00000000000E+00 0. -1.
         -4    1    1    2    0  501 -0.19830462759E+02 -0.11059602797E+03 -0.15394518911E+03  0.19058816832E+03  0.00000000000E+00 0.  1.
<mgrwt>
<rscale>  0 0.72279369E+02</rscale>
<asrwt>0</asrwt>
<pdfrwt beam="1">  1        2 0.29396648E+00 0.46230379E+02</pdfrwt>
<pdfrwt beam="2">  1       -3 0.51010635E-01 0.11300594E+03</pdfrwt>
<totfact> 0.23081091E+01</totfact>
</mgrwt>
</event>
<event>
13    1  0.2038932E-008  0.1233352E+03  0.7546771E-02  0.1276011E+00
         -1   -1    0    0    0  501  0.00000000000E+00  0.00000000000E+00  0.66842529339E+03  0.66842529339E+03  0.00000000000E+00 0.  1.
         -3   -1    0    0    0  502 -0.00000000000E+00 -0.00000000000E+00 -0.17327053783E+04  0.17327053783E+04  0.00000000000E+00 0.  1.
         24    2    1    2    0    0 -0.87997583376E+02 -0.88848245138E+02 -0.27690236989E+03  0.31457835955E+03  0.81529359741E+02 0.  0.
         25    2    1    2    0    0 -0.77328354757E+02 -0.62105206717E+01 -0.40255576040E+03  0.42859614649E+03  0.12500108616E+03 0.  0.
         24    2    1    2    0    0  0.31851093756E+02  0.89549061371E+02  0.11015292881E+03  0.16582368607E+03  0.79563186029E+02 0.  0.
        -11    1    5    5    0    0 -0.77393150712E+01  0.82647788640E+02  0.82558037049E+02  0.11707426466E+03  0.00000000000E+00 0.  1.
         12    1    5    5    0    0  0.39590408827E+02  0.69012727311E+01  0.27594891760E+02  0.48749421408E+02  0.00000000000E+00 0. -1.
        -13    1    3    3    0    0 -0.26864856331E+02  0.12888734064E+02 -0.43440437045E+02  0.52677429152E+02  0.00000000000E+00 0.  1.
         14    1    3    3    0    0 -0.61132727045E+02 -0.10173697920E+03 -0.23346193285E+03  0.26190093040E+03  0.00000000000E+00 0. -1.
          5    1    4    4  503    0 -0.99585492369E+02 -0.34944094521E+02 -0.24449514291E+03  0.26634249555E+03  0.47000000000E+01 0. -1.
         -5    1    4    4    0  503  0.22257137613E+02  0.28733573850E+02 -0.15806061749E+03  0.16225365094E+03  0.47000000000E+01 0. -1.
         -2    1    1    2    0  501  0.33013565014E+02  0.77744861821E+02  0.49110713187E+03  0.49831754333E+03  0.00000000000E+00 0.  1.
         -4    1    1    2    0  502  0.10046127936E+03 -0.72235157383E+02 -0.98608201531E+03  0.99381493626E+03  0.00000000000E+00 0.  1.
<mgrwt>
<rscale>  0 0.10206555E+03</rscale>
<asrwt>0</asrwt>
<pdfrwt beam="1">  1       -1 0.98297839E-01 0.84463951E+02</pdfrwt>
<pdfrwt beam="2">  1       -3 0.25480961E+00 0.12333517E+03</pdfrwt>
<totfact> 0.40312429E-01</totfact>
</mgrwt>
</event>
<event>
13    1  0.2038932E-008  0.1136847E+03  0.7546771E-02  0.1414776E+00
          2   -1    0    0  503    0  0.00000000000E+00  0.00000000000E+00  0.24523405270E+03  0.24523405270E+03  0.00000000000E+00 0. -1.
          2   -1    0    0  502    0 -0.00000000000E+00 -0.00000000000E+00 -0.15559834357E+04  0.15559834357E+04  0.00000000000E+00 0. -1.
         24    2    1    2    0    0 -0.25428342755E+02  0.15927332312E+02 -0.22658978965E+03  0.24196631053E+03  0.79400769083E+02 0.  0.
         25    2    1    2    0    0 -0.85299624174E+01 -0.16184548086E+03 -0.60821907686E+03  0.64173369622E+03  0.12499988586E+03 0.  0.
         24    2    1    2    0    0  0.10483382870E+02  0.28351903768E+02 -0.14782973525E+03  0.17088705328E+03  0.80218592563E+02 0.  0.
        -13    1    3    3    0    0  0.65358484003E+01  0.42692298433E+02 -0.11471575480E+03  0.12257672723E+03  0.00000000000E+00 0.  1.
         14    1    3    3    0    0 -0.31964191155E+02 -0.26764966121E+02 -0.11187403484E+03  0.11938958330E+03  0.00000000000E+00 0. -1.
        -13    1    5    5    0    0 -0.52267065249E+01  0.18587487951E+02  0.24589667400E+01  0.19464318299E+02  0.00000000000E+00 0.  1.
         14    1    5    5    0    0  0.15710089395E+02  0.97644158173E+01 -0.15028870199E+03  0.15142273498E+03  0.00000000000E+00 0. -1.
          5    1    4    4  501    0 -0.15983759062E+02 -0.15006669321E+03 -0.32750340480E+03  0.36063286472E+03  0.47000000000E+01 0.  1.
         -5    1    4    4    0  501  0.74537966442E+01 -0.11778787653E+02 -0.28071567207E+03  0.28110083149E+03  0.47000000000E+01 0.  1.
          1    1    1    2  502    0  0.27250893626E+02  0.51040372909E+01 -0.52184884200E+03  0.52258480297E+03  0.00000000000E+00 0. -1.
          1    1    1    2  503    0 -0.37759713231E+01  0.11246220749E+03  0.19373806076E+03  0.22404562540E+03  0.00000000000E+00 0. -1.
<mgrwt>
<rscale>  0 0.56141611E+02</rscale>
<asrwt>0</asrwt>
<pdfrwt beam="1">  1        2 0.36063832E-01 0.11368467E+03</pdfrwt>
<pdfrwt beam="2">  1        2 0.22882109E+00 0.27724761E+02</pdfrwt>
<totfact> 0.36772558E+02</totfact>
</mgrwt>
</event>
<event>
13    1  0.2038932E-008  0.1693897E+03  0.7546771E-02  0.1317373E+00
          2   -1    0    0  503    0  0.00000000000E+00  0.00000000000E+00  0.22898231433E+04  0.22898231433E+04  0.00000000000E+00 0. -1.
          2   -1    0    0  502    0 -0.00000000000E+00 -0.00000000000E+00 -0.18121578748E+04  0.18121578748E+04  0.00000000000E+00 0. -1.
         24    2    1    2    0    0 -0.84614604717E+03  0.33984497934E+03 -0.23011775545E+03  0.94482176851E+03  0.90973895981E+02 0.  0.
         25    2    1    2    0    0  0.63806983853E+03 -0.27838518822E+03 -0.38985430798E+03  0.80761548197E+03  0.12499981365E+03 0.  0.
         24    2    1    2    0    0  0.42107512500E+02 -0.76520673275E+02  0.11537774551E+03  0.16647034257E+03  0.82291522960E+02 0.  0.
        -11    1    5    5    0    0  0.37217040684E+02 -0.69491881180E+02  0.36050978006E+02  0.86682770390E+02  0.00000000000E+00 0.  1.
         12    1    5    5    0    0  0.48904718155E+01 -0.70287920943E+01  0.79326767501E+02  0.79787572184E+02  0.00000000000E+00 0. -1.
        -13    1    3    3    0    0 -0.47571275626E+03  0.21855758824E+03 -0.93575889196E+02  0.53181434062E+03  0.00000000000E+00 0.  1.
         14    1    3    3    0    0 -0.37043329091E+03  0.12128739110E+03 -0.13654186625E+03  0.41300742789E+03  0.00000000000E+00 0. -1.
          5    1    4    4  501    0  0.19295417834E+03 -0.32911346325E+02 -0.14334100779E+03  0.24265862063E+03  0.47000000000E+01 0. -1.
         -5    1    4    4    0  501  0.44511566019E+03 -0.24547384189E+03 -0.24651330019E+03  0.56495686133E+03  0.47000000000E+01 0. -1.
          1    1    1    2  502    0 -0.35791185936E+02  0.21816033750E+02 -0.59322706695E+03  0.59470606292E+03  0.00000000000E+00 0. -1.
          1    1    1    2  503    0  0.20175988208E+03 -0.67551515966E+01  0.15754866534E+04  0.15883673621E+04  0.00000000000E+00 0. -1.
<mgrwt>
<rscale>  0 0.84262297E+02</rscale>
<asrwt>0</asrwt>
<pdfrwt beam="1">  1        2 0.33673870E+00 0.16938974E+03</pdfrwt>
<pdfrwt beam="2">  1        2 0.26649381E+00 0.41915967E+02</pdfrwt>
<totfact> 0.11954868E+01</totfact>
</mgrwt>
</event>
<event>
13    1  0.2038932E-008  0.6458612E+02  0.7546771E-02  0.1408592E+00
          2   -1    0    0  502    0  0.00000000000E+00  0.00000000000E+00  0.29781801684E+04  0.29781801684E+04  0.00000000000E+00 0. -1.
          2   -1    0    0  503    0 -0.00000000000E+00 -0.00000000000E+00 -0.16503783237E+04  0.16503783237E+04  0.00000000000E+00 0. -1.
         24    2    1    2    0    0  0.18605583580E+02 -0.13461026825E+02 -0.81371315107E+03  0.81803757818E+03  0.80802352104E+02 0.  0.
         25    2    1    2    0    0  0.85599961315E+02  0.21896261788E+03  0.11364337001E+04  0.11672099936E+04  0.12500253263E+03 0.  0.
         24    2    1    2    0    0 -0.71895810802E+02 -0.15022830753E+03 -0.90296974561E+00  0.18506829407E+03  0.80696382341E+02 0.  0.
        -11    1    3    3    0    0 -0.29360525258E+01  0.24755083716E+02 -0.10307503244E+03  0.10604667316E+03  0.00000000000E+00 0.  1.
         12    1    3    3    0    0  0.21541636105E+02 -0.38216110541E+02 -0.71063811862E+03  0.71199090502E+03  0.00000000000E+00 0. -1.
        -13    1    5    5    0    0  0.12680059684E+02 -0.49351762494E+02 -0.13820707213E+02  0.52795760461E+02  0.00000000000E+00 0.  1.
         14    1    5    5    0    0 -0.84575870487E+02 -0.10087654503E+03  0.12917737468E+02  0.13227253361E+03  0.00000000000E+00 0. -1.
          5    1    4    4  501    0 -0.13713501674E+02  0.13380749593E+03  0.62036046893E+03  0.63479264922E+03  0.47000000000E+01 0. -1.
         -5    1    4    4    0  501  0.99313462989E+02  0.85155121952E+02  0.51607323116E+03  0.53241734443E+03  0.47000000000E+01 0. -1.
          1    1    1    2  502    0 -0.63001157153E+02 -0.14282060446E+02  0.17306072490E+04  0.17318125110E+04  0.00000000000E+00 0. -1.
          1    1    1    2  503    0  0.30691423060E+02 -0.40991223084E+02 -0.72462298365E+03  0.72643011519E+03  0.00000000000E+00 0. -1.
<mgrwt>
<rscale>  0 0.57509273E+02</rscale>
<asrwt>0</asrwt>
<pdfrwt beam="1">  1        2 0.43796767E+00 0.64586123E+02</pdfrwt>
<pdfrwt beam="2">  1        2 0.24270269E+00 0.51207849E+02</pdfrwt>
<totfact> 0.71098408E+00</totfact>
</mgrwt>
</event>
<event>
13    1  0.2038932E-008  0.1333064E+03  0.7546771E-02  0.1318140E+00
          2   -1    0    0  503    0  0.00000000000E+00  0.00000000000E+00  0.87758472847E+03  0.87758472847E+03  0.00000000000E+00 0. -1.
          2   -1    0    0  502    0 -0.00000000000E+00 -0.00000000000E+00 -0.10885967394E+04  0.10885967394E+04  0.00000000000E+00 0. -1.
         24    2    1    2    0    0 -0.62298664600E+02  0.34611887087E+02  0.60216286470E+02  0.12271770760E+03  0.79715295045E+02 0.  0.
         25    2    1    2    0    0  0.26343967017E+03  0.11672058262E+03  0.64444234349E+03  0.71690631562E+03  0.12499830827E+03 0.  0.
         24    2    1    2    0    0  0.22248630291E+02 -0.20871005627E+02 -0.80715308154E+02  0.11719837662E+03  0.79308877728E+02 0.  0.
        -11    1    5    5    0    0 -0.65397286266E+01  0.94437610815E+01  0.11311031226E+02  0.16121169351E+02  0.00000000000E+00 0.  1.
         12    1    5    5    0    0  0.28788358918E+02 -0.30314766709E+02 -0.92026339380E+02  0.10107720727E+03  0.00000000000E+00 0. -1.
        -11    1    3    3    0    0 -0.28007057532E+01  0.38174283244E+02  0.48815194492E+02  0.62032596811E+02  0.00000000000E+00 0.  1.
         12    1    3    3    0    0 -0.59497958847E+02 -0.35623961570E+01  0.11401091979E+02  0.60685110791E+02  0.00000000000E+00 0. -1.
          5    1    4    4  501    0  0.13914978686E+03  0.46755985451E+02  0.46496067043E+03  0.48760568127E+03  0.47000000000E+01 0. -1.
         -5    1    4    4    0  501  0.12428988331E+03  0.69964597172E+02  0.17948167306E+03  0.22930063435E+03  0.47000000000E+01 0. -1.
          1    1    1    2  502    0 -0.19831607139E+03 -0.83884681459E+02 -0.90006874038E+03  0.92546725569E+03  0.00000000000E+00 0. -1.
          1    1    1    2  503    0 -0.25073564473E+02 -0.46576782623E+02  0.65113407669E+02  0.83891812313E+02  0.00000000000E+00 0. -1.
<mgrwt>
<rscale>  0 0.83973163E+02</rscale>
<asrwt>0</asrwt>
<pdfrwt beam="1">  1        2 0.12905658E+00 0.52896884E+02</pdfrwt>
<pdfrwt beam="2">  1        2 0.16008776E+00 0.13330638E+03</pdfrwt>
<totfact> 0.14312001E+02</totfact>
</mgrwt>
</event>
<event>
13    1  0.2038932E-008  0.2171867E+03  0.7546771E-02  0.1247658E+00
          2   -1    0    0  503    0  0.00000000000E+00  0.00000000000E+00  0.22608151323E+04  0.22608151323E+04  0.00000000000E+00 0. -1.
          2   -1    0    0  502    0 -0.00000000000E+00 -0.00000000000E+00 -0.13608773500E+04  0.13608773500E+04  0.00000000000E+00 0. -1.
         24    2    1    2    0    0 -0.31771346913E+03 -0.27886849887E+03 -0.10297099399E+03  0.44331756098E+03  0.84958496618E+02 0.  0.
         25    2    1    2    0    0  0.17722146061E+03 -0.34091803172E+02  0.27267143434E+03  0.35006428882E+03  0.12500239220E+03 0.  0.
         24    2    1    2    0    0  0.18340534733E+03  0.15436357968E+03  0.27125425522E+02  0.25415471627E+03  0.79957457016E+02 0.  0.
        -11    1    3    3    0    0 -0.10912184649E+03 -0.10556300187E+03 -0.78781272280E+02  0.17104857090E+03  0.00000000000E+00 0.  1.
         12    1    3    3    0    0 -0.20859162264E+03 -0.17330549700E+03 -0.24189721709E+02  0.27226899009E+03  0.00000000000E+00 0. -1.
        -13    1    5    5    0    0  0.14203810602E+03  0.69664257538E+02  0.22341346535E+02  0.15977192527E+03  0.00000000000E+00 0.  1.
         14    1    5    5    0    0  0.41367241309E+02  0.84699322142E+02  0.47840789869E+01  0.94382790998E+02  0.00000000000E+00 0. -1.
          5    1    4    4  501    0  0.59128664255E+02  0.11913492705E+02  0.14183912361E+02  0.62140193232E+02  0.47000000000E+01 0.  1.
         -5    1    4    4    0  501  0.11809279635E+03 -0.46005295877E+02  0.25848752198E+03  0.28792409558E+03  0.47000000000E+01 0.  1.
          1    1    1    2  502    0 -0.27600628577E+02  0.22004482744E+03 -0.92175373370E+03  0.94805667888E+03  0.00000000000E+00 0. -1.
          1    1    1    2  503    0 -0.15312710233E+02 -0.61448105085E+02  0.16248656502E+04  0.16260992374E+04  0.00000000000E+00 0. -1.
<mgrwt>
<rscale>  0 0.11727681E+03</rscale>
<asrwt>0</asrwt>
<pdfrwt beam="1">  1        2 0.33247281E+00 0.63327314E+02</pdfrwt>
<pdfrwt beam="2">  1        2 0.20012902E+00 0.21718670E+03</pdfrwt>
<totfact> 0.20130134E+01</totfact>
</mgrwt>
</event>
<event>
13    1  0.2038932E-008  0.5051153E+02  0.7546771E-02  0.1452429E+00
         -1   -1    0    0    0  501 -0.00000000000E+00  0.00000000000E+00  0.81823534928E+03  0.81823534928E+03  0.00000000000E+00 0.  1.
          2   -1    0    0  503    0  0.00000000000E+00 -0.00000000000E+00 -0.15643053880E+04  0.15643053880E+04  0.00000000000E+00 0. -1.
         24    2    1    2    0    0 -0.75073605314E+02 -0.52843869950E+02 -0.23303902656E+03  0.26096780654E+03  0.73269962073E+02 0.  0.
         25    2    1    2    0    0  0.13931367443E+03 -0.23680198808E+02 -0.30948700092E+03  0.36245908640E+03  0.12500133552E+03 0.  0.
         24    2    1    2    0    0  0.29204853664E+02  0.79345513670E+02 -0.76341266734E+03  0.77214571618E+03  0.79129465763E+02 0.  0.
        -11    1    3    3    0    0  0.14295805186E+02 -0.99263171352E+01 -0.24388691677E+02  0.29961810685E+02  0.00000000000E+00 0.  1.
         12    1    3    3    0    0 -0.89369410500E+02 -0.42917552815E+02 -0.20865033488E+03  0.23100599585E+03  0.00000000000E+00 0. -1.
        -11    1    5    5    0    0  0.41000392922E+02  0.88281408682E+02 -0.57756230063E+03  0.58570713710E+03  0.00000000000E+00 0.  1.
         12    1    5    5    0    0 -0.11795539258E+02 -0.89358950115E+01 -0.18585036671E+03  0.18643857909E+03  0.00000000000E+00 0. -1.
          5    1    4    4  502    0  0.15584252181E+03 -0.22814853487E+02 -0.21580532100E+03  0.26721047082E+03  0.47000000000E+01 0.  1.
         -5    1    4    4    0  502 -0.16528847382E+02 -0.86534532075E+00 -0.93681679921E+02  0.95248615586E+02  0.47000000000E+01 0.  1.
          1    1    1    2  503    0 -0.47493209217E+02  0.69151437324E+01 -0.21012839002E+03  0.21553970499E+03  0.00000000000E+00 0. -1.
         -2    1    1    2    0  501 -0.45951713561E+02 -0.97365886444E+01  0.76999704609E+03  0.77142842320E+03  0.00000000000E+00 0.  1.
<mgrwt>
<rscale>  0 0.48709583E+02</rscale>
<asrwt>0</asrwt>
<pdfrwt beam="2">  1        2 0.23004491E+00 0.50511530E+02</pdfrwt>
<pdfrwt beam="1">  1       -1 0.12032873E+00 0.46971919E+02</pdfrwt>
<totfact> 0.13109957E+01</totfact>
</mgrwt>
</event>
<event>
13    1  0.2038932E-008  0.4408998E+02  0.7546771E-02  0.1522052E+00
          2   -1    0    0  503    0  0.00000000000E+00  0.00000000000E+00  0.15404127209E+04  0.15404127209E+04  0.00000000000E+00 0. -1.
          2   -1    0    0  502    0 -0.00000000000E+00 -0.00000000000E+00 -0.30612567666E+04  0.30612567666E+04  0.00000000000E+00 0. -1.
         24    2    1    2    0    0 -0.30570199614E+03 -0.10295580281E+03 -0.53049777469E+03  0.62615244994E+03  0.81150439557E+02 0.  0.
         25    2    1    2    0    0 -0.29462716205E+03 -0.59406282185E+03 -0.33632947325E+03  0.75396092134E+03  0.12499502151E+03 0.  0.
         24    2    1    2    0    0  0.52784303089E+03  0.69889677593E+03  0.94760983368E+02  0.88374323149E+03  0.70338372042E+02 0.  0.
        -11    1    3    3    0    0 -0.24669606218E+03 -0.10546030124E+03 -0.38629197711E+03  0.47032150048E+03  0.00000000000E+00 0.  1.
         12    1    3    3    0    0 -0.59005933961E+02  0.25044984294E+01 -0.14420579758E+03  0.15583094947E+03  0.00000000000E+00 0. -1.
        -11    1    5    5    0    0  0.19888898168E+03  0.21164384713E+03  0.42524617567E+02  0.29352732098E+03  0.00000000000E+00 0.  1.
         12    1    5    5    0    0  0.32895404921E+03  0.48725292879E+03  0.52236365801E+02  0.59021591051E+03  0.00000000000E+00 0. -1.
          5    1    4    4  501    0 -0.29265069303E+03 -0.58499787703E+03 -0.30651654617E+03  0.72238592687E+03  0.47000000000E+01 0.  1.
         -5    1    4    4    0  501 -0.19764690209E+01 -0.90649448171E+01 -0.29812927084E+02  0.31574994467E+02  0.47000000000E+01 0.  1.
          1    1    1    2  502    0  0.30720918626E+02  0.12217920665E+02 -0.15425066744E+04  0.15428609441E+04  0.00000000000E+00 0. -1.
          1    1    1    2  503    0  0.41765208676E+02 -0.14096071934E+02  0.79372889327E+03  0.79495194063E+03  0.00000000000E+00 0. -1.
<mgrwt>
<rscale>  0 0.38179499E+02</rscale>
<asrwt>0</asrwt>
<pdfrwt beam="1">  1        2 0.22653128E+00 0.44089985E+02</pdfrwt>
<pdfrwt beam="2">  1        2 0.45018482E+00 0.33061343E+02</pdfrwt>
<totfact> 0.82572511E+00</totfact>
</mgrwt>
</event>
<event>
13    1  0.2038932E-008  0.1202919E+03  0.7546771E-02  0.1299138E+00
          2   -1    0    0  503    0  0.00000000000E+00  0.00000000000E+00  0.14010897363E+04  0.14010897363E+04  0.00000000000E+00 0. -1.
         -1   -1    0    0    0  501 -0.00000000000E+00 -0.00000000000E+00 -0.87407348871E+03  0.87407348871E+03  0.00000000000E+00 0.  1.
         24    2    1    2    0    0 -0.14542257916E+03 -0.70573526706E+02 -0.24951374103E+03  0.30811142622E+03  0.80914737837E+02 0.  0.
         25    2    1    2    0    0  0.27695732040E+03  0.12512153152E+03  0.96703320636E+02  0.34254186302E+03  0.12499056253E+03 0.  0.
         24    2    1    2    0    0 -0.36734031569E+02 -0.43825651148E+02  0.14804782723E+03  0.17623930653E+03  0.76629349758E+02 0.  0.
        -11    1    3    3    0    0 -0.72462273756E+02 -0.10015693115E+02 -0.54344034651E+02  0.91128312442E+02  0.00000000000E+00 0.  1.
         12    1    3    3    0    0 -0.72960305409E+02 -0.60557833592E+02 -0.19516970638E+03  0.21698311378E+03  0.00000000000E+00 0. -1.
        -11    1    5    5    0    0 -0.78543561822E+01 -0.52789448850E+02  0.13116333158E+03  0.14160591927E+03  0.00000000000E+00 0.  1.
         12    1    5    5    0    0 -0.28879675386E+02  0.89637977022E+01  0.16884495651E+02  0.34633387259E+02  0.00000000000E+00 0. -1.
          5    1    4    4  502    0 -0.83643945946E+01 -0.34436486329E+01  0.16581617646E+02  0.19464374035E+02  0.47000000000E+01 0. -1.
         -5    1    4    4    0  502  0.28532171500E+03  0.12856518016E+03  0.80121702990E+02  0.32307748898E+03  0.47000000000E+01 0. -1.
          1    1    1    2  503    0 -0.12123300948E+03  0.53746674301E+02  0.98289723526E+03  0.99180296565E+03  0.00000000000E+00 0. -1.
         -2    1    1    2    0  501  0.26432299806E+02 -0.64469027971E+02 -0.45111839451E+03  0.45646766359E+03  0.00000000000E+00 0.  1.
<mgrwt>
<rscale>  0 0.91551131E+02</rscale>
<asrwt>0</asrwt>
<pdfrwt beam="1">  1        2 0.20604261E+00 0.12029188E+03</pdfrwt>
<pdfrwt beam="2">  1       -1 0.12854022E+00 0.69677271E+02</pdfrwt>
<totfact> 0.12356013E+01</totfact>
</mgrwt>
</event>
<event>
13    1  0.2038932E-008  0.8162803E+02  0.7546771E-02  0.1351163E+00
          2   -1    0    0  502    0  0.00000000000E+00  0.00000000000E+00  0.28414851974E+04  0.28414851974E+04  0.00000000000E+00 0. -1.
          2   -1    0    0  503    0 -0.00000000000E+00 -0.00000000000E+00 -0.26465134932E+04  0.26465134932E+04  0.00000000000E+00 0. -1.
         24    2    1    2    0    0  0.85935651341E+02  0.31375852136E+01 -0.35978518928E+03  0.37850168073E+03  0.80145862533E+02 0.  0.
         25    2    1    2    0    0 -0.99354651375E+02 -0.76216331748E+02  0.59865637989E+03  0.62425436726E+03  0.12499511145E+03 0.  0.
         24    2    1    2    0    0  0.21904702648E+02  0.88021589004E+02  0.67212528101E+02  0.13839559394E+03  0.80051235838E+02 0.  0.
        -11    1    5    5    0    0 -0.17944162559E+02  0.41976168116E+02  0.62393853205E+02  0.77310960267E+02  0.00000000000E+00 0.  1.
         12    1    5    5    0    0  0.39848865207E+02  0.46045420888E+02  0.48186748957E+01  0.61084633671E+02  0.00000000000E+00 0. -1.
        -13    1    3    3    0    0  0.29531581755E+02 -0.59612300748E+01 -0.25799265309E+02  0.39664249337E+02  0.00000000000E+00 0.  1.
         14    1    3    3    0    0  0.56404069586E+02  0.90988152884E+01 -0.33398592397E+03  0.33883743139E+03  0.00000000000E+00 0. -1.
          5    1    4    4  501    0 -0.47641990546E+02  0.14490949118E+01  0.41928044930E+03  0.42200716143E+03  0.47000000000E+01 0. -1.
         -5    1    4    4    0  501 -0.51712660829E+02 -0.77665426660E+02  0.17937593059E+03  0.20224720582E+03  0.47000000000E+01 0. -1.
          1    1    1    2  502    0  0.21175553930E+02  0.61177234108E+02  0.21166238946E+04  0.21176136969E+04  0.00000000000E+00 0. -1.
          1    1    1    2  503    0 -0.29661256544E+02 -0.76120076578E+02 -0.22277359091E+04  0.22292333518E+04  0.00000000000E+00 0. -1.
<mgrwt>
<rscale>  0 0.72694337E+02</rscale>
<asrwt>0</asrwt>
<pdfrwt beam="1">  1        2 0.41786547E+00 0.64738382E+02</pdfrwt>
<pdfrwt beam="2">  1        2 0.38919316E+00 0.81628031E+02</pdfrwt>
<totfact> 0.26466152E+00</totfact>
</mgrwt>
</event>
<event>
13    1  0.2038932E-008  0.1102783E+03  0.7546771E-02  0.1308033E+00
          2   -1    0    0  503    0  0.00000000000E+00  0.00000000000E+00  0.14246924071E+04  0.14246924071E+04  0.00000000000E+00 0. -1.
          2   -1    0    0  502    0 -0.00000000000E+00 -0.00000000000E+00 -0.75455708143E+03  0.75455708143E+03  0.00000000000E+00 0. -1.
         24    2    1    2    0    0  0.15260116698E+02  0.19619625275E+03 -0.16957822695E+02  0.21455688604E+03  0.83792892552E+02 0.  0.
         25    2    1    2    0    0  0.27062381062E+02 -0.22930040594E+03  0.54304611744E+03  0.60318734412E+03  0.12499935123E+03 0.  0.
         24    2    1    2    0    0  0.94568175888E+02 -0.10024584711E+02  0.19588864306E+03  0.23176364892E+03  0.79362436292E+02 0.  0.
        -11    1    5    5    0    0  0.26600841036E+02  0.27478980451E+02  0.29990360601E+02  0.48601654699E+02  0.00000000000E+00 0.  1.
         12    1    5    5    0    0  0.67967334852E+02 -0.37503565162E+02  0.16589828246E+03  0.18316199423E+03  0.00000000000E+00 0. -1.
        -13    1    3    3    0    0 -0.34537639688E+02  0.93089884638E+02 -0.11034696906E+02  0.99901650201E+02  0.00000000000E+00 0.  1.
         14    1    3    3    0    0  0.49797756386E+02  0.10310636811E+03 -0.59231257899E+01  0.11465523584E+03  0.00000000000E+00 0. -1.
          5    1    4    4  501    0  0.27953907425E+02 -0.19919338993E+03  0.31950902394E+03  0.37758116202E+03  0.47000000000E+01 0.  1.
         -5    1    4    4    0  501 -0.89152636275E+00 -0.30107016011E+02  0.22353709350E+03  0.22560618210E+03  0.47000000000E+01 0.  1.
          1    1    1    2  502    0 -0.76751185489E+02  0.79055855340E+02 -0.58333570938E+03  0.59365067386E+03  0.00000000000E+00 0. -1.
          1    1    1    2  503    0 -0.60139488159E+02 -0.35927117436E+02  0.53149409721E+03  0.53609093554E+03  0.00000000000E+00 0. -1.
<mgrwt>
<rscale>  0 0.87894233E+02</rscale>
<asrwt>0</asrwt>
<pdfrwt beam="1">  1        2 0.20951359E+00 0.70053664E+02</pdfrwt>
<pdfrwt beam="2">  1        2 0.11096428E+00 0.11027826E+03</pdfrwt>
<totfact> 0.11616725E+02</totfact>
</mgrwt>
</event>
<event>
13    1  0.2038932E-008  0.1753858E+03  0.7546771E-02  0.1291983E+00
          2   -1    0    0  502    0  0.00000000000E+00  0.00000000000E+00  0.37283777862E+04  0.37283777862E+04  0.00000000000E+00 0. -1.
          2   -1    0    0  503    0 -0.00000000000E+00 -0.00000000000E+00 -0.90909418074E+03  0.90909418074E+03  0.00000000000E+00 0. -1.
         24    2    1    2    0    0  0.17449321113E+02  0.18423443541E+03  0.11053216649E+02  0.20156433065E+03  0.79115104700E+02 0.  0.
         25    2    1    2    0    0 -0.38135499283E+03 -0.39906208275E+02  0.83839073131E+03  0.93034824580E+03  0.12499881643E+03 0.  0.
         24    2    1    2    0    0  0.21917323516E+03  0.29156585965E+02  0.24552030079E+04  0.24664590197E+04  0.80692457665E+02 0.  0.
        -13    1    3    3    0    0  0.16098526303E+02  0.19233621007E+03  0.98174695736E+01  0.19325828045E+03  0.00000000000E+00 0.  1.
         14    1    3    3    0    0  0.13507948099E+01 -0.81017746525E+01  0.12357470756E+01  0.83060502029E+01  0.00000000000E+00 0. -1.
        -13    1    5    5    0    0  0.12816164815E+02  0.25783625700E+02  0.26953479168E+03  0.27106835552E+03  0.00000000000E+00 0.  1.
         14    1    5    5    0    0  0.20635707035E+03  0.33729602644E+01  0.21856682162E+04  0.21953906642E+04  0.00000000000E+00 0. -1.
          5    1    4    4  501    0 -0.15057912261E+03  0.29987346264E+01  0.46945841507E+03  0.49304802814E+03  0.47000000000E+01 0.  1.
         -5    1    4    4    0  501 -0.23077587022E+03 -0.42904942901E+02  0.36893231624E+03  0.43730021766E+03  0.47000000000E+01 0.  1.
          1    1    1    2  502    0  0.36729643435E+02 -0.35485460940E+02  0.26431985683E+03  0.26920860194E+03  0.00000000000E+00 0. -1.
          1    1    1    2  503    0  0.10800279312E+03 -0.13799935216E+03 -0.74968320720E+03  0.76989176881E+03  0.00000000000E+00 0. -1.
<mgrwt>
<rscale>  0 0.94642458E+02</rscale>
<asrwt>0</asrwt>
<pdfrwt beam="1">  1        2 0.54829084E+00 0.51071368E+02</pdfrwt>
<pdfrwt beam="2">  1        2 0.13369032E+00 0.17538584E+03</pdfrwt>
<totfact> 0.63987844E+00</totfact>
</mgrwt>
</event>
<event>
13    1  0.2038932E-008  0.5157022E+02  0.7546771E-02  0.1554750E+00
          2   -1    0    0  502    0  0.00000000000E+00  0.00000000000E+00  0.48453075313E+03  0.48453075313E+03  0.00000000000E+00 0. -1.
          2   -1    0    0  503    0 -0.00000000000E+00 -0.00000000000E+00 -0.16696363814E+04  0.16696363814E+04  0.00000000000E+00 0. -1.
         24    2    1    2    0    0 -0.30487938283E+02 -0.95642199621E+01 -0.24998464608E+03  0.26453677050E+03  0.80413873091E+02 0.  0.
         25    2    1    2    0    0 -0.23391339535E+02 -0.21803539447E+02  0.28985479175E+03  0.31727638990E+03  0.12500383272E+03 0.  0.
         24    2    1    2    0    0  0.19108872871E+02  0.17082237569E+02 -0.79985994666E+02  0.11700638171E+03  0.81460310308E+02 0.  0.
        -13    1    5    5    0    0  0.16085631838E+02 -0.21613095106E+02 -0.72678076376E+02  0.77511136087E+02  0.00000000000E+00 0.  1.
         14    1    5    5    0    0  0.30232410329E+01  0.38695332675E+02 -0.73079182893E+01  0.39495245624E+02  0.00000000000E+00 0. -1.
        -13    1    3    3    0    0  0.17415873798E+02  0.14447663089E+02 -0.27119205345E+02  0.35319950842E+02  0.00000000000E+00 0.  1.
         14    1    3    3    0    0 -0.47903812080E+02 -0.24011883052E+02 -0.22286544074E+03  0.22921681966E+03  0.00000000000E+00 0. -1.
          5    1    4    4  501    0  0.25828519750E+02 -0.16397993045E+00  0.24691556921E+03  0.24830732498E+03  0.47000000000E+01 0. -1.
         -5    1    4    4    0  501 -0.49219859285E+02 -0.21639559517E+02  0.42939222540E+02  0.68969064923E+02  0.47000000000E+01 0. -1.
          1    1    1    2  502    0  0.36125621450E+02  0.37081400825E+02  0.15075775439E+03  0.15939884354E+03  0.00000000000E+00 0. -1.
          1    1    1    2  503    0 -0.13552165033E+01 -0.22795878985E+02 -0.12957475336E+04  0.12959487488E+04  0.00000000000E+00 0. -1.
<mgrwt>
<rscale>  0 0.34317110E+02</rscale>
<asrwt>0</asrwt>
<pdfrwt beam="1">  1        2 0.71254522E-01 0.51570217E+02</pdfrwt>
<pdfrwt beam="2">  1        2 0.24553477E+00 0.22836127E+02</pdfrwt>
<totfact> 0.16312277E+02</totfact>
</mgrwt>
</event>
<event>
13    1  0.2038932E-008  0.1159840E+03  0.7546771E-02  0.1275947E+00
          2   -1    0    0  502    0  0.00000000000E+00  0.00000000000E+00  0.18310893485E+04  0.18310893485E+04  0.00000000000E+00 0. -1.
          2   -1    0    0  503    0 -0.00000000000E+00 -0.00000000000E+00 -0.27820304801E+03  0.27820304801E+03  0.00000000000E+00 0. -1.
         24    2    1    2    0    0  0.67103696744E+02  0.59652662576E+02  0.25018988792E+03  0.27768263431E+03  0.80320104030E+02 0.  0.
         25    2    1    2    0    0 -0.24049652981E+02 -0.26260468357E+03  0.75396961483E+03  0.80847682882E+03  0.12499998805E+03 0.  0.
         24    2    1    2    0    0  0.10104144560E+02 -0.19984199899E+02  0.57812144563E+02  0.10230346931E+03  0.81377477175E+02 0.  0.
        -11    1    5    5    0    0 -0.25540741397E+02  0.15931156471E+02  0.36722411606E+02  0.47483331094E+02  0.00000000000E+00 0.  1.
         12    1    5    5    0    0  0.35644885957E+02 -0.35915356370E+02  0.21089732957E+02  0.54820138219E+02  0.00000000000E+00 0. -1.
        -13    1    3    3    0    0  0.54908854843E+01  0.56939819891E+02  0.98033955283E+02  0.11350308058E+03  0.00000000000E+00 0.  1.
         14    1    3    3    0    0  0.61612811260E+02  0.27128426843E+01  0.15215593263E+03  0.16417955373E+03  0.00000000000E+00 0. -1.
          5    1    4    4  501    0 -0.51501782763E+02 -0.94178054298E+02  0.17970632909E+03  0.20937620269E+03  0.47000000000E+01 0.  1.
         -5    1    4    4    0  501  0.27452129782E+02 -0.16842662927E+03  0.57426328574E+03  0.59910062613E+03  0.47000000000E+01 0.  1.
          1    1    1    2  502    0  0.40971797908E+02  0.80165068521E+02  0.66835816565E+03  0.67439436832E+03  0.00000000000E+00 0. -1.
          1    1    1    2  503    0 -0.94129986231E+02  0.14277115238E+03 -0.17744351252E+03  0.24643509570E+03  0.00000000000E+00 0. -1.
<mgrwt>
<rscale>  0 0.10209722E+03</rscale>
<asrwt>0</asrwt>
<pdfrwt beam="1">  1        2 0.26927784E+00 0.89873125E+02</pdfrwt>
<pdfrwt beam="2">  1        2 0.40912214E-01 0.11598397E+03</pdfrwt>
<totfact> 0.21405222E+02</totfact>
</mgrwt>
</event>
<event>
13    1  0.2038932E-008  0.1799546E+03  0.7546771E-02  0.1308580E+00
          2   -1    0    0  502    0  0.00000000000E+00  0.00000000000E+00  0.47671287123E+03  0.47671287123E+03  0.00000000000E+00 0. -1.
          2   -1    0    0  503    0 -0.00000000000E+00 -0.00000000000E+00 -0.23643786402E+04  0.23643786402E+04  0.00000000000E+00 0. -1.
         24    2    1    2    0    0  0.17735367612E+03  0.24578700627E+03  0.15406939119E+02  0.31099418945E+03  0.67929619539E+02 0.  0.
         25    2    1    2    0    0 -0.20518829188E+03 -0.21396834262E+03 -0.49436714196E+03  0.58983940351E+03  0.12500785621E+03 0.  0.
         24    2    1    2    0    0 -0.11592292560E+03 -0.96550222232E+02 -0.69111153941E+02  0.18538017330E+03  0.82640105043E+02 0.  0.
        -11    1    5    5    0    0 -0.12050641043E+02  0.14866358694E+02 -0.12586286835E+02  0.22905047187E+02  0.00000000000E+00 0.  1.
         12    1    5    5    0    0 -0.10387228456E+03 -0.11141658093E+03 -0.56524867106E+02  0.16247512612E+03  0.00000000000E+00 0. -1.
        -11    1    3    3    0    0  0.32232379016E+02  0.85755583566E+02  0.24290773555E+02  0.94778626545E+02  0.00000000000E+00 0.  1.
         12    1    3    3    0    0  0.14512129710E+03  0.16003142271E+03 -0.88838344364E+01  0.21621556290E+03  0.00000000000E+00 0. -1.
          5    1    4    4  501    0 -0.61631388278E+02 -0.37564350914E+02 -0.42372542798E+02  0.83827387313E+02  0.47000000000E+01 0.  1.
         -5    1    4    4    0  501 -0.14355690360E+03 -0.17640399171E+03 -0.45199459916E+03  0.50601201620E+03  0.47000000000E+01 0.  1.
          1    1    1    2  502    0  0.18361344767E+03  0.49362526608E+02  0.16374942878E+03  0.25092714605E+03  0.00000000000E+00 0. -1.
          1    1    1    2  503    0 -0.39855906303E+02  0.15369031971E+02 -0.15033438410E+04  0.15039505991E+04  0.00000000000E+00 0. -1.
<mgrwt>
<rscale>  0 0.87675724E+02</rscale>
<asrwt>0</asrwt>
<pdfrwt beam="1">  1        2 0.70104834E-01 0.17995459E+03</pdfrwt>
<pdfrwt beam="2">  1        2 0.34770274E+00 0.42716512E+02</pdfrwt>
<totfact> 0.73429032E+01</totfact>
</mgrwt>
</event>
<event>
13    1  0.2038932E-008  0.2117342E+03  0.7546771E-02  0.1333762E+00
          2   -1    0    0  502    0  0.00000000000E+00  0.00000000000E+00  0.24416007494E+04  0.24416007494E+04  0.00000000000E+00 0. -1.
          2   -1    0    0  503    0 -0.00000000000E+00 -0.00000000000E+00 -0.35232707174E+04  0.35232707174E+04  0.00000000000E+00 0. -1.
         24    2    1    2    0    0  0.72885511632E+02 -0.35921460034E+02 -0.53603942803E+03  0.54800988453E+03  0.79836808876E+02 0.  0.
         25    2    1    2    0    0 -0.11291145795E+03  0.57663776201E+03  0.50581899841E+03  0.78532653882E+03  0.12499923004E+03 0.  0.
         24    2    1    2    0    0 -0.27690637793E+02 -0.22087020424E+02 -0.19187917916E+03  0.21082279314E+03  0.79837477535E+02 0.  0.
        -11    1    5    5    0    0 -0.44843310174E+02  0.10742381802E+02 -0.13750782007E+03  0.14503351963E+03  0.00000000000E+00 0.  1.
         12    1    5    5    0    0  0.17152672381E+02 -0.32829402226E+02 -0.54371359089E+02  0.65789273514E+02  0.00000000000E+00 0. -1.
        -11    1    3    3    0    0 -0.13662805719E+02 -0.17284703533E+02 -0.62604351510E+02  0.66368200702E+02  0.00000000000E+00 0.  1.
         12    1    3    3    0    0  0.86548317351E+02 -0.18636756500E+02 -0.47343507652E+03  0.48164168383E+03  0.00000000000E+00 0. -1.
          5    1    4    4  501    0 -0.14025187289E+03  0.47129327789E+03  0.41830115426E+03  0.64558956566E+03  0.47000000000E+01 0.  1.
         -5    1    4    4    0  501  0.27340414936E+02  0.10534448412E+03  0.87517844148E+02  0.13973697316E+03  0.47000000000E+01 0.  1.
          1    1    1    2  502    0  0.10470973314E+01 -0.28983368904E+02  0.17573266777E+04  0.17575659829E+04  0.00000000000E+00 0. -1.
          1    1    1    2  503    0  0.66669486782E+02 -0.48964591265E+03 -0.26168970369E+04  0.26631462675E+04  0.00000000000E+00 0. -1.
<mgrwt>
<rscale>  0 0.78363092E+02</rscale>
<asrwt>0</asrwt>
<pdfrwt beam="1">  1        2 0.35905893E+00 0.29002277E+02</pdfrwt>
<pdfrwt beam="2">  1        2 0.51812805E+00 0.21173421E+03</pdfrwt>
<totfact> 0.13344850E+00</totfact>
</mgrwt>
</event>
<event>
13    1  0.2038932E-008  0.2502610E+03  0.7546771E-02  0.1336156E+00
          2   -1    0    0  502    0  0.00000000000E+00  0.00000000000E+00  0.12268430371E+04  0.12268430371E+04  0.00000000000E+00 0. -1.
          2   -1    0    0  503    0 -0.00000000000E+00 -0.00000000000E+00 -0.27228241423E+04  0.27228241423E+04  0.00000000000E+00 0. -1.
         24    2    1    2    0    0 -0.36593164577E+02 -0.93026411990E+02 -0.73335147508E+03  0.74458830154E+03  0.81328837278E+02 0.  0.
         25    2    1    2    0    0 -0.27477157343E+03 -0.46920385890E+03  0.24425567025E+03  0.60904646719E+03  0.12500035193E+03 0.  0.
         24    2    1    2    0    0 -0.53880375517E+02  0.18338759488E+03 -0.25387860838E+03  0.32767536269E+03  0.79891743620E+02 0.  0.
        -13    1    5    5    0    0 -0.25390311081E+02  0.17130586330E+03 -0.19247848330E+03  0.25891761862E+03  0.00000000000E+00 0.  1.
         14    1    5    5    0    0 -0.28490064436E+02  0.12081731575E+02 -0.61400125078E+02  0.68757744066E+02  0.00000000000E+00 0. -1.
        -13    1    3    3    0    0 -0.53634465354E+02 -0.31390347551E+02 -0.28480597867E+03  0.29150721308E+03  0.00000000000E+00 0.  1.
         14    1    3    3    0    0  0.17041300777E+02 -0.61636064439E+02 -0.44854549641E+03  0.45308108846E+03  0.00000000000E+00 0. -1.
          5    1    4    4  501    0 -0.11615317785E+03 -0.20592849203E+03  0.39644003285E+02  0.23977456402E+03  0.47000000000E+01 0. -1.
         -5    1    4    4    0  501 -0.15861839558E+03 -0.26327536686E+03  0.20461166697E+03  0.36927190317E+03  0.47000000000E+01 0. -1.
          1    1    1    2  502    0 -0.16916803587E+02 -0.17066461183E+02  0.70735592248E+03  0.70776397437E+03  0.00000000000E+00 0. -1.
          1    1    1    2  503    0  0.38216191711E+03  0.39590913719E+03 -0.14603626144E+04  0.15605930736E+04  0.00000000000E+00 0. -1.
<mgrwt>
<rscale>  0 0.77548556E+02</rscale>
<asrwt>0</asrwt>
<pdfrwt beam="1">  1        2 0.18041809E+00 0.24030030E+02</pdfrwt>
<pdfrwt beam="2">  1        2 0.40041531E+00 0.25026097E+03</pdfrwt>
<totfact> 0.13472145E+01</totfact>
</mgrwt>
</event>
<event>
13    1  0.2038932E-008  0.1683527E+03  0.7546771E-02  0.1220458E+00
          2   -1    0    0  503    0  0.00000000000E+00  0.00000000000E+00  0.21057719817E+04  0.21057719817E+04  0.00000000000E+00 0. -1.
          2   -1    0    0  502    0 -0.00000000000E+00 -0.00000000000E+00 -0.18544261775E+04  0.18544261775E+04  0.00000000000E+00 0. -1.
         24    2    1    2    0    0 -0.77886639916E+02  0.52614570903E+01 -0.11546397753E+04  0.11602569229E+04  0.83121026253E+02 0.  0.
         25    2    1    2    0    0 -0.93803783945E+02 -0.34567433689E+03  0.37438622873E+02  0.38120702682E+03  0.12500899868E+03 0.  0.
         24    2    1    2    0    0  0.14967151995E+03  0.10164018148E+03 -0.28273878895E+03  0.34161600931E+03  0.63466405800E+02 0.  0.
        -11    1    3    3    0    0 -0.80499872665E+02 -0.18694300431E+02 -0.67960629820E+03  0.68461261084E+03  0.00000000000E+00 0.  1.
         12    1    3    3    0    0  0.26132327496E+01  0.23955757521E+02 -0.47503347707E+03  0.47564431211E+03  0.00000000000E+00 0. -1.
        -13    1    5    5    0    0  0.32498006195E+00  0.20893564034E+02 -0.43478969116E+02  0.48239686830E+02  0.00000000000E+00 0.  1.
         14    1    5    5    0    0  0.14934653988E+03  0.80746617445E+02 -0.23925981984E+03  0.29337632248E+03  0.00000000000E+00 0. -1.
          5    1    4    4  501    0 -0.41933726035E+02 -0.86151888741E+02 -0.42181107682E+02  0.10479466188E+03  0.47000000000E+01 0. -1.
         -5    1    4    4    0  501 -0.51870057909E+02 -0.25952244815E+03  0.79619730556E+02  0.27641236495E+03  0.47000000000E+01 0. -1.
          1    1    1    2  502    0  0.73465341423E+02  0.79141856430E+02 -0.19517521890E+03  0.22305594792E+03  0.00000000000E+00 0. -1.
          1    1    1    2  503    0 -0.51446437509E+02  0.15963084189E+03  0.18464609645E+04  0.18540622522E+04  0.00000000000E+00 0. -1.
<mgrwt>
<rscale>  0 0.13483115E+03</rscale>
<asrwt>0</asrwt>
<pdfrwt beam="1">  1        2 0.30967235E+00 0.16835274E+03</pdfrwt>
<pdfrwt beam="2">  1        2 0.27270973E+00 0.10798421E+03</pdfrwt>
<totfact> 0.12831967E+01</totfact>
</mgrwt>
</event>
<event>
13    1  0.2038932E-008  0.1004014E+03  0.7546771E-02  0.1366946E+00
          2   -1    0    0  503    0  0.00000000000E+00  0.00000000000E+00  0.50013607694E+04  0.50013607694E+04  0.00000000000E+00 0. -1.
          2   -1    0    0  502    0 -0.00000000000E+00 -0.00000000000E+00 -0.44823111833E+03  0.44823111833E+03  0.00000000000E+00 0. -1.
         24    2    1    2    0    0  0.57882231646E+02 -0.17283594085E+02 -0.15658388464E+03  0.18814333743E+03  0.85031330253E+02 0.  0.
         25    2    1    2    0    0  0.10232880946E+03  0.28041785852E+03  0.39701220134E+04  0.39832899898E+04  0.12499992454E+03 0.  0.
         24    2    1    2    0    0 -0.99692703421E+02 -0.13016873721E+03  0.31916392142E+03  0.36761888630E+03  0.79971879821E+02 0.  0.
        -11    1    5    5    0    0 -0.85892561718E+02 -0.12584628892E+03  0.22122105420E+03  0.26861417575E+03  0.00000000000E+00 0.  1.
         12    1    5    5    0    0 -0.13800141703E+02 -0.43224482890E+01  0.97942867224E+02  0.99004710546E+02  0.00000000000E+00 0. -1.
        -13    1    3    3    0    0  0.55368227906E+02 -0.43678253257E+02 -0.77744509348E+02  0.10496494273E+03  0.00000000000E+00 0.  1.
         14    1    3    3    0    0  0.25140037401E+01  0.26394659173E+02 -0.78839375291E+02  0.83178394694E+02  0.00000000000E+00 0. -1.
          5    1    4    4  501    0  0.52867631583E+02  0.24883745602E+02  0.10297126496E+04  0.10313798611E+04  0.47000000000E+01 0. -1.
         -5    1    4    4    0  501  0.49461177873E+02  0.25553411292E+03  0.29404093638E+04  0.29519101287E+04  0.47000000000E+01 0. -1.
          1    1    1    2  502    0 -0.37615519273E+02 -0.92972105876E+02 -0.23394985369E+03  0.25454130078E+03  0.00000000000E+00 0. -1.
          1    1    1    2  503    0 -0.22902818409E+02 -0.39993421351E+02  0.65437745455E+03  0.65599837337E+03  0.00000000000E+00 0. -1.
<mgrwt>
<rscale>  0 0.68023545E+02</rscale>
<asrwt>0</asrwt>
<pdfrwt beam="1">  1        2 0.73549420E+00 0.46087014E+02</pdfrwt>
<pdfrwt beam="2">  1        2 0.65916344E-01 0.10040144E+03</pdfrwt>
<totfact> 0.16756610E+00</totfact>
</mgrwt>
</event>
<event>
13    1  0.2038932E-008  0.6403440E+02  0.7546771E-02  0.1404690E+00
         -3   -1    0    0    0  501 -0.00000000000E+00  0.00000000000E+00  0.13673031340E+04  0.13673031340E+04  0.00000000000E+00 0.  1.
          2   -1    0    0  503    0  0.00000000000E+00 -0.00000000000E+00 -0.42691038509E+03  0.42691038509E+03  0.00000000000E+00 0. -1.
         24    2    1    2    0    0  0.46368460901E+02  0.19919699081E+03  0.60205780853E+03  0.64103370059E+03  0.81370296655E+02 0.  0.
         25    2    1    2    0    0 -0.12646266317E+03 -0.24999436470E+03 -0.12709486649E+03  0.33207099547E+03  0.12501221295E+03 0.  0.
         24    2    1    2    0    0  0.43289374307E+01  0.28201547330E+02  0.36936841047E+02  0.92204545179E+02  0.79519060319E+02 0.  0.
        -11    1    3    3    0    0 -0.50220231100E+01  0.92742157232E+02  0.35804921058E+03  0.36989939935E+03  0.00000000000E+00 0.  1.
         12    1    3    3    0    0  0.51390484011E+02  0.10645483358E+03  0.24400859794E+03  0.27113430124E+03  0.00000000000E+00 0. -1.
        -13    1    5    5    0    0 -0.34054294106E+02  0.19361861968E+02  0.35380319341E+02  0.52785828047E+02  0.00000000000E+00 0.  1.
         14    1    5    5    0    0  0.38383231537E+02  0.88396853616E+01  0.15565217068E+01  0.39418717132E+02  0.00000000000E+00 0. -1.
          5    1    4    4  502    0  0.17532258378E+02 -0.12980983478E+01 -0.10329015903E+01  0.18226958848E+02  0.47000000000E+01 0.  1.
         -5    1    4    4    0  502 -0.14399492155E+03 -0.24869626635E+03 -0.12606196490E+03  0.31384403662E+03  0.47000000000E+01 0.  1.
          1    1    1    2  503    0  0.42463538682E+02 -0.32137260866E+02 -0.14364065831E+03  0.15319462906E+03  0.00000000000E+00 0. -1.
         -4    1    1    2    0  501  0.33301726159E+02  0.54733087428E+02  0.57213362415E+03  0.57570964878E+03  0.00000000000E+00 0.  1.
<mgrwt>
<rscale>  0 0.58395789E+02</rscale>
<asrwt>0</asrwt>
<pdfrwt beam="2">  1        2 0.62780940E-01 0.53253691E+02</pdfrwt>
<pdfrwt beam="1">  1       -3 0.20107399E+00 0.64034401E+02</pdfrwt>
<totfact> 0.79677186E+00</totfact>
</mgrwt>
</event>
<event>
13    1  0.2038932E-008  0.1951075E+03  0.7546771E-02  0.1274853E+00
          2   -1    0    0  503    0  0.00000000000E+00  0.00000000000E+00  0.10797794914E+04  0.10797794914E+04  0.00000000000E+00 0. -1.
          2   -1    0    0  502    0 -0.00000000000E+00 -0.00000000000E+00 -0.16019121880E+04  0.16019121880E+04  0.00000000000E+00 0. -1.
         24    2    1    2    0    0 -0.71947139589E+02  0.30091355615E+02 -0.46434537245E+03  0.47793820708E+03  0.82014780955E+02 0.  0.
         25    2    1    2    0    0  0.21333463488E+03  0.15773206202E+03 -0.32686551382E+03  0.43915693292E+03  0.12500671093E+03 0.  0.
         24    2    1    2    0    0  0.77817546284E+01 -0.28215245855E+02 -0.11468049198E+03  0.14372989220E+03  0.81547598784E+02 0.  0.
        -13    1    5    5    0    0 -0.23978457357E+01  0.19036741467E+02  0.99526979013E-01  0.19187420241E+02  0.00000000000E+00 0.  1.
         14    1    5    5    0    0  0.10179600364E+02 -0.47251987322E+02 -0.11478001896E+03  0.12454247196E+03  0.00000000000E+00 0. -1.
        -13    1    3    3    0    0 -0.69731974213E+02  0.52319134395E+02 -0.31148820072E+03  0.32345747671E+03  0.00000000000E+00 0.  1.
         14    1    3    3    0    0 -0.22151653754E+01 -0.22227778780E+02 -0.15285717172E+03  0.15448073037E+03  0.00000000000E+00 0. -1.
          5    1    4    4  501    0  0.14109863757E+03  0.16430878150E+03 -0.27393522158E+03  0.34924031386E+03  0.47000000000E+01 0. -1.
         -5    1    4    4    0  501  0.72235997309E+02 -0.65767194847E+01 -0.52930292246E+02  0.89916619063E+02  0.47000000000E+01 0. -1.
          1    1    1    2  502    0  0.11964693758E+02 -0.52646950316E+02 -0.60801704348E+03  0.61040935481E+03  0.00000000000E+00 0. -1.
          1    1    1    2  503    0 -0.16113394368E+03 -0.10696122146E+03  0.99177572518E+03  0.10104572924E+04  0.00000000000E+00 0. -1.
<mgrwt>
<rscale>  0 0.10263399E+03</rscale>
<asrwt>0</asrwt>
<pdfrwt beam="1">  1        2 0.15879110E+00 0.19510747E+03</pdfrwt>
<pdfrwt beam="2">  1        2 0.23557532E+00 0.53989400E+02</pdfrwt>
<totfact> 0.59907822E+01</totfact>
</mgrwt>
</event>
<event>
13    1  0.2038932E-008  0.1024758E+03  0.7546771E-02  0.1388781E+00
          2   -1    0    0  503    0  0.00000000000E+00  0.00000000000E+00  0.38537706919E+04  0.38537706919E+04  0.00000000000E+00 0. -1.
          2   -1    0    0  502    0 -0.00000000000E+00 -0.00000000000E+00 -0.35466583975E+04  0.35466583975E+04  0.00000000000E+00 0. -1.
         24    2    1    2    0    0  0.53192599161E+03 -0.37835301616E+03  0.61497971812E+03  0.90277370840E+03  0.10346037644E+03 0.  0.
         25    2    1    2    0    0  0.10002853558E+03  0.69658620748E+02 -0.66728247204E+02  0.18690398496E+03  0.12498963655E+03 0.  0.
         24    2    1    2    0    0 -0.61799299972E+03  0.40004024870E+03  0.28482308026E+04  0.29430355299E+04  0.84213283039E+02 0.  0.
        -13    1    5    5    0    0 -0.46135145384E+03  0.25790450152E+03  0.20985991308E+04  0.21641345170E+04  0.00000000000E+00 0.  1.
         14    1    5    5    0    0 -0.15664154589E+03  0.14213574718E+03  0.74963167184E+03  0.77890101294E+03  0.00000000000E+00 0. -1.
        -13    1    3    3    0    0  0.46908910611E+03 -0.29121746960E+03  0.53526207740E+03  0.76899785147E+03  0.00000000000E+00 0.  1.
         14    1    3    3    0    0  0.62836885497E+02 -0.87135546564E+02  0.79717640721E+02  0.13377585693E+03  0.00000000000E+00 0. -1.
          5    1    4    4  501    0 -0.86574587089E+00  0.55803165132E+02 -0.63823083150E+02  0.84913006645E+02  0.47000000000E+01 0.  1.
         -5    1    4    4    0  501  0.10089428145E+03  0.13855455616E+02 -0.29051640534E+01  0.10199097832E+03  0.47000000000E+01 0.  1.
          1    1    1    2  502    0  0.22822554419E+02 -0.99905789560E+02 -0.32251518095E+04  0.32267795447E+04  0.00000000000E+00 0. -1.
          1    1    1    2  503    0 -0.36784081887E+02  0.85599362725E+01  0.13578183047E+03  0.14093632135E+03  0.00000000000E+00 0. -1.
<mgrwt>
<rscale>  0 0.62210910E+02</rscale>
<asrwt>0</asrwt>
<pdfrwt beam="1">  1        2 0.56673099E+00 0.37766932E+02</pdfrwt>
<pdfrwt beam="2">  1        2 0.52156741E+00 0.10247582E+03</pdfrwt>
<totfact> 0.25077172E-01</totfact>
</mgrwt>
</event>
<event>
13    1  0.2038932E-008  0.1213572E+03  0.7546771E-02  0.1249792E+00
          2   -1    0    0  503    0  0.00000000000E+00  0.00000000000E+00  0.10574339431E+04  0.10574339431E+04  0.00000000000E+00 0. -1.
          2   -1    0    0  502    0 -0.00000000000E+00 -0.00000000000E+00 -0.73165354558E+03  0.73165354558E+03  0.00000000000E+00 0. -1.
         24    2    1    2    0    0 -0.77763746150E+02 -0.21802420113E+02 -0.44395434431E+03  0.45788207546E+03  0.77704500907E+02 0.  0.
         25    2    1    2    0    0  0.44521815274E+00 -0.46572318107E+02  0.14955363070E+03  0.20039308959E+03  0.12498769086E+03 0.  0.
         24    2    1    2    0    0  0.23604332743E+02  0.70084641068E+02  0.11907999535E+02  0.10957042135E+03  0.79967839430E+02 0.  0.
        -11    1    5    5    0    0  0.59774237617E+01 -0.17421880636E+02  0.83826901963E+01  0.20236625575E+02  0.00000000000E+00 0.  1.
         12    1    5    5    0    0  0.17626908981E+02  0.87506521704E+02  0.35253093385E+01  0.89333795771E+02  0.00000000000E+00 0. -1.
        -13    1    3    3    0    0 -0.98520796578E+01 -0.17134016232E+02 -0.18683458158E+02  0.27197602736E+02  0.00000000000E+00 0.  1.
         14    1    3    3    0    0 -0.67911666492E+02 -0.46684038807E+01 -0.42527088615E+03  0.43068447273E+03  0.00000000000E+00 0. -1.
          5    1    4    4  501    0  0.19489039596E+02  0.35100463703E+01  0.14499186898E+03  0.14641337083E+03  0.47000000000E+01 0.  1.
         -5    1    4    4    0  501 -0.19043821443E+02 -0.50082364477E+02  0.45617617219E+01  0.53979718754E+02  0.47000000000E+01 0.  1.
          1    1    1    2  502    0  0.56938942524E+02  0.12639950930E+03 -0.17742401088E+03  0.22516251634E+03  0.00000000000E+00 0. -1.
          1    1    1    2  503    0 -0.32247472693E+01 -0.12810941215E+03  0.78569712252E+03  0.79607938599E+03  0.00000000000E+00 0. -1.
<mgrwt>
<rscale>  0 0.11603113E+03</rscale>
<asrwt>0</asrwt>
<pdfrwt beam="1">  1        2 0.15550499E+00 0.11093883E+03</pdfrwt>
<pdfrwt beam="2">  1        2 0.10759611E+00 0.12135718E+03</pdfrwt>
<totfact> 0.18156789E+02</totfact>
</mgrwt>
</event>
<event>
13    1  0.2038932E-008  0.2366461E+03  0.7546771E-02  0.1287628E+00
          2   -1    0    0  503    0  0.00000000000E+00  0.00000000000E+00  0.31019019379E+04  0.31019019379E+04  0.00000000000E+00 0. -1.
          2   -1    0    0  502    0 -0.00000000000E+00 -0.00000000000E+00 -0.16719101452E+04  0.16719101452E+04  0.00000000000E+00 0. -1.
         24    2    1    2    0    0 -0.60007305796E+03  0.16845948860E+03 -0.16790394753E+03  0.65363154029E+03  0.10284055951E+03 0.  0.
         25    2    1    2    0    0  0.32445932072E+03 -0.18468883724E+03  0.91702414976E+03  0.99796617065E+03  0.12497747441E+03 0.  0.
         24    2    1    2    0    0  0.75837819732E+02  0.99693134154E+02  0.71048320356E+01  0.14888178286E+03  0.80157412198E+02 0.  0.
        -13    1    5    5    0    0  0.24049350645E+02  0.57589932168E+02  0.40349068742E+02  0.74317016234E+02  0.00000000000E+00 0.  1.
         14    1    5    5    0    0  0.51788469086E+02  0.42103201985E+02 -0.33244236707E+02  0.74564766626E+02  0.00000000000E+00 0. -1.
        -13    1    3    3    0    0 -0.90120884483E+02  0.60808837520E+02 -0.47909841600E+02  0.11880589827E+03  0.00000000000E+00 0.  1.
         14    1    3    3    0    0 -0.50995217348E+03  0.10765065108E+03 -0.11999410593E+03  0.53482564203E+03  0.00000000000E+00 0. -1.
          5    1    4    4  501    0  0.90432236092E+02 -0.94859067832E+02  0.20771336391E+03  0.24564845536E+03  0.47000000000E+01 0.  1.
         -5    1    4    4    0  501  0.23402708463E+03 -0.89829769411E+02  0.70931078585E+03  0.75231771529E+03  0.47000000000E+01 0.  1.
          1    1    1    2  502    0  0.20239439675E+03 -0.12280355300E+03 -0.11373802733E+04  0.11617564678E+04  0.00000000000E+00 0. -1.
          1    1    1    2  503    0 -0.26184792437E+01  0.39339767487E+02  0.18111470316E+04  0.18115761215E+04  0.00000000000E+00 0. -1.
<mgrwt>
<rscale>  0 0.96592970E+02</rscale>
<asrwt>0</asrwt>
<pdfrwt beam="1">  1        2 0.45616205E+00 0.39426815E+02</pdfrwt>
<pdfrwt beam="2">  1        2 0.24586914E+00 0.23664610E+03</pdfrwt>
<totfact> 0.57160985E+00</totfact>
</mgrwt>
</event>
<event>
13    1  0.2038932E-008  0.6787684E+02  0.7546771E-02  0.1392982E+00
          2   -1    0    0  502    0  0.00000000000E+00  0.00000000000E+00  0.17743445499E+04  0.17743445499E+04  0.00000000000E+00 0. -1.
          2   -1    0    0  503    0 -0.00000000000E+00 -0.00000000000E+00 -0.21866545569E+04  0.21866545569E+04  0.00000000000E+00 0. -1.
         24    2    1    2    0    0  0.14253050862E+03  0.98710945398E+02 -0.14750332481E+04  0.14873847859E+04  0.80818449123E+02 0.  0.
         25    2    1    2    0    0 -0.22733848504E+03 -0.17739688544E+03 -0.14436335143E+03  0.34585860882E+03  0.12499983325E+03 0.  0.
         24    2    1    2    0    0 -0.28539549049E+02  0.12143193797E+03  0.49633176810E+03  0.51827365063E+03  0.81866546799E+02 0.  0.
        -13    1    5    5    0    0 -0.48031920686E+01  0.66038039641E+02  0.11918319817E+03  0.13634048577E+03  0.00000000000E+00 0.  1.
         14    1    5    5    0    0 -0.23736356980E+02  0.55393898331E+02  0.37714856993E+03  0.38193316486E+03  0.00000000000E+00 0. -1.
        -13    1    3    3    0    0  0.10179158517E+02  0.44324100352E+02 -0.25907811680E+03  0.26303937300E+03  0.00000000000E+00 0.  1.
         14    1    3    3    0    0  0.13235135010E+03  0.54386845046E+02 -0.12159551313E+04  0.12243454129E+04  0.00000000000E+00 0. -1.
          5    1    4    4  501    0 -0.75071754881E+02 -0.92760229372E+02  0.21018591360E+00  0.11942513434E+03  0.47000000000E+01 0.  1.
         -5    1    4    4    0  501 -0.15226673016E+03 -0.84636656070E+02 -0.14457353734E+03  0.22643347448E+03  0.47000000000E+01 0.  1.
          1    1    1    2  502    0  0.59001078880E+02 -0.33498033103E+02  0.11574305100E+04  0.11594173670E+04  0.00000000000E+00 0. -1.
          1    1    1    2  503    0  0.54346446590E+02 -0.92479648240E+01 -0.44667568551E+03  0.45006469439E+03  0.00000000000E+00 0. -1.
<mgrwt>
<rscale>  0 0.61171013E+02</rscale>
<asrwt>0</asrwt>
<pdfrwt beam="1">  1        2 0.26093302E+00 0.67876842E+02</pdfrwt>
<pdfrwt beam="2">  1        2 0.32156685E+00 0.55127680E+02</pdfrwt>
<totfact> 0.15179264E+01</totfact>
</mgrwt>
</event>
<event>
13    1  0.2038932E-008  0.7906198E+02  0.7546771E-02  0.1416521E+00
          2   -1    0    0  503    0  0.00000000000E+00  0.00000000000E+00  0.90868958179E+03  0.90868958179E+03  0.00000000000E+00 0. -1.
          2   -1    0    0  502    0 -0.00000000000E+00 -0.00000000000E+00 -0.64277987771E+03  0.64277987771E+03  0.00000000000E+00 0. -1.
         24    2    1    2    0    0  0.85621455788E+02 -0.74409250625E+02 -0.39933528185E+03  0.42329196321E+03  0.82702167537E+02 0.  0.
         25    2    1    2    0    0 -0.55621450642E+02 -0.95488077369E+02  0.66265866714E+03  0.68333908140E+03  0.12499628932E+03 0.  0.
         24    2    1    2    0    0 -0.48454346958E+02  0.69061789599E+02 -0.75883857566E+02  0.13390247050E+03  0.71092596281E+02 0.  0.
        -13    1    5    5    0    0 -0.64561074472E+02  0.41312546880E+02 -0.42679418784E+02  0.87729081008E+02  0.00000000000E+00 0.  1.
         14    1    5    5    0    0  0.16106727514E+02  0.27749242719E+02 -0.33204438782E+02  0.46173389496E+02  0.00000000000E+00 0. -1.
        -13    1    3    3    0    0 -0.26075738794E+01 -0.19831536380E+02 -0.17488171528E+03  0.17602188391E+03  0.00000000000E+00 0.  1.
         14    1    3    3    0    0  0.88229029667E+02 -0.54577714245E+02 -0.22445356657E+03  0.24727007929E+03  0.00000000000E+00 0. -1.
          5    1    4    4  501    0 -0.38496047079E+02 -0.83407428250E+02  0.65358005858E+03  0.66002100550E+03  0.47000000000E+01 0.  1.
         -5    1    4    4    0  501 -0.17125403563E+02 -0.12080649118E+02  0.90786085598E+01  0.23318075900E+02  0.47000000000E+01 0.  1.
          1    1    1    2  502    0  0.31778058247E+02  0.23175347991E+02 -0.10453457976E+03  0.11168894352E+03  0.00000000000E+00 0. -1.
          1    1    1    2  503    0 -0.13323716434E+02  0.77660190404E+02  0.18300475612E+03  0.19924700087E+03  0.00000000000E+00 0. -1.
<mgrwt>
<rscale>  0 0.55763795E+02</rscale>
<asrwt>0</asrwt>
<pdfrwt beam="1">  1        2 0.13363082E+00 0.79061976E+02</pdfrwt>
<pdfrwt beam="2">  1        2 0.94526452E-01 0.39331180E+02</pdfrwt>
<totfact> 0.26831540E+02</totfact>
</mgrwt>
</event>
<event>
13    1  0.2038932E-008  0.1285005E+03  0.7546771E-02  0.1282396E+00
          2   -1    0    0  503    0  0.00000000000E+00  0.00000000000E+00  0.32448652388E+03  0.32448652388E+03  0.00000000000E+00 0. -1.
          2   -1    0    0  502    0 -0.00000000000E+00 -0.00000000000E+00 -0.39051715257E+04  0.39051715257E+04  0.00000000000E+00 0. -1.
         24    2    1    2    0    0  0.23717073501E+02  0.23951828264E+02 -0.16873185061E+04  0.16896749554E+04  0.82592518275E+02 0.  0.
         25    2    1    2    0    0 -0.13430969067E+00 -0.24304061605E+02 -0.99116650071E+02  0.16136453713E+03  0.12499479218E+03 0.  0.
         24    2    1    2    0    0  0.54478321916E+02 -0.10520816288E+03  0.95814575714E+02  0.17113035140E+03  0.77900700601E+02 0.  0.
        -11    1    5    5    0    0  0.49089712160E+02 -0.11696059154E+03  0.77280386163E+02  0.14853227898E+03  0.00000000000E+00 0.  1.
         12    1    5    5    0    0  0.53886097564E+01  0.11752428661E+02  0.18534189551E+02  0.22598072414E+02  0.00000000000E+00 0. -1.
        -13    1    3    3    0    0  0.14049675026E+02 -0.25937352589E+02 -0.30511403030E+03  0.30653663911E+03  0.00000000000E+00 0.  1.
         14    1    3    3    0    0  0.96673984747E+01  0.49889180853E+02 -0.13822044758E+04  0.13831383163E+04  0.00000000000E+00 0. -1.
          5    1    4    4  501    0 -0.86915562110E+01 -0.74957477520E+02 -0.62665410933E+02  0.98199848843E+02  0.47000000000E+01 0. -1.
         -5    1    4    4    0  501  0.85572465203E+01  0.50653415915E+02 -0.36451239138E+02  0.63164688289E+02  0.47000000000E+01 0. -1.
          1    1    1    2  502    0 -0.72990811387E+02 -0.22173980609E+02 -0.20221986995E+04  0.20236370535E+04  0.00000000000E+00 0. -1.
          1    1    1    2  503    0 -0.50702743389E+01  0.12773437683E+03  0.13213427815E+03  0.18385115221E+03  0.00000000000E+00 0. -1.
<mgrwt>
<rscale>  0 0.99008141E+02</rscale>
<asrwt>0</asrwt>
<pdfrwt beam="1">  1        2 0.47718612E-01 0.12850049E+03</pdfrwt>
<pdfrwt beam="2">  1        2 0.57428986E+00 0.76284625E+02</pdfrwt>
<totfact> 0.14710897E+01</totfact>
</mgrwt>
</event>
<event>
13    1  0.2038932E-008  0.1789218E+03  0.7546771E-02  0.1317332E+00
          2   -1    0    0  502    0  0.00000000000E+00  0.00000000000E+00  0.11633046023E+04  0.11633046023E+04  0.00000000000E+00 0. -1.
          2   -1    0    0  503    0 -0.00000000000E+00 -0.00000000000E+00 -0.14161626269E+04  0.14161626269E+04  0.00000000000E+00 0. -1.
         24    2    1    2    0    0 -0.11553114300E+03 -0.52805240250E+02 -0.11901964651E+03  0.19239789861E+03  0.81947768317E+02 0.  0.
         25    2    1    2    0    0  0.10714069740E+03  0.63809328036E+02  0.49830554974E+03  0.52866264924E+03  0.12500006566E+03 0.  0.
         24    2    1    2    0    0  0.13020031056E+03 -0.16748773072E+03 -0.38629569020E+02  0.23008711658E+03  0.80271892970E+02 0.  0.
        -11    1    3    3    0    0 -0.76757507745E+02 -0.39210303103E+02 -0.12399517383E+03  0.15100982086E+03  0.00000000000E+00 0.  1.
         12    1    3    3    0    0 -0.38773635258E+02 -0.13594937147E+02  0.49755273209E+01  0.41388077744E+02  0.00000000000E+00 0. -1.
        -13    1    5    5    0    0  0.26367322505E+02 -0.98932879870E+02 -0.16261502766E+02  0.10366960445E+03  0.00000000000E+00 0.  1.
         14    1    5    5    0    0  0.10383298806E+03 -0.68554850851E+02 -0.22368066254E+02  0.12641751213E+03  0.00000000000E+00 0. -1.
          5    1    4    4  501    0  0.77231014468E+02 -0.19652696555E+02  0.31542028091E+03  0.32536579674E+03  0.47000000000E+01 0. -1.
         -5    1    4    4    0  501  0.29909682930E+02  0.83462024591E+02  0.18288526883E+03  0.20329685250E+03  0.47000000000E+01 0. -1.
          1    1    1    2  502    0 -0.39646651475E+02 -0.20109324466E+01  0.50945315386E+03  0.51099747240E+03  0.00000000000E+00 0. -1.
          1    1    1    2  503    0 -0.82163213484E+02  0.15849457538E+03 -0.11029675127E+04  0.11173220924E+04  0.00000000000E+00 0. -1.
<mgrwt>
<rscale>  0 0.84277919E+02</rscale>
<asrwt>0</asrwt>
<pdfrwt beam="1">  1        2 0.17107421E+00 0.39697617E+02</pdfrwt>
<pdfrwt beam="2">  1        2 0.20825921E+00 0.17892176E+03</pdfrwt>
<totfact> 0.66408601E+01</totfact>
</mgrwt>
</event>
<event>
13    1  0.2038932E-008  0.4045607E+03  0.7546771E-02  0.1133258E+00
          2   -1    0    0  502    0  0.00000000000E+00  0.00000000000E+00  0.29247955982E+04  0.29247955982E+04  0.00000000000E+00 0. -1.
          2   -1    0    0  503    0 -0.00000000000E+00 -0.00000000000E+00 -0.16140717022E+04  0.16140717022E+04  0.00000000000E+00 0. -1.
         24    2    1    2    0    0 -0.14361601218E+03 -0.84578206692E+02 -0.31670729626E+03  0.36652519616E+03  0.79108633621E+02 0.  0.
         25    2    1    2    0    0  0.41451477011E+03  0.52224386981E+03  0.99544084682E+03  0.12046119203E+04  0.12500497926E+03 0.  0.
         24    2    1    2    0    0  0.10305167077E+03 -0.21883580917E+03  0.39289390349E+03  0.46828883993E+03  0.80125276792E+02 0.  0.
        -11    1    5    5    0    0 -0.67469178239E+01 -0.63862136782E+02  0.11449938113E+03  0.13127833673E+03  0.00000000000E+00 0.  1.
         12    1    5    5    0    0  0.10979858859E+03 -0.15497367239E+03  0.27839452236E+03  0.33701050320E+03  0.00000000000E+00 0. -1.
        -13    1    3    3    0    0 -0.40162464083E+02  0.12387431261E+02 -0.59906777054E+02  0.73179873677E+02  0.00000000000E+00 0.  1.
         14    1    3    3    0    0 -0.10345354810E+03 -0.96965637953E+02 -0.25680051921E+03  0.29334532248E+03  0.00000000000E+00 0. -1.
          5    1    4    4  501    0  0.16547531490E+03  0.28257572825E+03  0.55898330533E+03  0.64785457294E+03  0.47000000000E+01 0.  1.
         -5    1    4    4    0  501  0.24903945521E+03  0.23966814156E+03  0.43645754149E+03  0.55675734737E+03  0.47000000000E+01 0.  1.
          1    1    1    2  502    0 -0.35011768329E+03 -0.10065668608E+03  0.13416944118E+04  0.13902726550E+04  0.00000000000E+00 0. -1.
          1    1    1    2  503    0 -0.23832745406E+02 -0.11817316787E+03 -0.11025979699E+04  0.11091686890E+04  0.00000000000E+00 0. -1.
<mgrwt>
<rscale>  0 0.22084109E+03</rscale>
<asrwt>0</asrwt>
<pdfrwt beam="1">  1        2 0.43011700E+00 0.40456068E+03</pdfrwt>
<pdfrwt beam="2">  1        2 0.23736349E+00 0.12055247E+03</pdfrwt>
<totfact> 0.56387174E+00</totfact>
</mgrwt>
</event>
<event>
13    1  0.2038932E-008  0.1318892E+03  0.7546771E-02  0.1381505E+00
          2   -1    0    0  502    0  0.00000000000E+00  0.00000000000E+00  0.21542459658E+03  0.21542459658E+03  0.00000000000E+00 0. -1.
          2   -1    0    0  503    0 -0.00000000000E+00 -0.00000000000E+00 -0.28086250283E+04  0.28086250283E+04  0.00000000000E+00 0. -1.
         24    2    1    2    0    0 -0.78047710595E+02 -0.70668341953E+02 -0.14298464671E+03  0.19671315333E+03  0.84652205023E+02 0.  0.
         25    2    1    2    0    0  0.15423353602E+03  0.95946019440E+02 -0.50705901952E+03  0.55292642227E+03  0.12500062757E+03 0.  0.
         24    2    1    2    0    0  0.69510125834E+02 -0.90488253568E+02 -0.41826136696E+03  0.44099367937E+03  0.80703609111E+02 0.  0.
        -13    1    5    5    0    0 -0.10209021601E+02  0.20512642892E+01 -0.92544633620E+02  0.93128626206E+02  0.00000000000E+00 0.  1.
         14    1    5    5    0    0  0.79719147435E+02 -0.92539517857E+02 -0.32571673334E+03  0.34786505316E+03  0.00000000000E+00 0. -1.
        -13    1    3    3    0    0 -0.17573547230E+02 -0.11741289740E+02  0.89028805494E+01  0.22933572096E+02  0.00000000000E+00 0.  1.
         14    1    3    3    0    0 -0.60474163365E+02 -0.58927052213E+02 -0.15188752726E+03  0.17377958124E+03  0.00000000000E+00 0. -1.
          5    1    4    4  501    0  0.12002954725E+03  0.34262434126E+02 -0.18514281527E+03  0.22334045458E+03  0.47000000000E+01 0. -1.
         -5    1    4    4    0  501  0.34203988777E+02  0.61683585314E+02 -0.32191620424E+03  0.32958596769E+03  0.47000000000E+01 0. -1.
          1    1    1    2  502    0 -0.12888594071E+03  0.39016415919E+02  0.12469730956E+03  0.18353006684E+03  0.00000000000E+00 0. -1.
          1    1    1    2  503    0 -0.16810010549E+02  0.26194160163E+02 -0.16495927081E+04  0.16498863031E+04  0.00000000000E+00 0. -1.
<mgrwt>
<rscale>  0 0.64069770E+02</rscale>
<asrwt>0</asrwt>
<pdfrwt beam="1">  1        2 0.31680087E-01 0.13188923E+03</pdfrwt>
<pdfrwt beam="2">  1        2 0.41303310E+00 0.31124114E+02</pdfrwt>
<totfact> 0.11051386E+02</totfact>
</mgrwt>
</event>
<event>
13    1  0.2038932E-008  0.1031784E+03  0.7546771E-02  0.1278628E+00
          2   -1    0    0  502    0  0.00000000000E+00  0.00000000000E+00  0.79438362754E+03  0.79438362754E+03  0.00000000000E+00 0. -1.
          2   -1    0    0  503    0 -0.00000000000E+00 -0.00000000000E+00 -0.16839501446E+04  0.16839501446E+04  0.00000000000E+00 0. -1.
         24    2    1    2    0    0  0.24948730381E+02  0.14765551460E+02 -0.36705635749E+03  0.37687876418E+03  0.80416246242E+02 0.  0.
         25    2    1    2    0    0  0.32662820112E+02 -0.27453397356E+01  0.25578947562E+03  0.28661767864E+03  0.12508813358E+03 0.  0.
         24    2    1    2    0    0  0.83453199290E+02 -0.46032449790E+02 -0.33644542163E+03  0.35875702002E+03  0.80172655989E+02 0.  0.
        -11    1    5    5    0    0 -0.62785810406E+01 -0.12865262551E+02 -0.13492470497E+03  0.13568202376E+03  0.00000000000E+00 0.  1.
         12    1    5    5    0    0  0.89731780331E+02 -0.33167187239E+02 -0.20152071666E+03  0.22307499626E+03  0.00000000000E+00 0. -1.
        -11    1    3    3    0    0  0.52753535611E+02  0.45509548620E+01 -0.27881474776E+03  0.28379800964E+03  0.00000000000E+00 0.  1.
         12    1    3    3    0    0 -0.27804805229E+02  0.10214596598E+02 -0.88241609730E+02  0.93080754537E+02  0.00000000000E+00 0. -1.
          5    1    4    4  501    0 -0.21895711668E+02  0.28598595101E+02  0.19718780793E+03  0.20050541994E+03  0.47000000000E+01 0. -1.
         -5    1    4    4    0  501  0.54558531780E+02 -0.31343934836E+02  0.58601667691E+02  0.86112258693E+02  0.47000000000E+01 0. -1.
          1    1    1    2  502    0 -0.82595190926E+02 -0.62030953241E+02  0.49846859190E+03  0.50905868212E+03  0.00000000000E+00 0. -1.
          1    1    1    2  503    0 -0.58469558858E+02  0.96043191307E+02 -0.94032280550E+03  0.94702162723E+03  0.00000000000E+00 0. -1.
<mgrwt>
<rscale>  0 0.10079729E+03</rscale>
<asrwt>0</asrwt>
<pdfrwt beam="1">  1        2 0.11682112E+00 0.10317845E+03</pdfrwt>
<pdfrwt beam="2">  1        2 0.24763972E+00 0.98471089E+02</pdfrwt>
<totfact> 0.79583042E+01</totfact>
</mgrwt>
</event>
<event>
13    1  0.2038932E-008  0.9316712E+02  0.7546771E-02  0.1345539E+00
          2   -1    0    0  502    0  0.00000000000E+00  0.00000000000E+00  0.39131516772E+04  0.39131516772E+04  0.00000000000E+00 0. -1.
          2   -1    0    0  503    0 -0.00000000000E+00 -0.00000000000E+00 -0.10865229700E+04  0.10865229700E+04  0.00000000000E+00 0. -1.
         24    2    1    2    0    0  0.62780980942E+02  0.49176085599E+02 -0.20130317186E+03  0.23080889076E+03  0.79937713822E+02 0.  0.
         25    2    1    2    0    0 -0.15684021018E+03  0.23052220763E+03  0.14521634493E+04  0.14839629279E+04  0.12501179240E+03 0.  0.
         24    2    1    2    0    0  0.17079302936E+02 -0.19705385152E+03 -0.11645144655E+03  0.24360393758E+03  0.81608921179E+02 0.  0.
        -11    1    3    3    0    0  0.60188660842E+02  0.50711443571E+02 -0.90381557162E+02  0.11984636531E+03  0.00000000000E+00 0.  1.
         12    1    3    3    0    0  0.25923200999E+01 -0.15353579715E+01 -0.11092161470E+03  0.11096252545E+03  0.00000000000E+00 0. -1.
        -11    1    5    5    0    0  0.45174346836E+02 -0.72615262548E+02 -0.36032424725E+02  0.92801043090E+02  0.00000000000E+00 0.  1.
         12    1    5    5    0    0 -0.28095043900E+02 -0.12443858897E+03 -0.80419021824E+02  0.15080289449E+03  0.00000000000E+00 0. -1.
          5    1    4    4  501    0 -0.11859455094E+03  0.20858269434E+03  0.13674229549E+04  0.13883223817E+04  0.47000000000E+01 0. -1.
         -5    1    4    4    0  501 -0.38245659238E+02  0.21939513292E+02  0.84740494345E+02  0.95640546191E+02  0.47000000000E+01 0. -1.
          1    1    1    2  502    0 -0.12890411329E+02 -0.58102475827E+02  0.23631663063E+04  0.23639156186E+04  0.00000000000E+00 0. -1.
          1    1    1    2  503    0  0.89870337632E+02 -0.24541965888E+02 -0.67094643007E+03  0.67738327238E+03  0.00000000000E+00 0. -1.
<mgrwt>
<rscale>  0 0.74463822E+02</rscale>
<asrwt>0</asrwt>
<pdfrwt beam="1">  1        2 0.57546348E+00 0.59515212E+02</pdfrwt>
<pdfrwt beam="2">  1        2 0.15978279E+00 0.93167119E+02</pdfrwt>
<totfact> 0.38560021E+00</totfact>
</mgrwt>
</event>
<event>
13    1  0.2038932E-008  0.1369879E+03  0.7546771E-02  0.1255562E+00
          2   -1    0    0  502    0  0.00000000000E+00  0.00000000000E+00  0.25775155176E+04  0.25775155176E+04  0.00000000000E+00 0. -1.
          2   -1    0    0  503    0 -0.00000000000E+00 -0.00000000000E+00 -0.81103083943E+03  0.81103083943E+03  0.00000000000E+00 0. -1.
         24    2    1    2    0    0 -0.27173477952E+02  0.34572853091E+02 -0.62285556964E+02  0.11131593683E+03  0.81105284116E+02 0.  0.
         25    2    1    2    0    0 -0.18315956171E+03 -0.19419115665E+03  0.15765241575E+04  0.16038424670E+04  0.12499843790E+03 0.  0.
         24    2    1    2    0    0  0.84292882184E+01 -0.52067688481E+02 -0.55619328948E+02  0.11022076471E+03  0.79202336693E+02 0.  0.
        -11    1    3    3    0    0  0.17981230368E+02  0.41309352228E+02 -0.41107459072E+02  0.60988608923E+02  0.00000000000E+00 0.  1.
         12    1    3    3    0    0 -0.45154708320E+02 -0.67364991367E+01 -0.21178097892E+02  0.50327327909E+02  0.00000000000E+00 0. -1.
        -13    1    5    5    0    0  0.37041500056E+02 -0.46962461922E+02 -0.54837505555E+02  0.81146149457E+02  0.00000000000E+00 0.  1.
         14    1    5    5    0    0 -0.28612211838E+02 -0.51052265586E+01 -0.78182339242E+00  0.29074615256E+02  0.00000000000E+00 0. -1.
          5    1    4    4  501    0 -0.17479793209E+03 -0.10447116359E+03  0.10351865523E+04  0.10550364113E+04  0.47000000000E+01 0.  1.
         -5    1    4    4    0  501 -0.83616296152E+01 -0.89719993064E+02  0.54133760520E+03  0.54880605574E+03  0.47000000000E+01 0.  1.
          1    1    1    2  502    0  0.76404475713E+02  0.67142493806E+02  0.91804670270E+03  0.92366417421E+03  0.00000000000E+00 0. -1.
          1    1    1    2  503    0  0.12549927573E+03  0.14454349824E+03 -0.61018129612E+03  0.63950301424E+03  0.00000000000E+00 0. -1.
<mgrwt>
<rscale>  0 0.11274897E+03</rscale>
<asrwt>0</asrwt>
<pdfrwt beam="1">  1        2 0.37904640E+00 0.92798958E+02</pdfrwt>
<pdfrwt beam="2">  1        2 0.11926924E+00 0.13698786E+03</pdfrwt>
<totfact> 0.28469101E+01</totfact>
</mgrwt>
</event>
<event>
13    1  0.2038932E-008  0.1066556E+03  0.7546771E-02  0.1391582E+00
          2   -1    0    0  503    0  0.00000000000E+00  0.00000000000E+00  0.28507630721E+04  0.28507630721E+04  0.00000000000E+00 0. -1.
          2   -1    0    0  502    0 -0.00000000000E+00 -0.00000000000E+00 -0.37464936447E+03  0.37464936447E+03  0.00000000000E+00 0. -1.
         24    2    1    2    0    0 -0.12706619030E+03 -0.10560658509E+02 -0.96346366610E+02  0.17869592518E+03  0.79951654712E+02 0.  0.
         25    2    1    2    0    0  0.68402392324E+02  0.57924817132E+02  0.33334868158E+03  0.36712365321E+03  0.12499704604E+03 0.  0.
         24    2    1    2    0    0  0.85370302652E+02  0.86198845178E+02  0.15453433001E+03  0.20729439505E+03  0.66119419088E+02 0.  0.
        -11    1    5    5    0    0  0.41045077464E+02  0.70225189551E+02  0.13204268328E+03  0.15508560810E+03  0.00000000000E+00 0.  1.
         12    1    5    5    0    0  0.44325225188E+02  0.15973655627E+02  0.22491646737E+02  0.52208786952E+02  0.00000000000E+00 0. -1.
        -13    1    3    3    0    0 -0.11093694275E+03  0.31496472565E+01 -0.10772205303E+03  0.15466404318E+03  0.00000000000E+00 0.  1.
         14    1    3    3    0    0 -0.16129247553E+02 -0.13710305765E+02  0.11375686421E+02  0.24031881998E+02  0.00000000000E+00 0. -1.
          5    1    4    4  501    0  0.28998934613E+02  0.17761152836E+02  0.29914962925E+03  0.30111291477E+03  0.47000000000E+01 0.  1.
         -5    1    4    4    0  501  0.39403457711E+02  0.40163664295E+02  0.34199052329E+02  0.66010738440E+02  0.47000000000E+01 0.  1.
          1    1    1    2  502    0 -0.36499567621E+02 -0.99461704003E+02 -0.17923590288E+03  0.20820748757E+03  0.00000000000E+00 0. -1.
          1    1    1    2  503    0  0.97930629462E+01 -0.34101299798E+02  0.22638129655E+04  0.22640909755E+04  0.00000000000E+00 0. -1.
<mgrwt>
<rscale>  0 0.61515042E+02</rscale>
<asrwt>0</asrwt>
<pdfrwt beam="1">  1        2 0.41922985E+00 0.35479610E+02</pdfrwt>
<pdfrwt beam="2">  1        2 0.55095496E-01 0.10665564E+03</pdfrwt>
<totfact> 0.57197513E+01</totfact>
</mgrwt>
</event>
<event>
13    1  0.2038932E-008  0.1208879E+03  0.7546771E-02  0.1337074E+00
          2   -1    0    0  503    0  0.00000000000E+00  0.00000000000E+00  0.62377224679E+03  0.62377224679E+03  0.00000000000E+00 0. -1.
          2   -1    0    0  502    0 -0.00000000000E+00 -0.00000000000E+00 -0.27342617781E+04  0.27342617781E+04  0.00000000000E+00 0. -1.
         24    2    1    2    0    0 -0.25888358610E+03 -0.12329338116E+03 -0.15176933597E+04  0.15462898198E+04  0.73464982813E+02 0.  0.
         25    2    1    2    0    0  0.86340037374E+02  0.26710284483E+03 -0.36489173855E+02  0.30942387355E+03  0.12495255878E+03 0.  0.
         24    2    1    2    0    0  0.22813296677E+02  0.29853828497E+01 -0.18127055354E+03  0.19913321549E+03  0.79155953145E+02 0.  0.
        -11    1    5    5    0    0 -0.26171844344E+02  0.94305524349E+01 -0.34791519052E+02  0.44546049808E+02  0.00000000000E+00 0.  1.
         12    1    5    5    0    0  0.48985141020E+02 -0.64451695852E+01 -0.14647903448E+03  0.15458716569E+03  0.00000000000E+00 0. -1.
        -13    1    3    3    0    0 -0.17137033645E+02  0.10014688158E+02 -0.11177322553E+03  0.11352191791E+03  0.00000000000E+00 0.  1.
         14    1    3    3    0    0 -0.24174655246E+03 -0.13330806932E+03 -0.14059201342E+04  0.14327679019E+04  0.00000000000E+00 0. -1.
          5    1    4    4  501    0  0.47947452682E+02  0.13234181433E+02 -0.12537513608E+02  0.51510979649E+02  0.47000000000E+01 0.  1.
         -5    1    4    4    0  501  0.38392584692E+02  0.25386866339E+03 -0.23951660247E+02  0.25791289390E+03  0.47000000000E+01 0.  1.
          1    1    1    2  502    0  0.13632974126E+03 -0.99298419513E+02 -0.82928678040E+03  0.84626387056E+03  0.00000000000E+00 0. -1.
          1    1    1    2  503    0  0.13400510796E+02 -0.47496426998E+02  0.45425033623E+03  0.45692324545E+03  0.00000000000E+00 0. -1.
<mgrwt>
<rscale>  0 0.77239210E+02</rscale>
<asrwt>0</asrwt>
<pdfrwt beam="1">  1        2 0.91731213E-01 0.49350626E+02</pdfrwt>
<pdfrwt beam="2">  1        2 0.40209732E+00 0.12088794E+03</pdfrwt>
<totfact> 0.31863357E+01</totfact>
</mgrwt>
</event>
<event>
13    1  0.2038932E-008  0.7691344E+02  0.7546771E-02  0.1356463E+00
          2   -1    0    0  503    0  0.00000000000E+00  0.00000000000E+00  0.34577678985E+04  0.34577678985E+04  0.00000000000E+00 0. -1.
         -1   -1    0    0    0  501 -0.00000000000E+00 -0.00000000000E+00 -0.10947802022E+04  0.10947802022E+04  0.00000000000E+00 0.  1.
         24    2    1    2    0    0 -0.54677890861E+02 -0.36684529499E+01  0.44738770275E+02  0.10747037850E+03  0.80902381878E+02 0.  0.
         25    2    1    2    0    0  0.93507698231E+02  0.35909559815E+03 -0.44200946403E+02  0.39404653601E+03  0.12500244253E+03 0.  0.
         24    2    1    2    0    0 -0.23334363670E+02 -0.21590527075E+03  0.17007939056E+04  0.17164786398E+04  0.80246078978E+02 0.  0.
        -13    1    3    3    0    0 -0.39858758844E+02 -0.38429419985E+02  0.10246609513E+02  0.56307494914E+02  0.00000000000E+00 0.  1.
         14    1    3    3    0    0 -0.14819132017E+02  0.34760967035E+02  0.34492160763E+02  0.51162883588E+02  0.00000000000E+00 0. -1.
        -13    1    5    5    0    0 -0.12765660477E+02 -0.45864962430E+01  0.39476060856E+02  0.41741555025E+02  0.00000000000E+00 0.  1.
         14    1    5    5    0    0 -0.10568703193E+02 -0.21131877450E+03  0.16613178447E+04  0.16747370848E+04  0.00000000000E+00 0. -1.
          5    1    4    4  502    0  0.10524929220E+03  0.20020145584E+03 -0.59481289887E+02  0.23391911054E+03  0.47000000000E+01 0.  1.
         -5    1    4    4    0  502 -0.11741593974E+02  0.15889414231E+03  0.15280343484E+02  0.16012742547E+03  0.47000000000E+01 0.  1.
          1    1    1    2  503    0  0.51369281836E+01 -0.65485170000E+02  0.14956163185E+04  0.14970580709E+04  0.00000000000E+00 0. -1.
         -2    1    1    2    0  501 -0.20632371884E+02 -0.74036704455E+02 -0.83396035162E+03  0.83749447547E+03  0.00000000000E+00 0.  1.
<mgrwt>
<rscale>  0 0.71078564E+02</rscale>
<asrwt>0</asrwt>
<pdfrwt beam="1">  1        2 0.50849528E+00 0.65686342E+02</pdfrwt>
<pdfrwt beam="2">  1       -1 0.16099709E+00 0.76913436E+02</pdfrwt>
<totfact> 0.68578542E-01</totfact>
</mgrwt>
</event>
<event>
13    1  0.2038932E-008  0.1780389E+03  0.7546771E-02  0.1292851E+00
          2   -1    0    0  503    0  0.00000000000E+00  0.00000000000E+00  0.18259092988E+04  0.18259092988E+04  0.00000000000E+00 0. -1.
          2   -1    0    0  502    0 -0.00000000000E+00 -0.00000000000E+00 -0.20973202075E+04  0.20973202075E+04  0.00000000000E+00 0. -1.
         24    2    1    2    0    0  0.36523913897E+02 -0.36276831113E+01 -0.10968293081E+03  0.14167604199E+03  0.81820530382E+02 0.  0.
         25    2    1    2    0    0  0.65220479352E+02 -0.57237157627E+02 -0.45441394194E+03  0.47921406193E+03  0.12499713351E+03 0.  0.
         24    2    1    2    0    0 -0.13933366807E+03 -0.13747995134E+03  0.85359266799E+03  0.87942339830E+03  0.80314771680E+02 0.  0.
        -11    1    3    3    0    0  0.42984237901E+02  0.31913610612E+02 -0.64176342311E+02  0.83574674170E+02  0.00000000000E+00 0.  1.
         12    1    3    3    0    0 -0.64603240045E+01 -0.35541293723E+02 -0.45506588500E+02  0.58101367821E+02  0.00000000000E+00 0. -1.
        -13    1    5    5    0    0 -0.44610853379E+02 -0.34635703678E+02  0.42162806266E+03  0.42539391560E+03  0.00000000000E+00 0.  1.
         14    1    5    5    0    0 -0.94722814686E+02 -0.10284424766E+03  0.43196460534E+03  0.45402948270E+03  0.00000000000E+00 0. -1.
          5    1    4    4  501    0  0.57981680593E+02  0.27730325147E+02 -0.23763915960E+03  0.24622206723E+03  0.47000000000E+01 0.  1.
         -5    1    4    4    0  501  0.72387987583E+01 -0.84967482774E+02 -0.21677478234E+03  0.23299199470E+03  0.47000000000E+01 0.  1.
          1    1    1    2  502    0 -0.30147332384E+02  0.39769475195E+02 -0.14835036910E+04  0.14843428425E+04  0.00000000000E+00 0. -1.
          1    1    1    2  503    0  0.67736607202E+02  0.15857531689E+03  0.92259698709E+03  0.93857316160E+03  0.00000000000E+00 0. -1.
<mgrwt>
<rscale>  0 0.94260096E+02</rscale>
<asrwt>0</asrwt>
<pdfrwt beam="1">  1        2 0.26851607E+00 0.17803888E+03</pdfrwt>
<pdfrwt beam="2">  1        2 0.30842944E+00 0.49904637E+02</pdfrwt>
<totfact> 0.14607987E+01</totfact>
</mgrwt>
</event>
<event>
13    1  0.2038932E-008  0.8292018E+02  0.7546771E-02  0.1332480E+00
          2   -1    0    0  503    0  0.00000000000E+00  0.00000000000E+00  0.45029304324E+03  0.45029304324E+03  0.00000000000E+00 0. -1.
          2   -1    0    0  502    0 -0.00000000000E+00 -0.00000000000E+00 -0.24030276771E+04  0.24030276771E+04  0.00000000000E+00 0. -1.
         24    2    1    2    0    0  0.75725843987E+02 -0.90503290246E+01 -0.14967113386E+03  0.18646437816E+03  0.80939508963E+02 0.  0.
         25    2    1    2    0    0 -0.12029979533E+01  0.38704400844E+02 -0.31166400872E+03  0.33802123089E+03  0.12499768138E+03 0.  0.
         24    2    1    2    0    0  0.18730071898E+01 -0.29393130191E+01  0.11116939872E+03  0.13720127262E+03  0.80333095799E+02 0.  0.
        -11    1    3    3    0    0  0.99600946124E+01 -0.34913476427E+02 -0.76828023802E+02  0.84974699542E+02  0.00000000000E+00 0.  1.
         12    1    3    3    0    0  0.65765749375E+02  0.25863147403E+02 -0.72843110054E+02  0.10148967862E+03  0.00000000000E+00 0. -1.
        -13    1    5    5    0    0  0.36081700751E+02 -0.20684148108E+02  0.51955986108E+02  0.66551841481E+02  0.00000000000E+00 0.  1.
         14    1    5    5    0    0 -0.34208693561E+02  0.17744835089E+02  0.59213412613E+02  0.70649431143E+02  0.00000000000E+00 0. -1.
          5    1    4    4  501    0 -0.89538895366E+01 -0.23058041927E+02 -0.57806361374E+01  0.25833141301E+02  0.47000000000E+01 0. -1.
         -5    1    4    4    0  501  0.77508915833E+01  0.61762442771E+02 -0.30588337259E+03  0.31218808959E+03  0.47000000000E+01 0. -1.
          1    1    1    2  502    0 -0.51492299532E+02  0.54381618107E+02 -0.18902357503E+04  0.18917187976E+04  0.00000000000E+00 0. -1.
          1    1    1    2  503    0 -0.24903553692E+02 -0.81096376907E+02  0.28766686033E+03  0.29991504108E+03  0.00000000000E+00 0. -1.
<mgrwt>
<rscale>  0 0.78803941E+02</rscale>
<asrwt>0</asrwt>
<pdfrwt beam="1">  1        2 0.66219563E-01 0.82920178E+02</pdfrwt>
<pdfrwt beam="2">  1        2 0.35338643E+00 0.74892038E+02</pdfrwt>
<totfact> 0.69954363E+01</totfact>
</mgrwt>
</event>
<event>
13    1  0.2038932E-008  0.1090111E+03  0.7546771E-02  0.1277745E+00
          2   -1    0    0  502    0  0.00000000000E+00  0.00000000000E+00  0.16432741701E+04  0.16432741701E+04  0.00000000000E+00 0. -1.
          2   -1    0    0  503    0 -0.00000000000E+00 -0.00000000000E+00 -0.48625681346E+03  0.48625681346E+03  0.00000000000E+00 0. -1.
         24    2    1    2    0    0  0.50905695380E+02  0.77340098487E+02 -0.24628533365E+03  0.27578951916E+03  0.82646915535E+02 0.  0.
         25    2    1    2    0    0 -0.14401749500E+02  0.31737117732E+02  0.85456755877E+03  0.86436335262E+03  0.12499455115E+03 0.  0.
         24    2    1    2    0    0  0.82383242456E+02 -0.69757051620E+02  0.17151322158E+03  0.21890482043E+03  0.82761647790E+02 0.  0.
        -13    1    5    5    0    0  0.47760171242E+02 -0.17328744829E+02  0.19501866303E+02  0.54420971544E+02  0.00000000000E+00 0.  1.
         14    1    5    5    0    0  0.34623071214E+02 -0.52428306791E+02  0.15201135528E+03  0.16448384889E+03  0.00000000000E+00 0. -1.
        -13    1    3    3    0    0  0.31891128444E+02  0.18211875898E+02 -0.21444047440E+02  0.42527210909E+02  0.00000000000E+00 0.  1.
         14    1    3    3    0    0  0.19014566936E+02  0.59128222589E+02 -0.22484128621E+03  0.23326230825E+03  0.00000000000E+00 0. -1.
          5    1    4    4  501    0 -0.26745582044E+02 -0.44317134495E+02  0.30409196013E+03  0.30850177436E+03  0.47000000000E+01 0. -1.
         -5    1    4    4    0  501  0.12343832545E+02  0.76054252226E+02  0.55047559864E+03  0.55586157825E+03  0.47000000000E+01 0. -1.
          1    1    1    2  502    0 -0.46366457900E+02 -0.99112165657E+02  0.55697937845E+03  0.56762584316E+03  0.00000000000E+00 0. -1.
          1    1    1    2  503    0 -0.72520730437E+02  0.59792001058E+02 -0.17975746853E+03  0.20284744816E+03  0.00000000000E+00 0. -1.
<mgrwt>
<rscale>  0 0.10122291E+03</rscale>
<asrwt>0</asrwt>
<pdfrwt beam="1">  1        2 0.24165796E+00 0.10901107E+03</pdfrwt>
<pdfrwt beam="2">  1        2 0.71508356E-01 0.93991168E+02</pdfrwt>
<totfact> 0.14381365E+02</totfact>
</mgrwt>
</event>
<event>
13    1  0.2038932E-008  0.1151604E+03  0.7546771E-02  0.1254351E+00
          2   -1    0    0  503    0  0.00000000000E+00  0.00000000000E+00  0.80283344582E+03  0.80283344582E+03  0.00000000000E+00 0. -1.
          2   -1    0    0  502    0 -0.00000000000E+00 -0.00000000000E+00 -0.11862374566E+04  0.11862374566E+04  0.00000000000E+00 0. -1.
         24    2    1    2    0    0 -0.20601045769E+02  0.66673567106E+00 -0.15866678922E+03  0.17849118927E+03  0.79114518401E+02 0.  0.
         25    2    1    2    0    0  0.95767405273E+02  0.21293816025E+03 -0.20572742483E+03  0.33535494072E+03  0.12500042772E+03 0.  0.
         24    2    1    2    0    0 -0.58376598209E+02 -0.40355459856E+02 -0.59588338769E+02  0.12310490546E+03  0.81041083851E+02 0.  0.
        -11    1    3    3    0    0  0.12014397402E+02  0.30383891610E+02 -0.99203769990E+02  0.10444574953E+03  0.00000000000E+00 0.  1.
         12    1    3    3    0    0 -0.32615443172E+02 -0.29717155939E+02 -0.59463019230E+02  0.74045439741E+02  0.00000000000E+00 0. -1.
        -13    1    5    5    0    0 -0.24259329209E+02  0.18848731975E+02 -0.42900056642E+02  0.52765562734E+02  0.00000000000E+00 0.  1.
         14    1    5    5    0    0 -0.34117268999E+02 -0.59204191831E+02 -0.16688282127E+02  0.70339342723E+02  0.00000000000E+00 0. -1.
          5    1    4    4  501    0  0.95677950042E+02  0.21786620018E+03 -0.15465698362E+03  0.28383238696E+03  0.47000000000E+01 0. -1.
         -5    1    4    4    0  501  0.89455231088E-01 -0.49280399317E+01 -0.51070441211E+02  0.51522553754E+02  0.47000000000E+01 0. -1.
          1    1    1    2  502    0 -0.10033129960E+03 -0.98339535021E+02 -0.64362351795E+03  0.65877785838E+03  0.00000000000E+00 0. -1.
          1    1    1    2  503    0  0.83541538301E+02 -0.74909901044E+02  0.68420206002E+03  0.69334200856E+03  0.00000000000E+00 0. -1.
<mgrwt>
<rscale>  0 0.11342784E+03</rscale>
<asrwt>0</asrwt>
<pdfrwt beam="1">  1        2 0.11806374E+00 0.11172135E+03</pdfrwt>
<pdfrwt beam="2">  1        2 0.17444668E+00 0.11516039E+03</pdfrwt>
<totfact> 0.13815405E+02</totfact>
</mgrwt>
</event>
<event>
13    1  0.2038932E-008  0.6133341E+02  0.7546771E-02  0.1468510E+00
          2   -1    0    0  502    0  0.00000000000E+00  0.00000000000E+00  0.25250700607E+04  0.25250700607E+04  0.00000000000E+00 0. -1.
          2   -1    0    0  503    0 -0.00000000000E+00 -0.00000000000E+00 -0.11922085872E+04  0.11922085872E+04  0.00000000000E+00 0. -1.
         24    2    1    2    0    0  0.36026543908E+02  0.52599596827E+02 -0.14764632951E+03  0.17963427525E+03  0.80027525115E+02 0.  0.
         25    2    1    2    0    0 -0.13381652810E+03 -0.15857941692E+03  0.63195354498E+03  0.67679072399E+03  0.12500442551E+03 0.  0.
         24    2    1    2    0    0  0.78701578916E+02  0.40093261190E+02  0.15110052468E+03  0.19247521862E+03  0.80087034586E+02 0.  0.
        -11    1    3    3    0    0  0.22110580957E+02  0.21735345085E+02 -0.30812512558E+01  0.31157617455E+02  0.00000000000E+00 0.  1.
         12    1    3    3    0    0  0.13915962951E+02  0.30864251742E+02 -0.14456507825E+03  0.14847665780E+03  0.00000000000E+00 0. -1.
        -13    1    5    5    0    0  0.18263304564E+02  0.53923406695E+02  0.65582759800E+02  0.86846879427E+02  0.00000000000E+00 0.  1.
         14    1    5    5    0    0  0.60438274352E+02 -0.13830145505E+02  0.85517764876E+02  0.10562833919E+03  0.00000000000E+00 0. -1.
          5    1    4    4  501    0 -0.83696555043E+01 -0.58035933040E+02  0.65918891835E+02  0.88349368746E+02  0.47000000000E+01 0. -1.
         -5    1    4    4    0  501 -0.12544687260E+03 -0.10054348388E+03  0.56603465314E+03  0.58844135524E+03  0.47000000000E+01 0. -1.
          1    1    1    2  502    0  0.44288028565E+02  0.42438207286E+02  0.16820563145E+04  0.16831743451E+04  0.00000000000E+00 0. -1.
          1    1    1    2  503    0 -0.25199623286E+02  0.23448351621E+02 -0.98460258110E+03  0.98520408491E+03  0.00000000000E+00 0. -1.
<mgrwt>
<rscale>  0 0.45947729E+02</rscale>
<asrwt>0</asrwt>
<pdfrwt beam="1">  1        2 0.37133383E+00 0.61333411E+02</pdfrwt>
<pdfrwt beam="2">  1        2 0.17532479E+00 0.34421595E+02</pdfrwt>
<totfact> 0.20764704E+01</totfact>
</mgrwt>
</event>
<event>
13    1  0.2038932E-008  0.1075219E+03  0.7546771E-02  0.1440720E+00
          2   -1    0    0  502    0  0.00000000000E+00  0.00000000000E+00  0.22854156697E+04  0.22854156697E+04  0.00000000000E+00 0. -1.
          4   -1    0    0  503    0 -0.00000000000E+00 -0.00000000000E+00 -0.12227428510E+04  0.12227428510E+04  0.00000000000E+00 0. -1.
         24    2    1    2    0    0  0.43580695481E+02  0.27232087628E+03 -0.30474360575E+02  0.28209975215E+03  0.50927859130E+02 0.  0.
         25    2    1    2    0    0 -0.12199931215E+03 -0.26160606798E+03  0.10510447190E+04  0.10971058831E+04  0.12499900156E+03 0.  0.
         24    2    1    2    0    0  0.85836214985E+02 -0.14144733734E+03  0.13391913907E+03  0.22751955964E+03  0.80346805587E+02 0.  0.
        -11    1    5    5    0    0 -0.37249593615E+00 -0.73086801467E+02  0.43058150969E+02  0.84828200893E+02  0.00000000000E+00 0.  1.
         12    1    5    5    0    0  0.86208710921E+02 -0.68360535872E+02  0.90860988099E+02  0.14269135875E+03  0.00000000000E+00 0. -1.
        -13    1    3    3    0    0  0.31213409965E+02  0.58885983861E+02 -0.81992983762E+01  0.67149568508E+02  0.00000000000E+00 0.  1.
         14    1    3    3    0    0  0.12367285516E+02  0.21343489242E+03 -0.22275062199E+02  0.21495018364E+03  0.00000000000E+00 0. -1.
          5    1    4    4  501    0  0.25549714486E+02 -0.28760378636E+02  0.13899542446E+03  0.14429748892E+03  0.47000000000E+01 0. -1.
         -5    1    4    4    0  501 -0.14754902663E+03 -0.23284568934E+03  0.91204929455E+03  0.95280839416E+03  0.47000000000E+01 0. -1.
          1    1    1    2  502    0 -0.95779662700E+01  0.10676521022E+03  0.90148722574E+03  0.90783796226E+03  0.00000000000E+00 0. -1.
          3    1    1    2  503    0  0.21603679501E+01  0.23967318821E+02 -0.99330390459E+03  0.99359536353E+03  0.00000000000E+00 0. -1.
<mgrwt>
<rscale>  0 0.50867076E+02</rscale>
<asrwt>0</asrwt>
<pdfrwt beam="1">  1        2 0.33609054E+00 0.10752190E+03</pdfrwt>
<pdfrwt beam="2">  1        4 0.17981512E+00 0.24064488E+02</pdfrwt>
<totfact> 0.66344174E-01</totfact>
</mgrwt>
</event>
<event>
13    1  0.2038932E-008  0.6907231E+02  0.7546771E-02  0.1442293E+00
          2   -1    0    0  503    0  0.00000000000E+00  0.00000000000E+00  0.17790238566E+04  0.17790238566E+04  0.00000000000E+00 0. -1.
          2   -1    0    0  502    0 -0.00000000000E+00 -0.00000000000E+00 -0.28717600564E+04  0.28717600564E+04  0.00000000000E+00 0. -1.
         24    2    1    2    0    0 -0.73456790268E+03 -0.53648813794E+01 -0.35846951168E+03  0.82213991985E+03  0.88288568943E+02 0.  0.
         25    2    1    2    0    0  0.32952204706E+03 -0.25391958320E+03  0.42053027699E+03  0.60459125817E+03  0.12499976543E+03 0.  0.
         24    2    1    2    0    0  0.38982491022E+03  0.36340025749E+03  0.37195700328E+03  0.65490403470E+03  0.80771743867E+02 0.  0.
        -11    1    3    3    0    0 -0.30010560983E+03  0.63469847488E+01 -0.99595353658E+02  0.31626396528E+03  0.00000000000E+00 0.  1.
         12    1    3    3    0    0 -0.43446229286E+03 -0.11711866128E+02 -0.25887415802E+03  0.50587595457E+03  0.00000000000E+00 0. -1.
        -11    1    5    5    0    0  0.32497570386E+03  0.30920851184E+03  0.34595243985E+03  0.56648230558E+03  0.00000000000E+00 0.  1.
         12    1    5    5    0    0  0.64849206361E+02  0.54191745646E+02  0.26004563429E+02  0.88421729122E+02  0.00000000000E+00 0. -1.
          5    1    4    4  501    0  0.75893036361E+02 -0.10105014371E+03  0.19459825668E+03  0.23208071013E+03  0.47000000000E+01 0.  1.
         -5    1    4    4    0  501  0.25362901070E+03 -0.15286943949E+03  0.22593202031E+03  0.37251054804E+03  0.47000000000E+01 0.  1.
          1    1    1    2  502    0  0.16286398118E+02 -0.67107781143E+02 -0.20467107911E+04  0.20478754268E+04  0.00000000000E+00 0. -1.
          1    1    1    2  503    0 -0.10654527159E+01 -0.37008011763E+02  0.51995682271E+03  0.52127327344E+03  0.00000000000E+00 0. -1.
<mgrwt>
<rscale>  0 0.50569635E+02</rscale>
<asrwt>0</asrwt>
<pdfrwt beam="1">  1        2 0.26162116E+00 0.37023346E+02</pdfrwt>
<pdfrwt beam="2">  1        2 0.42231765E+00 0.69072308E+02</pdfrwt>
<totfact> 0.71850199E+00</totfact>
</mgrwt>
</event>
<event>
13    1  0.2038932E-008  0.1408518E+03  0.7546771E-02  0.1258694E+00
          2   -1    0    0  502    0  0.00000000000E+00  0.00000000000E+00  0.34392717171E+04  0.34392717171E+04  0.00000000000E+00 0. -1.
          2   -1    0    0  503    0 -0.00000000000E+00 -0.00000000000E+00 -0.51697668779E+03  0.51697668779E+03  0.00000000000E+00 0. -1.
         24    2    1    2    0    0 -0.22814031610E+03 -0.16059097032E+03  0.38434525498E+02  0.29262901382E+03  0.79479955971E+02 0.  0.
         25    2    1    2    0    0  0.41401514233E+02  0.61527894967E+02  0.82461791857E+03  0.83732908759E+03  0.12500208825E+03 0.  0.
         24    2    1    2    0    0  0.12814219897E+01  0.10314581858E+02  0.20444675023E+03  0.22044477695E+03  0.81788711723E+02 0.  0.
        -11    1    5    5    0    0  0.11314717827E+02  0.44608403444E+02  0.10071308736E+03  0.11072966388E+03  0.00000000000E+00 0.  1.
         12    1    5    5    0    0 -0.10033295838E+02 -0.34293821587E+02  0.10373366286E+03  0.10971511307E+03  0.00000000000E+00 0. -1.
        -11    1    3    3    0    0 -0.66969684958E+02 -0.84645794643E+02 -0.88414932456E+01  0.10829598911E+03  0.00000000000E+00 0.  1.
         12    1    3    3    0    0 -0.16117063114E+03 -0.75945175674E+02  0.47276018744E+02  0.18433302471E+03  0.00000000000E+00 0. -1.
          5    1    4    4  501    0  0.27377926124E+02  0.84771890036E+02  0.32701890124E+03  0.33896795711E+03  0.47000000000E+01 0.  1.
         -5    1    4    4    0  501  0.14023588109E+02 -0.23243995069E+02  0.49759901733E+03  0.49836113049E+03  0.47000000000E+01 0.  1.
          1    1    1    2  502    0  0.91631187308E+02 -0.15278420904E+02  0.22162486918E+04  0.22181947545E+04  0.00000000000E+00 0. -1.
          1    1    1    2  503    0  0.93826192569E+02  0.10402691440E+03 -0.36145285685E+03  0.38765077203E+03  0.00000000000E+00 0. -1.
<mgrwt>
<rscale>  0 0.11101899E+03</rscale>
<asrwt>0</asrwt>
<pdfrwt beam="1">  1        2 0.50577524E+00 0.87504874E+02</pdfrwt>
<pdfrwt beam="2">  1        2 0.76025985E-01 0.14085178E+03</pdfrwt>
<totfact> 0.16727223E+01</totfact>
</mgrwt>
</event>
<event>
13    1  0.2038932E-008  0.1283170E+03  0.7546771E-02  0.1276321E+00
          2   -1    0    0  503    0  0.00000000000E+00  0.00000000000E+00  0.14923544457E+04  0.14923544457E+04  0.00000000000E+00 0. -1.
          2   -1    0    0  502    0 -0.00000000000E+00 -0.00000000000E+00 -0.17847433453E+04  0.17847433453E+04  0.00000000000E+00 0. -1.
         24    2    1    2    0    0  0.82520222339E+02 -0.72643107311E+01 -0.62298407154E+02  0.13166859735E+03  0.81198341661E+02 0.  0.
         25    2    1    2    0    0  0.16251037540E+03  0.25906990159E+03  0.97753545755E+03  0.10318555687E+04  0.12499403136E+03 0.  0.
         24    2    1    2    0    0 -0.20102265840E+03 -0.12355310516E+03 -0.22639906169E+03  0.33706848094E+03  0.81750515161E+02 0.  0.
        -11    1    3    3    0    0  0.14541872542E+02 -0.28571903054E+02 -0.49969991361E+02  0.59370192334E+02  0.00000000000E+00 0.  1.
         12    1    3    3    0    0  0.67978349797E+02  0.21307592323E+02 -0.12328415793E+02  0.72298405015E+02  0.00000000000E+00 0. -1.
        -13    1    5    5    0    0 -0.20481081457E+03 -0.12227138489E+03 -0.23023964801E+03  0.33152384053E+03  0.00000000000E+00 0.  1.
         14    1    5    5    0    0  0.37881561663E+01 -0.12817202723E+01  0.38405863234E+01  0.55446404125E+01  0.00000000000E+00 0. -1.
          5    1    4    4  501    0  0.10322632866E+03  0.23726329972E+03  0.86306275176E+03  0.90102660993E+03  0.47000000000E+01 0.  1.
         -5    1    4    4    0  501  0.59284046745E+02  0.21806601870E+02  0.11447270578E+03  0.13082895877E+03  0.47000000000E+01 0.  1.
          1    1    1    2  502    0 -0.12473427732E+03 -0.12230981969E+03 -0.13691383123E+04  0.13802384034E+04  0.00000000000E+00 0. -1.
          1    1    1    2  503    0  0.80726337973E+02 -0.59426660099E+01  0.38791142398E+03  0.39626674069E+03  0.00000000000E+00 0. -1.
<mgrwt>
<rscale>  0 0.10191462E+03</rscale>
<asrwt>0</asrwt>
<pdfrwt beam="1">  1        2 0.21946389E+00 0.80944777E+02</pdfrwt>
<pdfrwt beam="2">  1        2 0.26246226E+00 0.12831698E+03</pdfrwt>
<totfact> 0.29083300E+01</totfact>
</mgrwt>
</event>
<event>
13    1  0.2038932E-008  0.8561119E+02  0.7546771E-02  0.1493218E+00
          2   -1    0    0  503    0  0.00000000000E+00  0.00000000000E+00  0.22006640323E+04  0.22006640323E+04  0.00000000000E+00 0. -1.
         -1   -1    0    0    0  501 -0.00000000000E+00 -0.00000000000E+00 -0.52984939145E+03  0.52984939145E+03  0.00000000000E+00 0.  1.
         24    2    1    2    0    0  0.94635383449E+02 -0.37324206192E+02 -0.29691369772E+02  0.13060692166E+03  0.76338970237E+02 0.  0.
         25    2    1    2    0    0 -0.11017600103E+03  0.25498417251E+01  0.99053853064E+02  0.19386351219E+03  0.12500457054E+03 0.  0.
         24    2    1    2    0    0 -0.39922736352E+02 -0.51534074496E+01  0.17416782836E+04  0.17438561192E+04  0.77269259582E+02 0.  0.
        -11    1    3    3    0    0 -0.96792017541E+01 -0.10228141285E+02  0.82816783717E+01  0.16336707667E+02  0.00000000000E+00 0.  1.
         12    1    3    3    0    0  0.10431458520E+03 -0.27096064907E+02 -0.37973048144E+02  0.11427021399E+03  0.00000000000E+00 0. -1.
        -13    1    5    5    0    0  0.18529392286E+02  0.47407069217E+01  0.17226247918E+03  0.17332101550E+03  0.00000000000E+00 0.  1.
         14    1    5    5    0    0 -0.58452128637E+02 -0.98941143713E+01  0.15694158044E+04  0.15705351037E+04  0.00000000000E+00 0. -1.
          5    1    4    4  502    0 -0.48726687918E+02  0.35688547666E+02 -0.12806961047E+02  0.61919874041E+02  0.47000000000E+01 0.  1.
         -5    1    4    4    0  502 -0.61449313113E+02 -0.33138705941E+02  0.11186081411E+03  0.13194363815E+03  0.47000000000E+01 0.  1.
          1    1    1    2  503    0 -0.58638644472E+01 -0.19867981237E+02  0.25598563525E+03  0.25682244263E+03  0.00000000000E+00 0. -1.
         -2    1    1    2    0  501  0.61327218380E+02  0.59795753154E+02 -0.39621176126E+03  0.40536442810E+03  0.00000000000E+00 0.  1.
<mgrwt>
<rscale>  0 0.42112436E+02</rscale>
<asrwt>0</asrwt>
<pdfrwt beam="1">  1        2 0.32362706E+00 0.20715250E+02</pdfrwt>
<pdfrwt beam="2">  1       -1 0.77919029E-01 0.85611195E+02</pdfrwt>
<totfact> 0.18382343E+01</totfact>
</mgrwt>
</event>
<event>
13    1  0.2038932E-008  0.2059810E+03  0.7546771E-02  0.1362468E+00
          2   -1    0    0  503    0  0.00000000000E+00  0.00000000000E+00  0.13549247276E+04  0.13549247276E+04  0.00000000000E+00 0. -1.
          2   -1    0    0  502    0 -0.00000000000E+00 -0.00000000000E+00 -0.22608616874E+04  0.22608616874E+04  0.00000000000E+00 0. -1.
         24    2    1    2    0    0 -0.14591965671E+02  0.17684648210E+03 -0.61767663813E+03  0.64768395537E+03  0.80513806635E+02 0.  0.
         25    2    1    2    0    0  0.22479299007E+02  0.22249627606E+02  0.27656189383E+03  0.30514362188E+03  0.12500313613E+03 0.  0.
         24    2    1    2    0    0 -0.96911808460E+01  0.35825761848E+02 -0.77882040012E+02  0.11602680686E+03  0.77583526320E+02 0.  0.
        -11    1    3    3    0    0  0.10322860912E+02  0.11897009958E+03 -0.28359304561E+03  0.30771002838E+03  0.00000000000E+00 0.  1.
         12    1    3    3    0    0 -0.24914826583E+02  0.57876382523E+02 -0.33408359253E+03  0.33997392699E+03  0.00000000000E+00 0. -1.
        -13    1    5    5    0    0 -0.28290239592E+00 -0.15138323964E+02 -0.58931555176E+02  0.60845518172E+02  0.00000000000E+00 0.  1.
         14    1    5    5    0    0 -0.94082784500E+01  0.50964085812E+02 -0.18950484836E+02  0.55181288691E+02  0.00000000000E+00 0. -1.
          5    1    4    4  501    0 -0.28311660075E+02  0.17444808616E+02  0.23966469329E+03  0.24200645994E+03  0.47000000000E+01 0. -1.
         -5    1    4    4    0  501  0.50790959081E+02  0.48048189902E+01  0.36897200541E+02  0.63137161939E+02  0.47000000000E+01 0. -1.
          1    1    1    2  502    0 -0.17379187730E+02 -0.22166260993E+03 -0.15086549447E+04  0.15249511766E+04  0.00000000000E+00 0. -1.
          1    1    1    2  503    0  0.19183035240E+02 -0.13259261629E+02  0.10217147692E+04  0.10219808543E+04  0.00000000000E+00 0. -1.
<mgrwt>
<rscale>  0 0.69306309E+02</rscale>
<asrwt>0</asrwt>
<pdfrwt beam="1">  1        2 0.19925364E+00 0.23319452E+02</pdfrwt>
<pdfrwt beam="2">  1        2 0.33247966E+00 0.20598102E+03</pdfrwt>
<totfact> 0.20750158E+01</totfact>
</mgrwt>
</event>
<event>
13    1  0.2038932E-008  0.1288072E+03  0.7546771E-02  0.1408678E+00
          2   -1    0    0  503    0  0.00000000000E+00  0.00000000000E+00  0.45037980124E+03  0.45037980124E+03  0.00000000000E+00 0. -1.
         -3   -1    0    0    0  501 -0.00000000000E+00 -0.00000000000E+00 -0.28608766523E+04  0.28608766523E+04  0.00000000000E+00 0.  1.
         24    2    1    2    0    0  0.23391342540E+00 -0.20032587676E+03 -0.66996233455E+03  0.70391705606E+03  0.80741442080E+02 0.  0.
         25    2    1    2    0    0  0.12837589609E+03  0.15076857037E+03  0.10804144563E+03  0.25789393612E+03  0.12499918323E+03 0.  0.
         24    2    1    2    0    0 -0.72028705522E+02  0.14659350720E+03 -0.57599927190E+01  0.18198174289E+03  0.80039905411E+02 0.  0.
        -11    1    3    3    0    0  0.40405503732E+02 -0.10727171690E+03 -0.35680175003E+03  0.37476301152E+03  0.00000000000E+00 0.  1.
         12    1    3    3    0    0 -0.40171590306E+02 -0.93054159861E+02 -0.31316058452E+03  0.32915404454E+03  0.00000000000E+00 0. -1.
        -13    1    5    5    0    0 -0.42130824410E+02  0.14546703061E+03 -0.99447234146E+01  0.15177140997E+03  0.00000000000E+00 0.  1.
         14    1    5    5    0    0 -0.29897881113E+02  0.11264765906E+01  0.41847306956E+01  0.30210332927E+02  0.00000000000E+00 0. -1.
          5    1    4    4  502    0  0.11202933697E+03  0.16223485575E+03  0.12307176432E+03  0.23246391104E+03  0.47000000000E+01 0. -1.
         -5    1    4    4    0  502  0.16346559119E+02 -0.11466285387E+02 -0.15030318692E+02  0.25430025081E+02  0.47000000000E+01 0. -1.
          1    1    1    2  503    0 -0.10533521232E+02  0.23397288535E+02  0.15922293714E+03  0.16127718962E+03  0.00000000000E+00 0. -1.
         -4    1    1    2    0  501 -0.46047582758E+02 -0.12043348934E+03 -0.20020389066E+04  0.20061865289E+04  0.00000000000E+00 0.  1.
<mgrwt>
<rscale>  0 0.57489767E+02</rscale>
<asrwt>0</asrwt>
<pdfrwt beam="1">  1        2 0.66232322E-01 0.25659076E+02</pdfrwt>
<pdfrwt beam="2">  1       -3 0.42071716E+00 0.12880718E+03</pdfrwt>
<totfact> 0.49814477E-01</totfact>
</mgrwt>
</event>
<event>
13    1  0.2038932E-008  0.1223020E+03  0.7546771E-02  0.1258759E+00
          2   -1    0    0  502    0  0.00000000000E+00  0.00000000000E+00  0.18045177708E+04  0.18045177708E+04  0.00000000000E+00 0. -1.
          2   -1    0    0  503    0 -0.00000000000E+00 -0.00000000000E+00 -0.27193532660E+04  0.27193532660E+04  0.00000000000E+00 0. -1.
         24    2    1    2    0    0  0.19965516838E+02 -0.28428403825E+01 -0.31561696422E+03  0.32638757720E+03  0.80672664790E+02 0.  0.
         25    2    1    2    0    0  0.10643079144E+03  0.16130917419E+03 -0.28711207553E+03  0.36797691331E+03  0.12500200706E+03 0.  0.
         24    2    1    2    0    0  0.32958399710E+02  0.38192156762E+02  0.15058488710E+03  0.17952582479E+03  0.83718675292E+02 0.  0.
        -13    1    3    3    0    0  0.33927107831E+02  0.31365342666E+02 -0.17392876332E+03  0.17996124048E+03  0.00000000000E+00 0.  1.
         14    1    3    3    0    0 -0.13961590993E+02 -0.34208183049E+02 -0.14168820090E+03  0.14642633672E+03  0.00000000000E+00 0. -1.
        -13    1    5    5    0    0  0.48208210294E+02  0.48410767831E+02  0.73764906131E+02  0.10054300253E+03  0.00000000000E+00 0.  1.
         14    1    5    5    0    0 -0.15249810585E+02 -0.10218611068E+02  0.76819980970E+02  0.78982822254E+02  0.00000000000E+00 0. -1.
          5    1    4    4  501    0  0.80266572605E+02  0.46271806316E+02 -0.55753776942E+02  0.10823297271E+03  0.47000000000E+01 0. -1.
         -5    1    4    4    0  501  0.26164218840E+02  0.11503736787E+03 -0.23135829859E+03  0.25974394060E+03  0.47000000000E+01 0. -1.
          1    1    1    2  502    0  0.23577132303E+02 -0.12454082965E+03  0.15864103510E+04  0.15914660226E+04  0.00000000000E+00 0. -1.
          1    1    1    2  503    0 -0.18293184030E+03 -0.72117660921E+02 -0.20491016935E+04  0.20585146989E+04  0.00000000000E+00 0. -1.
<mgrwt>
<rscale>  0 0.11098374E+03</rscale>
<asrwt>0</asrwt>
<pdfrwt beam="1">  1        2 0.26537026E+00 0.10071296E+03</pdfrwt>
<pdfrwt beam="2">  1        2 0.39990489E+00 0.12230195E+03</pdfrwt>
<totfact> 0.69812857E+00</totfact>
</mgrwt>
</event>
<event>
13    1  0.2038932E-008  0.1549499E+03  0.7546771E-02  0.1414154E+00
          2   -1    0    0  503    0  0.00000000000E+00  0.00000000000E+00  0.24027525188E+04  0.24027525188E+04  0.00000000000E+00 0. -1.
          2   -1    0    0  502    0 -0.00000000000E+00 -0.00000000000E+00 -0.10508925084E+04  0.10508925084E+04  0.00000000000E+00 0. -1.
         24    2    1    2    0    0  0.22719780723E+03  0.62468949800E+03  0.19454009387E+03  0.69728243556E+03  0.80629611762E+02 0.  0.
         25    2    1    2    0    0 -0.69922603396E+02 -0.61216207788E+03 -0.10584554457E+03  0.63754209784E+03  0.12500026864E+03 0.  0.
         24    2    1    2    0    0 -0.55333508667E+01 -0.80261072024E+02 -0.27277823698E+03  0.30123097586E+03  0.99295904232E+02 0.  0.
        -11    1    3    3    0    0  0.15128635898E+03  0.30073628273E+03  0.10679775352E+03  0.35317932318E+03  0.00000000000E+00 0.  1.
         12    1    3    3    0    0  0.75911448251E+02  0.32395321527E+03  0.87742340350E+02  0.34410311238E+03  0.00000000000E+00 0. -1.
        -11    1    5    5    0    0  0.38769901321E+02 -0.36327358349E+02 -0.63215307892E+02  0.82576978420E+02  0.00000000000E+00 0.  1.
         12    1    5    5    0    0 -0.44303252187E+02 -0.43933713675E+02 -0.20956292908E+03  0.21865399744E+03  0.00000000000E+00 0. -1.
          5    1    4    4  501    0 -0.56882064746E+02 -0.98466899364E+02 -0.54401955973E+01  0.11394290363E+03  0.47000000000E+01 0. -1.
         -5    1    4    4    0  501 -0.13040538651E+02 -0.51369517851E+03 -0.10040534897E+03  0.52359919421E+03  0.47000000000E+01 0. -1.
          1    1    1    2  502    0 -0.42766195232E+01  0.19987195274E+02 -0.13647809391E+03  0.13800017234E+03  0.00000000000E+00 0. -1.
          1    1    1    2  503    0 -0.14746523345E+03  0.47746456627E+02  0.16724217920E+04  0.16795893455E+04  0.00000000000E+00 0. -1.
<mgrwt>
<rscale>  0 0.56277124E+02</rscale>
<asrwt>0</asrwt>
<pdfrwt beam="1">  1        2 0.35334596E+00 0.15494990E+03</pdfrwt>
<pdfrwt beam="2">  1        2 0.15454302E+00 0.20439605E+02</pdfrwt>
<totfact> 0.25803557E+01</totfact>
</mgrwt>
</event>
<event>
13    1  0.2038932E-008  0.7795217E+02  0.7546771E-02  0.1388862E+00
          2   -1    0    0  503    0  0.00000000000E+00  0.00000000000E+00  0.24069376090E+04  0.24069376090E+04  0.00000000000E+00 0. -1.
          2   -1    0    0  502    0 -0.00000000000E+00 -0.00000000000E+00 -0.17330920469E+04  0.17330920469E+04  0.00000000000E+00 0. -1.
         24    2    1    2    0    0  0.84996037168E+00 -0.98661341508E+02 -0.10137933198E+04  0.10215215123E+04  0.77424299403E+02 0.  0.
         25    2    1    2    0    0 -0.14716394273E+02  0.11967771016E+03  0.26648700388E+03  0.31808496178E+03  0.12499357225E+03 0.  0.
         24    2    1    2    0    0  0.71544092383E+02  0.11179521862E+02 -0.15196247130E+03  0.18773394422E+03  0.83113791069E+02 0.  0.
        -11    1    5    5    0    0  0.23625624404E+02  0.44478901029E+02 -0.86028194682E+02  0.99686473734E+02  0.00000000000E+00 0.  1.
         12    1    5    5    0    0  0.47918467980E+02 -0.33299379166E+02 -0.65934276614E+02  0.88047470486E+02  0.00000000000E+00 0. -1.
        -13    1    3    3    0    0  0.77603488359E+01  0.57122144481E+01 -0.19600261451E+02  0.21840848356E+02  0.00000000000E+00 0.  1.
         14    1    3    3    0    0 -0.69103884642E+01 -0.10437355596E+03 -0.99419305831E+03  0.99968066393E+03  0.00000000000E+00 0. -1.
          5    1    4    4  501    0  0.18576680544E+02  0.13524839055E+03  0.20755278221E+03  0.24847025498E+03  0.47000000000E+01 0. -1.
         -5    1    4    4    0  501 -0.33293074817E+02 -0.15570680394E+02  0.58934221673E+02  0.69614706801E+02  0.47000000000E+01 0. -1.
          1    1    1    2  502    0 -0.28946713111E+02 -0.72646685566E+02 -0.51654998134E+03  0.52243596387E+03  0.00000000000E+00 0. -1.
          1    1    1    2  503    0 -0.28730945371E+02  0.40450795056E+02  0.20896643306E+04  0.20902532738E+04  0.00000000000E+00 0. -1.
<mgrwt>
<rscale>  0 0.62190550E+02</rscale>
<asrwt>0</asrwt>
<pdfrwt beam="1">  1        2 0.35396141E+00 0.49615865E+02</pdfrwt>
<pdfrwt beam="2">  1        2 0.25486648E+00 0.77952174E+02</pdfrwt>
<totfact> 0.12498213E+01</totfact>
</mgrwt>
</event>
<event>
13    1  0.2038932E-008  0.7653412E+02  0.7546771E-02  0.1398777E+00
         -1   -1    0    0    0  501 -0.00000000000E+00  0.00000000000E+00  0.35414477301E+04  0.35414477301E+04  0.00000000000E+00 0.  1.
          2   -1    0    0  503    0  0.00000000000E+00 -0.00000000000E+00 -0.10498065106E+04  0.10498065106E+04  0.00000000000E+00 0. -1.
         24    2    1    2    0    0 -0.26507503081E+02 -0.17694627286E+03  0.85326934068E+03  0.87553570018E+03  0.80508157016E+02 0.  0.
         25    2    1    2    0    0  0.15797997081E+03  0.24890307038E+03  0.73386497368E+03  0.80068263295E+03  0.12499787797E+03 0.  0.
         24    2    1    2    0    0 -0.10521062978E+03 -0.12115448610E+03  0.44040700595E+03  0.47605008670E+03  0.83172519732E+02 0.  0.
        -11    1    3    3    0    0 -0.24123337489E+02 -0.18468187375E+03  0.78522352110E+03  0.80701010402E+03  0.00000000000E+00 0.  1.
         12    1    3    3    0    0 -0.23841655918E+01  0.77356008878E+01  0.68045819579E+02  0.68525596159E+02  0.00000000000E+00 0. -1.
        -13    1    5    5    0    0 -0.35341509091E+02 -0.93976939193E+02  0.19328432808E+03  0.21780614970E+03  0.00000000000E+00 0.  1.
         14    1    5    5    0    0 -0.69869120690E+02 -0.27177546903E+02  0.24712267786E+03  0.25824393700E+03  0.00000000000E+00 0. -1.
          5    1    4    4  502    0 -0.81929618655E+01  0.70184631752E+01  0.17119984453E+01  0.11891357708E+02  0.47000000000E+01 0.  1.
         -5    1    4    4    0  502  0.16617293268E+03  0.24188460721E+03  0.73215297523E+03  0.78879127524E+03  0.47000000000E+01 0.  1.
          1    1    1    2  503    0  0.12263315968E+02  0.75568381953E+02 -0.98558274242E+03  0.98855162305E+03  0.00000000000E+00 0. -1.
         -2    1    1    2    0  501 -0.38525153918E+02 -0.26370693383E+02  0.14496826416E+04  0.14504341978E+04  0.00000000000E+00 0.  1.
<mgrwt>
<rscale>  0 0.59775302E+02</rscale>
<asrwt>0</asrwt>
<pdfrwt beam="2">  1        2 0.15438331E+00 0.76534115E+02</pdfrwt>
<pdfrwt beam="1">  1       -1 0.52080113E+00 0.46686197E+02</pdfrwt>
<totfact> 0.59045017E-02</totfact>
</mgrwt>
</event>
<event>
13    1  0.2038932E-008  0.7449430E+02  0.7546771E-02  0.1371240E+00
          2   -1    0    0  502    0  0.00000000000E+00  0.00000000000E+00  0.33517077065E+03  0.33517077065E+03  0.00000000000E+00 0. -1.
          2   -1    0    0  503    0 -0.00000000000E+00 -0.00000000000E+00 -0.31369206854E+04  0.31369206854E+04  0.00000000000E+00 0. -1.
         24    2    1    2    0    0  0.16571155085E+03 -0.21642760764E+03 -0.14931873285E+04  0.15201142648E+04  0.82690704660E+02 0.  0.
         25    2    1    2    0    0  0.10396387124E+03  0.68140024152E+02  0.12050959749E+03  0.21353814528E+03  0.12499770792E+03 0.  0.
         24    2    1    2    0    0 -0.13982428206E+03  0.15268410082E+03 -0.91293979139E+03  0.93940829167E+03  0.78521406462E+02 0.  0.
        -11    1    3    3    0    0  0.17968674811E+02 -0.84753437647E+02 -0.42276742695E+03  0.43155337532E+03  0.00000000000E+00 0.  1.
         12    1    3    3    0    0  0.14774287604E+03 -0.13167416999E+03 -0.10704199016E+04  0.10885608895E+04  0.00000000000E+00 0. -1.
        -13    1    5    5    0    0 -0.43168145196E+02  0.10514188923E+03 -0.45871791669E+03  0.47258907385E+03  0.00000000000E+00 0.  1.
         14    1    5    5    0    0 -0.96656136867E+02  0.47542211586E+02 -0.45422187469E+03  0.46681921782E+03  0.00000000000E+00 0. -1.
          5    1    4    4  501    0  0.12538689672E+03  0.39280606915E+02  0.63573663037E+02  0.14604294088E+03  0.47000000000E+01 0.  1.
         -5    1    4    4    0  501 -0.21423025485E+02  0.28859417237E+02  0.56935934455E+02  0.67495204396E+02  0.47000000000E+01 0.  1.
          1    1    1    2  502    0 -0.58268131759E+02  0.14070753036E+02  0.13290460976E+03  0.14579710753E+03  0.00000000000E+00 0. -1.
          1    1    1    2  503    0 -0.71583008269E+02 -0.18467270366E+02 -0.64903700212E+03  0.65323364677E+03  0.00000000000E+00 0. -1.
<mgrwt>
<rscale>  0 0.66823727E+02</rscale>
<asrwt>0</asrwt>
<pdfrwt beam="1">  1        2 0.49289822E-01 0.59942983E+02</pdfrwt>
<pdfrwt beam="2">  1        2 0.46131184E+00 0.74494297E+02</pdfrwt>
<totfact> 0.40230871E+01</totfact>
</mgrwt>
</event>
<event>
13    1  0.2038932E-008  0.1409911E+03  0.7546771E-02  0.1313796E+00
          2   -1    0    0  503    0  0.00000000000E+00  0.00000000000E+00  0.16627423438E+04  0.16627423438E+04  0.00000000000E+00 0. -1.
          2   -1    0    0  502    0 -0.00000000000E+00 -0.00000000000E+00 -0.17410652299E+04  0.17410652299E+04  0.00000000000E+00 0. -1.
         24    2    1    2    0    0 -0.25190292124E+01  0.96393212741E+02 -0.13525067869E+03  0.18582231894E+03  0.83301807672E+02 0.  0.
         25    2    1    2    0    0 -0.81957213341E+02  0.91080988758E+02  0.44108776193E+03  0.47455044225E+03  0.12500790847E+03 0.  0.
         24    2    1    2    0    0 -0.38413847727E+02 -0.11344279189E+03  0.15019997715E+03  0.20836602110E+03  0.80693710311E+02 0.  0.
        -11    1    3    3    0    0 -0.28181386738E+02  0.49022647965E+01 -0.52644830835E+02  0.59914113297E+02  0.00000000000E+00 0.  1.
         12    1    3    3    0    0  0.25662357526E+02  0.91490947944E+02 -0.82605847853E+02  0.12590820565E+03  0.00000000000E+00 0. -1.
        -11    1    5    5    0    0 -0.51602944062E+02 -0.39981580078E+02  0.96142817854E+02  0.11621029217E+03  0.00000000000E+00 0.  1.
         12    1    5    5    0    0  0.13189096335E+02 -0.73461211814E+02  0.54057159293E+02  0.92155728927E+02  0.00000000000E+00 0. -1.
          5    1    4    4  501    0  0.13711975655E+02  0.63253185971E+02  0.10027129873E+03  0.11943787992E+03  0.47000000000E+01 0.  1.
         -5    1    4    4    0  501 -0.95669188996E+02  0.27827802787E+02  0.34081646320E+03  0.35511256232E+03  0.47000000000E+01 0.  1.
          1    1    1    2  502    0  0.15590886308E+03 -0.33852743422E+02 -0.15298875124E+04  0.15381837935E+04  0.00000000000E+00 0. -1.
          1    1    1    2  503    0 -0.33018772799E+02 -0.40178666185E+02  0.99552756589E+03  0.99688499789E+03  0.00000000000E+00 0. -1.
<mgrwt>
<rscale>  0 0.85628866E+02</rscale>
<asrwt>0</asrwt>
<pdfrwt beam="1">  1        2 0.24452094E+00 0.52005428E+02</pdfrwt>
<pdfrwt beam="2">  1        2 0.25603900E+00 0.14099110E+03</pdfrwt>
<totfact> 0.26061960E+01</totfact>
</mgrwt>
</event>
<event>
13    1  0.2038932E-008  0.1022027E+03  0.7546771E-02  0.1304137E+00
          2   -1    0    0  503    0  0.00000000000E+00  0.00000000000E+00  0.62168092838E+03  0.62168092838E+03  0.00000000000E+00 0. -1.
          2   -1    0    0  502    0 -0.00000000000E+00 -0.00000000000E+00 -0.12381944917E+04  0.12381944917E+04  0.00000000000E+00 0. -1.
         24    2    1    2    0    0  0.28376192565E+02  0.25624112485E+02  0.37622892697E+03  0.38666065593E+03  0.80600582571E+02 0.  0.
         25    2    1    2    0    0 -0.17567580970E+03 -0.33883103521E+03 -0.21756526340E+03  0.45675738466E+03  0.12499681622E+03 0.  0.
         24    2    1    2    0    0  0.89225220860E+02  0.22004472377E+03 -0.70538527103E+03  0.74856576364E+03  0.80009383275E+02 0.  0.
        -11    1    5    5    0    0 -0.50409627887E+01  0.37236177285E+02 -0.56432826417E+02  0.67798289816E+02  0.00000000000E+00 0.  1.
         12    1    5    5    0    0  0.94266183648E+02  0.18280854648E+03 -0.64895244461E+03  0.68076747382E+03  0.00000000000E+00 0. -1.
        -13    1    3    3    0    0 -0.12910001764E+02  0.31008060529E+01  0.81280644437E+01  0.15567548790E+02  0.00000000000E+00 0.  1.
         14    1    3    3    0    0  0.41286194329E+02  0.22523306432E+02  0.36810086253E+03  0.37109310714E+03  0.00000000000E+00 0. -1.
          5    1    4    4  501    0 -0.14804839890E+03 -0.15127445978E+03 -0.12290307742E+03  0.24480512053E+03  0.47000000000E+01 0. -1.
         -5    1    4    4    0  501 -0.27627410808E+02 -0.18755657543E+03 -0.94662185971E+02  0.21195226413E+03  0.47000000000E+01 0. -1.
          1    1    1    2  502    0 -0.19860418108E+02  0.10098093137E+03 -0.13234632039E+03  0.16765182143E+03  0.00000000000E+00 0. -1.
          1    1    1    2  503    0  0.77934814386E+02 -0.78187324140E+01  0.62554364501E+02  0.10023979443E+03  0.00000000000E+00 0. -1.
<mgrwt>
<rscale>  0 0.89471415E+02</rscale>
<asrwt>0</asrwt>
<pdfrwt beam="1">  1        2 0.91423666E-01 0.78326036E+02</pdfrwt>
<pdfrwt beam="2">  1        2 0.18208743E+00 0.10220272E+03</pdfrwt>
<totfact> 0.17736523E+02</totfact>
</mgrwt>
</event>
<event>
13    1  0.2038932E-008  0.5931963E+02  0.7546771E-02  0.1537410E+00
          2   -1    0    0  503    0  0.00000000000E+00  0.00000000000E+00  0.14127570330E+04  0.14127570330E+04  0.00000000000E+00 0. -1.
          2   -1    0    0  502    0 -0.00000000000E+00 -0.00000000000E+00 -0.11141093826E+04  0.11141093826E+04  0.00000000000E+00 0. -1.
         24    2    1    2    0    0  0.52470046724E+03  0.87227012947E+02 -0.56756387555E+03  0.78533910890E+03  0.10821104860E+03 0.  0.
         25    2    1    2    0    0 -0.49096334604E+03 -0.63782165226E+02  0.84420629831E+03  0.98662186025E+03  0.12500099704E+03 0.  0.
         24    2    1    2    0    0  0.85631289810E+01  0.44253563569E+02 -0.34100549309E+02  0.98937728475E+02  0.81204196850E+02 0.  0.
        -13    1    5    5    0    0  0.33596660907E+02  0.33799031040E+02  0.85237385304E+01  0.48412438917E+02  0.00000000000E+00 0.  1.
         14    1    5    5    0    0 -0.25033531926E+02  0.10454532529E+02 -0.42624287839E+02  0.50525289558E+02  0.00000000000E+00 0. -1.
        -13    1    3    3    0    0  0.32471908428E+03  0.13056764922E+02 -0.29218443849E+03  0.43701797320E+03  0.00000000000E+00 0.  1.
         14    1    3    3    0    0  0.19998138296E+03  0.74170248025E+02 -0.27537943706E+03  0.34832113570E+03  0.00000000000E+00 0. -1.
          5    1    4    4  501    0 -0.25792119166E+03 -0.30497975426E+01  0.33066569049E+03  0.41939781979E+03  0.47000000000E+01 0.  1.
         -5    1    4    4    0  501 -0.23304215438E+03 -0.60732367684E+02  0.51354060782E+03  0.56722404047E+03  0.47000000000E+01 0.  1.
          1    1    1    2  502    0 -0.17233613227E+02 -0.14001851475E+02 -0.29704792109E+03  0.29787668035E+03  0.00000000000E+00 0. -1.
          1    1    1    2  503    0 -0.25066636949E+02 -0.53696559814E+02  0.35315369804E+03  0.35809103767E+03  0.00000000000E+00 0. -1.
<mgrwt>
<rscale>  0 0.36292911E+02</rscale>
<asrwt>0</asrwt>
<pdfrwt beam="1">  1        2 0.20775839E+00 0.59319631E+02</pdfrwt>
<pdfrwt beam="2">  1        2 0.16383962E+00 0.22204713E+02</pdfrwt>
<totfact> 0.79262142E+01</totfact>
</mgrwt>
</event>
<event>
13    1  0.2038932E-008  0.7855478E+02  0.7546771E-02  0.1352072E+00
          2   -1    0    0  502    0  0.00000000000E+00  0.00000000000E+00  0.37690086940E+03  0.37690086940E+03  0.00000000000E+00 0. -1.
          2   -1    0    0  503    0 -0.00000000000E+00 -0.00000000000E+00 -0.66301006461E+03  0.66301006461E+03  0.00000000000E+00 0. -1.
         24    2    1    2    0    0  0.51997623537E+02  0.64197412798E+02 -0.15768572911E+03  0.19522489839E+03  0.80143066592E+02 0.  0.
         25    2    1    2    0    0  0.19329580965E+02 -0.65431272433E+01  0.27293971046E+02  0.12955255882E+03  0.12498983730E+03 0.  0.
         24    2    1    2    0    0 -0.12952536473E+03  0.21531492851E+02 -0.21099664300E+03  0.26103990726E+03  0.79886322560E+02 0.  0.
        -11    1    3    3    0    0  0.17842237725E+02  0.73258538199E+02 -0.13020167799E+03  0.15045808658E+03  0.00000000000E+00 0.  1.
         12    1    3    3    0    0  0.34155385812E+02 -0.90611254008E+01 -0.27484051115E+02  0.44766811805E+02  0.00000000000E+00 0. -1.
        -13    1    5    5    0    0 -0.29476489874E+02 -0.28787748071E+02 -0.66434594995E+02  0.78173865879E+02  0.00000000000E+00 0.  1.
         14    1    5    5    0    0 -0.10004887486E+03  0.50319240922E+02 -0.14456204801E+03  0.18286604138E+03  0.00000000000E+00 0. -1.
          5    1    4    4  501    0 -0.21317903891E+02 -0.27866932308E+02 -0.36483256361E+02  0.50834407021E+02  0.47000000000E+01 0. -1.
         -5    1    4    4    0  501  0.40647484856E+02  0.21323805064E+02  0.63777227406E+02  0.78718151802E+02  0.47000000000E+01 0. -1.
          1    1    1    2  502    0  0.77153100475E+02 -0.15180522637E+02  0.24271044237E+03  0.25513017857E+03  0.00000000000E+00 0. -1.
          1    1    1    2  503    0 -0.18954940246E+02 -0.64005255768E+02 -0.18743123651E+03  0.19896339097E+03  0.00000000000E+00 0. -1.
<mgrwt>
<rscale>  0 0.72413858E+02</rscale>
<asrwt>0</asrwt>
<pdfrwt beam="1">  1        2 0.55426599E-01 0.78554778E+02</pdfrwt>
<pdfrwt beam="2">  1        2 0.97501479E-01 0.66752996E+02</pdfrwt>
<totfact> 0.68194888E+02</totfact>
</mgrwt>
</event>
<event>
13    1  0.2038932E-008  0.2127209E+03  0.7546771E-02  0.1225456E+00
          2   -1    0    0  503    0  0.00000000000E+00  0.00000000000E+00  0.66121976744E+03  0.66121976744E+03  0.00000000000E+00 0. -1.
          2   -1    0    0  502    0 -0.00000000000E+00 -0.00000000000E+00 -0.72907175896E+03  0.72907175896E+03  0.00000000000E+00 0. -1.
         24    2    1    2    0    0  0.88691019029E+02  0.10676780596E+03 -0.38372294499E+00  0.15835324676E+03  0.76224289241E+02 0.  0.
         25    2    1    2    0    0 -0.40493719026E+03 -0.85047139298E+02  0.98724117751E+02  0.44337200506E+03  0.12500055794E+03 0.  0.
         24    2    1    2    0    0  0.86556527720E+02 -0.11880139311E+03  0.68327581553E+02  0.18260339874E+03  0.84080552646E+02 0.  0.
        -11    1    3    3    0    0  0.99079024898E+02  0.10307405467E+03  0.98498577914E+01  0.14331061936E+03  0.00000000000E+00 0.  1.
         12    1    3    3    0    0 -0.10388005869E+02  0.36937512826E+01 -0.10233580736E+02  0.15042627402E+02  0.00000000000E+00 0. -1.
        -11    1    5    5    0    0  0.87966434780E+02 -0.56649061256E+02  0.27348518479E+02  0.10814412260E+03  0.00000000000E+00 0.  1.
         12    1    5    5    0    0 -0.14099070599E+01 -0.62152331856E+02  0.40979063074E+02  0.74459276141E+02  0.00000000000E+00 0. -1.
          5    1    4    4  501    0 -0.18188255816E+03 -0.26633173237E+02 -0.18237012975E+02  0.18478438657E+03  0.47000000000E+01 0.  1.
         -5    1    4    4    0  501 -0.22305463210E+03 -0.58413966061E+02  0.11696113073E+03  0.25858761849E+03  0.47000000000E+01 0.  1.
          1    1    1    2  502    0  0.80695704824E+02 -0.82296439975E+01 -0.36995049038E+03  0.37873854986E+03  0.00000000000E+00 0. -1.
          1    1    1    2  503    0  0.14899393869E+03  0.10531037045E+03  0.13543052251E+03  0.22722432598E+03  0.00000000000E+00 0. -1.
<mgrwt>
<rscale>  0 0.13135715E+03</rscale>
<asrwt>0</asrwt>
<pdfrwt beam="1">  1        2 0.97238201E-01 0.21272091E+03</pdfrwt>
<pdfrwt beam="2">  1        2 0.10721644E+00 0.81114264E+02</pdfrwt>
<totfact> 0.32500875E+02</totfact>
</mgrwt>
</event>
<event>
13    1  0.2038932E-008  0.1249481E+03  0.7546771E-02  0.1273684E+00
          2   -1    0    0  503    0  0.00000000000E+00  0.00000000000E+00  0.46998515274E+03  0.46998515274E+03  0.00000000000E+00 0. -1.
          2   -1    0    0  502    0 -0.00000000000E+00 -0.00000000000E+00 -0.22808542860E+04  0.22808542860E+04  0.00000000000E+00 0. -1.
         24    2    1    2    0    0  0.24960250118E+02 -0.17173540357E+02 -0.89326063004E+02  0.12349518440E+03  0.79711796266E+02 0.  0.
         25    2    1    2    0    0 -0.55474460866E+02  0.51987910957E+02 -0.26016409412E+03  0.29847969141E+03  0.12499844647E+03 0.  0.
         24    2    1    2    0    0 -0.19863796190E+02 -0.33768473024E+02 -0.28890915288E+02  0.10066886351E+03  0.88117279379E+02 0.  0.
        -11    1    3    3    0    0  0.10941252044E+02  0.27704048536E+02 -0.62815372161E+02  0.69519754612E+02  0.00000000000E+00 0.  1.
         12    1    3    3    0    0  0.14018998074E+02 -0.44877588893E+02 -0.26510690843E+02  0.53975429788E+02  0.00000000000E+00 0. -1.
        -11    1    5    5    0    0  0.42542754991E+01 -0.54251989793E+02 -0.39557424618E+02  0.67276794655E+02  0.00000000000E+00 0.  1.
         12    1    5    5    0    0 -0.24118071689E+02  0.20483516770E+02  0.10666509330E+02  0.33392068857E+02  0.00000000000E+00 0. -1.
          5    1    4    4  501    0 -0.38127666930E+02 -0.33591209028E+02 -0.52794013585E+02  0.73426059270E+02  0.47000000000E+01 0.  1.
         -5    1    4    4    0  501 -0.17346793936E+02  0.85579119985E+02 -0.20737008053E+03  0.22505363214E+03  0.47000000000E+01 0.  1.
          1    1    1    2  502    0 -0.67486981797E+02 -0.52097136955E+02 -0.18189502197E+04  0.18209471454E+04  0.00000000000E+00 0. -1.
          1    1    1    2  503    0  0.11786498873E+03  0.51051239379E+02  0.38646215883E+03  0.40724855410E+03  0.00000000000E+00 0. -1.
<mgrwt>
<rscale>  0 0.10321139E+03</rscale>
<asrwt>0</asrwt>
<pdfrwt beam="1">  1        2 0.69115463E-01 0.12494814E+03</pdfrwt>
<pdfrwt beam="2">  1        2 0.33541975E+00 0.85256111E+02</pdfrwt>
<totfact> 0.75114853E+01</totfact>
</mgrwt>
</event>
<event>
13    1  0.2038932E-008  0.1690364E+03  0.7546771E-02  0.1214413E+00
          2   -1    0    0  503    0  0.00000000000E+00  0.00000000000E+00  0.21632992546E+04  0.21632992546E+04  0.00000000000E+00 0. -1.
         -3   -1    0    0    0  501 -0.00000000000E+00 -0.00000000000E+00 -0.16082645900E+04  0.16082645900E+04  0.00000000000E+00 0.  1.
         24    2    1    2    0    0  0.82052574975E+02 -0.39519387939E+02 -0.26759029894E+03  0.29375554664E+03  0.79958401769E+02 0.  0.
         25    2    1    2    0    0 -0.19352736764E+03  0.27203805691E+03  0.64480996885E+03  0.73679235839E+03  0.12500214806E+03 0.  0.
         24    2    1    2    0    0  0.57586207079E+02 -0.86512125699E+02  0.62284642319E+03  0.63647401547E+03  0.79755791917E+02 0.  0.
        -11    1    5    5    0    0  0.13831045695E+02 -0.80584351051E+02  0.31325271641E+03  0.32374743211E+03  0.00000000000E+00 0.  1.
         12    1    5    5    0    0  0.43755161384E+02 -0.59277746482E+01  0.30959370679E+03  0.31272658336E+03  0.00000000000E+00 0. -1.
        -13    1    3    3    0    0  0.90069872767E+02 -0.23514120013E+02 -0.25607657125E+03  0.27247147770E+03  0.00000000000E+00 0.  1.
         14    1    3    3    0    0 -0.80172977914E+01 -0.16005267925E+02 -0.11513727694E+02  0.21284068940E+02  0.00000000000E+00 0. -1.
          5    1    4    4  502    0 -0.27436460131E+02  0.10634791650E+03  0.12493252314E+03  0.16641173044E+03  0.47000000000E+01 0. -1.
         -5    1    4    4    0  502 -0.16609090751E+03  0.16569014040E+03  0.51987744571E+03  0.57038062795E+03  0.47000000000E+01 0. -1.
          1    1    1    2  503    0 -0.60063467431E+02 -0.15841241646E+03  0.81848600391E+03  0.83583578077E+03  0.00000000000E+00 0. -1.
         -4    1    1    2    0  501  0.11395205302E+03  0.12405873193E+02 -0.12635174324E+04  0.12687061433E+04  0.00000000000E+00 0.  1.
<mgrwt>
<rscale>  0 0.13919722E+03</rscale>
<asrwt>0</asrwt>
<pdfrwt beam="1">  1        2 0.31813224E+00 0.16903644E+03</pdfrwt>
<pdfrwt beam="2">  1       -3 0.23650950E+00 0.11462537E+03</pdfrwt>
<totfact> 0.45114228E-01</totfact>
</mgrwt>
</event>
<event>
13    1  0.2038932E-008  0.1675140E+03  0.7546771E-02  0.1213034E+00
          2   -1    0    0  502    0  0.00000000000E+00  0.00000000000E+00  0.28578468089E+04  0.28578468089E+04  0.00000000000E+00 0. -1.
          2   -1    0    0  503    0 -0.00000000000E+00 -0.00000000000E+00 -0.48936549802E+04  0.48936549802E+04  0.00000000000E+00 0. -1.
         24    2    1    2    0    0 -0.20830677408E+03  0.15512279075E+03 -0.15780911483E+04  0.16013910696E+04  0.81405731698E+02 0.  0.
         25    2    1    2    0    0  0.35063779883E+02 -0.38379078378E+03  0.11497551946E+04  0.12190515657E+04  0.12499951169E+03 0.  0.
         24    2    1    2    0    0 -0.51367724375E+01  0.19427839282E+01 -0.47837359569E+03  0.48522078311E+03  0.81041658830E+02 0.  0.
        -11    1    3    3    0    0 -0.44078054601E+02  0.55349458939E+02 -0.63443340205E+03  0.63836680611E+03  0.00000000000E+00 0.  1.
         12    1    3    3    0    0 -0.16422871948E+03  0.99773331810E+02 -0.94365774624E+03  0.96302426350E+03  0.00000000000E+00 0. -1.
        -13    1    5    5    0    0  0.23339887533E+02  0.20283726294E+01 -0.43430472789E+02  0.49346434646E+02  0.00000000000E+00 0.  1.
         14    1    5    5    0    0 -0.28476659970E+02 -0.85588701220E-01 -0.43494312290E+03  0.43587434846E+03  0.00000000000E+00 0. -1.
          5    1    4    4  501    0  0.29104143619E+02 -0.37588657187E+03  0.99713534789E+03  0.10660388164E+04  0.47000000000E+01 0.  1.
         -5    1    4    4    0  501  0.59596362639E+01 -0.79042119062E+01  0.15261984673E+03  0.15301274929E+03  0.47000000000E+01 0.  1.
          1    1    1    2  502    0  0.17341849147E+02  0.16661253240E+03  0.16514789682E+04  0.16599527879E+04  0.00000000000E+00 0. -1.
          1    1    1    2  503    0  0.16103791749E+03  0.60112676702E+02 -0.27805775902E+04  0.27858855827E+04  0.00000000000E+00 0. -1.
<mgrwt>
<rscale>  0 0.14021980E+03</rscale>
<asrwt>0</asrwt>
<pdfrwt beam="1">  1        2 0.42027159E+00 0.16751396E+03</pdfrwt>
<pdfrwt beam="2">  1        2 0.71965514E+00 0.11737286E+03</pdfrwt>
<totfact> 0.70127065E-02</totfact>
</mgrwt>
</event>
<event>
13    1  0.2038932E-008  0.8639719E+02  0.7546771E-02  0.1451326E+00
          2   -1    0    0  503    0  0.00000000000E+00  0.00000000000E+00  0.41124576989E+03  0.41124576989E+03  0.00000000000E+00 0. -1.
          2   -1    0    0  502    0 -0.00000000000E+00 -0.00000000000E+00 -0.35188447382E+03  0.35188447382E+03  0.00000000000E+00 0. -1.
         24    2    1    2    0    0  0.19268694354E+02 -0.41979428024E+02  0.25987487364E+02  0.96578780241E+02  0.80737576964E+02 0.  0.
         25    2    1    2    0    0 -0.19462411908E+02  0.15011084822E+03 -0.57673969615E+02  0.20460461924E+03  0.12499884484E+03 0.  0.
         24    2    1    2    0    0 -0.56012282373E+01  0.17846052700E+02  0.31512521264E+02  0.88559257272E+02  0.80621632937E+02 0.  0.
        -11    1    5    5    0    0 -0.37500263450E+02  0.29049895366E+02  0.99772708947E+01  0.48473829166E+02  0.00000000000E+00 0.  1.
         12    1    5    5    0    0  0.31899035213E+02 -0.11203842666E+02  0.21535250369E+02  0.40085428106E+02  0.00000000000E+00 0. -1.
        -13    1    3    3    0    0 -0.12533782676E+02 -0.55098871747E+02  0.25940913999E+02  0.62176461744E+02  0.00000000000E+00 0.  1.
         14    1    3    3    0    0  0.31802477030E+02  0.13119443723E+02  0.46573365212E-01  0.34402318496E+02  0.00000000000E+00 0. -1.
          5    1    4    4  501    0 -0.62985542263E+02  0.10450890185E+03 -0.48210657589E+01  0.12220729019E+03  0.47000000000E+01 0.  1.
         -5    1    4    4    0  501  0.43523130355E+02  0.45601946374E+02 -0.52852903856E+02  0.82397329053E+02  0.47000000000E+01 0.  1.
          1    1    1    2  502    0 -0.23989264705E+00 -0.27684229495E+02 -0.14434154340E+03  0.14697263440E+03  0.00000000000E+00 0. -1.
          1    1    1    2  503    0  0.60348384384E+01 -0.98293243406E+02  0.20387680046E+03  0.22641495255E+03  0.00000000000E+00 0. -1.
<mgrwt>
<rscale>  0 0.48907355E+02</rscale>
<asrwt>0</asrwt>
<pdfrwt beam="1">  1        2 0.60477319E-01 0.86397187E+02</pdfrwt>
<pdfrwt beam="2">  1        2 0.51747717E-01 0.27685269E+02</pdfrwt>
<totfact> 0.12108680E+03</totfact>
</mgrwt>
</event>
<event>
13    1  0.2038932E-008  0.1444652E+03  0.7546771E-02  0.1280992E+00
          2   -1    0    0  502    0  0.00000000000E+00  0.00000000000E+00  0.19534614526E+04  0.19534614526E+04  0.00000000000E+00 0. -1.
          2   -1    0    0  503    0 -0.00000000000E+00 -0.00000000000E+00 -0.53216589607E+03  0.53216589607E+03  0.00000000000E+00 0. -1.
         24    2    1    2    0    0 -0.48525908060E+02 -0.34636159644E+02 -0.12195833498E+03  0.16022961815E+03  0.85119138582E+02 0.  0.
         25    2    1    2    0    0 -0.16208219705E+03  0.26478263164E+03  0.41933314881E+03  0.53651306107E+03  0.12500197756E+03 0.  0.
         24    2    1    2    0    0  0.11119051040E+03 -0.13407713873E+02  0.14337708140E+03  0.19718817163E+03  0.76046638086E+02 0.  0.
        -11    1    5    5    0    0 -0.37994902323E+01 -0.18635722752E+02  0.11869641730E+02  0.22419069635E+02  0.00000000000E+00 0.  1.
         12    1    5    5    0    0  0.11499000063E+03  0.52280088782E+01  0.13150743967E+03  0.17476910199E+03  0.00000000000E+00 0. -1.
        -11    1    3    3    0    0 -0.14994233640E+02  0.13676766496E+02  0.44802299890E+01  0.20783489722E+02  0.00000000000E+00 0.  1.
         12    1    3    3    0    0 -0.33531674420E+02 -0.48312926140E+02 -0.12643856497E+03  0.13944612843E+03  0.00000000000E+00 0. -1.
          5    1    4    4  501    0 -0.16020115168E+03  0.19368456470E+03  0.37845829061E+03  0.45434665987E+03  0.47000000000E+01 0.  1.
         -5    1    4    4    0  501 -0.18810453763E+01  0.71098066940E+02  0.40874858198E+02  0.82166401205E+02  0.47000000000E+01 0.  1.
          1    1    1    2  502    0 -0.85468299914E+01 -0.68230944965E+02  0.12575159371E+04  0.12593946333E+04  0.00000000000E+00 0. -1.
          1    1    1    2  503    0  0.10796442470E+03 -0.14850781316E+03 -0.27697227586E+03  0.33230186452E+03  0.00000000000E+00 0. -1.
<mgrwt>
<rscale>  0 0.99669588E+02</rscale>
<asrwt>0</asrwt>
<pdfrwt beam="1">  1        2 0.28727374E+00 0.68764163E+02</pdfrwt>
<pdfrwt beam="2">  1        2 0.78259691E-01 0.14446517E+03</pdfrwt>
<totfact> 0.96155162E+01</totfact>
</mgrwt>
</event>
<event>
13    1  0.2038932E-008  0.1961364E+03  0.7546771E-02  0.1185209E+00
          2   -1    0    0  503    0  0.00000000000E+00  0.00000000000E+00  0.28196746801E+04  0.28196746801E+04  0.00000000000E+00 0. -1.
          2   -1    0    0  502    0 -0.00000000000E+00 -0.00000000000E+00 -0.18417994570E+04  0.18417994570E+04  0.00000000000E+00 0. -1.
         24    2    1    2    0    0 -0.39792740999E+03  0.60950831044E+02  0.11860390154E+03  0.42679458424E+03  0.77624121582E+02 0.  0.
         25    2    1    2    0    0  0.76143761026E+03 -0.32311122058E+01  0.39365326854E+03  0.86624766730E+03  0.12499780345E+03 0.  0.
         24    2    1    2    0    0 -0.10974126320E+03  0.48111714959E+02  0.18883077405E+03  0.23749905591E+03  0.79942844339E+02 0.  0.
        -11    1    3    3    0    0 -0.12442328000E+03  0.55571826919E+02  0.33882417915E+02  0.14041865545E+03  0.00000000000E+00 0.  1.
         12    1    3    3    0    0 -0.27350412999E+03  0.53790041242E+01  0.84721483625E+02  0.28637592879E+03  0.00000000000E+00 0. -1.
        -13    1    5    5    0    0 -0.10675845237E+03  0.63747601325E+02  0.18141745182E+03  0.21993957273E+03  0.00000000000E+00 0.  1.
         14    1    5    5    0    0 -0.29828108267E+01 -0.15635886366E+02  0.74133222371E+01  0.17559483178E+02  0.00000000000E+00 0. -1.
          5    1    4    4  501    0  0.55098014527E+03 -0.32930199176E+02  0.23011424556E+03  0.59802857332E+03  0.47000000000E+01 0. -1.
         -5    1    4    4    0  501  0.21045746499E+03  0.29699086970E+02  0.16353902299E+03  0.26821909398E+03  0.47000000000E+01 0. -1.
          1    1    1    2  502    0 -0.11763448773E+03  0.67603784386E+02 -0.14166854623E+04  0.14231675388E+04  0.00000000000E+00 0. -1.
          1    1    1    2  503    0 -0.13613444934E+03 -0.17343521818E+03  0.16934727413E+04  0.17077652909E+04  0.00000000000E+00 0. -1.
<mgrwt>
<rscale>  0 0.16312914E+03</rscale>
<asrwt>0</asrwt>
<pdfrwt beam="1">  1        2 0.41465804E+00 0.19613636E+03</pdfrwt>
<pdfrwt beam="2">  1        2 0.27085286E+00 0.13567662E+03</pdfrwt>
<totfact> 0.54135260E+00</totfact>
</mgrwt>
</event>
<event>
13    1  0.2038932E-008  0.1406314E+03  0.7546771E-02  0.1360625E+00
          2   -1    0    0  503    0  0.00000000000E+00  0.00000000000E+00  0.11125999111E+04  0.11125999111E+04  0.00000000000E+00 0. -1.
          2   -1    0    0  502    0 -0.00000000000E+00 -0.00000000000E+00 -0.11873558210E+04  0.11873558210E+04  0.00000000000E+00 0. -1.
         24    2    1    2    0    0  0.10224417378E+03 -0.12011582891E+03 -0.13322765498E+03  0.22162068186E+03  0.80525990534E+02 0.  0.
         25    2    1    2    0    0 -0.12595550403E+03  0.36900953024E+03  0.12370348149E+03  0.42774114355E+03  0.12500844833E+03 0.  0.
         24    2    1    2    0    0  0.13498194368E+02 -0.13384961356E+02  0.15356942652E+03  0.17418617490E+03  0.79974347918E+02 0.  0.
        -11    1    5    5    0    0 -0.50344038383E+01 -0.44608202356E+02  0.98187017876E+02  0.10796262047E+03  0.00000000000E+00 0.  1.
         12    1    5    5    0    0  0.18532598206E+02  0.31223241000E+02  0.55382408641E+02  0.66223554433E+02  0.00000000000E+00 0. -1.
        -13    1    3    3    0    0  0.11152914242E+03 -0.10153703466E+03 -0.13262373207E+03  0.20084216023E+03  0.00000000000E+00 0.  1.
         14    1    3    3    0    0 -0.92849686409E+01 -0.18578794247E+02 -0.60392290636E+00  0.20778521632E+02  0.00000000000E+00 0. -1.
          5    1    4    4  501    0 -0.56938505600E+02  0.29549612069E+03  0.55836810399E+02  0.30610421454E+03  0.47000000000E+01 0.  1.
         -5    1    4    4    0  501 -0.69016998425E+02  0.73513409547E+02  0.67866671087E+02  0.12163692901E+03  0.47000000000E+01 0.  1.
          1    1    1    2  502    0 -0.14417060693E+02 -0.31549553111E+02 -0.83045243135E+03  0.83117655565E+03  0.00000000000E+00 0. -1.
          1    1    1    2  503    0  0.24630196571E+02 -0.20395918686E+03  0.61165126846E+03  0.64523117617E+03  0.00000000000E+00 0. -1.
<mgrwt>
<rscale>  0 0.69843815E+02</rscale>
<asrwt>0</asrwt>
<pdfrwt beam="1">  1        2 0.16361763E+00 0.14063140E+03</pdfrwt>
<pdfrwt beam="2">  1        2 0.17461115E+00 0.34687547E+02</pdfrwt>
<totfact> 0.95917559E+01</totfact>
</mgrwt>
</event>
<event>
13    1  0.2038932E-008  0.8068935E+02  0.7546771E-02  0.1371507E+00
          2   -1    0    0  503    0  0.00000000000E+00  0.00000000000E+00  0.21631238237E+03  0.21631238237E+03  0.00000000000E+00 0. -1.
          2   -1    0    0  502    0 -0.00000000000E+00 -0.00000000000E+00 -0.37924742891E+04  0.37924742891E+04  0.00000000000E+00 0. -1.
         24    2    1    2    0    0  0.10786252225E+02  0.76748459551E+02 -0.10539996153E+04  0.10598907485E+04  0.80290350663E+02 0.  0.
         25    2    1    2    0    0 -0.32845176529E+02  0.32968012719E+02 -0.40199058566E+03  0.42354067277E+03  0.12499830020E+03 0.  0.
         24    2    1    2    0    0  0.12503777589E+03 -0.81807258551E+02 -0.76213594308E+02  0.18602113318E+03  0.80426843029E+02 0.  0.
        -11    1    5    5    0    0  0.12887659529E+03 -0.91031615674E+02 -0.77770012788E+02  0.17590937086E+03  0.00000000000E+00 0.  1.
         12    1    5    5    0    0 -0.38388194003E+01  0.92243571230E+01  0.15564184809E+01  0.10111762320E+02  0.00000000000E+00 0. -1.
        -13    1    3    3    0    0  0.93658518169E+01  0.76044586573E+01 -0.64299626208E+03  0.64310943082E+03  0.00000000000E+00 0.  1.
         14    1    3    3    0    0  0.14204004086E+01  0.69144000893E+02 -0.41100335325E+03  0.41678131769E+03  0.00000000000E+00 0. -1.
          5    1    4    4  501    0 -0.65644348273E+02 -0.18015455347E+02 -0.26533697489E+03  0.27396995699E+03  0.47000000000E+01 0.  1.
         -5    1    4    4    0  501  0.32799171744E+02  0.50983468066E+02 -0.13665361077E+03  0.14957071578E+03  0.47000000000E+01 0.  1.
          1    1    1    2  502    0 -0.25210970238E+02 -0.49127675552E+02 -0.21802707945E+04  0.21809699353E+04  0.00000000000E+00 0. -1.
          1    1    1    2  503    0 -0.77767881350E+02  0.21218461834E+02  0.13631268302E+03  0.15836418170E+03  0.00000000000E+00 0. -1.
<mgrwt>
<rscale>  0 0.66750079E+02</rscale>
<asrwt>0</asrwt>
<pdfrwt beam="1">  1        2 0.31810644E-01 0.80689347E+02</pdfrwt>
<pdfrwt beam="2">  1        2 0.55771681E+00 0.55218851E+02</pdfrwt>
<totfact> 0.28306436E+01</totfact>
</mgrwt>
</event>
<event>
13    1  0.7127089E-008  0.2296758E+03  0.7546771E-02  0.1199822E+00
          2   -1    0    0  503    0  0.00000000000E+00  0.00000000000E+00  0.17719299411E+04  0.17719299411E+04  0.00000000000E+00 0. -1.
          2   -1    0    0  502    0 -0.00000000000E+00 -0.00000000000E+00 -0.39168290324E+04  0.39168290324E+04  0.00000000000E+00 0. -1.
         24    2    1    2    0    0  0.56076007993E+02  0.25844723340E+02 -0.55130601684E+03  0.56044336844E+03  0.79661638349E+02 0.  0.
         25    2    1    2    0    0 -0.31742960889E+03  0.17598460392E+03  0.93638104253E+02  0.39512642352E+03  0.12499863431E+03 0.  0.
         24    2    1    2    0    0  0.12127665679E+03  0.12452709556E+03  0.12611901667E+04  0.12757424427E+04  0.81872576248E+02 0.  0.
        -11    1    5    5    0    0  0.17041278920E+02 -0.10653834841E+02  0.18651472691E+03  0.18759438355E+03  0.00000000000E+00 0.  1.
         12    1    5    5    0    0  0.10423537787E+03  0.13518093040E+03  0.10746754397E+04  0.10881480592E+04  0.00000000000E+00 0. -1.
        -13    1    3    3    0    0  0.40674222092E+02  0.50458212671E+02 -0.46230869828E+03  0.46682947216E+03  0.00000000000E+00 0.  1.
         14    1    3    3    0    0  0.15401785901E+02 -0.24613489331E+02 -0.88997318561E+02  0.93613896282E+02  0.00000000000E+00 0. -1.
          5    1    4    4  501    0  0.61612225463E+01 -0.37552658541E+01  0.14050246382E+02  0.16479141613E+02  0.47000000000E+01 0.  1.
         -5    1    4    4    0  501 -0.32359083143E+03  0.17973986978E+03  0.79587857871E+02  0.37864728191E+03  0.47000000000E+01 0.  1.
          1    1    1    2  502    0  0.79896898724E+02 -0.57879136861E+02 -0.31275687942E+04  0.31291244896E+04  0.00000000000E+00 0. -1.
          1    1    1    2  503    0  0.60180045382E+02 -0.26847728596E+03  0.17914744875E+03  0.32832224922E+03  0.00000000000E+00 0. -1.
<mgrwt>
<rscale>  0 0.15053066E+03</rscale>
<asrwt>0</asrwt>
<pdfrwt beam="1">  1        2 0.26057794E+00 0.22967580E+03</pdfrwt>
<pdfrwt beam="2">  1        2 0.57600426E+00 0.98658547E+02</pdfrwt>
<totfact> 0.14360587E+00</totfact>
</mgrwt>
</event>
<event>
13    1  0.2038932E-008  0.1118706E+03  0.7546771E-02  0.1325761E+00
          2   -1    0    0  503    0  0.00000000000E+00  0.00000000000E+00  0.30772099450E+04  0.30772099450E+04  0.00000000000E+00 0. -1.
          2   -1    0    0  502    0 -0.00000000000E+00 -0.00000000000E+00 -0.15525365425E+04  0.15525365425E+04  0.00000000000E+00 0. -1.
         24    2    1    2    0    0 -0.12616932767E+03 -0.10599919415E+03 -0.73121187216E+03  0.75375101230E+03  0.79468598511E+02 0.  0.
         25    2    1    2    0    0  0.80365333139E+02 -0.20317453779E+03  0.46360479718E+03  0.52753435347E+03  0.12499842616E+03 0.  0.
         24    2    1    2    0    0  0.12018598042E+03  0.43783662303E+03  0.73651465866E+03  0.87125102196E+03  0.10236660831E+03 0.  0.
        -11    1    3    3    0    0 -0.12988547917E+03 -0.86562097922E+02 -0.55824186735E+03  0.57965266925E+03  0.00000000000E+00 0.  1.
         12    1    3    3    0    0  0.37161514982E+01 -0.19437096224E+02 -0.17297000481E+03  0.17409834305E+03  0.00000000000E+00 0. -1.
        -13    1    5    5    0    0  0.56952288084E+02  0.35593880292E+03  0.54186517471E+03  0.65081015826E+03  0.00000000000E+00 0.  1.
         14    1    5    5    0    0  0.63233692338E+02  0.81897820114E+02  0.19464948395E+03  0.22044086370E+03  0.00000000000E+00 0. -1.
          5    1    4    4  501    0 -0.13053808629E+02  0.95673614974E+01  0.54301063737E+02  0.56856238432E+02  0.47000000000E+01 0. -1.
         -5    1    4    4    0  501  0.93419141768E+02 -0.21274189929E+03  0.40930373345E+03  0.47067811504E+03  0.47000000000E+01 0. -1.
          1    1    1    2  502    0  0.11994803719E+02 -0.57661350292E+02 -0.70772837889E+03  0.71017474253E+03  0.00000000000E+00 0. -1.
          1    1    1    2  503    0 -0.86376789606E+02 -0.71001540802E+02  0.17634941976E+04  0.17670353572E+04  0.00000000000E+00 0. -1.
<mgrwt>
<rscale>  0 0.81170792E+02</rscale>
<asrwt>0</asrwt>
<pdfrwt beam="1">  1        2 0.45253088E+00 0.11187055E+03</pdfrwt>
<pdfrwt beam="2">  1        2 0.22831420E+00 0.58895727E+02</pdfrwt>
<totfact> 0.63425885E+00</totfact>
</mgrwt>
</event>
<event>
13    1  0.2038932E-008  0.7354325E+02  0.7546771E-02  0.1363779E+00
          2   -1    0    0  502    0  0.00000000000E+00  0.00000000000E+00  0.14611261162E+04  0.14611261162E+04  0.00000000000E+00 0. -1.
          2   -1    0    0  503    0 -0.00000000000E+00 -0.00000000000E+00 -0.36141590494E+04  0.36141590494E+04  0.00000000000E+00 0. -1.
         24    2    1    2    0    0 -0.35038386434E+03 -0.36386954474E+02 -0.76874092312E+03  0.84960869187E+03  0.82337473692E+02 0.  0.
         25    2    1    2    0    0 -0.72667492995E+02  0.11037126364E+03 -0.11126060942E+03  0.21322960679E+03  0.12500224650E+03 0.  0.
         24    2    1    2    0    0  0.38979430789E+03 -0.78691219106E+02 -0.19895950076E+04  0.20306206737E+04  0.82462813744E+02 0.  0.
        -13    1    3    3    0    0 -0.86440369373E+02 -0.40860189269E+02 -0.24767424489E+03  0.26548827489E+03  0.00000000000E+00 0.  1.
         14    1    3    3    0    0 -0.26394349497E+03  0.44732347950E+01 -0.52106667823E+03  0.58412041697E+03  0.00000000000E+00 0. -1.
        -13    1    5    5    0    0  0.28678974902E+03 -0.24934902133E+02 -0.15057329380E+04  0.15330041715E+04  0.00000000000E+00 0.  1.
         14    1    5    5    0    0  0.10300455887E+03 -0.53756316974E+02 -0.48386206963E+03  0.49761650213E+03  0.00000000000E+00 0. -1.
          5    1    4    4  501    0 -0.27998325434E+02  0.23976462642E+02 -0.10972279011E+03  0.11584454090E+03  0.47000000000E+01 0.  1.
         -5    1    4    4    0  501 -0.44669167561E+02  0.86394800995E+02 -0.15378193084E+01  0.97385065887E+02  0.47000000000E+01 0.  1.
          1    1    1    2  502    0  0.25827251730E+02  0.68879673963E+02  0.13465391287E+04  0.13485470261E+04  0.00000000000E+00 0. -1.
          1    1    1    2  503    0  0.74297977183E+01 -0.64172764020E+02 -0.62997552175E+03  0.63327916715E+03  0.00000000000E+00 0. -1.
<mgrwt>
<rscale>  0 0.68927497E+02</rscale>
<asrwt>0</asrwt>
<pdfrwt beam="1">  1        2 0.21487149E+00 0.73543255E+02</pdfrwt>
<pdfrwt beam="2">  1        2 0.53149396E+00 0.64601436E+02</pdfrwt>
<totfact> 0.37711954E+00</totfact>
</mgrwt>
</event>
<event>
13    1  0.2038932E-008  0.9566505E+02  0.7546771E-02  0.1298164E+00
          2   -1    0    0  502    0  0.00000000000E+00  0.00000000000E+00  0.25516641408E+04  0.25516641408E+04  0.00000000000E+00 0. -1.
          2   -1    0    0  503    0 -0.00000000000E+00 -0.00000000000E+00 -0.15967735129E+04  0.15967735129E+04  0.00000000000E+00 0. -1.
         24    2    1    2    0    0  0.61479348324E+01  0.33375029088E+02 -0.54829787206E+03  0.55260559072E+03  0.59922389166E+02 0.  0.
         25    2    1    2    0    0 -0.58236288461E+01  0.64581146400E+01  0.75703053793E+03  0.76732943434E+03  0.12499441403E+03 0.  0.
         24    2    1    2    0    0 -0.41961689392E+02  0.22752306242E+02  0.15111820698E+03  0.17867796690E+03  0.82526677851E+02 0.  0.
        -11    1    5    5    0    0  0.19403582456E+02 -0.13538713556E+02  0.31024966208E+02  0.39017230874E+02  0.00000000000E+00 0.  1.
         12    1    5    5    0    0 -0.61365271848E+02  0.36291019798E+02  0.12009324078E+03  0.13966073602E+03  0.00000000000E+00 0. -1.
        -13    1    3    3    0    0 -0.19700933043E+02  0.34821435044E+02 -0.24940392376E+03  0.25259251036E+03  0.00000000000E+00 0.  1.
         14    1    3    3    0    0  0.25848867876E+02 -0.14464059554E+01 -0.29889394830E+03  0.30001308037E+03  0.00000000000E+00 0. -1.
          5    1    4    4  501    0  0.28451334972E+00  0.56883125076E+02  0.58815062237E+03  0.59091371237E+03  0.47000000000E+01 0.  1.
         -5    1    4    4    0  501 -0.61081421958E+01 -0.50425010436E+02  0.16887991556E+03  0.17641572197E+03  0.47000000000E+01 0.  1.
          1    1    1    2  502    0 -0.86018111061E+02 -0.20478722050E+02  0.16168222194E+04  0.16192382723E+04  0.00000000000E+00 0. -1.
          1    1    1    2  503    0  0.12765549447E+03 -0.42106727921E+02 -0.10217824643E+04  0.10305863894E+04  0.00000000000E+00 0. -1.
<mgrwt>
<rscale>  0 0.91964148E+02</rscale>
<asrwt>0</asrwt>
<pdfrwt beam="1">  1        2 0.37524473E+00 0.88406423E+02</pdfrwt>
<pdfrwt beam="2">  1        2 0.23481963E+00 0.95665046E+02</pdfrwt>
<totfact> 0.11233259E+01</totfact>
</mgrwt>
</event>
<event>
13    1  0.2038932E-008  0.5918616E+02  0.7546771E-02  0.1536309E+00
          2   -1    0    0  502    0  0.00000000000E+00  0.00000000000E+00  0.27324103857E+04  0.27324103857E+04  0.00000000000E+00 0. -1.
          2   -1    0    0  503    0 -0.00000000000E+00 -0.00000000000E+00 -0.19107092662E+04  0.19107092662E+04  0.00000000000E+00 0. -1.
         24    2    1    2    0    0 -0.14979744312E+03 -0.15589816994E+03 -0.27219035085E+03  0.35663887924E+03  0.79750797693E+02 0.  0.
         25    2    1    2    0    0  0.19540465904E+03  0.16996680199E+03  0.90252779412E+03  0.94723464440E+03  0.12500143141E+03 0.  0.
         24    2    1    2    0    0 -0.28702939782E+02  0.64444884460E+02  0.94201022715E+02  0.14219966255E+03  0.79811712571E+02 0.  0.
        -11    1    5    5    0    0 -0.45023928090E+02  0.72092802072E+01  0.52447299534E+02  0.69497101020E+02  0.00000000000E+00 0.  1.
         12    1    5    5    0    0  0.16320988308E+02  0.57235604253E+02  0.41753723180E+02  0.72702561530E+02  0.00000000000E+00 0. -1.
        -13    1    3    3    0    0 -0.21005827562E+02 -0.75274586720E+02 -0.10183679596E+03  0.12836760187E+03  0.00000000000E+00 0.  1.
         14    1    3    3    0    0 -0.12879161556E+03 -0.80623583217E+02 -0.17035355488E+03  0.22827127737E+03  0.00000000000E+00 0. -1.
          5    1    4    4  501    0  0.16333869985E+03  0.18611071255E+03  0.83013016581E+03  0.86628800660E+03  0.47000000000E+01 0.  1.
         -5    1    4    4    0  501  0.32065959195E+02 -0.16143910561E+02  0.72397628302E+02  0.80946637799E+02  0.47000000000E+01 0.  1.
          1    1    1    2  502    0 -0.10773884024E+02 -0.19656512197E+02  0.16464634261E+04  0.16466160052E+04  0.00000000000E+00 0. -1.
          1    1    1    2  503    0 -0.61303921148E+01 -0.58857004312E+02 -0.15493007726E+04  0.15504304604E+04  0.00000000000E+00 0. -1.
<mgrwt>
<rscale>  0 0.36423726E+02</rscale>
<asrwt>0</asrwt>
<pdfrwt beam="1">  1        2 0.40182506E+00 0.22415509E+02</pdfrwt>
<pdfrwt beam="2">  1        2 0.28098666E+00 0.59186156E+02</pdfrwt>
<totfact> 0.83835298E+00</totfact>
</mgrwt>
</event>
<event>
13    1  0.2038932E-008  0.7938399E+02  0.7546771E-02  0.1423833E+00
          2   -1    0    0  502    0  0.00000000000E+00  0.00000000000E+00  0.10266791512E+04  0.10266791512E+04  0.00000000000E+00 0. -1.
          2   -1    0    0  503    0 -0.00000000000E+00 -0.00000000000E+00 -0.69896716672E+03  0.69896716672E+03  0.00000000000E+00 0. -1.
         24    2    1    2    0    0  0.10594408760E+03  0.17313193176E+02 -0.37081327712E+03  0.39438066919E+03  0.80682894016E+02 0.  0.
         25    2    1    2    0    0 -0.77156333128E+02 -0.10505884191E+03  0.42246217306E+03  0.45944722489E+03  0.12500801890E+03 0.  0.
         24    2    1    2    0    0 -0.10867780660E+03  0.37646828199E+01  0.17978252782E+02  0.14457100682E+03  0.93554903433E+02 0.  0.
        -13    1    5    5    0    0 -0.74834064582E+02  0.43049782212E+02  0.29901878537E+02  0.91364891016E+02  0.00000000000E+00 0.  1.
         14    1    5    5    0    0 -0.33843742021E+02 -0.39285099392E+02 -0.11923625755E+02  0.53206115808E+02  0.00000000000E+00 0. -1.
        -13    1    3    3    0    0  0.90363958123E+02  0.36322423680E+02 -0.20738574546E+03  0.22911527843E+03  0.00000000000E+00 0.  1.
         14    1    3    3    0    0  0.15580129477E+02 -0.19009230504E+02 -0.16342753166E+03  0.16526539076E+03  0.00000000000E+00 0. -1.
          5    1    4    4  501    0 -0.35213375521E+02 -0.67687361832E+01  0.16722298514E+02  0.39843730658E+02  0.47000000000E+01 0. -1.
         -5    1    4    4    0  501 -0.41942957607E+02 -0.98290105728E+02  0.40573987455E+03  0.41960349423E+03  0.47000000000E+01 0. -1.
          1    1    1    2  502    0  0.24365431237E+02  0.27884899153E+02  0.48530151603E+03  0.48671223870E+03  0.00000000000E+00 0. -1.
          1    1    1    2  503    0  0.55524620894E+02  0.56096066762E+02 -0.22721668025E+03  0.24053517833E+03  0.00000000000E+00 0. -1.
<mgrwt>
<rscale>  0 0.54218186E+02</rscale>
<asrwt>0</asrwt>
<pdfrwt beam="1">  1        2 0.15098223E+00 0.37030283E+02</pdfrwt>
<pdfrwt beam="2">  1        2 0.10278929E+00 0.79383992E+02</pdfrwt>
<totfact> 0.21337916E+02</totfact>
</mgrwt>
</event>
<event>
13    1  0.2038932E-008  0.1489262E+03  0.7546771E-02  0.1239668E+00
          2   -1    0    0  503    0  0.00000000000E+00  0.00000000000E+00  0.19635064520E+04  0.19635064520E+04  0.00000000000E+00 0. -1.
          2   -1    0    0  502    0 -0.00000000000E+00 -0.00000000000E+00 -0.89748927232E+03  0.89748927232E+03  0.00000000000E+00 0. -1.
         24    2    1    2    0    0 -0.14596172444E+03 -0.94140789963E+02 -0.27075068445E+03  0.33124007263E+03  0.79036316000E+02 0.  0.
         25    2    1    2    0    0 -0.33982884603E+02  0.17602638110E+03  0.61046655812E+03  0.64840995586E+03  0.12500371592E+03 0.  0.
         24    2    1    2    0    0  0.13369295148E+03 -0.12097963124E+03 -0.14488190966E+03  0.24579475092E+03  0.83152963782E+02 0.  0.
        -11    1    3    3    0    0 -0.55761647973E+02 -0.80384386512E+02 -0.11764080705E+03  0.15300447857E+03  0.00000000000E+00 0.  1.
         12    1    3    3    0    0 -0.90200076466E+02 -0.13756403450E+02 -0.15310987740E+03  0.17823559405E+03  0.00000000000E+00 0. -1.
        -13    1    5    5    0    0  0.12112249630E+03 -0.73070195492E+02 -0.74912319678E+02  0.16006801123E+03  0.00000000000E+00 0.  1.
         14    1    5    5    0    0  0.12570455181E+02 -0.47909435749E+02 -0.69969589981E+02  0.85726739699E+02  0.00000000000E+00 0. -1.
          5    1    4    4  501    0 -0.96911243101E+01  0.12584136815E+03  0.55657118949E+03  0.57072195227E+03  0.47000000000E+01 0.  1.
         -5    1    4    4    0  501 -0.24291760293E+02  0.50185012953E+02  0.53895368623E+02  0.77688003593E+02  0.47000000000E+01 0.  1.
          1    1    1    2  502    0 -0.99902988961E+02  0.64427760255E+01 -0.37105277109E+03  0.38432053744E+03  0.00000000000E+00 0. -1.
          1    1    1    2  503    0  0.14615464653E+03  0.32651264074E+02  0.12422359867E+04  0.12512304074E+04  0.00000000000E+00 0. -1.
<mgrwt>
<rscale>  0 0.12210275E+03</rscale>
<asrwt>0</asrwt>
<pdfrwt beam="1">  1        2 0.28875095E+00 0.14892623E+03</pdfrwt>
<pdfrwt beam="2">  1        2 0.13198372E+00 0.10011052E+03</pdfrwt>
<totfact> 0.48226813E+01</totfact>
</mgrwt>
</event>
<event>
13    1  0.2038932E-008  0.4992511E+02  0.7546771E-02  0.1562293E+00
          2   -1    0    0  502    0  0.00000000000E+00  0.00000000000E+00  0.16227902448E+04  0.16227902448E+04  0.00000000000E+00 0. -1.
          2   -1    0    0  503    0 -0.00000000000E+00 -0.00000000000E+00 -0.38872161399E+04  0.38872161399E+04  0.00000000000E+00 0. -1.
         24    2    1    2    0    0  0.28081378562E+03 -0.13232734057E+03 -0.79116007742E+03  0.85345401852E+03  0.77990937771E+02 0.  0.
         25    2    1    2    0    0  0.73957400742E+03 -0.10824540234E+03  0.10397518361E+03  0.76493147997E+03  0.12499020223E+03 0.  0.
         24    2    1    2    0    0 -0.10172371310E+04  0.26921973347E+03  0.15418294124E+03  0.10665095059E+04  0.80121791157E+02 0.  0.
        -11    1    3    3    0    0  0.18791373420E+03 -0.10378919001E+03 -0.44766281554E+03  0.49647332645E+03  0.00000000000E+00 0.  1.
         12    1    3    3    0    0  0.92900051424E+02 -0.28538150559E+02 -0.34349726188E+03  0.35698069207E+03  0.00000000000E+00 0. -1.
        -11    1    5    5    0    0 -0.53842266060E+03  0.12982665210E+03  0.11959955343E+03  0.56661977923E+03  0.00000000000E+00 0.  1.
         12    1    5    5    0    0 -0.47881447036E+03  0.13939308137E+03  0.34583387815E+02  0.49988972671E+03  0.00000000000E+00 0. -1.
          5    1    4    4  501    0  0.32426120881E+03  0.61166933874E+01  0.76545640417E+02  0.33326276501E+03  0.47000000000E+01 0. -1.
         -5    1    4    4    0  501  0.41531279862E+03 -0.11436209573E+03  0.27429543196E+02  0.43166871496E+03  0.47000000000E+01 0. -1.
          1    1    1    2  502    0 -0.78804839054E+01  0.21059108960E+02  0.54633886566E+03  0.54680137548E+03  0.00000000000E+00 0. -1.
          1    1    1    2  503    0  0.47298218116E+01 -0.49706099520E+02 -0.22777628082E+04  0.22783100048E+04  0.00000000000E+00 0. -1.
<mgrwt>
<rscale>  0 0.33504930E+02</rscale>
<asrwt>0</asrwt>
<pdfrwt beam="1">  1        2 0.23864562E+00 0.22485286E+02</pdfrwt>
<pdfrwt beam="2">  1        2 0.57164944E+00 0.49925108E+02</pdfrwt>
<totfact> 0.25231540E+00</totfact>
</mgrwt>
</event>
<event>
13    1  0.2038932E-008  0.2127370E+03  0.7546771E-02  0.1268163E+00
          2   -1    0    0  503    0  0.00000000000E+00  0.00000000000E+00  0.20934194476E+04  0.20934194476E+04  0.00000000000E+00 0. -1.
          2   -1    0    0  502    0 -0.00000000000E+00 -0.00000000000E+00 -0.13337137152E+03  0.13337137152E+03  0.00000000000E+00 0. -1.
         24    2    1    2    0    0  0.46725860506E+02 -0.15168017684E+03  0.32548647691E+03  0.37076273531E+03  0.79582517884E+02 0.  0.
         25    2    1    2    0    0 -0.19240205114E+03  0.15644381043E+03  0.81032396503E+03  0.85659314781E+03  0.12503470500E+03 0.  0.
         24    2    1    2    0    0  0.24176095690E+02  0.70689186439E+02  0.34537634915E+02  0.11512039973E+03  0.80488592527E+02 0.  0.
        -11    1    3    3    0    0  0.45760897451E+02 -0.30497736717E+02  0.12386519531E+03  0.13552401370E+03  0.00000000000E+00 0.  1.
         12    1    3    3    0    0  0.96496305540E+00 -0.12118244012E+03  0.20162128161E+03  0.23523872161E+03  0.00000000000E+00 0. -1.
        -13    1    5    5    0    0  0.97404617928E+01  0.73389056558E+02 -0.37350611872E+01  0.74126789358E+02  0.00000000000E+00 0.  1.
         14    1    5    5    0    0  0.14435633898E+02 -0.26998701192E+01  0.38272696102E+02  0.40993610375E+02  0.00000000000E+00 0. -1.
          5    1    4    4  501    0 -0.17695972852E+03  0.17779824482E+03  0.73697580416E+03  0.77851293329E+03  0.47000000000E+01 0.  1.
         -5    1    4    4    0  501 -0.15442322628E+02 -0.21354434386E+02  0.73348160870E+02  0.78080214518E+02  0.47000000000E+01 0.  1.
          1    1    1    2  502    0 -0.39176095352E+02  0.35422158940E+02 -0.16091484216E+02  0.55212604134E+02  0.00000000000E+00 0. -1.
          1    1    1    2  503    0  0.16067619030E+03 -0.11087497897E+03  0.80579148341E+03  0.82910193211E+03  0.00000000000E+00 0. -1.
<mgrwt>
<rscale>  0 0.10599928E+03</rscale>
<asrwt>0</asrwt>
<pdfrwt beam="1">  1        2 0.30785578E+00 0.21273699E+03</pdfrwt>
<pdfrwt beam="2">  1        2 0.19613438E-01 0.52815678E+02</pdfrwt>
<totfact> 0.31541336E+02</totfact>
</mgrwt>
</event>
<event>
13    1  0.2038932E-008  0.6280927E+02  0.7546771E-02  0.1461906E+00
          2   -1    0    0  503    0  0.00000000000E+00  0.00000000000E+00  0.56254904900E+03  0.56254904900E+03  0.00000000000E+00 0. -1.
          2   -1    0    0  502    0 -0.00000000000E+00 -0.00000000000E+00 -0.37334642418E+04  0.37334642418E+04  0.00000000000E+00 0. -1.
         24    2    1    2    0    0  0.79915114028E+02 -0.79295625643E+00 -0.25678418551E+04  0.25702909153E+04  0.78718120502E+02 0.  0.
         25    2    1    2    0    0  0.29952290115E+03 -0.31683791571E+02 -0.13014285412E+03  0.35111477651E+03  0.12500637122E+03 0.  0.
         24    2    1    2    0    0 -0.28482832678E+03  0.55035445069E+02 -0.58185296677E+03  0.65509178917E+03  0.80226562569E+02 0.  0.
        -11    1    3    3    0    0  0.81002931270E+02  0.13597903621E+02 -0.14296112029E+04  0.14319687739E+04  0.00000000000E+00 0.  1.
         12    1    3    3    0    0 -0.10878172416E+01 -0.14390859878E+02 -0.11382306522E+04  0.11383221415E+04  0.00000000000E+00 0. -1.
        -13    1    5    5    0    0 -0.18185344808E+03  0.73885963660E+02 -0.37698600794E+03  0.42502736663E+03  0.00000000000E+00 0.  1.
         14    1    5    5    0    0 -0.10297487870E+03 -0.18850518592E+02 -0.20486695883E+03  0.23006442253E+03  0.00000000000E+00 0. -1.
          5    1    4    4  501    0  0.31086916009E+03 -0.24771570980E+02 -0.12643024998E+03  0.33654117658E+03  0.47000000000E+01 0.  1.
         -5    1    4    4    0  501 -0.11346258941E+02 -0.69122205916E+01 -0.37126041485E+01  0.14573599934E+02  0.47000000000E+01 0.  1.
          1    1    1    2  502    0 -0.59961402968E+02 -0.16061578867E+02 -0.30137761525E+03  0.30770409672E+03  0.00000000000E+00 0. -1.
          1    1    1    2  503    0 -0.34648285432E+02 -0.64971183741E+01  0.41030009844E+03  0.41181171306E+03  0.00000000000E+00 0. -1.
<mgrwt>
<rscale>  0 0.47054902E+02</rscale>
<asrwt>0</asrwt>
<pdfrwt beam="1">  1        2 0.82727803E-01 0.35252181E+02</pdfrwt>
<pdfrwt beam="2">  1        2 0.54903885E+00 0.62809271E+02</pdfrwt>
<totfact> 0.11103610E+01</totfact>
</mgrwt>
</event>
<event>
13    1  0.2038932E-008  0.1142283E+03  0.7546771E-02  0.1290176E+00
         -3   -1    0    0    0  501 -0.00000000000E+00  0.00000000000E+00  0.75553284322E+03  0.75553284322E+03  0.00000000000E+00 0.  1.
          2   -1    0    0  503    0  0.00000000000E+00 -0.00000000000E+00 -0.30114851740E+04  0.30114851740E+04  0.00000000000E+00 0. -1.
         24    2    1    2    0    0 -0.44885607785E+02  0.18332970351E+03  0.11259679557E+03  0.23340941604E+03  0.78596559406E+02 0.  0.
         25    2    1    2    0    0 -0.49362416440E+02 -0.24199081891E+03 -0.13957090536E+04  0.14228932431E+04  0.12500085805E+03 0.  0.
         24    2    1    2    0    0  0.97759253796E+01 -0.20516040982E+02  0.10069978743E+03  0.13136523154E+03  0.81239769910E+02 0.  0.
        -13    1    3    3    0    0  0.11735331174E+02  0.10827428791E+03  0.46157552840E+02  0.11828592099E+03  0.00000000000E+00 0.  1.
         14    1    3    3    0    0 -0.56620938958E+02  0.75055415601E+02  0.66439242725E+02  0.11512349505E+03  0.00000000000E+00 0. -1.
        -13    1    5    5    0    0 -0.25738772416E+02 -0.13752661694E+02  0.57204524192E+01  0.29737916622E+02  0.00000000000E+00 0.  1.
         14    1    5    5    0    0  0.35514697796E+02 -0.67633792882E+01  0.94979335006E+02  0.10162731492E+03  0.00000000000E+00 0. -1.
          5    1    4    4  502    0  0.16569130253E+02 -0.17385128179E+03 -0.73968282091E+03  0.76003392675E+03  0.47000000000E+01 0.  1.
         -5    1    4    4    0  502 -0.65931546693E+02 -0.68139537125E+02 -0.65602623266E+03  0.66285931637E+03  0.47000000000E+01 0.  1.
          1    1    1    2  503    0  0.25154994275E+02 -0.75680198279E+02 -0.15101780766E+04  0.15122824106E+04  0.00000000000E+00 0. -1.
         -4    1    1    2    0  501  0.59317104570E+02  0.15485735466E+03  0.43663821646E+03  0.46706771593E+03  0.00000000000E+00 0.  1.
<mgrwt>
<rscale>  0 0.95445533E+02</rscale>
<asrwt>0</asrwt>
<pdfrwt beam="2">  1        2 0.44286547E+00 0.79751277E+02</pdfrwt>
<pdfrwt beam="1">  1       -3 0.11110777E+00 0.11422826E+03</pdfrwt>
<totfact> 0.12908249E+00</totfact>
</mgrwt>
</event>
<event>
13    1  0.2038932E-008  0.5717480E+02  0.7546771E-02  0.1495565E+00
          2   -1    0    0  503    0  0.00000000000E+00  0.00000000000E+00  0.58600713278E+03  0.58600713278E+03  0.00000000000E+00 0. -1.
          2   -1    0    0  502    0 -0.00000000000E+00 -0.00000000000E+00 -0.18142883144E+03  0.18142883144E+03  0.00000000000E+00 0. -1.
         24    2    1    2    0    0 -0.39321551086E+02 -0.49191857280E+02  0.83520186283E+01  0.10162465518E+03  0.79320811407E+02 0.  0.
         25    2    1    2    0    0 -0.51900700956E+02  0.47677168816E+02  0.85920377753E+02  0.16725228142E+03  0.12499687652E+03 0.  0.
         24    2    1    2    0    0  0.97671817424E+02  0.48957075896E+02  0.19578691694E+03  0.23851004048E+03  0.81350742884E+02 0.  0.
        -11    1    5    5    0    0  0.30355702090E+02  0.60690234951E+02  0.95246482189E+02  0.11694727717E+03  0.00000000000E+00 0.  1.
         12    1    5    5    0    0  0.67316115334E+02 -0.11733159055E+02  0.10054043475E+03  0.12156276332E+03  0.00000000000E+00 0. -1.
        -11    1    3    3    0    0 -0.63262545322E+02 -0.28874071268E+02  0.18887861054E+01  0.69566005672E+02  0.00000000000E+00 0.  1.
         12    1    3    3    0    0  0.23940994236E+02 -0.20317786012E+02  0.64632325230E+01  0.32058649505E+02  0.00000000000E+00 0. -1.
          5    1    4    4  501    0 -0.60731880427E+02  0.50289391833E+02  0.11322494962E+03  0.13805565345E+03  0.47000000000E+01 0.  1.
         -5    1    4    4    0  501  0.88311794713E+01 -0.26122230167E+01 -0.27304571871E+02  0.29196627973E+02  0.47000000000E+01 0.  1.
          1    1    1    2  502    0 -0.36812519258E+02 -0.44369862001E+02 -0.59807749632E+02  0.83071133037E+02  0.00000000000E+00 0. -1.
          1    1    1    2  503    0  0.30362953876E+02 -0.30725254310E+01  0.17432673765E+03  0.17697785410E+03  0.00000000000E+00 0. -1.
<mgrwt>
<rscale>  0 0.41771539E+02</rscale>
<asrwt>0</asrwt>
<pdfrwt beam="1">  1        2 0.86177519E-01 0.30518017E+02</pdfrwt>
<pdfrwt beam="2">  1        2 0.26680711E-01 0.57174798E+02</pdfrwt>
<totfact> 0.16897459E+03</totfact>
</mgrwt>
</event>
<event>
13    1  0.2038932E-008  0.2466770E+03  0.7546771E-02  0.1163782E+00
          2   -1    0    0  502    0  0.00000000000E+00  0.00000000000E+00  0.18317239918E+04  0.18317239918E+04  0.00000000000E+00 0. -1.
          2   -1    0    0  503    0 -0.00000000000E+00 -0.00000000000E+00 -0.99394891564E+03  0.99394891564E+03  0.00000000000E+00 0. -1.
         24    2    1    2    0    0  0.17880610134E+03 -0.14853797464E+03  0.13471464096E+04  0.13694130678E+04  0.80333987737E+02 0.  0.
         25    2    1    2    0    0 -0.89172150127E+02 -0.10833977922E+03  0.12770782676E+03  0.22721414200E+03  0.12501118825E+03 0.  0.
         24    2    1    2    0    0 -0.16974328030E+03  0.82973389620E+01 -0.24333007981E+02  0.19002108410E+03  0.81451151520E+02 0.  0.
        -13    1    5    5    0    0  0.13574812222E+01  0.16730482747E+02  0.11630549525E+01  0.16825709644E+02  0.00000000000E+00 0.  1.
         14    1    5    5    0    0 -0.17110076152E+03 -0.84331437846E+01 -0.25496062933E+02  0.17319537445E+03  0.00000000000E+00 0. -1.
        -13    1    3    3    0    0  0.19019834260E+02  0.62751877453E+01  0.19157580920E+03  0.19261989187E+03  0.00000000000E+00 0.  1.
         14    1    3    3    0    0  0.15978626708E+03 -0.15481316239E+03  0.11555706004E+04  0.11767931759E+04  0.00000000000E+00 0. -1.
          5    1    4    4  501    0 -0.63801124374E+02 -0.77032944406E+00  0.84226916713E+01  0.64530679633E+02  0.47000000000E+01 0. -1.
         -5    1    4    4    0  501 -0.25371025752E+02 -0.10756944977E+03  0.11928513509E+03  0.16268346236E+03  0.47000000000E+01 0. -1.
          1    1    1    2  502    0 -0.37275392006E+02  0.32032734425E+03  0.80397905899E+02  0.33235957275E+03  0.00000000000E+00 0. -1.
          1    1    1    2  503    0  0.11738472109E+03 -0.71746929356E+02 -0.69314405810E+03  0.70666504081E+03  0.00000000000E+00 0. -1.
<mgrwt>
<rscale>  0 0.18421866E+03</rscale>
<asrwt>0</asrwt>
<pdfrwt beam="1">  1        2 0.26937118E+00 0.24667702E+03</pdfrwt>
<pdfrwt beam="2">  1        2 0.14616896E+00 0.13757469E+03</pdfrwt>
<totfact> 0.46203602E+01</totfact>
</mgrwt>
</event>
<event>
13    1  0.2038932E-008  0.1344690E+03  0.7546771E-02  0.1313720E+00
          2   -1    0    0  503    0  0.00000000000E+00  0.00000000000E+00  0.68462256905E+03  0.68462256905E+03  0.00000000000E+00 0. -1.
          2   -1    0    0  502    0 -0.00000000000E+00 -0.00000000000E+00 -0.36215324659E+04  0.36215324659E+04  0.00000000000E+00 0. -1.
         24    2    1    2    0    0 -0.85940487580E+02  0.13354599406E+02 -0.16903333022E+04  0.16945687652E+04  0.82295288634E+02 0.  0.
         25    2    1    2    0    0  0.12289060833E+03 -0.15712582445E+03  0.15053890688E+03  0.27941974080E+03  0.12499121066E+03 0.  0.
         24    2    1    2    0    0  0.56000307959E+02  0.23694799285E+01 -0.87724460813E+03  0.88259431198E+03  0.79202071480E+02 0.  0.
        -11    1    3    3    0    0  0.58737792866E+01  0.64341879449E+01 -0.67821899446E+03  0.67827494757E+03  0.00000000000E+00 0.  1.
         12    1    3    3    0    0 -0.91814266867E+02  0.69204114610E+01 -0.10121143078E+04  0.10162938176E+04  0.00000000000E+00 0. -1.
        -13    1    5    5    0    0  0.58932392090E+02  0.31887634202E+02 -0.64182182837E+03  0.64531008625E+03  0.00000000000E+00 0.  1.
         14    1    5    5    0    0 -0.29320841310E+01 -0.29518154273E+02 -0.23542277976E+03  0.23728422573E+03  0.00000000000E+00 0. -1.
          5    1    4    4  501    0  0.86209240723E+02 -0.17436813221E+03  0.12597337301E+03  0.23179227645E+03  0.47000000000E+01 0.  1.
         -5    1    4    4    0  501  0.36681367609E+02  0.17242307757E+02  0.24565533867E+02  0.47627464352E+02  0.47000000000E+01 0.  1.
          1    1    1    2  502    0 -0.57185054586E+02  0.18261125180E+03 -0.97377583050E+03  0.99239929857E+03  0.00000000000E+00 0. -1.
          1    1    1    2  503    0 -0.35765374125E+02 -0.41209506681E+02  0.45390493711E+03  0.45717291844E+03  0.00000000000E+00 0. -1.
<mgrwt>
<rscale>  0 0.85658371E+02</rscale>
<asrwt>0</asrwt>
<pdfrwt beam="1">  1        2 0.10067979E+00 0.54565423E+02</pdfrwt>
<pdfrwt beam="2">  1        2 0.53257830E+00 0.13446898E+03</pdfrwt>
<totfact> 0.90131829E+00</totfact>
</mgrwt>
</event>
<event>
13    1  0.2038932E-008  0.8692263E+02  0.7546771E-02  0.1418184E+00
          2   -1    0    0  502    0  0.00000000000E+00  0.00000000000E+00  0.40180127244E+03  0.40180127244E+03  0.00000000000E+00 0. -1.
          2   -1    0    0  503    0 -0.00000000000E+00 -0.00000000000E+00 -0.28614734809E+04  0.28614734809E+04  0.00000000000E+00 0. -1.
         24    2    1    2    0    0  0.53738113844E+02 -0.22019863580E+03 -0.18546481910E+03  0.30380803069E+03  0.80789209059E+02 0.  0.
         25    2    1    2    0    0 -0.33983323338E+03  0.24163866321E+03 -0.14577598055E+03  0.45908053308E+03  0.12501371637E+03 0.  0.
         24    2    1    2    0    0  0.19752221976E+03 -0.67291793552E+02 -0.14753903505E+03  0.26816799453E+03  0.81259421907E+02 0.  0.
        -11    1    3    3    0    0  0.46715703065E+02 -0.52354090655E+02 -0.75257949443E+02  0.10289347246E+03  0.00000000000E+00 0.  1.
         12    1    3    3    0    0  0.70224107789E+01 -0.16784454514E+03 -0.11020686965E+03  0.20091455822E+03  0.00000000000E+00 0. -1.
        -11    1    5    5    0    0 -0.15427859556E+01 -0.18051232754E+02 -0.63467679737E+01  0.19196579283E+02  0.00000000000E+00 0.  1.
         12    1    5    5    0    0  0.19906500572E+03 -0.49240560798E+02 -0.14119226708E+03  0.24897141525E+03  0.00000000000E+00 0. -1.
          5    1    4    4  501    0 -0.22910874131E+02  0.47842516474E+02 -0.55177716626E+02  0.76684320093E+02  0.47000000000E+01 0. -1.
         -5    1    4    4    0  501 -0.31692235925E+03  0.19379614674E+03 -0.90598263921E+02  0.38239621299E+03  0.47000000000E+01 0. -1.
          1    1    1    2  502    0  0.23219044162E+01  0.35241526204E+02  0.12226621915E+03  0.12726501780E+03  0.00000000000E+00 0. -1.
          1    1    1    2  503    0  0.86250995359E+02  0.10610239930E+02 -0.21031585929E+04  0.21049531772E+04  0.00000000000E+00 0. -1.
<mgrwt>
<rscale>  0 0.55406928E+02</rscale>
<asrwt>0</asrwt>
<pdfrwt beam="1">  1        2 0.59088424E-01 0.35317933E+02</pdfrwt>
<pdfrwt beam="2">  1        2 0.42080491E+00 0.86922632E+02</pdfrwt>
<totfact> 0.45506598E+01</totfact>
</mgrwt>
</event>
<event>
13    1  0.2038932E-008  0.1209794E+03  0.7546771E-02  0.1350957E+00
          2   -1    0    0  502    0  0.00000000000E+00  0.00000000000E+00  0.37823743154E+04  0.37823743154E+04  0.00000000000E+00 0. -1.
          2   -1    0    0  503    0 -0.00000000000E+00 -0.00000000000E+00 -0.17628071405E+04  0.17628071405E+04  0.00000000000E+00 0. -1.
         24    2    1    2    0    0 -0.23318639249E+03  0.41677617604E+02 -0.16224897831E+01  0.25013711942E+03  0.80330744958E+02 0.  0.
         25    2    1    2    0    0  0.93290246113E+02  0.15290980305E+03  0.70661659580E+03  0.73960559630E+03  0.12499978694E+03 0.  0.
         24    2    1    2    0    0  0.78599949229E+02 -0.70191271680E+02  0.74089728208E+02  0.15199925048E+03  0.80682821487E+02 0.  0.
        -11    1    3    3    0    0 -0.17864738680E+03  0.71132913076E+01 -0.26890337411E+02  0.18079982846E+03  0.00000000000E+00 0.  1.
         12    1    3    3    0    0 -0.54539005689E+02  0.34564326297E+02  0.25267847628E+02  0.69337290960E+02  0.00000000000E+00 0. -1.
        -11    1    5    5    0    0  0.13397123222E+02 -0.60801447564E+02  0.55865080603E+02  0.83649304643E+02  0.00000000000E+00 0.  1.
         12    1    5    5    0    0  0.65202826007E+02 -0.93898241161E+01  0.18224647606E+02  0.68349945842E+02  0.00000000000E+00 0. -1.
          5    1    4    4  501    0 -0.30697454917E+02  0.22443629389E+02  0.13087160751E+03  0.13636538377E+03  0.47000000000E+01 0.  1.
         -5    1    4    4    0  501  0.12398770103E+03  0.13046617366E+03  0.57574498828E+03  0.60324021253E+03  0.47000000000E+01 0.  1.
          1    1    1    2  502    0  0.43497907771E+02 -0.47601355811E+01  0.28194787609E+04  0.28198182938E+04  0.00000000000E+00 0. -1.
          1    1    1    2  503    0  0.17798289381E+02 -0.11963601339E+03 -0.15789954203E+04  0.15836211959E+04  0.00000000000E+00 0. -1.
<mgrwt>
<rscale>  0 0.72758288E+02</rscale>
<asrwt>0</asrwt>
<pdfrwt beam="1">  1        2 0.55623152E+00 0.43757592E+02</pdfrwt>
<pdfrwt beam="2">  1        2 0.25923634E+00 0.12097943E+03</pdfrwt>
<totfact> 0.22138385E+00</totfact>
</mgrwt>
</event>
<event>
13    1  0.2038932E-008  0.1306151E+03  0.7546771E-02  0.1312454E+00
          2   -1    0    0  503    0  0.00000000000E+00  0.00000000000E+00  0.73999264533E+03  0.73999264533E+03  0.00000000000E+00 0. -1.
          2   -1    0    0  502    0 -0.00000000000E+00 -0.00000000000E+00 -0.34208506630E+04  0.34208506630E+04  0.00000000000E+00 0. -1.
         24    2    1    2    0    0 -0.49487076832E+01 -0.85131287745E+01 -0.81943855050E+03  0.82363122641E+03  0.82412960102E+02 0.  0.
         25    2    1    2    0    0  0.38914333058E+02 -0.18236667341E+03 -0.17515071510E+03  0.28473668706E+03  0.12500111627E+03 0.  0.
         24    2    1    2    0    0 -0.36932597298E+02  0.23702752015E+02 -0.30547633399E+03  0.31941905265E+03  0.82382664251E+02 0.  0.
        -11    1    5    5    0    0 -0.53383805777E+02  0.29609755696E+02 -0.13634869003E+03  0.14939054061E+03  0.00000000000E+00 0.  1.
         12    1    5    5    0    0  0.16451208479E+02 -0.59070036807E+01 -0.16912764396E+03  0.17002851203E+03  0.00000000000E+00 0. -1.
        -11    1    3    3    0    0  0.28862798167E+02  0.14669583399E+02 -0.18064216548E+03  0.18352070658E+03  0.00000000000E+00 0.  1.
         12    1    3    3    0    0 -0.33811505850E+02 -0.23182712174E+02 -0.63879638503E+03  0.64011051983E+03  0.00000000000E+00 0. -1.
          5    1    4    4  501    0 -0.45524427185E+02 -0.58491030336E+02 -0.51942799013E+02  0.90630118998E+02  0.47000000000E+01 0.  1.
         -5    1    4    4    0  501  0.84438760242E+02 -0.12387564308E+03 -0.12320791609E+03  0.19410656806E+03  0.47000000000E+01 0.  1.
          1    1    1    2  502    0  0.36904143909E+02  0.21275024304E+03 -0.20500503885E+04  0.20613905931E+04  0.00000000000E+00 0. -1.
          1    1    1    2  503    0 -0.33937171986E+02 -0.45573192871E+02  0.66925797045E+03  0.67166574913E+03  0.00000000000E+00 0. -1.
<mgrwt>
<rscale>  0 0.86149336E+02</rscale>
<asrwt>0</asrwt>
<pdfrwt beam="1">  1        2 0.10882244E+00 0.56821189E+02</pdfrwt>
<pdfrwt beam="2">  1        2 0.50306629E+00 0.13061515E+03</pdfrwt>
<totfact> 0.10925000E+01</totfact>
</mgrwt>
</event>
<event>
13    1  0.2038932E-008  0.9267589E+02  0.7546771E-02  0.1482149E+00
          2   -1    0    0  502    0  0.00000000000E+00  0.00000000000E+00  0.10233192990E+04  0.10233192990E+04  0.00000000000E+00 0. -1.
          2   -1    0    0  503    0 -0.00000000000E+00 -0.00000000000E+00 -0.12270328596E+04  0.12270328596E+04  0.00000000000E+00 0. -1.
         24    2    1    2    0    0  0.16244291460E+02  0.42047237697E+03 -0.31248137512E+03  0.52924831269E+03  0.73472919414E+02 0.  0.
         25    2    1    2    0    0 -0.86995850582E+01 -0.30927658511E+03  0.42420184415E+03  0.53972144459E+03  0.12499737715E+03 0.  0.
         24    2    1    2    0    0  0.48829369328E+01 -0.20433262229E+02 -0.10094056023E+03  0.13081676413E+03  0.80515015990E+02 0.  0.
        -11    1    3    3    0    0 -0.85067935328E+01  0.92205619148E+02 -0.10556609283E+03  0.14042236893E+03  0.00000000000E+00 0.  1.
         12    1    3    3    0    0  0.24751084993E+02  0.32826675782E+03 -0.20691528229E+03  0.38882594376E+03  0.00000000000E+00 0. -1.
        -11    1    5    5    0    0  0.60495756163E+01  0.31086218267E+02 -0.37506742121E+02  0.49088756715E+02  0.00000000000E+00 0.  1.
         12    1    5    5    0    0 -0.11666386834E+01 -0.51519480496E+02 -0.63433818110E+02  0.81728007417E+02  0.00000000000E+00 0. -1.
          5    1    4    4  501    0 -0.71232847967E+01  0.10037459750E+02  0.92042376200E+01  0.16071707274E+02  0.47000000000E+01 0.  1.
         -5    1    4    4    0  501 -0.15763002615E+01 -0.31931404486E+03  0.41499760653E+03  0.52364973732E+03  0.47000000000E+01 0.  1.
          1    1    1    2  502    0 -0.20672630049E+02  0.32796130422E+00  0.41447070825E+03  0.41498606385E+03  0.00000000000E+00 0. -1.
          1    1    1    2  503    0  0.82449867137E+01 -0.91090490932E+02 -0.62896417758E+03  0.63557957332E+03  0.00000000000E+00 0. -1.
<mgrwt>
<rscale>  0 0.43773227E+02</rscale>
<asrwt>0</asrwt>
<pdfrwt beam="1">  1        2 0.15048813E+00 0.20675231E+02</pdfrwt>
<pdfrwt beam="2">  1        2 0.18044601E+00 0.92675886E+02</pdfrwt>
<totfact> 0.10659275E+02</totfact>
</mgrwt>
</event>
<event>
13    1  0.2038932E-008  0.4999579E+02  0.7546771E-02  0.1557845E+00
          2   -1    0    0  503    0  0.00000000000E+00  0.00000000000E+00  0.36955485714E+04  0.36955485714E+04  0.00000000000E+00 0. -1.
         -3   -1    0    0    0  501 -0.00000000000E+00 -0.00000000000E+00 -0.24344756572E+04  0.24344756572E+04  0.00000000000E+00 0.  1.
         24    2    1    2    0    0 -0.91494106023E+02  0.13899125934E+03 -0.12617133595E+04  0.12751840656E+04  0.80523649544E+02 0.  0.
         25    2    1    2    0    0  0.20924036344E+03 -0.16769040864E+03  0.19086504013E+04  0.19314432923E+04  0.12500093783E+03 0.  0.
         24    2    1    2    0    0 -0.91065139233E+02 -0.38985713992E+02  0.24932736624E+03  0.27965402932E+03  0.78927150454E+02 0.  0.
        -11    1    3    3    0    0 -0.19469960708E+01  0.68668671805E+01 -0.58777406821E+01  0.92462151230E+01  0.00000000000E+00 0.  1.
         12    1    3    3    0    0 -0.89547109952E+02  0.13212439216E+03 -0.12558356188E+04  0.12659378505E+04  0.00000000000E+00 0. -1.
        -11    1    5    5    0    0 -0.23437971583E+02 -0.19030451754E+02  0.17350973157E+03  0.17611678953E+03  0.00000000000E+00 0.  1.
         12    1    5    5    0    0 -0.67627167649E+02 -0.19955262237E+02  0.75817634667E+02  0.10353723978E+03  0.00000000000E+00 0. -1.
          5    1    4    4  502    0  0.13362704611E+03 -0.17091466735E+03  0.12841348879E+04  0.13023411654E+04  0.47000000000E+01 0.  1.
         -5    1    4    4    0  502  0.75613317331E+02  0.32242587038E+01  0.62451551340E+03  0.62910212691E+03  0.47000000000E+01 0.  1.
          1    1    1    2  503    0 -0.11392390140E+02  0.20090031170E+02  0.15036386666E+04  0.15038160245E+04  0.00000000000E+00 0. -1.
         -4    1    1    2    0  501 -0.15288728049E+02  0.47594832126E+02 -0.11388301604E+04  0.11399268168E+04  0.00000000000E+00 0.  1.
<mgrwt>
<rscale>  0 0.33980450E+02</rscale>
<asrwt>0</asrwt>
<pdfrwt beam="1">  1        2 0.54346302E+00 0.23095365E+02</pdfrwt>
<pdfrwt beam="2">  1       -3 0.35801113E+00 0.49995788E+02</pdfrwt>
<totfact> 0.25031596E-02</totfact>
</mgrwt>
</event>
<event>
13    1  0.2038932E-008  0.2237091E+03  0.7546771E-02  0.1181662E+00
          2   -1    0    0  503    0  0.00000000000E+00  0.00000000000E+00  0.26268638822E+04  0.26268638822E+04  0.00000000000E+00 0. -1.
          2   -1    0    0  502    0 -0.00000000000E+00 -0.00000000000E+00 -0.21579735561E+04  0.21579735561E+04  0.00000000000E+00 0. -1.
         24    2    1    2    0    0 -0.26665352785E+02 -0.12110066346E+03 -0.26807897507E+03  0.30601444293E+03  0.80013065684E+02 0.  0.
         25    2    1    2    0    0  0.29477456079E+03  0.50409299585E+03  0.93204038480E+02  0.60441162510E+03  0.12499851841E+03 0.  0.
         24    2    1    2    0    0  0.64757295657E+02 -0.24925286996E+03 -0.16294786134E+01  0.26947971478E+03  0.79348351901E+02 0.  0.
        -11    1    3    3    0    0  0.20067962825E+02 -0.10356668490E+02 -0.19250381441E+02  0.29674246406E+02  0.00000000000E+00 0.  1.
         12    1    3    3    0    0 -0.46733315609E+02 -0.11074399497E+03 -0.24882859363E+03  0.27634019653E+03  0.00000000000E+00 0. -1.
        -13    1    5    5    0    0  0.67131014972E+00 -0.23977824560E+02 -0.24333239600E+02  0.34168600752E+02  0.00000000000E+00 0.  1.
         14    1    5    5    0    0  0.64085985507E+02 -0.22527504540E+03  0.22703760987E+02  0.23531111402E+03  0.00000000000E+00 0. -1.
          5    1    4    4  501    0  0.13568621396E+03  0.35037933277E+03  0.52087614482E+02  0.37935687034E+03  0.47000000000E+01 0. -1.
         -5    1    4    4    0  501  0.15908834683E+03  0.15371366309E+03  0.41116423999E+02  0.22505475476E+03  0.47000000000E+01 0. -1.
          1    1    1    2  502    0 -0.21031250515E+03 -0.11648270119E+03 -0.14681813060E+04  0.14877351635E+04  0.00000000000E+00 0. -1.
          1    1    1    2  503    0 -0.12255399851E+03 -0.17256761240E+02  0.21135760473E+04  0.21171964921E+04  0.00000000000E+00 0. -1.
<mgrwt>
<rscale>  0 0.16639383E+03</rscale>
<asrwt>0</asrwt>
<pdfrwt beam="1">  1        2 0.38630351E+00 0.12376299E+03</pdfrwt>
<pdfrwt beam="2">  1        2 0.31734905E+00 0.22370910E+03</pdfrwt>
<totfact> 0.48205229E+00</totfact>
</mgrwt>
</event>
<event>
13    1  0.2038932E-008  0.1143202E+03  0.7546771E-02  0.1274956E+00
          2   -1    0    0  503    0  0.00000000000E+00  0.00000000000E+00  0.76531906294E+03  0.76531906294E+03  0.00000000000E+00 0. -1.
          2   -1    0    0  502    0 -0.00000000000E+00 -0.00000000000E+00 -0.15794608109E+04  0.15794608109E+04  0.00000000000E+00 0. -1.
         24    2    1    2    0    0 -0.34979432555E+02  0.28300065360E+00 -0.78136007413E+03  0.78624187455E+03  0.80181538170E+02 0.  0.
         25    2    1    2    0    0 -0.88765570169E+02  0.95560502176E+02 -0.75049853327E+02  0.19559581763E+03  0.12495642186E+03 0.  0.
         24    2    1    2    0    0  0.53859316329E+02 -0.55920952746E+02 -0.12828293769E+03  0.17036789625E+03  0.80874773940E+02 0.  0.
        -11    1    3    3    0    0 -0.17553707000E+02  0.33844688536E+02 -0.58701660494E+03  0.58825342332E+03  0.00000000000E+00 0.  1.
         12    1    3    3    0    0 -0.17425725555E+02 -0.33561687883E+02 -0.19434346919E+03  0.19798845123E+03  0.00000000000E+00 0. -1.
        -11    1    5    5    0    0  0.82243746207E+01 -0.59619352785E+02 -0.44351085029E+02  0.74760459520E+02  0.00000000000E+00 0.  1.
         12    1    5    5    0    0  0.45634941708E+02  0.36984000393E+01 -0.83931852656E+02  0.95607436729E+02  0.00000000000E+00 0. -1.
          5    1    4    4  501    0 -0.65250918852E+02  0.11704039663E+03 -0.25469543575E+02  0.13648049129E+03  0.47000000000E+01 0. -1.
         -5    1    4    4    0  501 -0.23514651318E+02 -0.21479894453E+02 -0.49580309752E+02  0.59115326333E+02  0.47000000000E+01 0. -1.
          1    1    1    2  502    0  0.15113228982E+03 -0.82930713362E+02 -0.49321410242E+03  0.52247356208E+03  0.00000000000E+00 0. -1.
          1    1    1    2  503    0 -0.81246603425E+02  0.43008163278E+02  0.66376521960E+03  0.67010072334E+03  0.00000000000E+00 0. -1.
<mgrwt>
<rscale>  0 0.10258329E+03</rscale>
<asrwt>0</asrwt>
<pdfrwt beam="1">  1        2 0.11254692E+00 0.92051390E+02</pdfrwt>
<pdfrwt beam="2">  1        2 0.23227365E+00 0.11432019E+03</pdfrwt>
<totfact> 0.92782632E+01</totfact>
</mgrwt>
</event>
<event>
13    1  0.2038932E-008  0.1751948E+03  0.7546771E-02  0.1191986E+00
          2   -1    0    0  503    0  0.00000000000E+00  0.00000000000E+00  0.47021830941E+03  0.47021830941E+03  0.00000000000E+00 0. -1.
          2   -1    0    0  502    0 -0.00000000000E+00 -0.00000000000E+00 -0.12529562292E+04  0.12529562292E+04  0.00000000000E+00 0. -1.
         24    2    1    2    0    0 -0.55733262343E+02  0.49579029496E+02 -0.72182922262E+02  0.12939830581E+03  0.77261054765E+02 0.  0.
         25    2    1    2    0    0  0.17771589426E+03  0.76560567725E+02 -0.47763614273E+01  0.23041540524E+03  0.12499594290E+03 0.  0.
         24    2    1    2    0    0  0.71162219907E+02  0.19808965010E+02  0.10230183227E+03  0.14984617262E+03  0.80819267053E+02 0.  0.
        -11    1    3    3    0    0 -0.42469269955E+02 -0.94771724473E+01 -0.14714013377E+02  0.45934277808E+02  0.00000000000E+00 0.  1.
         12    1    3    3    0    0 -0.13263992388E+02  0.59056201944E+02 -0.57468908885E+02  0.83464028003E+02  0.00000000000E+00 0. -1.
        -13    1    5    5    0    0  0.86078487343E+02  0.53229809118E+01  0.93689588562E+02  0.12734040645E+03  0.00000000000E+00 0.  1.
         14    1    5    5    0    0 -0.14916267436E+02  0.14485984098E+02  0.86122437098E+01  0.22505766177E+02  0.00000000000E+00 0. -1.
          5    1    4    4  501    0  0.15734307964E+03  0.18871941287E+02 -0.34475047440E+02  0.16224553546E+03  0.47000000000E+01 0.  1.
         -5    1    4    4    0  501  0.20372814620E+02  0.57688626438E+02  0.29698686012E+02  0.68169869786E+02  0.47000000000E+01 0.  1.
          1    1    1    2  502    0 -0.14758749460E+03 -0.31519533912E+03 -0.93463286118E+03  0.99733081551E+03  0.00000000000E+00 0. -1.
          1    1    1    2  503    0 -0.45557357231E+02  0.16924677689E+03  0.12655239284E+03  0.21618383940E+03  0.00000000000E+00 0. -1.
<mgrwt>
<rscale>  0 0.15712111E+03</rscale>
<asrwt>0</asrwt>
<pdfrwt beam="1">  1        2 0.69149752E-01 0.14091198E+03</pdfrwt>
<pdfrwt beam="2">  1        2 0.18425827E+00 0.17519477E+03</pdfrwt>
<totfact> 0.22664576E+02</totfact>
</mgrwt>
</event>
<event>
13    1  0.2038932E-008  0.6278354E+02  0.7546771E-02  0.1438436E+00
          2   -1    0    0  503    0  0.00000000000E+00  0.00000000000E+00  0.42208175475E+03  0.42208175475E+03  0.00000000000E+00 0. -1.
          2   -1    0    0  502    0 -0.00000000000E+00 -0.00000000000E+00 -0.28388904398E+04  0.28388904398E+04  0.00000000000E+00 0. -1.
         24    2    1    2    0    0 -0.92064088408E+00  0.35487418567E+02 -0.12257248783E+04  0.12278455676E+04  0.62793757841E+02 0.  0.
         25    2    1    2    0    0 -0.23763600534E+02 -0.12919752984E+03 -0.58112590606E+03  0.60876201748E+03  0.12500865890E+03 0.  0.
         24    2    1    2    0    0 -0.93304459449E+00  0.20135394703E+02 -0.13034727959E+03  0.15326538878E+03  0.78061267027E+02 0.  0.
        -11    1    3    3    0    0 -0.25444047333E+02  0.10501931515E+02 -0.86207365820E+03  0.86251300412E+03  0.00000000000E+00 0.  1.
         12    1    3    3    0    0  0.24523406449E+02  0.24985487051E+02 -0.36365122013E+03  0.36533256347E+03  0.00000000000E+00 0. -1.
        -11    1    5    5    0    0  0.11724716232E+02 -0.76649926266E+01  0.47241098516E+01  0.14783040844E+02  0.00000000000E+00 0.  1.
         12    1    5    5    0    0 -0.12657760827E+02  0.27800387329E+02 -0.13507138944E+03  0.13848234794E+03  0.00000000000E+00 0. -1.
          5    1    4    4  501    0  0.10164277801E+02 -0.29843439701E+01 -0.28271235334E+03  0.28294978986E+03  0.47000000000E+01 0.  1.
         -5    1    4    4    0  501 -0.33927878334E+02 -0.12621318587E+03 -0.29841355272E+03  0.32581222762E+03  0.47000000000E+01 0.  1.
          1    1    1    2  502    0 -0.23624468996E+02  0.34631815225E+02 -0.87235858126E+03  0.87336531443E+03  0.00000000000E+00 0. -1.
          1    1    1    2  503    0  0.49241755008E+02  0.38942901345E+02  0.39274796016E+03  0.39773390629E+03  0.00000000000E+00 0. -1.
<mgrwt>
<rscale>  0 0.51303310E+02</rscale>
<asrwt>0</asrwt>
<pdfrwt beam="1">  1        2 0.62070843E-01 0.62783540E+02</pdfrwt>
<pdfrwt beam="2">  1        2 0.41748391E+00 0.41922287E+02</pdfrwt>
<totfact> 0.49826818E+01</totfact>
</mgrwt>
</event>
<event>
13    1  0.2038932E-008  0.1475997E+03  0.7546771E-02  0.1355251E+00
          2   -1    0    0  503    0  0.00000000000E+00  0.00000000000E+00  0.93336290380E+03  0.93336290380E+03  0.00000000000E+00 0. -1.
          2   -1    0    0  502    0 -0.00000000000E+00 -0.00000000000E+00 -0.28496642696E+04  0.28496642696E+04  0.00000000000E+00 0. -1.
         24    2    1    2    0    0  0.74514943417E+02  0.57004072013E+02  0.78347922625E+02  0.15787495031E+03  0.99920778304E+02 0.  0.
         25    2    1    2    0    0 -0.87506763581E+01  0.53041296016E+02  0.27326032327E+03  0.30526226251E+03  0.12499556480E+03 0.  0.
         24    2    1    2    0    0  0.36130527570E+01 -0.12686426342E+02 -0.74481048900E+02  0.10999431798E+03  0.79858147859E+02 0.  0.
        -11    1    5    5    0    0  0.16498424951E+02 -0.42351210278E+02 -0.58022307397E+02  0.73704892602E+02  0.00000000000E+00 0.  1.
         12    1    5    5    0    0 -0.12885372194E+02  0.29664783936E+02 -0.16458741504E+02  0.36289425380E+02  0.00000000000E+00 0. -1.
        -11    1    3    3    0    0 -0.18259778128E+02  0.34226258265E+02  0.89859988871E+01  0.39819648770E+02  0.00000000000E+00 0.  1.
         12    1    3    3    0    0  0.92774721545E+02  0.22777813747E+02  0.69361923738E+02  0.11805530154E+03  0.00000000000E+00 0. -1.
          5    1    4    4  501    0  0.18155160295E+02  0.71166435770E+02  0.25945965320E+03  0.26969551918E+03  0.47000000000E+01 0.  1.
         -5    1    4    4    0  501 -0.26905836653E+02 -0.18125139754E+02  0.13800670070E+02  0.35566743335E+02  0.47000000000E+01 0.  1.
          1    1    1    2  502    0 -0.67851722447E+02 -0.13190663720E+03 -0.26990349607E+04  0.27031080141E+04  0.00000000000E+00 0. -1.
          1    1    1    2  503    0 -0.15255973690E+01  0.34547695513E+02  0.50560639791E+03  0.50678762842E+03  0.00000000000E+00 0. -1.
<mgrwt>
<rscale>  0 0.71443680E+02</rscale>
<asrwt>0</asrwt>
<pdfrwt beam="1">  1        2 0.13725925E+00 0.34581364E+02</pdfrwt>
<pdfrwt beam="2">  1        2 0.41906827E+00 0.14759971E+03</pdfrwt>
<totfact> 0.17232709E+01</totfact>
</mgrwt>
</event>
<event>
13    1  0.2038932E-008  0.6214697E+02  0.7546771E-02  0.1444754E+00
          2   -1    0    0  502    0  0.00000000000E+00  0.00000000000E+00  0.12735317704E+03  0.12735317704E+03  0.00000000000E+00 0. -1.
          2   -1    0    0  503    0 -0.00000000000E+00 -0.00000000000E+00 -0.22664848903E+04  0.22664848903E+04  0.00000000000E+00 0. -1.
         24    2    1    2    0    0 -0.26051503289E+02 -0.17971367004E+02 -0.11988101671E+04  0.12018572224E+04  0.79456374538E+02 0.  0.
         25    2    1    2    0    0  0.63574799921E+01 -0.55559760781E+02 -0.71795522471E+02  0.15461964562E+03  0.12500133278E+03 0.  0.
         24    2    1    2    0    0  0.39371304003E+00 -0.19587961582E+02  0.60640223340E+02  0.92787647673E+02  0.67442328141E+02 0.  0.
        -13    1    5    5    0    0 -0.14767624065E+02 -0.20337184814E+02 -0.48192107625E+01  0.25591182057E+02  0.00000000000E+00 0.  1.
         14    1    5    5    0    0  0.15161337105E+02  0.74922323205E+00  0.65459434102E+02  0.67196465616E+02  0.00000000000E+00 0. -1.
        -13    1    3    3    0    0  0.10628168607E+02 -0.91718395372E+01 -0.95865540046E+03  0.95875818508E+03  0.00000000000E+00 0.  1.
         14    1    3    3    0    0 -0.36679671896E+02 -0.87995274671E+01 -0.24015476660E+03  0.24309903730E+03  0.00000000000E+00 0. -1.
          5    1    4    4  501    0  0.43240631274E+02 -0.65754707132E+02 -0.82995772138E+02  0.11447192623E+03  0.47000000000E+01 0. -1.
         -5    1    4    4    0  501 -0.36883151282E+02  0.10194946352E+02  0.11200249667E+02  0.40147719390E+02  0.47000000000E+01 0. -1.
          1    1    1    2  502    0  0.25271663267E+02  0.31523613158E+02 -0.55133510552E+02  0.68352755150E+02  0.00000000000E+00 0. -1.
          1    1    1    2  503    0 -0.59713530104E+01  0.61595476209E+02 -0.87403273651E+03  0.87622079651E+03  0.00000000000E+00 0. -1.
<mgrwt>
<rscale>  0 0.50109066E+02</rscale>
<asrwt>0</asrwt>
<pdfrwt beam="1">  1        2 0.18728411E-01 0.40402910E+02</pdfrwt>
<pdfrwt beam="2">  1        2 0.33330656E+00 0.62146970E+02</pdfrwt>
<totfact> 0.30928581E+02</totfact>
</mgrwt>
</event>
<event>
13    1  0.2038932E-008  0.9398247E+02  0.7546771E-02  0.1313072E+00
          2   -1    0    0  503    0  0.00000000000E+00  0.00000000000E+00  0.74228514702E+03  0.74228514702E+03  0.00000000000E+00 0. -1.
          2   -1    0    0  502    0 -0.00000000000E+00 -0.00000000000E+00 -0.27503949527E+04  0.27503949527E+04  0.00000000000E+00 0. -1.
         24    2    1    2    0    0  0.40078570705E+02 -0.30981715963E+02 -0.89015268195E+02  0.13426556542E+03  0.86818002348E+02 0.  0.
         25    2    1    2    0    0  0.49656793309E+02 -0.87180306868E+02  0.27894773032E+02  0.16269298993E+03  0.12499875032E+03 0.  0.
         24    2    1    2    0    0 -0.24585492661E+02  0.75030245638E+02 -0.73743988945E+03  0.74406795646E+03  0.59879454479E+02 0.  0.
        -11    1    3    3    0    0  0.60088517497E+02 -0.43923567623E+02 -0.78628800015E+02  0.10827002318E+03  0.00000000000E+00 0.  1.
         12    1    3    3    0    0 -0.20009946792E+02  0.12941851660E+02 -0.10386468181E+02  0.25995542239E+02  0.00000000000E+00 0. -1.
        -13    1    5    5    0    0 -0.14094425146E+02  0.76490660469E+02 -0.46793297142E+03  0.47435296953E+03  0.00000000000E+00 0.  1.
         14    1    5    5    0    0 -0.10491067515E+02 -0.14604148311E+01 -0.26950691803E+03  0.26971498693E+03  0.00000000000E+00 0. -1.
          5    1    4    4  501    0  0.41648686791E+02  0.19851545741E+02 -0.12310207163E+02  0.47982582049E+02  0.47000000000E+01 0. -1.
         -5    1    4    4    0  501  0.80081065178E+01 -0.10703185261E+03  0.40204980195E+02  0.11471040788E+03  0.47000000000E+01 0. -1.
          1    1    1    2  502    0 -0.59814509493E+02 -0.50882635330E+02 -0.18261833986E+04  0.18278710631E+04  0.00000000000E+00 0. -1.
          1    1    1    2  503    0 -0.53353618606E+01  0.94014412523E+02  0.61663397759E+03  0.62378252473E+03  0.00000000000E+00 0. -1.
<mgrwt>
<rscale>  0 0.85909009E+02</rscale>
<asrwt>0</asrwt>
<pdfrwt beam="1">  1        2 0.10915958E+00 0.93982468E+02</pdfrwt>
<pdfrwt beam="2">  1        2 0.40446985E+00 0.78529091E+02</pdfrwt>
<totfact> 0.26860788E+01</totfact>
</mgrwt>
</event>
<event>
13    1  0.2038932E-008  0.1790805E+03  0.7546771E-02  0.1203019E+00
          2   -1    0    0  502    0  0.00000000000E+00  0.00000000000E+00  0.45445827173E+04  0.45445827173E+04  0.00000000000E+00 0. -1.
          2   -1    0    0  503    0 -0.00000000000E+00 -0.00000000000E+00 -0.17230546048E+04  0.17230546048E+04  0.00000000000E+00 0. -1.
         24    2    1    2    0    0  0.19394313536E+02  0.80371903484E+02  0.40472609455E+02  0.12197368267E+03  0.80023527044E+02 0.  0.
         25    2    1    2    0    0  0.11553239207E+03 -0.30863871889E+03  0.18653859171E+04  0.18983932246E+04  0.12500649208E+03 0.  0.
         24    2    1    2    0    0 -0.68146974979E+02 -0.10904991991E+03  0.67282620435E+03  0.68938282428E+03  0.77573719231E+02 0.  0.
        -13    1    3    3    0    0 -0.21924751755E+02  0.68408360763E+02  0.21720370015E+02  0.75047805000E+02  0.00000000000E+00 0.  1.
         14    1    3    3    0    0  0.41319065291E+02  0.11963542722E+02  0.18752239439E+02  0.46925877669E+02  0.00000000000E+00 0. -1.
        -13    1    5    5    0    0 -0.60584494683E+02 -0.11678107273E+03  0.65804611897E+03  0.67106854690E+03  0.00000000000E+00 0.  1.
         14    1    5    5    0    0 -0.75624802957E+01  0.77311528152E+01  0.14780085380E+02  0.18314277379E+02  0.00000000000E+00 0. -1.
          5    1    4    4  501    0  0.10119701969E+03 -0.26630180535E+03  0.17719385152E+04  0.17946993286E+04  0.47000000000E+01 0. -1.
         -5    1    4    4    0  501  0.14335372377E+02 -0.42336913542E+02  0.93447401817E+02  0.10369389594E+03  0.47000000000E+01 0. -1.
          1    1    1    2  502    0  0.35296053227E+02  0.15285254404E+03  0.18903995819E+04  0.18968975436E+04  0.00000000000E+00 0. -1.
          1    1    1    2  503    0 -0.10207578386E+03  0.18446419127E+03 -0.16475562002E+04  0.16609900470E+04  0.00000000000E+00 0. -1.
<mgrwt>
<rscale>  0 0.14794683E+03</rscale>
<asrwt>0</asrwt>
<pdfrwt beam="1">  1        2 0.66832099E+00 0.12222582E+03</pdfrwt>
<pdfrwt beam="2">  1        2 0.25339038E+00 0.17908052E+03</pdfrwt>
<totfact> 0.51868252E-01</totfact>
</mgrwt>
</event>
<event>
13    1  0.2038932E-008  0.2086317E+03  0.7546771E-02  0.1333715E+00
          2   -1    0    0  502    0  0.00000000000E+00  0.00000000000E+00  0.49605475647E+03  0.49605475647E+03  0.00000000000E+00 0. -1.
          2   -1    0    0  503    0 -0.00000000000E+00 -0.00000000000E+00 -0.17861847112E+04  0.17861847112E+04  0.00000000000E+00 0. -1.
         24    2    1    2    0    0  0.23238485312E+02 -0.58879041562E+02 -0.13286857412E+03  0.16775544069E+03  0.80505038086E+02 0.  0.
         25    2    1    2    0    0 -0.35225335762E+03 -0.22187638182E+03 -0.18808203050E+03  0.47361564073E+03  0.12500147274E+03 0.  0.
         24    2    1    2    0    0  0.99905384011E+02  0.27855368695E+03  0.65229538730E+02  0.31306600892E+03  0.78626909824E+02 0.  0.
        -11    1    5    5    0    0  0.86446761326E+00  0.11060944532E+03  0.14157125912E+02  0.11151511517E+03  0.00000000000E+00 0.  1.
         12    1    5    5    0    0  0.99040916397E+02  0.16794424163E+03  0.51072412818E+02  0.20155089374E+03  0.00000000000E+00 0. -1.
        -13    1    3    3    0    0  0.30821957990E+02 -0.74402706181E+02 -0.86081516326E+02  0.11788037680E+03  0.00000000000E+00 0.  1.
         14    1    3    3    0    0 -0.75834726776E+01  0.15523664618E+02 -0.46787057791E+02  0.49875063887E+02  0.00000000000E+00 0. -1.
          5    1    4    4  501    0 -0.33040417778E+03 -0.19121400326E+03 -0.20354165730E+03  0.43264420948E+03  0.47000000000E+01 0.  1.
         -5    1    4    4    0  501 -0.21849179834E+02 -0.30662378559E+02  0.15459626798E+02  0.40971431254E+02  0.47000000000E+01 0.  1.
          1    1    1    2  502    0  0.20187167559E+03  0.13388822576E+02  0.76653623248E+02  0.21634974447E+03  0.00000000000E+00 0. -1.
          1    1    1    2  503    0  0.27237812707E+02 -0.11187086148E+02 -0.11110625121E+04  0.11114526329E+04  0.00000000000E+00 0. -1.
<mgrwt>
<rscale>  0 0.78379245E+02</rscale>
<asrwt>0</asrwt>
<pdfrwt beam="1">  1        2 0.72949229E-01 0.20863168E+03</pdfrwt>
<pdfrwt beam="2">  1        2 0.26267422E+00 0.29445702E+02</pdfrwt>
<totfact> 0.13515606E+02</totfact>
</mgrwt>
</event>
<event>
13    1  0.2038932E-008  0.1789328E+03  0.7546771E-02  0.1266931E+00
          2   -1    0    0  503    0  0.00000000000E+00  0.00000000000E+00  0.45178713703E+04  0.45178713703E+04  0.00000000000E+00 0. -1.
          2   -1    0    0  502    0 -0.00000000000E+00 -0.00000000000E+00 -0.13564108306E+04  0.13564108306E+04  0.00000000000E+00 0. -1.
         24    2    1    2    0    0 -0.70435942189E+01  0.13146277683E+02 -0.75579427378E+02  0.11425925118E+03  0.84382994742E+02 0.  0.
         25    2    1    2    0    0  0.13219474462E+03  0.73224739582E+02  0.12514946792E+03  0.23264671979E+03  0.12499917565E+03 0.  0.
         24    2    1    2    0    0  0.53209395352E+02  0.75700576530E+02 -0.10740025911E+02  0.12069883146E+03  0.76753128390E+02 0.  0.
        -11    1    5    5    0    0 -0.16879477203E+02  0.33570085226E+02  0.33240427659E+01  0.37721567213E+02  0.00000000000E+00 0.  1.
         12    1    5    5    0    0  0.70088872555E+02  0.42130491304E+02 -0.14064068677E+02  0.82977264243E+02  0.00000000000E+00 0. -1.
        -13    1    3    3    0    0 -0.37609175939E+02 -0.14206100171E+02 -0.19237678020E+02  0.44568505163E+02  0.00000000000E+00 0.  1.
         14    1    3    3    0    0  0.30565581720E+02  0.27352377854E+02 -0.56341749358E+02  0.69690746020E+02  0.00000000000E+00 0. -1.
          5    1    4    4  501    0  0.11286607372E+03 -0.71233032253E+01  0.67695102991E+02  0.13188710708E+03  0.47000000000E+01 0.  1.
         -5    1    4    4    0  501  0.19328670900E+02  0.80348042807E+02  0.57454364934E+02  0.10075961270E+03  0.47000000000E+01 0.  1.
          1    1    1    2  502    0 -0.35353539044E+02 -0.52807725441E+02 -0.11392387730E+04  0.11410098644E+04  0.00000000000E+00 0. -1.
          1    1    1    2  503    0 -0.14300700671E+03 -0.10926386835E+03  0.42618692981E+04  0.42656675341E+04  0.00000000000E+00 0. -1.
<mgrwt>
<rscale>  0 0.10663523E+03</rscale>
<asrwt>0</asrwt>
<pdfrwt beam="1">  1        2 0.66439285E+00 0.17893277E+03</pdfrwt>
<pdfrwt beam="2">  1        2 0.19947218E+00 0.63549418E+02</pdfrwt>
<totfact> 0.82426274E-01</totfact>
</mgrwt>
</event>
<event>
13    1  0.2038932E-008  0.6946453E+02  0.7546771E-02  0.1397540E+00
          2   -1    0    0  503    0  0.00000000000E+00  0.00000000000E+00  0.29976241628E+04  0.29976241628E+04  0.00000000000E+00 0. -1.
          2   -1    0    0  502    0 -0.00000000000E+00 -0.00000000000E+00 -0.27999221926E+04  0.27999221926E+04  0.00000000000E+00 0. -1.
         24    2    1    2    0    0  0.95493769627E+02  0.44828450350E+02 -0.17405273103E+04  0.17455629950E+04  0.80163593339E+02 0.  0.
         25    2    1    2    0    0  0.66334562060E+02  0.60838214960E+02  0.12265625862E+03  0.19690249079E+03  0.12499788230E+03 0.  0.
         24    2    1    2    0    0 -0.14916924111E+03 -0.92887817498E+02 -0.21061802106E+03  0.28592208593E+03  0.80696216093E+02 0.  0.
        -13    1    3    3    0    0  0.41697662713E+02  0.37107773984E+02 -0.39343830964E+03  0.39737813913E+03  0.00000000000E+00 0.  1.
         14    1    3    3    0    0  0.53796106914E+02  0.77206763653E+01 -0.13470890006E+04  0.13481848558E+04  0.00000000000E+00 0. -1.
        -13    1    5    5    0    0 -0.30422545945E+02 -0.10528082509E+02 -0.96669627041E+02  0.10188909959E+03  0.00000000000E+00 0.  1.
         14    1    5    5    0    0 -0.11874669516E+03 -0.82359734988E+02 -0.11394839402E+03  0.18403298634E+03  0.00000000000E+00 0. -1.
          5    1    4    4  501    0  0.51309942874E+02 -0.31478104606E+02  0.48791526312E+02  0.77629146248E+02  0.47000000000E+01 0.  1.
         -5    1    4    4    0  501  0.15024619186E+02  0.92316319566E+02  0.73864732310E+02  0.11927334455E+03  0.47000000000E+01 0.  1.
          1    1    1    2  502    0 -0.52560088494E+02 -0.46038876583E+02 -0.76966005553E+03  0.77282516920E+03  0.00000000000E+00 0. -1.
          1    1    1    2  503    0  0.39900997915E+02  0.33260028771E+02  0.27958510984E+04  0.27963336145E+04  0.00000000000E+00 0. -1.
<mgrwt>
<rscale>  0 0.60069621E+02</rscale>
<asrwt>0</asrwt>
<pdfrwt beam="1">  1        2 0.44082708E+00 0.51945348E+02</pdfrwt>
<pdfrwt beam="2">  1        2 0.41175326E+00 0.69464534E+02</pdfrwt>
<totfact> 0.19528925E+00</totfact>
</mgrwt>
</event>
<event>
13    1  0.2038932E-008  0.1713750E+03  0.7546771E-02  0.1296002E+00
          2   -1    0    0  502    0  0.00000000000E+00  0.00000000000E+00  0.49515822831E+04  0.49515822831E+04  0.00000000000E+00 0. -1.
          2   -1    0    0  503    0 -0.00000000000E+00 -0.00000000000E+00 -0.17714112519E+04  0.17714112519E+04  0.00000000000E+00 0. -1.
         24    2    1    2    0    0  0.10442095891E+04  0.12502823826E+04  0.17552701687E+04  0.23960179467E+04  0.79680193839E+02 0.  0.
         25    2    1    2    0    0 -0.50986062355E+03 -0.10972703582E+03  0.20407889732E+03  0.57382138954E+03  0.12499965166E+03 0.  0.
         24    2    1    2    0    0 -0.41752166530E+03 -0.11963122376E+04  0.14213924497E+04  0.19057922171E+04  0.78741144386E+02 0.  0.
        -11    1    5    5    0    0 -0.33644785184E+03 -0.10301436004E+04  0.12393322007E+04  0.16463102071E+04  0.00000000000E+00 0.  1.
         12    1    5    5    0    0 -0.81073813463E+02 -0.16616863723E+03  0.18206024899E+03  0.25948200996E+03  0.00000000000E+00 0. -1.
        -13    1    3    3    0    0  0.47914188086E+03  0.52321706668E+03  0.73065220351E+03  0.10184231357E+04  0.00000000000E+00 0.  1.
         14    1    3    3    0    0  0.56506770825E+03  0.72706531589E+03  0.10246179652E+04  0.13775948109E+04  0.00000000000E+00 0. -1.
          5    1    4    4  501    0 -0.50948236319E+03 -0.91740973202E+02  0.19773872492E+03  0.55417630579E+03  0.47000000000E+01 0.  1.
         -5    1    4    4    0  501 -0.37826036449E+00 -0.17986062616E+02  0.63401724068E+01  0.19645083748E+02  0.47000000000E+01 0.  1.
          1    1    1    2  502    0  0.21516288336E+02 -0.45518871455E+02  0.81543694798E+03  0.81698980070E+03  0.00000000000E+00 0. -1.
          1    1    1    2  503    0 -0.13834358858E+03  0.10127576228E+03 -0.10160074325E+04  0.10303721810E+04  0.00000000000E+00 0. -1.
<mgrwt>
<rscale>  0 0.92889088E+02</rscale>
<asrwt>0</asrwt>
<pdfrwt beam="1">  1        2 0.72817386E+00 0.50347972E+02</pdfrwt>
<pdfrwt beam="2">  1        2 0.26050166E+00 0.17137498E+03</pdfrwt>
<totfact> 0.27491217E-01</totfact>
</mgrwt>
</event>
<event>
13    1  0.2038932E-008  0.1012480E+03  0.7546771E-02  0.1390527E+00
          2   -1    0    0  503    0  0.00000000000E+00  0.00000000000E+00  0.15168396666E+04  0.15168396666E+04  0.00000000000E+00 0. -1.
          2   -1    0    0  502    0 -0.00000000000E+00 -0.00000000000E+00 -0.70475209876E+03  0.70475209876E+03  0.00000000000E+00 0. -1.
         24    2    1    2    0    0  0.74586756680E+02 -0.11601241776E+03 -0.17308549861E+03  0.23526349027E+03  0.79801345080E+02 0.  0.
         25    2    1    2    0    0  0.19176502363E+02  0.13399897507E+03  0.35546911778E+03  0.40038110110E+03  0.12499307525E+03 0.  0.
         24    2    1    2    0    0 -0.13685531203E+02 -0.28586333418E+01  0.12090811913E+03  0.14619466509E+03  0.80985438688E+02 0.  0.
        -11    1    5    5    0    0 -0.16104022431E+02 -0.10372590413E+02  0.13155418246E+03  0.13294146491E+03  0.00000000000E+00 0.  1.
         12    1    5    5    0    0  0.24184912275E+01  0.75139570711E+01 -0.10646063325E+02  0.13253200180E+02  0.00000000000E+00 0. -1.
        -11    1    3    3    0    0 -0.23975939697E+01 -0.66508852062E+02 -0.87692255750E+02  0.11008681837E+03  0.00000000000E+00 0.  1.
         12    1    3    3    0    0  0.76984350650E+02 -0.49503565696E+02 -0.85393242861E+02  0.12517667190E+03  0.00000000000E+00 0. -1.
          5    1    4    4  501    0 -0.14496709793E+02  0.12425085552E+02  0.19604505111E+03  0.19702865124E+03  0.47000000000E+01 0.  1.
         -5    1    4    4    0  501  0.33673212156E+02  0.12157388952E+03  0.15942406667E+03  0.20335244986E+03  0.47000000000E+01 0.  1.
          1    1    1    2  502    0  0.37007309014E+02 -0.71524492999E+01 -0.46117263018E+03  0.46271037732E+03  0.00000000000E+00 0. -1.
          1    1    1    2  503    0 -0.11708503685E+03 -0.79754746745E+01  0.96996845968E+03  0.97704213155E+03  0.00000000000E+00 0. -1.
<mgrwt>
<rscale>  0 0.61775840E+02</rscale>
<asrwt>0</asrwt>
<pdfrwt beam="1">  1        2 0.22306466E+00 0.10124798E+03</pdfrwt>
<pdfrwt beam="2">  1        2 0.10364002E+00 0.37692154E+02</pdfrwt>
<totfact> 0.11354905E+02</totfact>
</mgrwt>
</event>
<event>
13    1  0.2038932E-008  0.8528612E+03  0.7546771E-02  0.1142241E+00
          2   -1    0    0  502    0  0.00000000000E+00  0.00000000000E+00  0.25282529413E+04  0.25282529413E+04  0.00000000000E+00 0. -1.
          2   -1    0    0  503    0 -0.00000000000E+00 -0.00000000000E+00 -0.11930769711E+04  0.11930769711E+04  0.00000000000E+00 0. -1.
         24    2    1    2    0    0  0.82404929000E+02 -0.11151624445E+03  0.56803571515E+02  0.17025216658E+03  0.80825177930E+02 0.  0.
         25    2    1    2    0    0  0.32361610297E+03  0.20564324853E+03 -0.37202050743E+03  0.54867221225E+03  0.12500164313E+03 0.  0.
         24    2    1    2    0    0  0.35406863881E+03  0.34737122855E+03 -0.22391277679E+03  0.55032474685E+03  0.81786453486E+02 0.  0.
        -11    1    5    5    0    0  0.17360022049E+03  0.22631564785E+03 -0.13425821545E+03  0.31524764461E+03  0.00000000000E+00 0.  1.
         12    1    5    5    0    0  0.18046841831E+03  0.12105558069E+03 -0.89654561345E+02  0.23507710224E+03  0.00000000000E+00 0. -1.
        -11    1    3    3    0    0  0.75180232532E+02 -0.11734551609E+03  0.68525956294E+02  0.15529920861E+03  0.00000000000E+00 0.  1.
         12    1    3    3    0    0  0.72246964680E+01  0.58292716410E+01 -0.11722384779E+02  0.14952957963E+02  0.00000000000E+00 0. -1.
          5    1    4    4  501    0  0.20599412703E+03  0.14261525884E+03 -0.31741853535E+03  0.40441230076E+03  0.47000000000E+01 0.  1.
         -5    1    4    4    0  501  0.11762197594E+03  0.63027989688E+02 -0.54601972076E+02  0.14425991149E+03  0.47000000000E+01 0.  1.
          1    1    1    2  502    0 -0.71381589203E+03 -0.46362167969E+03  0.20761334045E+04  0.22438378067E+04  0.00000000000E+00 0. -1.
          1    1    1    2  503    0 -0.46273778745E+02  0.22123447069E+02 -0.20182772156E+03  0.20824297996E+03  0.00000000000E+00 0. -1.
<mgrwt>
<rscale>  0 0.20914978E+03</rscale>
<asrwt>0</asrwt>
<pdfrwt beam="1">  1        2 0.37180190E+00 0.85286125E+03</pdfrwt>
<pdfrwt beam="2">  1        2 0.17545250E+00 0.51290443E+02</pdfrwt>
<totfact> 0.14689778E+01</totfact>
</mgrwt>
</event>
<event>
13    1  0.2038932E-008  0.1058986E+03  0.7546771E-02  0.1408741E+00
          2   -1    0    0  502    0  0.00000000000E+00  0.00000000000E+00  0.34729492271E+04  0.34729492271E+04  0.00000000000E+00 0. -1.
          2   -1    0    0  503    0 -0.00000000000E+00 -0.00000000000E+00 -0.83162308086E+03  0.83162308086E+03  0.00000000000E+00 0. -1.
         24    2    1    2    0    0 -0.25366372572E+03  0.16984052758E+03 -0.57044418335E+03  0.65206931513E+03  0.81220286034E+02 0.  0.
         25    2    1    2    0    0  0.29468016956E+03  0.62456005505E+02  0.20871694457E+04  0.21124957518E+04  0.12499940428E+03 0.  0.
         24    2    1    2    0    0 -0.96062401728E+02 -0.17721359968E+03  0.96111125919E+02  0.23724349050E+03  0.80090450879E+02 0.  0.
        -11    1    3    3    0    0 -0.86585075726E+02  0.15382219123E+02 -0.14435427080E+03  0.16903178252E+03  0.00000000000E+00 0.  1.
         12    1    3    3    0    0 -0.16707865000E+03  0.15445830846E+03 -0.42608991254E+03  0.48303753261E+03  0.00000000000E+00 0. -1.
        -13    1    5    5    0    0 -0.58235760669E+02 -0.76018502777E+02  0.49535116140E+01  0.95889279184E+02  0.00000000000E+00 0.  1.
         14    1    5    5    0    0 -0.37826641060E+02 -0.10119509690E+03  0.91157614305E+02  0.14135421132E+03  0.00000000000E+00 0. -1.
          5    1    4    4  501    0  0.41374654227E+02  0.56268236755E+02  0.57380697853E+03  0.57806099599E+03  0.47000000000E+01 0. -1.
         -5    1    4    4    0  501  0.25330551534E+03  0.61877687506E+01  0.15133624672E+04  0.15344347558E+04  0.47000000000E+01 0. -1.
          1    1    1    2  502    0  0.62998214178E+02 -0.85246756562E+02  0.11614074730E+04  0.11662345831E+04  0.00000000000E+00 0. -1.
          1    1    1    2  503    0 -0.79522562903E+01  0.30163823158E+02 -0.13291771503E+03  0.13652916749E+03  0.00000000000E+00 0. -1.
<mgrwt>
<rscale>  0 0.57475650E+02</rscale>
<asrwt>0</asrwt>
<pdfrwt beam="1">  1        2 0.51072782E+00 0.10589861E+03</pdfrwt>
<pdfrwt beam="2">  1        2 0.12229751E+00 0.31194464E+02</pdfrwt>
<totfact> 0.94272589E+00</totfact>
</mgrwt>
</event>
<event>
13    1  0.2038932E-008  0.2249602E+03  0.7546771E-02  0.1193517E+00
          2   -1    0    0  502    0  0.00000000000E+00  0.00000000000E+00  0.30752473973E+04  0.30752473973E+04  0.00000000000E+00 0. -1.
          2   -1    0    0  503    0 -0.00000000000E+00 -0.00000000000E+00 -0.14306650980E+04  0.14306650980E+04  0.00000000000E+00 0. -1.
         24    2    1    2    0    0 -0.25200517272E+03  0.22917971063E+03 -0.11573365266E+03  0.36831390983E+03  0.78936119575E+02 0.  0.
         25    2    1    2    0    0  0.14164041793E+03  0.50668282167E+02  0.12772218355E+03  0.23359748452E+03  0.12500218317E+03 0.  0.
         24    2    1    2    0    0  0.10052462367E+03 -0.16064534304E+03 -0.26504438479E+03  0.33556030280E+03  0.80250013706E+02 0.  0.
        -11    1    3    3    0    0 -0.74070499626E+02  0.10971737201E+03 -0.21171151944E+02  0.13406177050E+03  0.00000000000E+00 0.  1.
         12    1    3    3    0    0 -0.17793467310E+03  0.11946233862E+03 -0.94562500712E+02  0.23425213933E+03  0.00000000000E+00 0. -1.
        -13    1    5    5    0    0  0.88809848239E+02 -0.14864731033E+03 -0.26745951853E+03  0.31861859027E+03  0.00000000000E+00 0.  1.
         14    1    5    5    0    0  0.11714775428E+02 -0.11998032710E+02  0.24151337440E+01  0.16941712524E+02  0.00000000000E+00 0. -1.
          5    1    4    4  501    0  0.49457660399E+01  0.55610470886E+02  0.55429922241E+02  0.78813395774E+02  0.47000000000E+01 0.  1.
         -5    1    4    4    0  501  0.13669465189E+03 -0.49421887191E+01  0.72292261307E+02  0.15478408875E+03  0.47000000000E+01 0.  1.
          1    1    1    2  502    0 -0.72952131832E+02  0.79511880748E+02  0.27180829211E+04  0.27202240567E+04  0.00000000000E+00 0. -1.
          1    1    1    2  503    0  0.82792262958E+02 -0.19871453050E+03 -0.82044476781E+03  0.84821674145E+03  0.00000000000E+00 0. -1.
<mgrwt>
<rscale>  0 0.15580445E+03</rscale>
<asrwt>0</asrwt>
<pdfrwt beam="1">  1        2 0.45224226E+00 0.10790808E+03</pdfrwt>
<pdfrwt beam="2">  1        2 0.21039193E+00 0.22496024E+03</pdfrwt>
<totfact> 0.66441981E+00</totfact>
</mgrwt>
</event>
<event>
13    1  0.2038932E-008  0.5262375E+03  0.7546771E-02  0.1183758E+00
          2   -1    0    0  503    0  0.00000000000E+00  0.00000000000E+00  0.41208652210E+04  0.41208652210E+04  0.00000000000E+00 0. -1.
          2   -1    0    0  502    0 -0.00000000000E+00 -0.00000000000E+00 -0.18387128265E+04  0.18387128265E+04  0.00000000000E+00 0. -1.
         24    2    1    2    0    0  0.11169330253E+03 -0.69340355148E+03 -0.32657484158E+03  0.77866415565E+03  0.79892810108E+02 0.  0.
         25    2    1    2    0    0 -0.63482640602E+03  0.51269992815E+02  0.10017164375E+03  0.65673190178E+03  0.12501701750E+03 0.  0.
         24    2    1    2    0    0  0.10745759562E+04  0.55548726933E+03  0.15958340433E+04  0.20044002558E+04  0.87489997341E+02 0.  0.
        -11    1    3    3    0    0  0.11374114290E+03 -0.47853152043E+03 -0.22049467446E+03  0.53902445687E+03  0.00000000000E+00 0.  1.
         12    1    3    3    0    0 -0.20478403711E+01 -0.21487203104E+03 -0.10608016712E+03  0.23963969878E+03  0.00000000000E+00 0. -1.
        -11    1    5    5    0    0  0.49029109232E+03  0.29045482064E+03  0.70328142517E+03  0.90518181656E+03  0.00000000000E+00 0.  1.
         12    1    5    5    0    0  0.58428486391E+03  0.26503244870E+03  0.89255261818E+03  0.10992184393E+04  0.00000000000E+00 0. -1.
          5    1    4    4  501    0 -0.35794086087E+02  0.33519045487E+02  0.14307675243E+02  0.51298563138E+02  0.47000000000E+01 0.  1.
         -5    1    4    4    0  501 -0.59903231993E+03  0.17750947328E+02  0.85863968511E+02  0.60543333865E+03  0.47000000000E+01 0.  1.
          1    1    1    2  502    0 -0.28212287285E+02  0.42957539738E+02 -0.76248768949E+03  0.76421774383E+03  0.00000000000E+00 0. -1.
          1    1    1    2  503    0 -0.52323056545E+03  0.43688749591E+02  0.16752092385E+04  0.17555639904E+04  0.00000000000E+00 0. -1.
<mgrwt>
<rscale>  0 0.16445408E+03</rscale>
<asrwt>0</asrwt>
<pdfrwt beam="1">  1        2 0.60600959E+00 0.52623749E+03</pdfrwt>
<pdfrwt beam="2">  1        2 0.27039895E+00 0.51393418E+02</pdfrwt>
<totfact> 0.80812243E-01</totfact>
</mgrwt>
</event>
<event>
13    1  0.2038932E-008  0.2656813E+03  0.7546771E-02  0.1245302E+00
          2   -1    0    0  502    0  0.00000000000E+00  0.00000000000E+00  0.30247089948E+04  0.30247089948E+04  0.00000000000E+00 0. -1.
          2   -1    0    0  503    0 -0.00000000000E+00 -0.00000000000E+00 -0.14240882381E+04  0.14240882381E+04  0.00000000000E+00 0. -1.
         24    2    1    2    0    0 -0.21949057225E+03 -0.18287773612E+03 -0.41142524125E+03  0.50739410287E+03  0.80979434500E+02 0.  0.
         25    2    1    2    0    0 -0.44493595051E+02 -0.15231638970E+02  0.22889591072E+03  0.26501026293E+03  0.12500167473E+03 0.  0.
         24    2    1    2    0    0  0.10161760093E+03  0.10955967365E+02 -0.15628698272E+02  0.13098813035E+03  0.80420544903E+02 0.  0.
        -11    1    5    5    0    0  0.89657514070E+02 -0.87652681557E+01  0.16352982756E+02  0.91557194147E+02  0.00000000000E+00 0.  1.
         12    1    5    5    0    0  0.11960086859E+02  0.19721235521E+02 -0.31981681029E+02  0.39430936199E+02  0.00000000000E+00 0. -1.
        -13    1    3    3    0    0 -0.38121822093E+01 -0.18479629049E+02 -0.63254482506E+01  0.19900771808E+02  0.00000000000E+00 0.  1.
         14    1    3    3    0    0 -0.21567839004E+03 -0.16439810707E+03 -0.40509979300E+03  0.48749333106E+03  0.00000000000E+00 0. -1.
          5    1    4    4  501    0  0.83173417823E+01  0.48543130490E+02  0.10278701629E+03  0.11407398656E+03  0.47000000000E+01 0.  1.
         -5    1    4    4    0  501 -0.52810936834E+02 -0.63774769459E+02  0.12610889443E+03  0.15093627637E+03  0.47000000000E+01 0.  1.
          1    1    1    2  502    0 -0.42895850732E+02  0.31142321884E+02  0.26527924889E+04  0.26533220475E+04  0.00000000000E+00 0. -1.
          1    1    1    2  503    0  0.20526241711E+03  0.15601108584E+03 -0.85401370344E+03  0.89208268924E+03  0.00000000000E+00 0. -1.
<mgrwt>
<rscale>  0 0.11867332E+03</rscale>
<asrwt>0</asrwt>
<pdfrwt beam="1">  1        2 0.44481015E+00 0.53008473E+02</pdfrwt>
<pdfrwt beam="2">  1        2 0.20942474E+00 0.26568125E+03</pdfrwt>
<totfact> 0.79089487E+00</totfact>
</mgrwt>
</event>
<event>
13    1  0.2038932E-008  0.1594135E+03  0.7546771E-02  0.1243735E+00
          2   -1    0    0  503    0  0.00000000000E+00  0.00000000000E+00  0.45378842466E+03  0.45378842466E+03  0.00000000000E+00 0. -1.
          2   -1    0    0  502    0 -0.00000000000E+00 -0.00000000000E+00 -0.19645306356E+04  0.19645306356E+04  0.00000000000E+00 0. -1.
         24    2    1    2    0    0 -0.59844464028E+01  0.13708425425E+02 -0.99734924957E+02  0.12971553312E+03  0.81580204405E+02 0.  0.
         25    2    1    2    0    0 -0.97952576804E+02 -0.14532271210E+03 -0.11639698441E+03  0.24471617715E+03  0.12499740568E+03 0.  0.
         24    2    1    2    0    0 -0.41045230971E+02  0.62627982335E+02 -0.10008595025E+00  0.11033507972E+03  0.81036070018E+02 0.  0.
        -13    1    5    5    0    0  0.15333222748E+02 -0.39461390766E+01  0.14986959411E+02  0.21801116619E+02  0.00000000000E+00 0.  1.
         14    1    5    5    0    0 -0.56378453719E+02  0.66574121411E+02 -0.15087045361E+02  0.88533963106E+02  0.00000000000E+00 0. -1.
        -13    1    3    3    0    0 -0.43277191664E+02  0.66119202741E+01 -0.64274969986E+02  0.77768274860E+02  0.00000000000E+00 0.  1.
         14    1    3    3    0    0  0.37292745261E+02  0.70965051509E+01 -0.35459954971E+02  0.51947258263E+02  0.00000000000E+00 0. -1.
          5    1    4    4  501    0  0.28823443751E+02 -0.14789888322E+02 -0.23944224396E+02  0.40557953451E+02  0.47000000000E+01 0. -1.
         -5    1    4    4    0  501 -0.12677602055E+03 -0.13053282378E+03 -0.92452760010E+02  0.20415822370E+03  0.47000000000E+01 0. -1.
          1    1    1    2  502    0 -0.21835906445E+02  0.81498944246E+02 -0.15909405454E+04  0.15931762940E+04  0.00000000000E+00 0. -1.
          1    1    1    2  503    0  0.16681816062E+03 -0.12512639903E+02  0.29643032973E+03  0.34037597632E+03  0.00000000000E+00 0. -1.
<mgrwt>
<rscale>  0 0.11961426E+03</rscale>
<asrwt>0</asrwt>
<pdfrwt beam="1">  1        2 0.66733595E-01 0.15941350E+03</pdfrwt>
<pdfrwt beam="2">  1        2 0.28890155E+00 0.89751310E+02</pdfrwt>
<totfact> 0.10981416E+02</totfact>
</mgrwt>
</event>
<event>
13    1  0.2038932E-008  0.5217051E+02  0.7546771E-02  0.1484834E+00
          2   -1    0    0  503    0  0.00000000000E+00  0.00000000000E+00  0.14669778596E+04  0.14669778596E+04  0.00000000000E+00 0. -1.
          2   -1    0    0  502    0 -0.00000000000E+00 -0.00000000000E+00 -0.53065208000E+03  0.53065208000E+03  0.00000000000E+00 0. -1.
         24    2    1    2    0    0 -0.11785007649E+03  0.40701196167E+02 -0.15713666857E+03  0.21500774157E+03  0.77402638376E+02 0.  0.
         25    2    1    2    0    0  0.15751551810E+03  0.53026885751E+02 -0.15278766999E+03  0.25805163541E+03  0.12499434142E+03 0.  0.
         24    2    1    2    0    0 -0.20582495915E+02 -0.28142629939E+02  0.10067013870E+04  0.10109755314E+04  0.86070876832E+02 0.  0.
        -11    1    3    3    0    0 -0.40590297767E+02  0.53009469284E+02 -0.89020806905E+02  0.11127569442E+03  0.00000000000E+00 0.  1.
         12    1    3    3    0    0 -0.77259778727E+02 -0.12308273117E+02 -0.68115861664E+02  0.10373204715E+03  0.00000000000E+00 0. -1.
        -13    1    5    5    0    0 -0.25137417271E+02  0.20437792362E+02  0.18414306529E+03  0.18697128549E+03  0.00000000000E+00 0.  1.
         14    1    5    5    0    0  0.45549213552E+01 -0.48580422301E+02  0.82255832171E+03  0.82400424595E+03  0.00000000000E+00 0. -1.
          5    1    4    4  501    0  0.12086604758E+03 -0.14067142910E+01 -0.39871038580E+02  0.12736706803E+03  0.47000000000E+01 0. -1.
         -5    1    4    4    0  501  0.36649470518E+02  0.54433600042E+02 -0.11291663141E+03  0.13068456738E+03  0.47000000000E+01 0. -1.
          1    1    1    2  502    0 -0.32659047671E+02 -0.15242148008E+02 -0.13280486225E+03  0.13760838604E+03  0.00000000000E+00 0. -1.
          1    1    1    2  503    0  0.13576101985E+02 -0.50343303971E+02  0.37235359335E+03  0.37598664509E+03  0.00000000000E+00 0. -1.
<mgrwt>
<rscale>  0 0.43362023E+02</rscale>
<asrwt>0</asrwt>
<pdfrwt beam="1">  1        2 0.21573204E+00 0.52170514E+02</pdfrwt>
<pdfrwt beam="2">  1        2 0.78037071E-01 0.36040761E+02</pdfrwt>
<totfact> 0.17145516E+02</totfact>
</mgrwt>
</event>
<event>
13    1  0.2038932E-008  0.1097547E+03  0.7546771E-02  0.1391345E+00
          2   -1    0    0  503    0  0.00000000000E+00  0.00000000000E+00  0.25198802951E+04  0.25198802951E+04  0.00000000000E+00 0. -1.
          2   -1    0    0  502    0 -0.00000000000E+00 -0.00000000000E+00 -0.20726546278E+04  0.20726546278E+04  0.00000000000E+00 0. -1.
         24    2    1    2    0    0  0.25735622066E+00 -0.28899646907E+02 -0.45958212385E+03  0.46718774284E+03  0.78825139852E+02 0.  0.
         25    2    1    2    0    0 -0.18523126936E+03 -0.71720426741E+02  0.55086799047E+02  0.24106626514E+03  0.12499578392E+03 0.  0.
         24    2    1    2    0    0  0.46544109347E+02 -0.17194647385E+02  0.36115883253E+03  0.37244995496E+03  0.76297159972E+02 0.  0.
        -11    1    5    5    0    0 -0.15830437240E+02  0.12000756250E+02  0.50891451834E+02  0.54631133647E+02  0.00000000000E+00 0.  1.
         12    1    5    5    0    0  0.62374546587E+02 -0.29195403635E+02  0.31026738070E+03  0.31781882131E+03  0.00000000000E+00 0. -1.
        -13    1    3    3    0    0  0.25468612958E+02  0.14195881177E+02 -0.25220558190E+03  0.25388546400E+03  0.00000000000E+00 0.  1.
         14    1    3    3    0    0 -0.25211256737E+02 -0.43095528084E+02 -0.20737654195E+03  0.21330227884E+03  0.00000000000E+00 0. -1.
          5    1    4    4  501    0  0.12192186120E+02 -0.10878275801E+01  0.26275827671E+02  0.29365658361E+02  0.47000000000E+01 0. -1.
         -5    1    4    4    0  501 -0.19742345548E+03 -0.70632599161E+02  0.28810971376E+02  0.21170060677E+03  0.47000000000E+01 0. -1.
          1    1    1    2  502    0  0.10419732197E+03  0.12243848165E+03 -0.15062068751E+04  0.15147631545E+04  0.00000000000E+00 0. -1.
          1    1    1    2  503    0  0.34232481816E+02 -0.46237606152E+01  0.19967690346E+04  0.19970678054E+04  0.00000000000E+00 0. -1.
<mgrwt>
<rscale>  0 0.61573467E+02</rscale>
<asrwt>0</asrwt>
<pdfrwt beam="1">  1        2 0.37057063E+00 0.34543335E+02</pdfrwt>
<pdfrwt beam="2">  1        2 0.30480215E+00 0.10975466E+03</pdfrwt>
<totfact> 0.77252829E+00</totfact>
</mgrwt>
</event>
<event>
13    1  0.2038932E-008  0.1618064E+03  0.7546771E-02  0.1238560E+00
          4   -1    0    0  503    0 -0.00000000000E+00  0.00000000000E+00  0.16928704179E+04  0.16928704179E+04  0.00000000000E+00 0. -1.
          2   -1    0    0  502    0  0.00000000000E+00 -0.00000000000E+00 -0.35483799763E+04  0.35483799763E+04  0.00000000000E+00 0. -1.
         24    2    1    2    0    0  0.23608642009E+02 -0.45507083004E+02  0.10909560542E+03  0.14582413988E+03  0.82064401956E+02 0.  0.
         25    2    1    2    0    0  0.84940655394E+02 -0.10686181630E+03 -0.18167796887E+04  0.18261839243E+04  0.12499970090E+03 0.  0.
         24    2    1    2    0    0 -0.18087734111E+03 -0.10509555744E+03 -0.26170938336E+03  0.34521354849E+03  0.83179949534E+02 0.  0.
        -11    1    5    5    0    0 -0.64313924991E+02 -0.15236419883E+02 -0.34650396810E+02  0.74626265066E+02  0.00000000000E+00 0.  1.
         12    1    5    5    0    0 -0.11656341612E+03 -0.89859137558E+02 -0.22705898655E+03  0.27058728343E+03  0.00000000000E+00 0. -1.
        -13    1    3    3    0    0  0.43172688924E+02 -0.51177454601E+02  0.10577604652E+03  0.12518620110E+03  0.00000000000E+00 0.  1.
         14    1    3    3    0    0 -0.19564046916E+02  0.56703715965E+01  0.33195589005E+01  0.20637938779E+02  0.00000000000E+00 0. -1.
          5    1    4    4  501    0 -0.12586215770E+02  0.89775127192E+01 -0.42829959473E+02  0.45776675180E+02  0.47000000000E+01 0.  1.
         -5    1    4    4    0  501  0.97526871164E+02 -0.11583932902E+03 -0.17739497293E+04  0.17804072491E+04  0.47000000000E+01 0.  1.
          1    1    1    2  502    0  0.72898219871E+02 -0.58046231761E+02 -0.13871081154E+04  0.13902346706E+04  0.00000000000E+00 0. -1.
          3    1    1    2  503    0 -0.57017616496E+00  0.31551068851E+03  0.15009920237E+04  0.15337941110E+04  0.00000000000E+00 0. -1.
<mgrwt>
<rscale>  0 0.12279249E+03</rscale>
<asrwt>0</asrwt>
<pdfrwt beam="2">  1        2 0.52182058E+00 0.93185382E+02</pdfrwt>
<pdfrwt beam="1">  1        4 0.24895153E+00 0.16180645E+03</pdfrwt>
<totfact> 0.56194235E-02</totfact>
</mgrwt>
</event>
<event>
13    1  0.2038932E-008  0.1739639E+03  0.7546771E-02  0.1335793E+00
          2   -1    0    0  502    0  0.00000000000E+00  0.00000000000E+00  0.31582174584E+04  0.31582174584E+04  0.00000000000E+00 0. -1.
          2   -1    0    0  503    0 -0.00000000000E+00 -0.00000000000E+00 -0.19074119492E+04  0.19074119492E+04  0.00000000000E+00 0. -1.
         24    2    1    2    0    0  0.12428376483E+03  0.11808356992E+03  0.10368538939E+03  0.21563874509E+03  0.79744747304E+02 0.  0.
         25    2    1    2    0    0 -0.46849673938E+02 -0.29459136130E+03  0.22893895060E+04  0.23121222205E+04  0.12500355998E+03 0.  0.
         24    2    1    2    0    0  0.14163985379E+02  0.30206366049E+02  0.34627482168E+03  0.35931299518E+03  0.89925154121E+02 0.  0.
        -13    1    5    5    0    0 -0.23299170366E+02 -0.17091985499E+02  0.18257132979E+03  0.18484392813E+03  0.00000000000E+00 0.  1.
         14    1    5    5    0    0  0.37463155745E+02  0.47298351548E+02  0.16370349190E+03  0.17446906705E+03  0.00000000000E+00 0. -1.
        -13    1    3    3    0    0  0.39679827151E+02  0.15868326135E+02  0.64343496655E+02  0.77242333075E+02  0.00000000000E+00 0.  1.
         14    1    3    3    0    0  0.84603937678E+02  0.10221524379E+03  0.39341892740E+02  0.13839641201E+03  0.00000000000E+00 0. -1.
          5    1    4    4  501    0 -0.41481880177E+02 -0.13066055128E+03  0.14751694618E+04  0.14815329753E+04  0.47000000000E+01 0.  1.
         -5    1    4    4    0  501 -0.53677937615E+01 -0.16393081002E+03  0.81422004422E+03  0.83058924511E+03  0.47000000000E+01 0.  1.
          1    1    1    2  502    0 -0.30480200162E+02 -0.16539770903E+02  0.33999677014E+03  0.34176075013E+03  0.00000000000E+00 0. -1.
          1    1    1    2  503    0 -0.61117876107E+02  0.16284119623E+03 -0.18285409780E+04  0.18367946968E+04  0.00000000000E+00 0. -1.
<mgrwt>
<rscale>  0 0.77671284E+02</rscale>
<asrwt>0</asrwt>
<pdfrwt beam="1">  1        2 0.46444375E+00 0.34678619E+02</pdfrwt>
<pdfrwt beam="2">  1        2 0.28050176E+00 0.17396392E+03</pdfrwt>
<totfact> 0.42872648E+00</totfact>
</mgrwt>
</event>
<event>
13    1  0.2038932E-008  0.5807753E+02  0.7546771E-02  0.1415997E+00
          2   -1    0    0  503    0  0.00000000000E+00  0.00000000000E+00  0.27177729189E+03  0.27177729189E+03  0.00000000000E+00 0. -1.
          2   -1    0    0  502    0 -0.00000000000E+00 -0.00000000000E+00 -0.17287049297E+04  0.17287049297E+04  0.00000000000E+00 0. -1.
         24    2    1    2    0    0  0.37093971482E+02 -0.78077999267E+02 -0.38454811443E+03  0.40254268969E+03  0.81799926799E+02 0.  0.
         25    2    1    2    0    0  0.35709252382E+02  0.58664480748E+02  0.12978318166E+03  0.19284780449E+03  0.12501971623E+03 0.  0.
         24    2    1    2    0    0 -0.10592197122E+02  0.76458886857E+02 -0.38366574563E+03  0.39895380787E+03  0.77502131729E+02 0.  0.
        -11    1    3    3    0    0  0.48249292603E+02 -0.19037128821E+02 -0.11167947049E+03  0.12313695887E+03  0.00000000000E+00 0.  1.
         12    1    3    3    0    0 -0.11155321121E+02 -0.59040870446E+02 -0.27286864394E+03  0.27940573083E+03  0.00000000000E+00 0. -1.
        -11    1    5    5    0    0 -0.11654317663E+02 -0.11149995405E+02 -0.12077797181E+03  0.12185017026E+03  0.00000000000E+00 0.  1.
         12    1    5    5    0    0  0.10621205410E+01  0.87608882262E+02 -0.26288777382E+03  0.27710363761E+03  0.00000000000E+00 0. -1.
          5    1    4    4  501    0  0.26520876368E+02 -0.35887721624E+02  0.25123092607E+02  0.51425141991E+02  0.47000000000E+01 0. -1.
         -5    1    4    4    0  501  0.91883760144E+01  0.94552202372E+02  0.10466008905E+03  0.14142266250E+03  0.47000000000E+01 0. -1.
          1    1    1    2  502    0 -0.53758640638E+02  0.32771259810E+00 -0.90247892237E+03  0.90407870463E+03  0.00000000000E+00 0. -1.
          1    1    1    2  503    0 -0.84523861036E+01 -0.57373080936E+02  0.83981962956E+02  0.10205921491E+03  0.00000000000E+00 0. -1.
<mgrwt>
<rscale>  0 0.55876892E+02</rscale>
<asrwt>0</asrwt>
<pdfrwt beam="1">  1        2 0.39967250E-01 0.58077529E+02</pdfrwt>
<pdfrwt beam="2">  1        2 0.25422131E+00 0.53759639E+02</pdfrwt>
<totfact> 0.25541006E+02</totfact>
</mgrwt>
</event>
<event>
13    1  0.2038932E-008  0.1489265E+03  0.7546771E-02  0.1329244E+00
          2   -1    0    0  503    0  0.00000000000E+00  0.00000000000E+00  0.24548683147E+04  0.24548683147E+04  0.00000000000E+00 0. -1.
          2   -1    0    0  502    0 -0.00000000000E+00 -0.00000000000E+00 -0.21984226172E+04  0.21984226172E+04  0.00000000000E+00 0. -1.
         24    2    1    2    0    0  0.70676516753E+01 -0.10372906762E+03 -0.29230000956E+03  0.32043926926E+03  0.80201985819E+02 0.  0.
         25    2    1    2    0    0 -0.13459260612E+03 -0.73769686913E+02  0.35901753611E+03  0.40997193945E+03  0.12500505418E+03 0.  0.
         24    2    1    2    0    0  0.39026562089E+02  0.72051491791E+01 -0.99603245736E+02  0.13468197042E+03  0.81507299504E+02 0.  0.
        -11    1    5    5    0    0  0.23918919803E+02 -0.27480527415E+02 -0.87787077953E+02  0.95046647321E+02  0.00000000000E+00 0.  1.
         12    1    5    5    0    0  0.15107642285E+02  0.34685676594E+02 -0.11816167784E+02  0.39635323101E+02  0.00000000000E+00 0. -1.
        -13    1    3    3    0    0 -0.10845732104E+02  0.96062297111E+01 -0.17994008023E+02  0.23101815488E+02  0.00000000000E+00 0.  1.
         14    1    3    3    0    0  0.17913383779E+02 -0.11333529733E+03 -0.27430600153E+03  0.29733745377E+03  0.00000000000E+00 0. -1.
          5    1    4    4  501    0 -0.67213670459E+01  0.29859730509E+02  0.82792761008E+02  0.88394069690E+02  0.47000000000E+01 0.  1.
         -5    1    4    4    0  501 -0.12787123908E+03 -0.10362941742E+03  0.27622477510E+03  0.32157786976E+03  0.47000000000E+01 0.  1.
          1    1    1    2  502    0  0.12609141735E+03  0.19096434158E+03 -0.17417223357E+04  0.17566909574E+04  0.00000000000E+00 0. -1.
          1    1    1    2  503    0 -0.37593024994E+02 -0.20670736233E+02  0.20310537523E+04  0.20315067954E+04  0.00000000000E+00 0. -1.
<mgrwt>
<rscale>  0 0.79932028E+02</rscale>
<asrwt>0</asrwt>
<pdfrwt beam="1">  1        2 0.36101005E+00 0.42901222E+02</pdfrwt>
<pdfrwt beam="2">  1        2 0.32329744E+00 0.14892650E+03</pdfrwt>
<totfact> 0.67487430E+00</totfact>
</mgrwt>
</event>
<event>
13    1  0.2038932E-008  0.1170309E+03  0.7546771E-02  0.1256167E+00
          2   -1    0    0  503    0  0.00000000000E+00  0.00000000000E+00  0.10818459154E+04  0.10818459154E+04  0.00000000000E+00 0. -1.
          2   -1    0    0  502    0 -0.00000000000E+00 -0.00000000000E+00 -0.14961260784E+04  0.14961260784E+04  0.00000000000E+00 0. -1.
         24    2    1    2    0    0  0.17515784205E+02 -0.10363907773E+03 -0.51212030467E+03  0.52832732281E+03  0.76254130681E+02 0.  0.
         25    2    1    2    0    0  0.94015002885E+02 -0.13066167930E+03 -0.25902204251E+03  0.32958850840E+03  0.12499948463E+03 0.  0.
         24    2    1    2    0    0 -0.18727260774E+02 -0.75127978780E+02  0.54306181140E+03  0.55486935799E+03  0.83480236793E+02 0.  0.
        -13    1    5    5    0    0  0.70406938331E+01  0.14746983011E+02  0.40286213167E+02  0.43474404527E+02  0.00000000000E+00 0.  1.
         14    1    5    5    0    0 -0.25767954607E+02 -0.89874961792E+02  0.50277559824E+03  0.51139495346E+03  0.00000000000E+00 0. -1.
        -13    1    3    3    0    0  0.63324653136E+01 -0.10763263393E+03 -0.49947782613E+03  0.51098237034E+03  0.00000000000E+00 0.  1.
         14    1    3    3    0    0  0.11183318891E+02  0.39935562034E+01 -0.12642478538E+02  0.17344952469E+02  0.00000000000E+00 0. -1.
          5    1    4    4  501    0  0.11950755350E+03 -0.85252779695E+02 -0.21922812008E+03  0.26388093987E+03  0.47000000000E+01 0. -1.
         -5    1    4    4    0  501 -0.25492550616E+02 -0.45408899610E+02 -0.39793922422E+02  0.65707568532E+02  0.47000000000E+01 0. -1.
          1    1    1    2  502    0 -0.41574312374E+02  0.14246225908E+03 -0.65150022119E+03  0.66818893804E+03  0.00000000000E+00 0. -1.
          1    1    1    2  503    0 -0.51229213942E+02  0.16696647673E+03  0.46530059387E+03  0.49699786656E+03  0.00000000000E+00 0. -1.
<mgrwt>
<rscale>  0 0.11241220E+03</rscale>
<asrwt>0</asrwt>
<pdfrwt beam="1">  1        2 0.15909499E+00 0.11703090E+03</pdfrwt>
<pdfrwt beam="2">  1        2 0.22001854E+00 0.10797577E+03</pdfrwt>
<totfact> 0.65214768E+01</totfact>
</mgrwt>
</event>
<event>
13    1  0.2038932E-008  0.1261368E+03  0.7546771E-02  0.1316825E+00
          2   -1    0    0  502    0  0.00000000000E+00  0.00000000000E+00  0.11619084390E+04  0.11619084390E+04  0.00000000000E+00 0. -1.
          2   -1    0    0  503    0 -0.00000000000E+00 -0.00000000000E+00 -0.15494017425E+04  0.15494017425E+04  0.00000000000E+00 0. -1.
         24    2    1    2    0    0  0.37997974049E+02 -0.73677787172E+02 -0.31851904867E+03  0.33854129581E+03  0.79268923581E+02 0.  0.
         25    2    1    2    0    0 -0.25322216462E+03 -0.22464601769E+02  0.60328659970E+03  0.66648702950E+03  0.12499646448E+03 0.  0.
         24    2    1    2    0    0  0.80277131343E+02 -0.63110332620E+02  0.58320049254E+02  0.14303296497E+03  0.81424007661E+02 0.  0.
        -11    1    3    3    0    0 -0.11683219570E+02 -0.53018685738E+02 -0.10329222151E+03  0.11669088088E+03  0.00000000000E+00 0.  1.
         12    1    3    3    0    0  0.49681193620E+02 -0.20659101434E+02 -0.21522682717E+03  0.22185041493E+03  0.00000000000E+00 0. -1.
        -13    1    5    5    0    0  0.88849227365E+02 -0.27817088778E+02  0.33078408303E+02  0.98803627096E+02  0.00000000000E+00 0.  1.
         14    1    5    5    0    0 -0.85720960216E+01 -0.35293243842E+02  0.25241640951E+02  0.44229337876E+02  0.00000000000E+00 0. -1.
          5    1    4    4  501    0 -0.25686488585E+03 -0.34536400300E+02  0.59846524785E+03  0.65219251407E+03  0.47000000000E+01 0. -1.
         -5    1    4    4    0  501  0.36427212279E+01  0.12071798531E+02  0.48213518476E+01  0.14294515429E+02  0.47000000000E+01 0. -1.
          1    1    1    2  502    0  0.51179507030E+02  0.24092480709E+02  0.40886580154E+03  0.41276026121E+03  0.00000000000E+00 0. -1.
          1    1    1    2  503    0  0.83767552195E+02  0.13516024085E+03 -0.11394467053E+04  0.11504886300E+04  0.00000000000E+00 0. -1.
<mgrwt>
<rscale>  0 0.84469757E+02</rscale>
<asrwt>0</asrwt>
<pdfrwt beam="1">  1        2 0.17086889E+00 0.56566682E+02</pdfrwt>
<pdfrwt beam="2">  1        2 0.22785320E+00 0.12613679E+03</pdfrwt>
<totfact> 0.57174236E+01</totfact>
</mgrwt>
</event>
<event>
13    1  0.2038932E-008  0.5463351E+02  0.7546771E-02  0.1470163E+00
          2   -1    0    0  503    0  0.00000000000E+00  0.00000000000E+00  0.60211497364E+03  0.60211497364E+03  0.00000000000E+00 0. -1.
         -3   -1    0    0    0  501 -0.00000000000E+00 -0.00000000000E+00 -0.83302355561E+03  0.83302355561E+03  0.00000000000E+00 0.  1.
         24    2    1    2    0    0 -0.19325244026E+01 -0.11337467878E+03 -0.57275225781E+03  0.58877891540E+03  0.75880893160E+02 0.  0.
         25    2    1    2    0    0 -0.18452323081E+02  0.60370303917E+02  0.37798411754E+03  0.40308985324E+03  0.12499749937E+03 0.  0.
         24    2    1    2    0    0  0.15124453759E+02  0.74736676504E+02  0.39359548283E+02  0.11987997531E+03  0.83712093056E+02 0.  0.
        -11    1    5    5    0    0  0.13862868747E+02  0.89067729987E+02  0.48965775344E+02  0.10258112307E+03  0.00000000000E+00 0.  1.
         12    1    5    5    0    0  0.12615850121E+01 -0.14331053483E+02 -0.96062270611E+01  0.17298852246E+02  0.00000000000E+00 0. -1.
        -13    1    3    3    0    0 -0.19480748380E+02 -0.18826414236E+02 -0.26428783796E+03  0.26567272108E+03  0.00000000000E+00 0.  1.
         14    1    3    3    0    0  0.17548223977E+02 -0.94548264545E+02 -0.30846441985E+03  0.32310619432E+03  0.00000000000E+00 0. -1.
          5    1    4    4  502    0  0.12962933428E+02  0.80674391867E+02  0.14024067978E+03  0.16237590157E+03  0.47000000000E+01 0. -1.
         -5    1    4    4    0  502 -0.31415256509E+02 -0.20304087950E+02  0.23774343776E+03  0.24071395167E+03  0.47000000000E+01 0. -1.
          1    1    1    2  503    0  0.23566018754E+02  0.30048893609E+02  0.11707004176E+03  0.12314092709E+03  0.00000000000E+00 0. -1.
         -4    1    1    2    0  501 -0.18305625029E+02 -0.51781195249E+02 -0.19257003174E+03  0.20024885821E+03  0.00000000000E+00 0.  1.
<mgrwt>
<rscale>  0 0.45676284E+02</rscale>
<asrwt>0</asrwt>
<pdfrwt beam="1">  1        2 0.88546320E-01 0.38187606E+02</pdfrwt>
<pdfrwt beam="2">  1       -3 0.12250346E+00 0.54633509E+02</pdfrwt>
<totfact> 0.19016272E+01</totfact>
</mgrwt>
</event>
<event>
13    1  0.2038932E-008  0.7362240E+02  0.7546771E-02  0.1355290E+00
         -1   -1    0    0    0  501 -0.00000000000E+00  0.00000000000E+00  0.28986479728E+03  0.28986479728E+03  0.00000000000E+00 0.  1.
          2   -1    0    0  503    0  0.00000000000E+00 -0.00000000000E+00 -0.12467377901E+04  0.12467377901E+04  0.00000000000E+00 0. -1.
         24    2    1    2    0    0 -0.96966213859E+02  0.22397180260E+02  0.88618353677E+02  0.15525658619E+03  0.79670035978E+02 0.  0.
         25    2    1    2    0    0  0.55032834618E+02 -0.48160846872E+02 -0.84514479431E+03  0.85746317946E+03  0.12500120288E+03 0.  0.
         24    2    1    2    0    0  0.22110916816E+02  0.28063094838E+02 -0.69141750665E+01  0.83111473473E+02  0.74721357534E+02 0.  0.
        -11    1    3    3    0    0 -0.97323675238E+02 -0.16728037281E+01  0.49192048012E+02  0.10906215486E+03  0.00000000000E+00 0.  1.
         12    1    3    3    0    0  0.35746137867E+00  0.24069983988E+02  0.39426305665E+02  0.46194431333E+02  0.00000000000E+00 0. -1.
        -13    1    5    5    0    0  0.41759297538E+02 -0.38219191482E+01 -0.15465510928E+02  0.44694832197E+02  0.00000000000E+00 0.  1.
         14    1    5    5    0    0 -0.19648380722E+02  0.31885013986E+02  0.85513358617E+01  0.38416641276E+02  0.00000000000E+00 0. -1.
          5    1    4    4  502    0  0.45528928548E+01 -0.35711449165E+01  0.19311538916E+01  0.77007314403E+01  0.47000000000E+01 0.  1.
         -5    1    4    4    0  502  0.50479941763E+02 -0.44589701955E+02 -0.84707594821E+03  0.84976244802E+03  0.47000000000E+01 0.  1.
          1    1    1    2  503    0 -0.54014022274E+00  0.69304893057E+02 -0.30160084048E+03  0.30946167280E+03  0.00000000000E+00 0. -1.
         -2    1    1    2    0  501  0.20362602647E+02 -0.71604321283E+02  0.10816846334E+03  0.13130967548E+03  0.00000000000E+00 0.  1.
<mgrwt>
<rscale>  0 0.71432117E+02</rscale>
<asrwt>0</asrwt>
<pdfrwt beam="2">  1        2 0.18334379E+00 0.69306998E+02</pdfrwt>
<pdfrwt beam="1">  1       -1 0.42627176E-01 0.73622398E+02</pdfrwt>
<totfact> 0.13948623E+02</totfact>
</mgrwt>
</event>
<event>
13    1  0.2038932E-008  0.5097688E+02  0.7546771E-02  0.1474892E+00
          2   -1    0    0  503    0  0.00000000000E+00  0.00000000000E+00  0.11876307054E+04  0.11876307054E+04  0.00000000000E+00 0. -1.
         -1   -1    0    0    0  501 -0.00000000000E+00 -0.00000000000E+00 -0.12027973934E+03  0.12027973934E+03  0.00000000000E+00 0.  1.
         24    2    1    2    0    0  0.24290420159E+02 -0.36395176234E+02  0.23885726345E+03  0.25610639904E+03  0.81382196831E+02 0.  0.
         25    2    1    2    0    0  0.78891900640E+02  0.86742593083E+02  0.52647782620E+03  0.55367082260E+03  0.12499707546E+03 0.  0.
         24    2    1    2    0    0 -0.10890771156E+03 -0.61945251104E+02  0.10117060567E+03  0.17948915237E+03  0.79263866895E+02 0.  0.
        -13    1    5    5    0    0  0.13451836583E+01  0.11895384868E+02 -0.10056947666E+01  0.12013372641E+02  0.00000000000E+00 0.  1.
         14    1    5    5    0    0 -0.11025289522E+03 -0.73840635972E+02  0.10217630044E+03  0.16747577973E+03  0.00000000000E+00 0. -1.
        -13    1    3    3    0    0  0.47421833381E+02  0.20796937593E+01  0.12648653512E+03  0.13509995919E+03  0.00000000000E+00 0.  1.
         14    1    3    3    0    0 -0.23131413222E+02 -0.38474869994E+02  0.11237072833E+03  0.12100643984E+03  0.00000000000E+00 0. -1.
          5    1    4    4  502    0  0.80067482439E+02 -0.13748327882E+01  0.30190736945E+03  0.31238252454E+03  0.47000000000E+01 0. -1.
         -5    1    4    4    0  502 -0.11755817989E+01  0.88117425871E+02  0.22457045675E+03  0.24128829806E+03  0.47000000000E+01 0. -1.
          1    1    1    2  503    0  0.22912009865E+00 -0.39568019850E+02  0.24661820829E+03  0.24977233904E+03  0.00000000000E+00 0. -1.
         -2    1    1    2    0  501  0.54962706654E+01  0.51165854105E+02 -0.45772937534E+02  0.68871731704E+02  0.00000000000E+00 0.  1.
<mgrwt>
<rscale>  0 0.44912002E+02</rscale>
<asrwt>0</asrwt>
<pdfrwt beam="1">  1        2 0.17465157E+00 0.39568683E+02</pdfrwt>
<pdfrwt beam="2">  1       -1 0.17688198E-01 0.50976878E+02</pdfrwt>
<totfact> 0.64401611E+02</totfact>
</mgrwt>
</event>
<event>
13    1  0.2038932E-008  0.9253539E+02  0.7546771E-02  0.1479454E+00
         -3   -1    0    0    0  501 -0.00000000000E+00  0.00000000000E+00  0.42660281538E+03  0.42660281538E+03  0.00000000000E+00 0.  1.
          2   -1    0    0  503    0  0.00000000000E+00 -0.00000000000E+00 -0.21741480289E+04  0.21741480289E+04  0.00000000000E+00 0. -1.
         24    2    1    2    0    0 -0.20027048082E+03 -0.20764355075E+03  0.11322943783E+03  0.32157609232E+03  0.85826382318E+02 0.  0.
         25    2    1    2    0    0  0.15621484144E+03  0.16937509021E+03 -0.49488144995E+03  0.56002058975E+03  0.12499765425E+03 0.  0.
         24    2    1    2    0    0 -0.37720665719E+02 -0.40335965950E+02 -0.43173639540E+03  0.44445739404E+03  0.89979004407E+02 0.  0.
        -11    1    3    3    0    0 -0.13142444694E+03 -0.79819763238E+02  0.39571131082E+02  0.15877485403E+03  0.00000000000E+00 0.  1.
         12    1    3    3    0    0 -0.68846033882E+02 -0.12782378751E+03  0.73658306752E+02  0.16280123829E+03  0.00000000000E+00 0. -1.
        -13    1    5    5    0    0 -0.24692954910E+01 -0.61900935414E+02 -0.21187454061E+03  0.22074565496E+03  0.00000000000E+00 0.  1.
         14    1    5    5    0    0 -0.35251370229E+02  0.21564969464E+02 -0.21986185479E+03  0.22371173908E+03  0.00000000000E+00 0. -1.
          5    1    4    4  502    0  0.21282339005E+02  0.40403980736E+02 -0.23836835763E+03  0.24274880748E+03  0.47000000000E+01 0. -1.
         -5    1    4    4    0  502  0.13493250244E+03  0.12897110947E+03 -0.25651309231E+03  0.31727178226E+03  0.47000000000E+01 0. -1.
          1    1    1    2  503    0  0.67532298166E+02  0.63032303821E+02 -0.11018324854E+04  0.11056981995E+04  0.00000000000E+00 0. -1.
         -4    1    1    2    0  501  0.14244006933E+02  0.15572122666E+02  0.16767567939E+03  0.16899856863E+03  0.00000000000E+00 0.  1.
<mgrwt>
<rscale>  0 0.44191349E+02</rscale>
<asrwt>0</asrwt>
<pdfrwt beam="2">  1        2 0.31972765E+00 0.92535385E+02</pdfrwt>
<pdfrwt beam="1">  1       -3 0.62735709E-01 0.21104093E+02</pdfrwt>
<totfact> 0.10398829E+01</totfact>
</mgrwt>
</event>
<event>
13    1  0.2038932E-008  0.1292764E+03  0.7546771E-02  0.1230218E+00
          2   -1    0    0  503    0  0.00000000000E+00  0.00000000000E+00  0.38253287664E+03  0.38253287664E+03  0.00000000000E+00 0. -1.
          2   -1    0    0  502    0 -0.00000000000E+00 -0.00000000000E+00 -0.76044139985E+03  0.76044139985E+03  0.00000000000E+00 0. -1.
         24    2    1    2    0    0  0.60128320015E+02  0.39343450967E+02 -0.30588962438E+02  0.11249620679E+03  0.80971537695E+02 0.  0.
         25    2    1    2    0    0 -0.14637029220E+03  0.12161832950E+03 -0.39917284764E+02  0.23115645198E+03  0.12499854063E+03 0.  0.
         24    2    1    2    0    0 -0.37909866675E+02 -0.66908558750E+02 -0.13046454098E+03  0.16997736180E+03  0.77184155421E+02 0.  0.
        -11    1    3    3    0    0  0.70010877432E+02  0.10933939024E+02 -0.18335739518E+01  0.70883255955E+02  0.00000000000E+00 0.  1.
         12    1    3    3    0    0 -0.98825574174E+01  0.28409511943E+02 -0.28755388486E+02  0.41612950832E+02  0.00000000000E+00 0. -1.
        -13    1    5    5    0    0  0.22205703520E+02 -0.29575804634E+02 -0.33238340502E+02  0.49725333261E+02  0.00000000000E+00 0.  1.
         14    1    5    5    0    0 -0.60115570196E+02 -0.37332754115E+02 -0.97226200475E+02  0.12025202854E+03  0.00000000000E+00 0. -1.
          5    1    4    4  501    0 -0.80059946515E+01  0.88712967835E+01  0.35187476034E+02  0.37457233301E+02  0.47000000000E+01 0. -1.
         -5    1    4    4    0  501 -0.13836429755E+03  0.11274703272E+03 -0.75104760798E+02  0.19369921868E+03  0.47000000000E+01 0. -1.
          1    1    1    2  502    0  0.98070323479E+01 -0.12025954074E+03 -0.37787435499E+03  0.39667059783E+03  0.00000000000E+00 0. -1.
          1    1    1    2  503    0  0.11434480651E+03  0.26206319018E+02  0.20093661995E+03  0.23267365809E+03  0.00000000000E+00 0. -1.
<mgrwt>
<rscale>  0 0.12815609E+03</rscale>
<asrwt>0</asrwt>
<pdfrwt beam="1">  1        2 0.56254835E-01 0.12927641E+03</pdfrwt>
<pdfrwt beam="2">  1        2 0.11182962E+00 0.12704547E+03</pdfrwt>
<totfact> 0.56226363E+02</totfact>
</mgrwt>
</event>
<event>
13    1  0.2038932E-008  0.5431390E+02  0.7546771E-02  0.1437037E+00
          2   -1    0    0  503    0  0.00000000000E+00  0.00000000000E+00  0.25176610853E+04  0.25176610853E+04  0.00000000000E+00 0. -1.
         -1   -1    0    0    0  501 -0.00000000000E+00 -0.00000000000E+00 -0.81908770184E+03  0.81908770184E+03  0.00000000000E+00 0.  1.
         24    2    1    2    0    0  0.10313816389E+03 -0.56578804804E+02  0.55413008568E+01  0.14310182721E+03  0.81294433595E+02 0.  0.
         25    2    1    2    0    0 -0.13765702072E+03  0.22863078306E+03  0.88291219963E+03  0.93079439321E+03  0.12499103912E+03 0.  0.
         24    2    1    2    0    0  0.47076907271E+02 -0.85866023841E+02  0.10634018476E+03  0.16535616775E+03  0.80282115500E+02 0.  0.
        -11    1    3    3    0    0  0.98932646373E+02 -0.74215909515E+02 -0.14092477667E+01  0.12368369223E+03  0.00000000000E+00 0.  1.
         12    1    3    3    0    0  0.42055175126E+01  0.17637104711E+02  0.69505486234E+01  0.19418134985E+02  0.00000000000E+00 0. -1.
        -11    1    5    5    0    0 -0.18680987443E+02 -0.40855624018E+02  0.24675624733E+02  0.51254734042E+02  0.00000000000E+00 0.  1.
         12    1    5    5    0    0  0.65757894714E+02 -0.45010399823E+02  0.81664560025E+02  0.11410143371E+03  0.00000000000E+00 0. -1.
          5    1    4    4  502    0 -0.46613443946E+02  0.26083220172E+02  0.34000088992E+03  0.34420319969E+03  0.47000000000E+01 0.  1.
         -5    1    4    4    0  502 -0.91043576776E+02  0.20254756289E+03  0.54291130971E+03  0.58659119352E+03  0.47000000000E+01 0.  1.
          1    1    1    2  503    0 -0.34063485367E+02 -0.42190297030E+02  0.13992519290E+04  0.14003022184E+04  0.00000000000E+00 0. -1.
         -2    1    1    2    0  501  0.21505434932E+02 -0.43995657390E+02 -0.69547223077E+03  0.69719418054E+03  0.00000000000E+00 0.  1.
<mgrwt>
<rscale>  0 0.51573000E+02</rscale>
<asrwt>0</asrwt>
<pdfrwt beam="1">  1        2 0.37024427E+00 0.54313902E+02</pdfrwt>
<pdfrwt beam="2">  1       -1 0.12045407E+00 0.48970416E+02</pdfrwt>
<totfact> 0.46059822E+00</totfact>
</mgrwt>
</event>
<event>
13    1  0.2038932E-008  0.7606030E+02  0.7546771E-02  0.1373292E+00
          2   -1    0    0  503    0  0.00000000000E+00  0.00000000000E+00  0.71146526833E+03  0.71146526833E+03  0.00000000000E+00 0. -1.
          2   -1    0    0  502    0 -0.00000000000E+00 -0.00000000000E+00 -0.27391718297E+04  0.27391718297E+04  0.00000000000E+00 0. -1.
         24    2    1    2    0    0 -0.93196432874E+02 -0.80062081540E+02 -0.58176337881E+03  0.60007626883E+03  0.80915928537E+02 0.  0.
         25    2    1    2    0    0  0.18324261709E+03  0.87547098352E+02 -0.30640215385E+01  0.23848632075E+03  0.12499594317E+03 0.  0.
         24    2    1    2    0    0  0.28023602184E+02  0.16218418335E+02 -0.99835919733E+02  0.13153552063E+03  0.79284443276E+02 0.  0.
        -11    1    5    5    0    0  0.40814585636E+02 -0.61319901241E+01 -0.16735672956E+02  0.44536664141E+02  0.00000000000E+00 0.  1.
         12    1    5    5    0    0 -0.12790983452E+02  0.22350408459E+02 -0.83100246776E+02  0.86998856488E+02  0.00000000000E+00 0. -1.
        -13    1    3    3    0    0 -0.29740401486E+02 -0.74515979471E+02 -0.26115756314E+03  0.27320394481E+03  0.00000000000E+00 0.  1.
         14    1    3    3    0    0 -0.63456031388E+02 -0.55461020693E+01 -0.32060581567E+03  0.32687232402E+03  0.00000000000E+00 0. -1.
          5    1    4    4  501    0 -0.46056913389E+01  0.27165336284E+02  0.26973254274E+02  0.38843459349E+02  0.47000000000E+01 0. -1.
         -5    1    4    4    0  501  0.18784830843E+03  0.60381762068E+02 -0.30037275812E+02  0.19964286140E+03  0.47000000000E+01 0. -1.
          1    1    1    2  502    0 -0.74532417600E+02  0.14197493412E+02 -0.19095711984E+04  0.19110779188E+04  0.00000000000E+00 0. -1.
          1    1    1    2  503    0 -0.43537368796E+02 -0.37900928559E+02  0.56652795712E+03  0.56946106897E+03  0.00000000000E+00 0. -1.
<mgrwt>
<rscale>  0 0.66260499E+02</rscale>
<asrwt>0</asrwt>
<pdfrwt beam="1">  1        2 0.10462725E+00 0.57723330E+02</pdfrwt>
<pdfrwt beam="2">  1        2 0.40281939E+00 0.76060299E+02</pdfrwt>
<totfact> 0.29127324E+01</totfact>
</mgrwt>
</event>
<event>
13    1  0.2038932E-008  0.7883300E+02  0.7546771E-02  0.1343256E+00
          4   -1    0    0  503    0 -0.00000000000E+00  0.00000000000E+00  0.90438688309E+03  0.90438688309E+03  0.00000000000E+00 0. -1.
          2   -1    0    0  502    0  0.00000000000E+00 -0.00000000000E+00 -0.23812372327E+04  0.23812372327E+04  0.00000000000E+00 0. -1.
         24    2    1    2    0    0  0.44597041720E+02  0.41457759867E+02  0.18265804872E+03  0.20767189337E+03  0.77820373620E+02 0.  0.
         25    2    1    2    0    0  0.30039632437E+02 -0.21455101877E+02 -0.33846198334E+03  0.36269097813E+03  0.12500212213E+03 0.  0.
         24    2    1    2    0    0 -0.99114786479E+02 -0.10777622945E+02  0.27621040078E+03  0.30603144166E+03  0.86157760704E+02 0.  0.
        -11    1    5    5    0    0 -0.46632007197E+02  0.29458878418E+02  0.18711053726E+03  0.19507107106E+03  0.00000000000E+00 0.  1.
         12    1    5    5    0    0 -0.52482779282E+02 -0.40236501363E+02  0.89099863526E+02  0.11096037060E+03  0.00000000000E+00 0. -1.
        -11    1    3    3    0    0  0.95450484736E+01  0.49116669088E+02  0.15346806770E+03  0.16141871928E+03  0.00000000000E+00 0.  1.
         12    1    3    3    0    0  0.35051993246E+02 -0.76589092213E+01  0.29189981027E+02  0.46253174090E+02  0.00000000000E+00 0. -1.
          5    1    4    4  501    0  0.79020809284E+01  0.34496986101E+02 -0.26600137357E+03  0.26838648564E+03  0.47000000000E+01 0.  1.
         -5    1    4    4    0  501  0.22137551509E+02 -0.55952087978E+02 -0.72460609776E+02  0.94304492497E+02  0.47000000000E+01 0.  1.
          1    1    1    2  502    0  0.65078782502E+01 -0.78669946369E+02 -0.19992897992E+04  0.20008475739E+04  0.00000000000E+00 0. -1.
          3    1    1    2  503    0  0.17970234072E+02  0.69444911324E+02  0.40203298338E+03  0.40838222873E+03  0.00000000000E+00 0. -1.
<mgrwt>
<rscale>  0 0.75198892E+02</rscale>
<asrwt>0</asrwt>
<pdfrwt beam="2">  1        2 0.35018194E+00 0.78832997E+02</pdfrwt>
<pdfrwt beam="1">  1        4 0.13299807E+00 0.71732315E+02</pdfrwt>
<totfact> 0.13671293E+00</totfact>
</mgrwt>
</event>
<event>
13    1  0.2038932E-008  0.1739843E+03  0.7546771E-02  0.1238300E+00
          2   -1    0    0  503    0  0.00000000000E+00  0.00000000000E+00  0.81324528619E+03  0.81324528619E+03  0.00000000000E+00 0. -1.
          2   -1    0    0  502    0 -0.00000000000E+00 -0.00000000000E+00 -0.19559493722E+04  0.19559493722E+04  0.00000000000E+00 0. -1.
         24    2    1    2    0    0 -0.10504712857E+03  0.54742424088E+01 -0.56541214327E+03  0.58221763841E+03  0.90673150241E+02 0.  0.
         25    2    1    2    0    0  0.18091804849E+03 -0.84676873480E+02  0.26302946256E+03  0.35314456988E+03  0.12500030357E+03 0.  0.
         24    2    1    2    0    0  0.37156429367E+01 -0.41829697682E+02 -0.21321868390E+03  0.23198317012E+03  0.81181613955E+02 0.  0.
        -11    1    5    5    0    0 -0.36886259019E+02 -0.27899665508E+02 -0.13581784835E+03  0.14347639308E+03  0.00000000000E+00 0.  1.
         12    1    5    5    0    0  0.40601901956E+02 -0.13930032174E+02 -0.77400835556E+02  0.88506777049E+02  0.00000000000E+00 0. -1.
        -13    1    3    3    0    0 -0.42390439468E+02 -0.42252307524E+02 -0.22661413633E+03  0.23438467022E+03  0.00000000000E+00 0.  1.
         14    1    3    3    0    0 -0.62656689098E+02  0.47726549933E+02 -0.33879800694E+03  0.34783296820E+03  0.00000000000E+00 0. -1.
          5    1    4    4  501    0  0.13716189154E+03 -0.43957356740E+02  0.89719341674E+02  0.16975654324E+03  0.47000000000E+01 0.  1.
         -5    1    4    4    0  501  0.43756156946E+02 -0.40719516740E+02  0.17331012088E+03  0.18338802664E+03  0.47000000000E+01 0.  1.
          1    1    1    2  502    0 -0.67400977375E+02 -0.54840699552E+02 -0.10967587056E+04  0.11001954610E+04  0.00000000000E+00 0. -1.
          1    1    1    2  503    0 -0.12185585481E+02  0.17587302831E+03  0.46965598421E+03  0.50165381897E+03  0.00000000000E+00 0. -1.
<mgrwt>
<rscale>  0 0.12295535E+03</rscale>
<asrwt>0</asrwt>
<pdfrwt beam="1">  1        2 0.11959489E+00 0.17398431E+03</pdfrwt>
<pdfrwt beam="2">  1        2 0.28763961E+00 0.86893004E+02</pdfrwt>
<totfact> 0.56867030E+01</totfact>
</mgrwt>
</event>
<event>
13    1  0.2038932E-008  0.1623329E+03  0.7546771E-02  0.1354820E+00
          2   -1    0    0  503    0  0.00000000000E+00  0.00000000000E+00  0.24714603461E+04  0.24714603461E+04  0.00000000000E+00 0. -1.
          2   -1    0    0  502    0 -0.00000000000E+00 -0.00000000000E+00 -0.13620282071E+04  0.13620282071E+04  0.00000000000E+00 0. -1.
         24    2    1    2    0    0 -0.15628332447E+03  0.12756932483E+03 -0.39211077415E+03  0.44972108966E+03  0.88316414897E+02 0.  0.
         25    2    1    2    0    0  0.21148171289E+03 -0.75168663994E+02  0.10603870231E+04  0.10910641080E+04  0.12500162460E+03 0.  0.
         24    2    1    2    0    0 -0.94311318138E+02  0.76952714572E+02  0.35330199626E+03  0.38328217172E+03  0.85244223219E+02 0.  0.
        -11    1    3    3    0    0  0.95974584909E+01  0.19871334344E+01 -0.35765561714E+02  0.37084165266E+02  0.00000000000E+00 0.  1.
         12    1    3    3    0    0 -0.16588078296E+03  0.12558219139E+03 -0.35634521243E+03  0.41263692439E+03  0.00000000000E+00 0. -1.
        -13    1    5    5    0    0 -0.70135833266E+02  0.30561380412E+02  0.10731124081E+03  0.13179049846E+03  0.00000000000E+00 0.  1.
         14    1    5    5    0    0 -0.24175484872E+02  0.46391334160E+02  0.24599075545E+03  0.25149167326E+03  0.00000000000E+00 0. -1.
          5    1    4    4  501    0 -0.14459629951E+02  0.63707402230E+01  0.58959016866E+02  0.61220281762E+02  0.47000000000E+01 0. -1.
         -5    1    4    4    0  501  0.22594134284E+03 -0.81539404217E+02  0.10014280062E+04  0.10298438262E+04  0.47000000000E+01 0. -1.
          1    1    1    2  502    0  0.31698796544E+02 -0.16002793562E+03 -0.90322529807E+03  0.91783968805E+03  0.00000000000E+00 0. -1.
          1    1    1    2  503    0  0.74141331767E+01  0.30674560214E+02  0.99107919197E+03  0.99158149578E+03  0.00000000000E+00 0. -1.
<mgrwt>
<rscale>  0 0.71574289E+02</rscale>
<asrwt>0</asrwt>
<pdfrwt beam="1">  1        2 0.36345005E+00 0.31557852E+02</pdfrwt>
<pdfrwt beam="2">  1        2 0.20029827E+00 0.16233294E+03</pdfrwt>
<totfact> 0.17920390E+01</totfact>
</mgrwt>
</event>
<event>
13    1  0.2038932E-008  0.1214121E+03  0.7546771E-02  0.1250854E+00
          2   -1    0    0  502    0  0.00000000000E+00  0.00000000000E+00  0.42984588602E+04  0.42984588602E+04  0.00000000000E+00 0. -1.
          2   -1    0    0  503    0 -0.00000000000E+00 -0.00000000000E+00 -0.38102961593E+04  0.38102961593E+04  0.00000000000E+00 0. -1.
         24    2    1    2    0    0 -0.80116735838E+02  0.14613444472E+03 -0.57381347089E+03  0.60245576899E+03  0.76922603463E+02 0.  0.
         25    2    1    2    0    0  0.17830140949E+03 -0.10165369390E+03  0.60480746019E+03  0.65080266258E+03  0.12500870211E+03 0.  0.
         24    2    1    2    0    0  0.72988319876E+02 -0.74470160373E+02  0.77649786814E+02  0.15273156281E+03  0.80151988511E+02 0.  0.
        -11    1    5    5    0    0 -0.12041416778E+02  0.33718338945E+01 -0.19286303938E+01  0.12652454190E+02  0.00000000000E+00 0.  1.
         12    1    5    5    0    0  0.85029736653E+02 -0.77841994267E+02  0.79578417208E+02  0.14007910862E+03  0.00000000000E+00 0. -1.
        -11    1    3    3    0    0  0.14898280597E+02  0.19139930457E+02 -0.95498821868E+02  0.98530810820E+02  0.00000000000E+00 0.  1.
         12    1    3    3    0    0 -0.95015016435E+02  0.12699451426E+03 -0.47831464902E+03  0.50392495817E+03  0.00000000000E+00 0. -1.
          5    1    4    4  501    0  0.15851569609E+03 -0.29112811732E+02  0.46224247482E+03  0.48955589797E+03  0.47000000000E+01 0. -1.
         -5    1    4    4    0  501  0.19785713398E+02 -0.72540882168E+02  0.14256498538E+03  0.16124676460E+03  0.47000000000E+01 0. -1.
          1    1    1    2  502    0 -0.10634639096E+03 -0.58530612280E+02  0.35391491757E+04  0.35412303336E+04  0.00000000000E+00 0. -1.
          1    1    1    2  503    0 -0.64826602572E+02  0.88520021831E+02 -0.31596302510E+04  0.31615346915E+04  0.00000000000E+00 0. -1.
<mgrwt>
<rscale>  0 0.11541764E+03</rscale>
<asrwt>0</asrwt>
<pdfrwt beam="1">  1        2 0.63212630E+00 0.12141213E+03</pdfrwt>
<pdfrwt beam="2">  1        2 0.56033767E+00 0.10971911E+03</pdfrwt>
<totfact> 0.65606423E-02</totfact>
</mgrwt>
</event>
<event>
13    1  0.2038932E-008  0.1277279E+03  0.7546771E-02  0.1267859E+00
          2   -1    0    0  502    0  0.00000000000E+00  0.00000000000E+00  0.22391598524E+04  0.22391598524E+04  0.00000000000E+00 0. -1.
          2   -1    0    0  503    0 -0.00000000000E+00 -0.00000000000E+00 -0.15338481589E+04  0.15338481589E+04  0.00000000000E+00 0. -1.
         24    2    1    2    0    0 -0.33126001036E+03 -0.65272944231E+02 -0.23405841355E+03  0.42289868993E+03  0.10033050024E+03 0.  0.
         25    2    1    2    0    0  0.47707247426E+03 -0.17190504527E+03  0.23104173867E+03  0.57110034211E+03  0.12500330180E+03 0.  0.
         24    2    1    2    0    0 -0.18187463219E+03  0.37139850443E+02  0.78046684661E+02  0.21652611561E+03  0.79589719363E+02 0.  0.
        -11    1    3    3    0    0 -0.11625961933E+03 -0.45573595343E+02 -0.13942088262E+03  0.18716686189E+03  0.00000000000E+00 0.  1.
         12    1    3    3    0    0 -0.21500039103E+03 -0.19699348888E+02 -0.94637530927E+02  0.23573182804E+03  0.00000000000E+00 0. -1.
        -13    1    5    5    0    0 -0.78947092395E+02  0.90158041051E+01 -0.74343479126E+01  0.79807253118E+02  0.00000000000E+00 0.  1.
         14    1    5    5    0    0 -0.10292753979E+03  0.28124046338E+02  0.85481032573E+02  0.13671886249E+03  0.00000000000E+00 0. -1.
          5    1    4    4  501    0  0.10295296358E+03 -0.69896915214E+02  0.10496098024E+02  0.12496859421E+03  0.47000000000E+01 0. -1.
         -5    1    4    4    0  501  0.37411951068E+03 -0.10200813006E+03  0.22054564065E+03  0.44613174790E+03  0.47000000000E+01 0. -1.
          1    1    1    2  502    0 -0.20229231493E+02  0.85876332002E+02  0.15909622136E+04  0.15934066435E+04  0.00000000000E+00 0. -1.
          1    1    1    2  503    0  0.56291399776E+02  0.11416180706E+03 -0.96068052998E+03  0.96907622021E+03  0.00000000000E+00 0. -1.
<mgrwt>
<rscale>  0 0.10615565E+03</rscale>
<asrwt>0</asrwt>
<pdfrwt beam="1">  1        2 0.32928821E+00 0.88226788E+02</pdfrwt>
<pdfrwt beam="2">  1        2 0.22556591E+00 0.12772789E+03</pdfrwt>
<totfact> 0.16775793E+01</totfact>
</mgrwt>
</event>
<event>
13    1  0.2038932E-008  0.1131364E+03  0.7546771E-02  0.1340911E+00
          2   -1    0    0  502    0  0.00000000000E+00  0.00000000000E+00  0.30565835406E+04  0.30565835406E+04  0.00000000000E+00 0. -1.
          2   -1    0    0  503    0 -0.00000000000E+00 -0.00000000000E+00 -0.74769863871E+03  0.74769863871E+03  0.00000000000E+00 0. -1.
         24    2    1    2    0    0  0.11122974311E+03  0.10054224386E+03 -0.20993062628E+03  0.27045629166E+03  0.81209231594E+02 0.  0.
         25    2    1    2    0    0 -0.10006133983E+03 -0.10870084661E+03  0.10520854894E+04  0.10697364425E+04  0.12499613450E+03 0.  0.
         24    2    1    2    0    0 -0.12462600185E+03 -0.10516841316E+03  0.35824193969E+03  0.40177135745E+03  0.80566127161E+02 0.  0.
        -11    1    5    5    0    0 -0.11351181749E+03 -0.10806189934E+03  0.35740392957E+03  0.39025616673E+03  0.00000000000E+00 0.  1.
         12    1    5    5    0    0 -0.11114184361E+02  0.28934861829E+01  0.83801012513E+00  0.11515190718E+02  0.00000000000E+00 0. -1.
        -13    1    3    3    0    0  0.18014193150E+02  0.37746619705E+02 -0.13156316511E+02  0.43845263349E+02  0.00000000000E+00 0.  1.
         14    1    3    3    0    0  0.93215549961E+02  0.62795624153E+02 -0.19677430977E+03  0.22661102832E+03  0.00000000000E+00 0. -1.
          5    1    4    4  501    0  0.15602203294E+02  0.20395775554E+01  0.23025455480E+02  0.28281623438E+02  0.47000000000E+01 0. -1.
         -5    1    4    4    0  501 -0.11566354313E+03 -0.11074042417E+03  0.10290600339E+04  0.10414548190E+04  0.47000000000E+01 0. -1.
          1    1    1    2  502    0  0.68166764716E+02  0.89869418689E+02  0.15820255635E+04  0.15860416463E+04  0.00000000000E+00 0. -1.
          1    1    1    2  503    0  0.45290833857E+02  0.23457597220E+02 -0.47353746438E+03  0.47627644143E+03  0.00000000000E+00 0. -1.
<mgrwt>
<rscale>  0 0.75964021E+02</rscale>
<asrwt>0</asrwt>
<pdfrwt beam="1">  1        2 0.44949757E+00 0.11313642E+03</pdfrwt>
<pdfrwt beam="2">  1        2 0.10995568E+00 0.51005083E+02</pdfrwt>
<totfact> 0.17760699E+01</totfact>
</mgrwt>
</event>
<event>
13    1  0.2038932E-008  0.2861408E+03  0.7546771E-02  0.1167627E+00
          2   -1    0    0  503    0  0.00000000000E+00  0.00000000000E+00  0.14890102624E+04  0.14890102624E+04  0.00000000000E+00 0. -1.
          2   -1    0    0  502    0 -0.00000000000E+00 -0.00000000000E+00 -0.32480291129E+04  0.32480291129E+04  0.00000000000E+00 0. -1.
         24    2    1    2    0    0  0.23618003846E+03  0.20421165372E+03 -0.29656682130E+03  0.43953851467E+03  0.88084143263E+02 0.  0.
         25    2    1    2    0    0  0.38303432132E+03  0.71573070671E+02  0.54654695067E+03  0.68277121176E+03  0.12499985026E+03 0.  0.
         24    2    1    2    0    0 -0.41424429267E+03 -0.36192342492E+03 -0.98754265789E+03  0.11332030622E+04  0.79509618338E+02 0.  0.
        -11    1    3    3    0    0  0.10498779711E+03  0.14826869752E+03 -0.16037057637E+03  0.24233193346E+03  0.00000000000E+00 0.  1.
         12    1    3    3    0    0  0.13119224136E+03  0.55942956201E+02 -0.13619624493E+03  0.19720658121E+03  0.00000000000E+00 0. -1.
        -11    1    5    5    0    0 -0.15774679647E+03 -0.10746166427E+03 -0.40477868238E+03  0.44752412538E+03  0.00000000000E+00 0.  1.
         12    1    5    5    0    0 -0.25649749619E+03 -0.25446176065E+03 -0.58276397552E+03  0.68567893678E+03  0.00000000000E+00 0. -1.
          5    1    4    4  501    0  0.17173933401E+02 -0.19551986187E+02  0.13093816736E+02  0.29508679893E+02  0.47000000000E+01 0. -1.
         -5    1    4    4    0  501  0.36586038792E+03  0.91125056858E+02  0.53345313393E+03  0.65326253187E+03  0.47000000000E+01 0. -1.
          1    1    1    2  502    0 -0.28725385691E+03  0.80189099858E+01 -0.17351932604E+04  0.17588276585E+04  0.00000000000E+00 0. -1.
          1    1    1    2  503    0  0.82283789788E+02  0.78119790540E+02  0.71373693839E+03  0.72269892830E+03  0.00000000000E+00 0. -1.
<mgrwt>
<rscale>  0 0.18018249E+03</rscale>
<asrwt>0</asrwt>
<pdfrwt beam="1">  1        2 0.21897210E+00 0.11346067E+03</pdfrwt>
<pdfrwt beam="2">  1        2 0.47765134E+00 0.28614082E+03</pdfrwt>
<totfact> 0.44980628E+00</totfact>
</mgrwt>
</event>
<event>
13    1  0.2038932E-008  0.1752024E+03  0.7546771E-02  0.1201760E+00
          2   -1    0    0  502    0  0.00000000000E+00  0.00000000000E+00  0.20409795681E+04  0.20409795681E+04  0.00000000000E+00 0. -1.
          2   -1    0    0  503    0 -0.00000000000E+00 -0.00000000000E+00 -0.84393710920E+03  0.84393710920E+03  0.00000000000E+00 0. -1.
         24    2    1    2    0    0 -0.38979913180E+02  0.19876153888E+02  0.95963977471E+01  0.91676113246E+02  0.79987022480E+02 0.  0.
         25    2    1    2    0    0 -0.29984077662E+03 -0.83729584429E+02 -0.72654770054E+02  0.34324674350E+03  0.12499790668E+03 0.  0.
         24    2    1    2    0    0  0.60671666101E+02  0.72971179706E+02  0.74564800479E+02  0.14331271793E+03  0.77283772649E+02 0.  0.
        -11    1    5    5    0    0  0.78239737703E+02  0.51181606186E+02  0.64432971764E+02  0.11354567899E+03  0.00000000000E+00 0.  1.
         12    1    5    5    0    0 -0.17568071602E+02  0.21789573520E+02  0.10131828716E+02  0.29767038938E+02  0.00000000000E+00 0. -1.
        -13    1    3    3    0    0 -0.15518197959E+02 -0.31053144926E+02  0.77654011601E+01  0.35572654285E+02  0.00000000000E+00 0.  1.
         14    1    3    3    0    0 -0.23461715221E+02  0.50929298815E+02  0.18309965870E+01  0.56103458961E+02  0.00000000000E+00 0. -1.
          5    1    4    4  501    0 -0.98951219510E+02 -0.85546238825E+02 -0.53441961545E+02  0.14137763640E+03  0.47000000000E+01 0.  1.
         -5    1    4    4    0  501 -0.20088955711E+03  0.18166543957E+01 -0.19212808509E+02  0.20186910710E+03  0.47000000000E+01 0.  1.
          1    1    1    2  502    0  0.11504611674E+03  0.11617531718E+03  0.17232428827E+04  0.17309819022E+04  0.00000000000E+00 0. -1.
          1    1    1    2  503    0  0.16310290696E+03 -0.12529306634E+03 -0.53770685192E+03  0.57569920039E+03  0.00000000000E+00 0. -1.
<mgrwt>
<rscale>  0 0.14895771E+03</rscale>
<asrwt>0</asrwt>
<pdfrwt beam="1">  1        2 0.30014405E+00 0.17520241E+03</pdfrwt>
<pdfrwt beam="2">  1        2 0.12410840E+00 0.12664437E+03</pdfrwt>
<totfact> 0.46523833E+01</totfact>
</mgrwt>
</event>
<event>
13    1  0.2038932E-008  0.1828983E+03  0.7546771E-02  0.1234441E+00
          2   -1    0    0  502    0  0.00000000000E+00  0.00000000000E+00  0.12768402753E+04  0.12768402753E+04  0.00000000000E+00 0. -1.
          2   -1    0    0  503    0 -0.00000000000E+00 -0.00000000000E+00 -0.28851919123E+04  0.28851919123E+04  0.00000000000E+00 0. -1.
         24    2    1    2    0    0 -0.42978887575E+02  0.20983342464E+01 -0.99704270537E+02  0.13419189765E+03  0.78834865686E+02 0.  0.
         25    2    1    2    0    0 -0.11445934179E+03  0.57124842251E+02 -0.69556524618E+03  0.71819166034E+03  0.12499624300E+03 0.  0.
         24    2    1    2    0    0  0.90407101090E+02 -0.77895888654E+02  0.75146887246E+02  0.16256633108E+03  0.80867446743E+02 0.  0.
        -11    1    3    3    0    0 -0.60483442725E+02  0.35128207321E+01 -0.99659537635E+02  0.11663022848E+03  0.00000000000E+00 0.  1.
         12    1    3    3    0    0  0.17504555151E+02 -0.14144864858E+01 -0.44732902509E-01  0.17561669171E+02  0.00000000000E+00 0. -1.
        -11    1    5    5    0    0  0.80410851541E+02 -0.83183030646E+02  0.88064419837E+02  0.14539829323E+03  0.00000000000E+00 0.  1.
         12    1    5    5    0    0  0.99962495489E+01  0.52871419924E+01 -0.12917532592E+02  0.17168037854E+02  0.00000000000E+00 0. -1.
          5    1    4    4  501    0 -0.98584117126E+02 -0.18442649962E+02 -0.35309740797E+03  0.36709512255E+03  0.47000000000E+01 0. -1.
         -5    1    4    4    0  501 -0.15875224660E+02  0.75567492214E+02 -0.34246783821E+03  0.35109653779E+03  0.47000000000E+01 0. -1.
          1    1    1    2  502    0  0.15222864350E+03  0.70888799253E+01  0.11233634868E+04  0.11336530931E+04  0.00000000000E+00 0. -1.
          1    1    1    2  503    0 -0.85197515230E+02  0.11583832231E+02 -0.20115924944E+04  0.20134292054E+04  0.00000000000E+00 0. -1.
<mgrwt>
<rscale>  0 0.12540277E+03</rscale>
<asrwt>0</asrwt>
<pdfrwt beam="1">  1        2 0.18777063E+00 0.18289831E+03</pdfrwt>
<pdfrwt beam="2">  1        2 0.42429292E+00 0.85981404E+02</pdfrwt>
<totfact> 0.10597302E+01</totfact>
</mgrwt>
</event>
<event>
13    1  0.2038932E-008  0.1017121E+03  0.7546771E-02  0.1453429E+00
          2   -1    0    0  503    0  0.00000000000E+00  0.00000000000E+00  0.21453824732E+04  0.21453824732E+04  0.00000000000E+00 0. -1.
          2   -1    0    0  502    0 -0.00000000000E+00 -0.00000000000E+00 -0.13138975248E+04  0.13138975248E+04  0.00000000000E+00 0. -1.
         24    2    1    2    0    0 -0.24842220550E+02 -0.14271259976E+02 -0.32643491350E+03  0.33897408768E+03  0.86734506307E+02 0.  0.
         25    2    1    2    0    0  0.87214336746E+02 -0.13027637958E+03  0.14171383902E+04  0.14312528735E+04  0.12500118038E+03 0.  0.
         24    2    1    2    0    0 -0.38096966938E+02  0.31279459307E+02  0.14759602861E+03  0.17795127727E+03  0.86326623680E+02 0.  0.
        -11    1    3    3    0    0 -0.35236058215E+02 -0.45951755842E+02 -0.19960335138E+03  0.20783320607E+03  0.00000000000E+00 0.  1.
         12    1    3    3    0    0  0.10393837664E+02  0.31680495866E+02 -0.12683156212E+03  0.13114088161E+03  0.00000000000E+00 0. -1.
        -13    1    5    5    0    0 -0.41889381944E+02 -0.14766105553E+02  0.10916689685E+03  0.11785656350E+03  0.00000000000E+00 0.  1.
         14    1    5    5    0    0  0.37924150059E+01  0.46045564860E+02  0.38429131760E+02  0.60094713766E+02  0.00000000000E+00 0. -1.
          5    1    4    4  501    0 -0.28239026181E+01  0.21325870488E+02  0.10281537899E+03  0.10514684653E+03  0.47000000000E+01 0.  1.
         -5    1    4    4    0  501  0.90038239364E+02 -0.15160225007E+03  0.13143230112E+04  0.13261060269E+04  0.47000000000E+01 0.  1.
          1    1    1    2  502    0 -0.34862679165E+01  0.12346810397E+03 -0.95473522303E+03  0.96269199272E+03  0.00000000000E+00 0. -1.
          1    1    1    2  503    0 -0.20788881341E+02 -0.10199923715E+02  0.54792066607E+03  0.54840976681E+03  0.00000000000E+00 0. -1.
<mgrwt>
<rscale>  0 0.48531221E+02</rscale>
<asrwt>0</asrwt>
<pdfrwt beam="1">  1        2 0.31549742E+00 0.23156339E+02</pdfrwt>
<pdfrwt beam="2">  1        2 0.19322022E+00 0.10171208E+03</pdfrwt>
<totfact> 0.28823341E+01</totfact>
</mgrwt>
</event>
<event>
13    1  0.2038932E-008  0.1013852E+03  0.7546771E-02  0.1383372E+00
          2   -1    0    0  503    0  0.00000000000E+00  0.00000000000E+00  0.17538338990E+04  0.17538338990E+04  0.00000000000E+00 0. -1.
          2   -1    0    0  502    0 -0.00000000000E+00 -0.00000000000E+00 -0.29298589635E+04  0.29298589635E+04  0.00000000000E+00 0. -1.
         24    2    1    2    0    0 -0.17657582148E+03 -0.33150276788E+02 -0.19367231466E+04  0.19466829699E+04  0.80000484185E+02 0.  0.
         25    2    1    2    0    0  0.19289053623E+03 -0.80447276212E+02  0.27901013658E+03  0.37032852656E+03  0.12497214910E+03 0.  0.
         24    2    1    2    0    0  0.98419320161E+02  0.74593961715E+02 -0.55630538194E+02  0.15999450547E+03  0.85163744023E+02 0.  0.
        -13    1    5    5    0    0  0.11412454933E+02  0.25219643770E+02 -0.53146611325E+02  0.59923591805E+02  0.00000000000E+00 0.  1.
         14    1    5    5    0    0  0.87006865229E+02  0.49374317946E+02 -0.24839268695E+01  0.10007091367E+03  0.00000000000E+00 0. -1.
        -13    1    3    3    0    0 -0.11400875064E+03  0.10099566397E+02 -0.91460654027E+03  0.92174026709E+03  0.00000000000E+00 0.  1.
         14    1    3    3    0    0 -0.62567070837E+02 -0.43249843186E+02 -0.10221166063E+04  0.10249427029E+04  0.00000000000E+00 0. -1.
          5    1    4    4  501    0  0.62776549681E+02 -0.84847770655E+02  0.17145725618E+03  0.20139443903E+03  0.47000000000E+01 0. -1.
         -5    1    4    4    0  501  0.13011398655E+03  0.44004944426E+01  0.10755288041E+03  0.16893408754E+03  0.47000000000E+01 0. -1.
          1    1    1    2  502    0 -0.13371366493E+02  0.37570348410E+02 -0.83233361371E+03  0.83328840688E+03  0.00000000000E+00 0. -1.
          1    1    1    2  503    0 -0.10136266843E+03  0.14332428749E+01  0.13696520973E+04  0.13733984536E+04  0.00000000000E+00 0. -1.
<mgrwt>
<rscale>  0 0.63585599E+02</rscale>
<asrwt>0</asrwt>
<pdfrwt beam="1">  1        2 0.25791675E+00 0.10138522E+03</pdfrwt>
<pdfrwt beam="2">  1        2 0.43086161E+00 0.39878873E+02</pdfrwt>
<totfact> 0.68427303E+00</totfact>
</mgrwt>
</event>
<event>
13    1  0.2038932E-008  0.1011557E+03  0.7546771E-02  0.1320115E+00
          2   -1    0    0  503    0  0.00000000000E+00  0.00000000000E+00  0.41668905475E+04  0.41668905475E+04  0.00000000000E+00 0. -1.
          2   -1    0    0  502    0 -0.00000000000E+00 -0.00000000000E+00 -0.10028257555E+03  0.10028257555E+03  0.00000000000E+00 0. -1.
         24    2    1    2    0    0 -0.54505450269E+02 -0.82604625358E+00  0.12420794794E+03  0.15742327726E+03  0.79893350349E+02 0.  0.
         25    2    1    2    0    0  0.56384261212E+02  0.14859778606E+02  0.11257088804E+04  0.11341277989E+04  0.12500153119E+03 0.  0.
         24    2    1    2    0    0 -0.75222155515E+02  0.16628411083E+02  0.23748252706E+04  0.23775097443E+04  0.82599284075E+02 0.  0.
        -11    1    3    3    0    0  0.18899590328E+02  0.24139446674E+00  0.92977296112E+01  0.21064200953E+02  0.00000000000E+00 0.  1.
         12    1    3    3    0    0 -0.73405040597E+02 -0.10674407203E+01  0.11491021833E+03  0.13635907631E+03  0.00000000000E+00 0. -1.
        -13    1    5    5    0    0 -0.19150733448E+02  0.37052375790E+02  0.15351977436E+04  0.15357642205E+04  0.00000000000E+00 0.  1.
         14    1    5    5    0    0 -0.56071422067E+02 -0.20423964707E+02  0.83962752700E+03  0.84174552378E+03  0.00000000000E+00 0. -1.
          5    1    4    4  501    0 -0.37509821722E+02 -0.10662220534E+02  0.39655546634E+03  0.39849591912E+03  0.47000000000E+01 0.  1.
         -5    1    4    4    0  501  0.93894082934E+02  0.25521999139E+02  0.72915341408E+03  0.73563187976E+03  0.47000000000E+01 0.  1.
          1    1    1    2  502    0  0.11332536361E+03 -0.86268689970E+02 -0.83950441269E+01  0.14267235777E+03  0.00000000000E+00 0. -1.
          1    1    1    2  503    0 -0.39982019036E+02  0.55606546534E+02  0.45026091717E+03  0.45543994488E+03  0.00000000000E+00 0. -1.
<mgrwt>
<rscale>  0 0.83234509E+02</rscale>
<asrwt>0</asrwt>
<pdfrwt beam="1">  1        2 0.61277791E+00 0.68488319E+02</pdfrwt>
<pdfrwt beam="2">  1        2 0.14747440E-01 0.10115569E+03</pdfrwt>
<totfact> 0.36251068E+01</totfact>
</mgrwt>
</event>
<event>
13    1  0.2038932E-008  0.7509799E+02  0.7546771E-02  0.1378705E+00
          2   -1    0    0  503    0  0.00000000000E+00  0.00000000000E+00  0.30752650350E+04  0.30752650350E+04  0.00000000000E+00 0. -1.
          2   -1    0    0  502    0 -0.00000000000E+00 -0.00000000000E+00 -0.12650308365E+04  0.12650308365E+04  0.00000000000E+00 0. -1.
         24    2    1    2    0    0 -0.16978475149E+03  0.21021238304E+03 -0.52773806932E+03  0.59834951859E+03  0.80613700826E+02 0.  0.
         25    2    1    2    0    0  0.22254817120E+03 -0.11516804472E+03  0.21946695838E+04  0.22124625631E+04  0.12499857625E+03 0.  0.
         24    2    1    2    0    0  0.43916758245E+02 -0.12950203249E+03 -0.17178180900E+02  0.16802443398E+03  0.96112759000E+02 0.  0.
        -11    1    3    3    0    0 -0.72490430116E+02  0.14773343263E+03 -0.27617018094E+03  0.32148094565E+03  0.00000000000E+00 0.  1.
         12    1    3    3    0    0 -0.97294321369E+02  0.62478950406E+02 -0.25156788838E+03  0.27686857294E+03  0.00000000000E+00 0. -1.
        -13    1    5    5    0    0 -0.24757286409E+02 -0.74631869535E+02 -0.15276845774E+02  0.80101318325E+02  0.00000000000E+00 0.  1.
         14    1    5    5    0    0  0.68674044654E+02 -0.54870162957E+02 -0.19013351256E+01  0.87923115659E+02  0.00000000000E+00 0. -1.
          5    1    4    4  501    0  0.15420495332E+03 -0.13806275030E+02  0.13784864231E+04  0.13871613783E+04  0.47000000000E+01 0.  1.
         -5    1    4    4    0  501  0.68343217876E+02 -0.10136176969E+03  0.81618316069E+03  0.82530118477E+03  0.47000000000E+01 0.  1.
          1    1    1    2  502    0 -0.46433110791E+02  0.59007415512E+02 -0.59710735355E+03  0.60180985413E+03  0.00000000000E+00 0. -1.
          1    1    1    2  503    0 -0.50247067166E+02 -0.24549721337E+02  0.75758821844E+03  0.75964950161E+03  0.00000000000E+00 0. -1.
<mgrwt>
<rscale>  0 0.64805515E+02</rscale>
<asrwt>0</asrwt>
<pdfrwt beam="1">  1        2 0.45224486E+00 0.55923667E+02</pdfrwt>
<pdfrwt beam="2">  1        2 0.18603395E+00 0.75097986E+02</pdfrwt>
<totfact> 0.96941483E+00</totfact>
</mgrwt>
</event>
<event>
13    1  0.2038932E-008  0.5375228E+02  0.7546771E-02  0.1493551E+00
          2   -1    0    0  502    0  0.00000000000E+00  0.00000000000E+00  0.24435294709E+04  0.24435294709E+04  0.00000000000E+00 0. -1.
          2   -1    0    0  503    0 -0.00000000000E+00 -0.00000000000E+00 -0.17827972718E+04  0.17827972718E+04  0.00000000000E+00 0. -1.
         24    2    1    2    0    0 -0.55179847336E+01 -0.88737047163E+02 -0.16247777849E+04  0.16290871444E+04  0.78213567764E+02 0.  0.
         25    2    1    2    0    0  0.54186722941E+02  0.33012760222E+02  0.35896441761E+03  0.38536566747E+03  0.12500080510E+03 0.  0.
         24    2    1    2    0    0 -0.98550101995E+02  0.18399030508E+02  0.53569460886E+01  0.12797922160E+03  0.79368365009E+02 0.  0.
        -11    1    5    5    0    0 -0.25819111645E+02 -0.28900098411E+02  0.13022068414E+02  0.40882960755E+02  0.00000000000E+00 0.  1.
         12    1    5    5    0    0 -0.72730990349E+02  0.47299128918E+02 -0.76651223256E+01  0.87096260849E+02  0.00000000000E+00 0. -1.
        -13    1    3    3    0    0  0.83473119231E+01 -0.25933711578E+02 -0.12516104442E+03  0.12809185006E+03  0.00000000000E+00 0.  1.
         14    1    3    3    0    0 -0.13865296657E+02 -0.62803335584E+02 -0.14996167405E+04  0.15009952944E+04  0.00000000000E+00 0. -1.
          5    1    4    4  501    0  0.47754163662E+02 -0.15179942481E+02  0.44655274901E+02  0.67283537193E+02  0.47000000000E+01 0.  1.
         -5    1    4    4    0  501  0.64325592792E+01  0.48192702703E+02  0.31430914270E+03  0.31808213028E+03  0.47000000000E+01 0.  1.
          1    1    1    2  502    0  0.53554088636E+02  0.46137262359E+01  0.19988357745E+04  0.19995583963E+04  0.00000000000E+00 0. -1.
          1    1    1    2  503    0 -0.36727248487E+01  0.32711530197E+02 -0.77647154156E+02  0.84336312844E+02  0.00000000000E+00 0. -1.
<mgrwt>
<rscale>  0 0.42063847E+02</rscale>
<asrwt>0</asrwt>
<pdfrwt beam="1">  1        2 0.35934257E+00 0.53752279E+02</pdfrwt>
<pdfrwt beam="2">  1        2 0.26217607E+00 0.32917064E+02</pdfrwt>
<totfact> 0.12254586E+01</totfact>
</mgrwt>
</event>
<event>
13    1  0.2038932E-008  0.1011903E+03  0.7546771E-02  0.1361142E+00
          2   -1    0    0  503    0  0.00000000000E+00  0.00000000000E+00  0.11219318234E+04  0.11219318234E+04  0.00000000000E+00 0. -1.
         -1   -1    0    0    0  501 -0.00000000000E+00 -0.00000000000E+00 -0.64213094940E+03  0.64213094940E+03  0.00000000000E+00 0.  1.
         24    2    1    2    0    0  0.19429633273E+02  0.69494336803E+01 -0.29986474084E+03  0.31095669553E+03  0.79683112483E+02 0.  0.
         25    2    1    2    0    0  0.86679382340E+02  0.85192581672E+01  0.19863861988E+03  0.25033464694E+03  0.12499696423E+03 0.  0.
         24    2    1    2    0    0 -0.60684098230E+02 -0.12753381258E+03  0.47686482624E+02  0.16262128059E+03  0.64994208572E+02 0.  0.
        -13    1    5    5    0    0 -0.22405575221E+02 -0.67786766510E+02  0.56597980913E+02  0.91106459476E+02  0.00000000000E+00 0.  1.
         14    1    5    5    0    0 -0.38278523009E+02 -0.59747046065E+02 -0.89114982888E+01  0.71514821114E+02  0.00000000000E+00 0. -1.
        -13    1    3    3    0    0 -0.29927986001E+02 -0.66306111680E+01 -0.96732027222E+02  0.10147282612E+03  0.00000000000E+00 0.  1.
         14    1    3    3    0    0  0.49357619274E+02  0.13580044848E+02 -0.20313271362E+03  0.20948386940E+03  0.00000000000E+00 0. -1.
          5    1    4    4  502    0 -0.46598435363E+01 -0.45596850057E+02  0.60818677397E+02  0.76300644802E+02  0.47000000000E+01 0. -1.
         -5    1    4    4    0  502  0.91339225876E+02  0.54116108224E+02  0.13781994248E+03  0.17403400213E+03  0.47000000000E+01 0. -1.
          1    1    1    2  503    0  0.11604374868E+01  0.10050147443E+03  0.78122367762E+03  0.78766257208E+03  0.00000000000E+00 0. -1.
         -2    1    1    2    0  501 -0.46585354870E+02  0.11563646301E+02 -0.24788316532E+03  0.25248757763E+03  0.00000000000E+00 0.  1.
<mgrwt>
<rscale>  0 0.69692504E+02</rscale>
<asrwt>0</asrwt>
<pdfrwt beam="1">  1        2 0.16498997E+00 0.10119035E+03</pdfrwt>
<pdfrwt beam="2">  1       -1 0.94431022E-01 0.47999096E+02</pdfrwt>
<totfact> 0.35417899E+01</totfact>
</mgrwt>
</event>
<event>
13    1  0.2038932E-008  0.5829546E+02  0.7546771E-02  0.1487723E+00
          2   -1    0    0  503    0  0.00000000000E+00  0.00000000000E+00  0.20050525223E+04  0.20050525223E+04  0.00000000000E+00 0. -1.
          2   -1    0    0  502    0 -0.00000000000E+00 -0.00000000000E+00 -0.18819456781E+04  0.18819456781E+04  0.00000000000E+00 0. -1.
         24    2    1    2    0    0 -0.80181171347E+02  0.29892722040E+03 -0.76011301310E+03  0.82454668085E+03  0.79491715828E+02 0.  0.
         25    2    1    2    0    0  0.23629474753E+03 -0.58580982699E+02  0.66740683827E+03  0.72134124486E+03  0.12503745247E+03 0.  0.
         24    2    1    2    0    0 -0.24566801108E+03 -0.23376239999E+03 -0.69556407544E+03  0.77737044400E+03  0.74147102771E+02 0.  0.
        -11    1    5    5    0    0 -0.44580627416E+02 -0.53506766262E+02 -0.21659109032E+03  0.22751287169E+03  0.00000000000E+00 0.  1.
         12    1    5    5    0    0 -0.20108738366E+03 -0.18025563373E+03 -0.47897298512E+03  0.54985757231E+03  0.00000000000E+00 0. -1.
        -13    1    3    3    0    0 -0.76416739319E+02  0.14165015841E+03 -0.42105894327E+03  0.45077147107E+03  0.00000000000E+00 0.  1.
         14    1    3    3    0    0 -0.37644320284E+01  0.15727706199E+03 -0.33905406982E+03  0.37377520977E+03  0.00000000000E+00 0. -1.
          5    1    4    4  501    0  0.19988229319E+02 -0.27396118821E+02  0.23988583617E+02  0.41804530637E+02  0.47000000000E+01 0. -1.
         -5    1    4    4    0  501  0.21630651821E+03 -0.31184863878E+02  0.64341825465E+03  0.67953671422E+03  0.47000000000E+01 0. -1.
          1    1    1    2  502    0  0.58017797467E+02 -0.44588306872E+01 -0.32338236928E+03  0.32857587062E+03  0.00000000000E+00 0. -1.
          1    1    1    2  503    0  0.31536637435E+02 -0.21250070192E+01  0.12347594637E+04  0.12351639601E+04  0.00000000000E+00 0. -1.
<mgrwt>
<rscale>  0 0.42925653E+02</rscale>
<asrwt>0</asrwt>
<pdfrwt beam="1">  1        2 0.29486066E+00 0.31608150E+02</pdfrwt>
<pdfrwt beam="2">  1        2 0.27675672E+00 0.58295460E+02</pdfrwt>
<totfact> 0.17795747E+01</totfact>
</mgrwt>
</event>
<event>
13    1  0.2038932E-008  0.3952357E+02  0.7546771E-02  0.1515965E+00
          2   -1    0    0  503    0  0.00000000000E+00  0.00000000000E+00  0.12710922063E+04  0.12710922063E+04  0.00000000000E+00 0. -1.
          2   -1    0    0  502    0 -0.00000000000E+00 -0.00000000000E+00 -0.34801033886E+03  0.34801033886E+03  0.00000000000E+00 0. -1.
         24    2    1    2    0    0  0.27974839191E+02 -0.21595226287E+02 -0.21098487635E+03  0.22900473606E+03  0.81728854550E+02 0.  0.
         25    2    1    2    0    0  0.39321367224E+02  0.13906660269E+03  0.72315197615E+03  0.74797035264E+03  0.12500071165E+03 0.  0.
         24    2    1    2    0    0 -0.75497281870E+02 -0.42882233245E+02  0.23544462851E+03  0.26339768800E+03  0.80034014359E+02 0.  0.
        -11    1    5    5    0    0  0.14292824860E+02 -0.36443122201E+01  0.10706834878E+02  0.18226413996E+02  0.00000000000E+00 0.  1.
         12    1    5    5    0    0 -0.89790106730E+02 -0.39237921025E+02  0.22473779363E+03  0.24517127401E+03  0.00000000000E+00 0. -1.
        -13    1    3    3    0    0 -0.23357631705E+02  0.26817398048E+01 -0.11585262241E+03  0.11821421576E+03  0.00000000000E+00 0.  1.
         14    1    3    3    0    0  0.51332470896E+02 -0.24276966091E+02 -0.95132253932E+02  0.11079052030E+03  0.00000000000E+00 0. -1.
          5    1    4    4  501    0  0.80970713957E+02  0.11108541116E+03  0.58385517621E+03  0.59983762960E+03  0.47000000000E+01 0.  1.
         -5    1    4    4    0  501 -0.41649346733E+02  0.27981191539E+02  0.13929679994E+03  0.14813272305E+03  0.47000000000E+01 0.  1.
          1    1    1    2  502    0 -0.60658569810E+01 -0.37933573537E+02 -0.96533699603E+02  0.10389661102E+03  0.00000000000E+00 0. -1.
          1    1    1    2  503    0  0.14266932437E+02 -0.36655569626E+02  0.27200383876E+03  0.27483315747E+03  0.00000000000E+00 0. -1.
<mgrwt>
<rscale>  0 0.38965596E+02</rscale>
<asrwt>0</asrwt>
<pdfrwt beam="1">  1        2 0.18692532E+00 0.39523569E+02</pdfrwt>
<pdfrwt beam="2">  1        2 0.51177991E-01 0.38415500E+02</pdfrwt>
<totfact> 0.33501845E+02</totfact>
</mgrwt>
</event>
<event>
13    1  0.2038932E-008  0.3624205E+02  0.7546771E-02  0.1588432E+00
          4   -1    0    0  503    0 -0.00000000000E+00  0.00000000000E+00  0.22213670979E+03  0.22213670979E+03  0.00000000000E+00 0. -1.
          2   -1    0    0  502    0  0.00000000000E+00 -0.00000000000E+00 -0.22214816920E+04  0.22214816920E+04  0.00000000000E+00 0. -1.
         24    2    1    2    0    0  0.13448510720E+03 -0.21112351240E+01 -0.65331310896E+02  0.17071065575E+03  0.82360466431E+02 0.  0.
         25    2    1    2    0    0 -0.38635307986E+03  0.35244151872E+02 -0.91856222512E+03  0.10049339305E+04  0.12499916256E+03 0.  0.
         24    2    1    2    0    0  0.28577957093E+03 -0.96086227926E+01 -0.75367819846E+03  0.81024515259E+03  0.81878517681E+02 0.  0.
        -13    1    3    3    0    0  0.69850729519E+01 -0.22658996531E+02  0.41335228577E+01  0.24068805105E+02  0.00000000000E+00 0.  1.
         14    1    3    3    0    0  0.12750003425E+03  0.20547761407E+02 -0.69464833753E+02  0.14664185065E+03  0.00000000000E+00 0. -1.
        -13    1    5    5    0    0  0.13551732198E+03 -0.29432288458E+02 -0.44937360274E+03  0.47028484879E+03  0.00000000000E+00 0.  1.
         14    1    5    5    0    0  0.15026224895E+03  0.19823665666E+02 -0.30430459572E+03  0.33996030379E+03  0.00000000000E+00 0. -1.
          5    1    4    4  501    0 -0.36987541975E+03  0.62030924537E+02 -0.82919530339E+03  0.91007834987E+03  0.47000000000E+01 0.  1.
         -5    1    4    4    0  501 -0.16477660110E+02 -0.26786772665E+02 -0.89366921730E+02  0.94855580606E+02  0.47000000000E+01 0.  1.
          1    1    1    2  502    0  0.22363738076E+01 -0.26236764154E+02 -0.35589494323E+03  0.35686773429E+03  0.00000000000E+00 0. -1.
          3    1    1    2  503    0 -0.36147972071E+02  0.27124701980E+01  0.94121695478E+02  0.10086092870E+03  0.00000000000E+00 0. -1.
<mgrwt>
<rscale>  0 0.30892107E+02</rscale>
<asrwt>0</asrwt>
<pdfrwt beam="2">  1        2 0.32668849E+00 0.26331904E+02</pdfrwt>
<pdfrwt beam="1">  1        4 0.32667163E-01 0.36242053E+02</pdfrwt>
<totfact> 0.33589989E+01</totfact>
</mgrwt>
</event>
<event>
13    1  0.2038932E-008  0.1755224E+03  0.7546771E-02  0.1183191E+00
         -1   -1    0    0    0  501 -0.00000000000E+00  0.00000000000E+00  0.23950376057E+04  0.23950376057E+04  0.00000000000E+00 0.  1.
          2   -1    0    0  503    0  0.00000000000E+00 -0.00000000000E+00 -0.21506063038E+04  0.21506063038E+04  0.00000000000E+00 0. -1.
         24    2    1    2    0    0  0.10388783935E+02  0.16164959742E+03  0.66561949671E+03  0.68943105786E+03  0.77636009443E+02 0.  0.
         25    2    1    2    0    0 -0.25754425365E+03 -0.68125006154E+02 -0.16347960142E+03  0.33663363421E+03  0.12500625804E+03 0.  0.
         24    2    1    2    0    0  0.74180371603E+02 -0.61636492429E+02 -0.25831332282E+03  0.28694717445E+03  0.79442579575E+02 0.  0.
        -11    1    5    5    0    0  0.48106330711E+02 -0.74749052679E+02 -0.22870575803E+03  0.24537311117E+03  0.00000000000E+00 0.  1.
         12    1    5    5    0    0  0.26074040891E+02  0.13112560250E+02 -0.29607564792E+02  0.41574063280E+02  0.00000000000E+00 0. -1.
        -13    1    3    3    0    0  0.41577186279E+02  0.11149941766E+03  0.40001830188E+03  0.41734329323E+03  0.00000000000E+00 0.  1.
         14    1    3    3    0    0 -0.31188402343E+02  0.50150179761E+02  0.26560119483E+03  0.27208776464E+03  0.00000000000E+00 0. -1.
          5    1    4    4  502    0 -0.77650213916E+02 -0.74466121918E+02 -0.27935253614E+02  0.11125298841E+03  0.47000000000E+01 0.  1.
         -5    1    4    4    0  502 -0.17989403973E+03  0.63411157638E+01 -0.13554434781E+03  0.22538064580E+03  0.47000000000E+01 0.  1.
          1    1    1    2  503    0  0.16918317210E+03  0.12300308374E+03 -0.16055014195E+04  0.16190699529E+04  0.00000000000E+00 0. -1.
         -2    1    1    2    0  501  0.37919260097E+01 -0.15489118258E+03  0.16061061489E+04  0.16135620901E+04  0.00000000000E+00 0.  1.
<mgrwt>
<rscale>  0 0.16497616E+03</rscale>
<asrwt>0</asrwt>
<pdfrwt beam="2">  1        2 0.31626563E+00 0.17552242E+03</pdfrwt>
<pdfrwt beam="1">  1       -1 0.35221141E+00 0.15506358E+03</pdfrwt>
<totfact> 0.16440524E-01</totfact>
</mgrwt>
</event>
<event>
13    1  0.2038932E-008  0.1789796E+03  0.7546771E-02  0.1244540E+00
          2   -1    0    0  502    0  0.00000000000E+00  0.00000000000E+00  0.20690286858E+04  0.20690286858E+04  0.00000000000E+00 0. -1.
          2   -1    0    0  503    0 -0.00000000000E+00 -0.00000000000E+00 -0.76665691359E+03  0.76665691359E+03  0.00000000000E+00 0. -1.
         24    2    1    2    0    0 -0.36280696003E+02  0.26791262183E+03 -0.10709562158E+03  0.30182371281E+03  0.80836994098E+02 0.  0.
         25    2    1    2    0    0 -0.14182875488E+01  0.41683660686E+02  0.53247144409E+03  0.54853550134E+03  0.12500327337E+03 0.  0.
         24    2    1    2    0    0  0.59158513587E+02 -0.10128634538E+03 -0.24009229913E+03  0.27926501166E+03  0.81154058096E+02 0.  0.
        -11    1    5    5    0    0  0.36248607854E+02  0.87353700826E+00 -0.81862055019E+02  0.89532791144E+02  0.00000000000E+00 0.  1.
         12    1    5    5    0    0  0.22909905734E+02 -0.10215988239E+03 -0.15823024411E+03  0.18973222051E+03  0.00000000000E+00 0. -1.
        -11    1    3    3    0    0 -0.44175597207E+02  0.26624724797E+03 -0.11219511300E+03  0.29227867494E+03  0.00000000000E+00 0.  1.
         12    1    3    3    0    0  0.78949012042E+01  0.16653738554E+01  0.50994914279E+01  0.95450378693E+01  0.00000000000E+00 0. -1.
          5    1    4    4  501    0 -0.35099911353E+01 -0.24997482008E+02  0.22327939243E+02  0.34026769100E+02  0.47000000000E+01 0. -1.
         -5    1    4    4    0  501  0.20917035865E+01  0.66681142694E+02  0.51014350484E+03  0.51450873224E+03  0.47000000000E+01 0. -1.
          1    1    1    2  502    0 -0.65631832428E+02 -0.44496054979E+02  0.13859095613E+04  0.13881760510E+04  0.00000000000E+00 0. -1.
          1    1    1    2  503    0  0.44172302392E+02 -0.16381388216E+03 -0.26882131249E+03  0.31788532262E+03  0.00000000000E+00 0. -1.
<mgrwt>
<rscale>  0 0.11912972E+03</rscale>
<asrwt>0</asrwt>
<pdfrwt beam="1">  1        2 0.30426892E+00 0.79293356E+02</pdfrwt>
<pdfrwt beam="2">  1        2 0.11274366E+00 0.17897958E+03</pdfrwt>
<totfact> 0.54479655E+01</totfact>
</mgrwt>
</event>
<event>
13    1  0.2038932E-008  0.1285008E+03  0.7546771E-02  0.1362481E+00
          2   -1    0    0  502    0  0.00000000000E+00  0.00000000000E+00  0.50121267613E+03  0.50121267613E+03  0.00000000000E+00 0. -1.
          2   -1    0    0  503    0 -0.00000000000E+00 -0.00000000000E+00 -0.27816818122E+04  0.27816818122E+04  0.00000000000E+00 0. -1.
         24    2    1    2    0    0  0.14580813307E+03  0.60182327913E+02 -0.53478027762E+03  0.56325801779E+03  0.79923244552E+02 0.  0.
         25    2    1    2    0    0 -0.32471283427E+03  0.29942555844E+02 -0.35284591140E+03  0.49644067556E+03  0.12497250003E+03 0.  0.
         24    2    1    2    0    0  0.32683850222E+02 -0.58214157964E+02 -0.50639379824E+03  0.51866969329E+03  0.90146822356E+02 0.  0.
        -13    1    5    5    0    0 -0.13711911784E+02  0.60900626343E+01 -0.24631650826E+03  0.24677302857E+03  0.00000000000E+00 0.  1.
         14    1    5    5    0    0  0.46395762007E+02 -0.64304220599E+02 -0.26007728998E+03  0.27189666472E+03  0.00000000000E+00 0. -1.
        -13    1    3    3    0    0 -0.83611711362E+00  0.26314642932E+02 -0.79602989032E+02  0.83843875073E+02  0.00000000000E+00 0.  1.
         14    1    3    3    0    0  0.14664425018E+03  0.33867684981E+02 -0.45517728859E+03  0.47941414272E+03  0.00000000000E+00 0. -1.
          5    1    4    4  501    0 -0.80600600271E+02  0.60277595942E+02 -0.76977466838E+02  0.12679694688E+03  0.47000000000E+01 0.  1.
         -5    1    4    4    0  501 -0.24411223400E+03 -0.30335040098E+02 -0.27586844457E+03  0.36964372868E+03  0.47000000000E+01 0.  1.
          1    1    1    2  502    0  0.37366671627E+02  0.83797928363E+00  0.40568416813E+03  0.40740227617E+03  0.00000000000E+00 0. -1.
          1    1    1    2  503    0  0.10885417935E+03 -0.32748705077E+02 -0.12921333170E+04  0.12971238256E+04  0.00000000000E+00 0. -1.
<mgrwt>
<rscale>  0 0.69302618E+02</rscale>
<asrwt>0</asrwt>
<pdfrwt beam="1">  1        2 0.73707747E-01 0.37376067E+02</pdfrwt>
<pdfrwt beam="2">  1        2 0.40907085E+00 0.12850076E+03</pdfrwt>
<totfact> 0.37771415E+01</totfact>
</mgrwt>
</event>
<event>
13    1  0.2038932E-008  0.1369193E+03  0.7546771E-02  0.1425092E+00
         -3   -1    0    0    0  501 -0.00000000000E+00  0.00000000000E+00  0.23927576857E+04  0.23927576857E+04  0.00000000000E+00 0.  1.
          2   -1    0    0  503    0  0.00000000000E+00 -0.00000000000E+00 -0.10321126455E+04  0.10321126455E+04  0.00000000000E+00 0. -1.
         24    2    1    2    0    0 -0.22169643401E+02 -0.65518068378E+02  0.10049813337E+03  0.14527520176E+03  0.78872676271E+02 0.  0.
         25    2    1    2    0    0  0.32826898796E+02  0.22680163714E+03 -0.91458816156E+01  0.26120132580E+03  0.12500359017E+03 0.  0.
         24    2    1    2    0    0  0.99750089466E+02 -0.49442476734E+02  0.94124122344E+02  0.16517078600E+03  0.77636327106E+02 0.  0.
        -11    1    5    5    0    0  0.48977985755E+02  0.13819092025E+02  0.55592872345E+02  0.75368281449E+02  0.00000000000E+00 0.  1.
         12    1    5    5    0    0  0.50772103711E+02 -0.63261568759E+02  0.38531249999E+02  0.89802504551E+02  0.00000000000E+00 0. -1.
        -13    1    3    3    0    0  0.15749092127E+02 -0.27966854475E+02  0.69937258126E+00  0.32104018036E+02  0.00000000000E+00 0.  1.
         14    1    3    3    0    0 -0.37918735528E+02 -0.37551213903E+02  0.99798760792E+02  0.11317118372E+03  0.00000000000E+00 0. -1.
          5    1    4    4  502    0  0.49345654094E+02  0.12405988046E+03 -0.58609087132E+02  0.14588681439E+03  0.47000000000E+01 0.  1.
         -5    1    4    4    0  502 -0.16518755298E+02  0.10274175667E+03  0.49463205516E+02  0.11531451141E+03  0.47000000000E+01 0.  1.
          1    1    1    2  503    0 -0.16563852131E+02 -0.13334130273E+02 -0.83659445366E+03  0.83686464863E+03  0.00000000000E+00 0. -1.
         -4    1    1    2    0  501 -0.93843492730E+02 -0.98506961753E+02  0.20117631197E+04  0.20163583691E+04  0.00000000000E+00 0.  1.
<mgrwt>
<rscale>  0 0.53957955E+02</rscale>
<asrwt>0</asrwt>
<pdfrwt beam="2">  1        2 0.15178127E+00 0.21264060E+02</pdfrwt>
<pdfrwt beam="1">  1       -3 0.35187613E+00 0.13691934E+03</pdfrwt>
<totfact> 0.46379361E-01</totfact>
</mgrwt>
</event>
<event>
13    1  0.2038932E-008  0.7566249E+02  0.7546771E-02  0.1502283E+00
          2   -1    0    0  502    0  0.00000000000E+00  0.00000000000E+00  0.12314573570E+04  0.12314573570E+04  0.00000000000E+00 0. -1.
          2   -1    0    0  503    0 -0.00000000000E+00 -0.00000000000E+00 -0.45883056934E+03  0.45883056934E+03  0.00000000000E+00 0. -1.
         24    2    1    2    0    0  0.56982825637E+01 -0.56069810105E+00  0.21490841370E+02  0.80689724677E+02  0.77564106384E+02 0.  0.
         25    2    1    2    0    0  0.26445656350E+02  0.48572544035E+02 -0.12906105745E+03  0.18799184009E+03  0.12500204245E+03 0.  0.
         24    2    1    2    0    0  0.49182535863E+02 -0.26973171523E+02 -0.96040957281E+01  0.10448150442E+03  0.87622327604E+02 0.  0.
        -13    1    5    5    0    0  0.74390120908E+02 -0.25794396372E+02 -0.88985235313E+01  0.79236511117E+02  0.00000000000E+00 0.  1.
         14    1    5    5    0    0 -0.25207585045E+02 -0.11787751506E+01 -0.70557219684E+00  0.25244993301E+02  0.00000000000E+00 0. -1.
        -13    1    3    3    0    0 -0.25520021915E+02 -0.26350470040E+02  0.52300644806E+01  0.37053641715E+02  0.00000000000E+00 0.  1.
         14    1    3    3    0    0  0.31218304479E+02  0.25789771939E+02  0.16260776889E+02  0.43636082962E+02  0.00000000000E+00 0. -1.
          5    1    4    4  501    0 -0.22658113466E+02 -0.28673478667E+02 -0.10846791029E+02  0.38409651916E+02  0.47000000000E+01 0. -1.
         -5    1    4    4    0  501  0.49103769816E+02  0.77246022702E+02 -0.11821426642E+03  0.14958218818E+03  0.47000000000E+01 0. -1.
          1    1    1    2  502    0 -0.75632442207E+02  0.23176576103E+00  0.11015955368E+04  0.11041888637E+04  0.00000000000E+00 0. -1.
          1    1    1    2  503    0 -0.56940325698E+01 -0.21270440172E+02 -0.21179443732E+03  0.21293599346E+03  0.00000000000E+00 0. -1.
<mgrwt>
<rscale>  0 0.40817179E+02</rscale>
<asrwt>0</asrwt>
<pdfrwt beam="1">  1        2 0.18109667E+00 0.75662494E+02</pdfrwt>
<pdfrwt beam="2">  1        2 0.67475084E-01 0.22019392E+02</pdfrwt>
<totfact> 0.25416063E+02</totfact>
</mgrwt>
</event>
<event>
13    1  0.2038932E-008  0.1247142E+03  0.7546771E-02  0.1262067E+00
          2   -1    0    0  502    0  0.00000000000E+00  0.00000000000E+00  0.12867453265E+04  0.12867453265E+04  0.00000000000E+00 0. -1.
          2   -1    0    0  503    0 -0.00000000000E+00 -0.00000000000E+00 -0.38632238782E+04  0.38632238782E+04  0.00000000000E+00 0. -1.
         24    2    1    2    0    0 -0.85293186182E+02  0.54292348787E+02 -0.18015842151E+04  0.18062315651E+04  0.80896203793E+02 0.  0.
         25    2    1    2    0    0  0.12539919568E+03 -0.27428782573E+03  0.31776619430E+03  0.45558682665E+03  0.12500093101E+03 0.  0.
         24    2    1    2    0    0 -0.40343120549E+02  0.88940649658E+02  0.19623178325E+02  0.12859679588E+03  0.81326872838E+02 0.  0.
        -11    1    5    5    0    0 -0.46598886650E+02  0.98117192069E+02  0.30736186749E+02  0.11288557389E+03  0.00000000000E+00 0.  1.
         12    1    5    5    0    0  0.62557661015E+01 -0.91765424116E+01 -0.11113008424E+02  0.15711221989E+02  0.00000000000E+00 0. -1.
        -11    1    3    3    0    0 -0.97532913269E+01 -0.14322734161E+02 -0.62195706359E+03  0.62219840594E+03  0.00000000000E+00 0.  1.
         12    1    3    3    0    0 -0.75539894855E+02  0.68615082948E+02 -0.11796271515E+04  0.11840331591E+04  0.00000000000E+00 0. -1.
          5    1    4    4  501    0  0.10677421013E+03 -0.18100179779E+03  0.28650534506E+03  0.35534460106E+03  0.47000000000E+01 0.  1.
         -5    1    4    4    0  501  0.18624985548E+02 -0.93286027941E+02  0.31260849240E+02  0.10024222559E+03  0.47000000000E+01 0.  1.
          1    1    1    2  502    0  0.86473946410E+02  0.40780887156E+02  0.81883815251E+03  0.82440083950E+03  0.00000000000E+00 0. -1.
          1    1    1    2  503    0 -0.86236835357E+02  0.90273940126E+02 -0.19311218617E+04  0.19351531776E+04  0.00000000000E+00 0. -1.
<mgrwt>
<rscale>  0 0.10919537E+03</rscale>
<asrwt>0</asrwt>
<pdfrwt beam="1">  1        2 0.18922726E+00 0.95607657E+02</pdfrwt>
<pdfrwt beam="2">  1        2 0.56812115E+00 0.12471416E+03</pdfrwt>
<totfact> 0.27889913E+00</totfact>
</mgrwt>
</event>
<event>
13    1  0.2038932E-008  0.4677663E+02  0.7546771E-02  0.1574318E+00
          2   -1    0    0  503    0  0.00000000000E+00  0.00000000000E+00  0.21680944527E+04  0.21680944527E+04  0.00000000000E+00 0. -1.
          2   -1    0    0  502    0 -0.00000000000E+00 -0.00000000000E+00 -0.66999611297E+03  0.66999611297E+03  0.00000000000E+00 0. -1.
         24    2    1    2    0    0 -0.60673962119E+02 -0.57187706837E+01 -0.45616433179E+02  0.12244859516E+03  0.95910194788E+02 0.  0.
         25    2    1    2    0    0  0.18482850684E+03  0.34184077256E+02  0.13924086594E+04  0.14105879151E+04  0.12500505276E+03 0.  0.
         24    2    1    2    0    0 -0.71731081793E+02 -0.43628366386E+02  0.90162510269E+02  0.14583426043E+03  0.78035702133E+02 0.  0.
        -13    1    3    3    0    0  0.37664315330E+01 -0.40051166051E+02 -0.21108744701E+02  0.45429737082E+02  0.00000000000E+00 0.  1.
         14    1    3    3    0    0 -0.64440393652E+02  0.34332395367E+02 -0.24507688478E+02  0.77018858082E+02  0.00000000000E+00 0. -1.
        -13    1    5    5    0    0 -0.10969821763E+02  0.21246107975E+02  0.92536290349E+01  0.25639105755E+02  0.00000000000E+00 0.  1.
         14    1    5    5    0    0 -0.60761260030E+02 -0.64874474361E+02  0.80908881234E+02  0.12019515467E+03  0.00000000000E+00 0. -1.
          5    1    4    4  501    0  0.55605123881E+02  0.53157352699E+01  0.13440024944E+03  0.14562178372E+03  0.47000000000E+01 0.  1.
         -5    1    4    4    0  501  0.12922338296E+03  0.28868341986E+02  0.12580084100E+04  0.12649661314E+04  0.47000000000E+01 0.  1.
          1    1    1    2  502    0 -0.35861626847E+02  0.30030113977E+02 -0.54783822788E+03  0.54983141776E+03  0.00000000000E+00 0. -1.
          1    1    1    2  503    0 -0.16561836079E+02 -0.14867054163E+02  0.60898183109E+03  0.60938837723E+03  0.00000000000E+00 0. -1.
<mgrwt>
<rscale>  0 0.32265376E+02</rscale>
<asrwt>0</asrwt>
<pdfrwt beam="1">  1        2 0.31883742E+00 0.22255869E+02</pdfrwt>
<pdfrwt beam="2">  1        2 0.98528840E-01 0.46776626E+02</pdfrwt>
<totfact> 0.69658556E+01</totfact>
</mgrwt>
</event>
<event>
13    1  0.2038932E-008  0.8705422E+02  0.7546771E-02  0.1462801E+00
         -3   -1    0    0    0  501 -0.00000000000E+00  0.00000000000E+00  0.12695481743E+04  0.12695481743E+04  0.00000000000E+00 0.  1.
          2   -1    0    0  503    0  0.00000000000E+00 -0.00000000000E+00 -0.83346602882E+03  0.83346602882E+03  0.00000000000E+00 0. -1.
         24    2    1    2    0    0 -0.61224440690E+02 -0.45839645553E+02  0.90774736801E+03  0.91456840967E+03  0.81119582158E+02 0.  0.
         25    2    1    2    0    0  0.78198050075E+02  0.10358218073E+03 -0.26217543191E+03  0.31812749886E+03  0.12499978094E+03 0.  0.
         24    2    1    2    0    0  0.32088685155E+02  0.60424845108E+01  0.87260256830E+02  0.12317149298E+03  0.80564687838E+02 0.  0.
        -11    1    5    5    0    0  0.48007202571E+02 -0.11327202687E+02  0.22416811359E+02  0.54180351152E+02  0.00000000000E+00 0.  1.
         12    1    5    5    0    0 -0.15918517416E+02  0.17369687198E+02  0.64843445470E+02  0.68991141827E+02  0.00000000000E+00 0. -1.
        -13    1    3    3    0    0 -0.69884587713E+02 -0.30336116547E+02  0.44455797142E+03  0.45103871842E+03  0.00000000000E+00 0.  1.
         14    1    3    3    0    0  0.86601470224E+01 -0.15503529006E+02  0.46318939659E+03  0.46352969125E+03  0.00000000000E+00 0. -1.
          5    1    4    4  502    0  0.84531317981E+02  0.33429480998E+02 -0.21430100455E+03  0.23283059178E+03  0.47000000000E+01 0.  1.
         -5    1    4    4    0  502 -0.63332679061E+01  0.70152699733E+02 -0.47874427361E+02  0.85296907080E+02  0.47000000000E+01 0.  1.
          1    1    1    2  503    0 -0.70739664646E+02 -0.50797586057E+02 -0.51759007277E+03  0.52486567646E+03  0.00000000000E+00 0. -1.
         -4    1    1    2    0  501  0.21677370107E+02 -0.12987433631E+02  0.22084002531E+03  0.22228112512E+03  0.00000000000E+00 0.  1.
<mgrwt>
<rscale>  0 0.46902830E+02</rscale>
<asrwt>0</asrwt>
<pdfrwt beam="2">  1        2 0.12256853E+00 0.87054218E+02</pdfrwt>
<pdfrwt beam="1">  1       -3 0.18669826E+00 0.25270176E+02</pdfrwt>
<totfact> 0.46283191E+00</totfact>
</mgrwt>
</event>
<event>
13    1  0.2038932E-008  0.1719835E+03  0.7546771E-02  0.1213392E+00
          2   -1    0    0  503    0  0.00000000000E+00  0.00000000000E+00  0.99789762571E+03  0.99789762571E+03  0.00000000000E+00 0. -1.
          2   -1    0    0  502    0 -0.00000000000E+00 -0.00000000000E+00 -0.21601234532E+04  0.21601234532E+04  0.00000000000E+00 0. -1.
         24    2    1    2    0    0  0.14726106420E+03 -0.21585847899E+03  0.14699374110E+03  0.31055428971E+03  0.80969765673E+02 0.  0.
         25    2    1    2    0    0 -0.27687672702E+03 -0.23592311427E+03  0.23897747039E+03  0.45282743223E+03  0.12498805628E+03 0.  0.
         24    2    1    2    0    0 -0.54692342366E+02  0.26736575062E+03 -0.49008916714E+02  0.28877543048E+03  0.80707362832E+02 0.  0.
        -11    1    5    5    0    0  0.10938728414E+02  0.23229063048E+01 -0.48106201611E+01  0.12173485095E+02  0.00000000000E+00 0.  1.
         12    1    5    5    0    0 -0.65631070780E+02  0.26504284431E+03 -0.44198296553E+02  0.27660194538E+03  0.00000000000E+00 0. -1.
        -13    1    3    3    0    0 -0.95139632598E+01 -0.10762274966E+02  0.20958883944E+01  0.14516707874E+02  0.00000000000E+00 0.  1.
         14    1    3    3    0    0  0.15677502746E+03 -0.20509620402E+03  0.14489785270E+03  0.29603758183E+03  0.00000000000E+00 0. -1.
          5    1    4    4  501    0 -0.17337331133E+03 -0.11443179822E+03  0.20014433592E+03  0.28850093020E+03  0.47000000000E+01 0. -1.
         -5    1    4    4    0  501 -0.10350341569E+03 -0.12149131605E+03  0.38833134465E+02  0.16432650202E+03  0.47000000000E+01 0. -1.
          1    1    1    2  502    0  0.15452716834E+03  0.74490790711E+02 -0.17875834825E+04  0.17957957096E+04  0.00000000000E+00 0. -1.
          1    1    1    2  503    0  0.29780836852E+02  0.10992505194E+03  0.28839536027E+03  0.31006821687E+03  0.00000000000E+00 0. -1.
<mgrwt>
<rscale>  0 0.13995287E+03</rscale>
<asrwt>0</asrwt>
<pdfrwt beam="1">  1        2 0.14674965E+00 0.11388773E+03</pdfrwt>
<pdfrwt beam="2">  1        2 0.31766521E+00 0.17198346E+03</pdfrwt>
<totfact> 0.32956042E+01</totfact>
</mgrwt>
</event>
<event>
13    1  0.2038932E-008  0.6129920E+02  0.7546771E-02  0.1544004E+00
          2   -1    0    0  503    0  0.00000000000E+00  0.00000000000E+00  0.15396467100E+04  0.15396467100E+04  0.00000000000E+00 0. -1.
          2   -1    0    0  502    0 -0.00000000000E+00 -0.00000000000E+00 -0.70446895833E+03  0.70446895833E+03  0.00000000000E+00 0. -1.
         24    2    1    2    0    0 -0.39818544228E+02 -0.17946392789E+02 -0.19625683471E+03  0.21316736282E+03  0.70823653672E+02 0.  0.
         25    2    1    2    0    0  0.31412697120E+02  0.89828630830E+02  0.34597134446E+03  0.37997252000E+03  0.12500801697E+03 0.  0.
         24    2    1    2    0    0 -0.37679716803E+02 -0.69323683277E+02  0.38790257446E+02  0.11930869705E+03  0.80649531908E+02 0.  0.
        -11    1    5    5    0    0 -0.61906561196E+02 -0.54129603828E+02  0.18625262484E+02  0.84316882843E+02  0.00000000000E+00 0.  1.
         12    1    5    5    0    0  0.24226844393E+02 -0.15194079450E+02  0.20164994962E+02  0.34991814205E+02  0.00000000000E+00 0. -1.
        -13    1    3    3    0    0  0.77644118630E+01  0.10737956961E+02 -0.52656278141E+01  0.14258914670E+02  0.00000000000E+00 0.  1.
         14    1    3    3    0    0 -0.47582956091E+02 -0.28684349750E+02 -0.19099120690E+03  0.19890844815E+03  0.00000000000E+00 0. -1.
          5    1    4    4  501    0 -0.19344083368E+02  0.75891439856E+02  0.93629808098E+02  0.12215701032E+03  0.47000000000E+01 0.  1.
         -5    1    4    4    0  501  0.50756780488E+02  0.13937190974E+02  0.25234153637E+03  0.25781550968E+03  0.47000000000E+01 0.  1.
          1    1    1    2  502    0 -0.13968900356E+02 -0.15120975371E+02 -0.44139292950E+03  0.44187271050E+03  0.00000000000E+00 0. -1.
          1    1    1    2  503    0  0.60054464267E+02  0.12562420608E+02  0.10880659140E+04  0.10897943780E+04  0.00000000000E+00 0. -1.
<mgrwt>
<rscale>  0 0.35523111E+02</rscale>
<asrwt>0</asrwt>
<pdfrwt beam="1">  1        2 0.22641863E+00 0.61299199E+02</pdfrwt>
<pdfrwt beam="2">  1        2 0.10359838E+00 0.20585774E+02</pdfrwt>
<totfact> 0.11715738E+02</totfact>
</mgrwt>
</event>
<event>
13    1  0.2038932E-008  0.1426623E+03  0.7546771E-02  0.1346178E+00
          4   -1    0    0  503    0 -0.00000000000E+00  0.00000000000E+00  0.20452785645E+04  0.20452785645E+04  0.00000000000E+00 0. -1.
          2   -1    0    0  502    0  0.00000000000E+00 -0.00000000000E+00 -0.63702026849E+03  0.63702026849E+03  0.00000000000E+00 0. -1.
         24    2    1    2    0    0 -0.15746338022E+03 -0.10051979827E+03  0.12399479639E+03  0.23856402650E+03  0.81480913420E+02 0.  0.
         25    2    1    2    0    0  0.35903901963E+03  0.18415280055E+03 -0.24894996565E+03  0.49032848262E+03  0.12499865563E+03 0.  0.
         24    2    1    2    0    0 -0.69311553424E+02 -0.42496227186E+02  0.72709118733E+03  0.73604094719E+03  0.80527389674E+02 0.  0.
        -11    1    3    3    0    0 -0.25445505287E+02 -0.56288116463E+02  0.57004531787E+02  0.84055591358E+02  0.00000000000E+00 0.  1.
         12    1    3    3    0    0 -0.13201787493E+03 -0.44231681804E+02  0.66990264605E+02  0.15450843514E+03  0.00000000000E+00 0. -1.
        -11    1    5    5    0    0 -0.10295706077E+02  0.45506869998E+01  0.40762860979E+03  0.40778400390E+03  0.00000000000E+00 0.  1.
         12    1    5    5    0    0 -0.59015847346E+02 -0.47046914185E+02  0.31946257754E+03  0.32825694330E+03  0.00000000000E+00 0. -1.
          5    1    4    4  501    0  0.81911965079E+02  0.77949262359E+02 -0.18769249938E+02  0.11471718384E+03  0.47000000000E+01 0.  1.
         -5    1    4    4    0  501  0.27712705455E+03  0.10620353819E+03 -0.23018071571E+03  0.37561129878E+03  0.47000000000E+01 0.  1.
          1    1    1    2  502    0 -0.12558565070E+02 -0.36557442660E+02 -0.20022052550E+03  0.20391768683E+03  0.00000000000E+00 0. -1.
          3    1    1    2  503    0 -0.11970552091E+03 -0.45793324389E+01  0.10063428035E+04  0.10134476899E+04  0.00000000000E+00 0. -1.
<mgrwt>
<rscale>  0 0.74259861E+02</rscale>
<asrwt>0</asrwt>
<pdfrwt beam="2">  1        2 0.93679452E-01 0.38654420E+02</pdfrwt>
<pdfrwt beam="1">  1        4 0.30077626E+00 0.14266226E+03</pdfrwt>
<totfact> 0.10220358E+00</totfact>
</mgrwt>
</event>
<event>
13    1  0.2038932E-008  0.1242586E+03  0.7546771E-02  0.1279404E+00
          4   -1    0    0  503    0 -0.00000000000E+00  0.00000000000E+00  0.67865277922E+03  0.67865277922E+03  0.00000000000E+00 0. -1.
          2   -1    0    0  502    0  0.00000000000E+00 -0.00000000000E+00 -0.74497706211E+03  0.74497706211E+03  0.00000000000E+00 0. -1.
         24    2    1    2    0    0 -0.84827764554E+02 -0.32156111125E+02  0.26404081820E+03  0.28934176003E+03  0.75969304985E+02 0.  0.
         25    2    1    2    0    0 -0.19417270408E+01 -0.38262111166E+02 -0.22041464215E+03  0.25626800186E+03  0.12499165912E+03 0.  0.
         24    2    1    2    0    0  0.43134805604E+02 -0.38822434033E+02  0.74240339702E+00  0.10673907632E+03  0.89581730350E+02 0.  0.
        -13    1    3    3    0    0 -0.38869520738E+02 -0.54618400499E+02  0.15656919040E+03  0.17031711804E+03  0.00000000000E+00 0.  1.
         14    1    3    3    0    0 -0.45958243817E+02  0.22462289374E+02  0.10747162780E+03  0.11902464199E+03  0.00000000000E+00 0. -1.
        -13    1    5    5    0    0 -0.20498061505E+02 -0.20687308173E+02 -0.22294604803E+02  0.36676758966E+02  0.00000000000E+00 0.  1.
         14    1    5    5    0    0  0.63632867110E+02 -0.18135125860E+02  0.23037008200E+02  0.70062317356E+02  0.00000000000E+00 0. -1.
          5    1    4    4  501    0 -0.56498598990E+02  0.60817756522E+01 -0.12739941495E+03  0.13957714932E+03  0.47000000000E+01 0.  1.
         -5    1    4    4    0  501  0.54556871950E+02 -0.44343886819E+02 -0.93015227193E+02  0.11669085253E+03  0.47000000000E+01 0.  1.
          1    1    1    2  502    0  0.78053492867E+02 -0.22253291436E+02 -0.42297930944E+03  0.43069600990E+03  0.00000000000E+00 0. -1.
          3    1    1    2  503    0 -0.34418806877E+02  0.13149394776E+03  0.31228644710E+03  0.34058499322E+03  0.00000000000E+00 0. -1.
<mgrwt>
<rscale>  0 0.10042556E+03</rscale>
<asrwt>0</asrwt>
<pdfrwt beam="2">  1        2 0.10955545E+00 0.81163765E+02</pdfrwt>
<pdfrwt beam="1">  1        4 0.99801879E-01 0.12425857E+03</pdfrwt>
<totfact> 0.18975366E+01</totfact>
</mgrwt>
</event>
<event>
13    1  0.2038932E-008  0.7077611E+02  0.7546771E-02  0.1396558E+00
          2   -1    0    0  503    0  0.00000000000E+00  0.00000000000E+00  0.27685994673E+04  0.27685994673E+04  0.00000000000E+00 0. -1.
          2   -1    0    0  502    0 -0.00000000000E+00 -0.00000000000E+00 -0.90743213973E+03  0.90743213973E+03  0.00000000000E+00 0. -1.
         24    2    1    2    0    0 -0.86264996275E+01 -0.38480929923E+02 -0.20307097815E+03  0.22200508937E+03  0.80580637095E+02 0.  0.
         25    2    1    2    0    0 -0.72855571117E+02 -0.27471736379E+02  0.69669139863E+03  0.71208586458E+03  0.12499897228E+03 0.  0.
         24    2    1    2    0    0  0.63885992329E+02 -0.68374813625E+02  0.42707846254E+03  0.44461112414E+03  0.80786777335E+02 0.  0.
        -11    1    5    5    0    0  0.69252045242E+02 -0.29456210112E+02  0.35111833713E+03  0.35909274673E+03  0.00000000000E+00 0.  1.
         12    1    5    5    0    0 -0.53660529124E+01 -0.38918603513E+02  0.75960125410E+02  0.85518377414E+02  0.00000000000E+00 0. -1.
        -13    1    3    3    0    0  0.24939319348E+02 -0.44377794281E+02 -0.84646464825E+02  0.98774400945E+02  0.00000000000E+00 0.  1.
         14    1    3    3    0    0 -0.33565818975E+02  0.58968643575E+01 -0.11842451332E+03  0.12323068842E+03  0.00000000000E+00 0. -1.
          5    1    4    4  501    0 -0.29009360428E+02  0.77837603868E+01  0.29009085515E+02  0.42020792004E+02  0.47000000000E+01 0. -1.
         -5    1    4    4    0  501 -0.43846210689E+02 -0.35255496765E+02  0.66768231311E+03  0.67006507257E+03  0.47000000000E+01 0. -1.
          1    1    1    2  502    0 -0.90149375274E+01  0.90372783534E+02 -0.67498067869E+03  0.68106345205E+03  0.00000000000E+00 0. -1.
          1    1    1    2  503    0  0.26611015943E+02  0.43954696393E+02  0.16154491232E+04  0.16162660768E+04  0.00000000000E+00 0. -1.
<mgrwt>
<rscale>  0 0.60304672E+02</rscale>
<asrwt>0</asrwt>
<pdfrwt beam="1">  1        2 0.40714698E+00 0.51382502E+02</pdfrwt>
<pdfrwt beam="2">  1        2 0.13344590E+00 0.70776108E+02</pdfrwt>
<totfact> 0.22227208E+01</totfact>
</mgrwt>
</event>
<event>
13    1  0.2038932E-008  0.5889225E+02  0.7546771E-02  0.1543730E+00
          2   -1    0    0  502    0  0.00000000000E+00  0.00000000000E+00  0.42797496824E+03  0.42797496824E+03  0.00000000000E+00 0. -1.
          2   -1    0    0  503    0 -0.00000000000E+00 -0.00000000000E+00 -0.43994152695E+04  0.43994152695E+04  0.00000000000E+00 0. -1.
         24    2    1    2    0    0 -0.15384016732E+03 -0.86506811657E+02 -0.66770118005E+02  0.21006281265E+03  0.92292529796E+02 0.  0.
         25    2    1    2    0    0  0.31039837003E+02  0.94076097620E+02  0.55134162467E+02  0.16875509536E+03  0.12499889085E+03 0.  0.
         24    2    1    2    0    0  0.20154773037E+03 -0.21826024590E+02  0.45072104044E+02  0.22290501933E+03  0.80977096204E+02 0.  0.
        -11    1    5    5    0    0  0.46248432121E+02  0.11424702613E+02 -0.19481308929E+02  0.51468074581E+02  0.00000000000E+00 0.  1.
         12    1    5    5    0    0  0.15529929825E+03 -0.33250727203E+02  0.64553412973E+02  0.17143694475E+03  0.00000000000E+00 0. -1.
        -13    1    3    3    0    0 -0.80975598591E+02 -0.37646288036E+02 -0.81744423458E+02  0.12106379036E+03  0.00000000000E+00 0.  1.
         14    1    3    3    0    0 -0.72864568731E+02 -0.48860523621E+02  0.14974305454E+02  0.88999022290E+02  0.00000000000E+00 0. -1.
          5    1    4    4  501    0 -0.41748054134E+02  0.32260436487E+01  0.70764406448E+01  0.42725559023E+02  0.47000000000E+01 0.  1.
         -5    1    4    4    0  501  0.72787891137E+02  0.90850053971E+02  0.48057721823E+02  0.12602953634E+03  0.47000000000E+01 0.  1.
          1    1    1    2  502    0 -0.20333216251E+02  0.68784818478E+01  0.10913936955E+03  0.11123019007E+03  0.00000000000E+00 0. -1.
          1    1    1    2  503    0 -0.58414183803E+02  0.73782567788E+01 -0.41140158193E+04  0.41144371203E+04  0.00000000000E+00 0. -1.
<mgrwt>
<rscale>  0 0.35554631E+02</rscale>
<asrwt>0</asrwt>
<pdfrwt beam="1">  1        2 0.62937493E-01 0.21465162E+02</pdfrwt>
<pdfrwt beam="2">  1        2 0.64697286E+00 0.58892255E+02</pdfrwt>
<totfact> 0.53016201E+00</totfact>
</mgrwt>
</event>
<event>
13    1  0.2038932E-008  0.1512828E+03  0.7546771E-02  0.1311186E+00
          2   -1    0    0  503    0  0.00000000000E+00  0.00000000000E+00  0.25148828572E+04  0.25148828572E+04  0.00000000000E+00 0. -1.
          2   -1    0    0  502    0 -0.00000000000E+00 -0.00000000000E+00 -0.12933574418E+04  0.12933574418E+04  0.00000000000E+00 0. -1.
         24    2    1    2    0    0  0.90624389133E+01  0.39313218171E+02  0.42205450307E+03  0.43155590420E+03  0.80516072702E+02 0.  0.
         25    2    1    2    0    0  0.29184539060E+03 -0.14639222164E+03  0.34806347080E+03  0.49333308548E+03  0.12499975580E+03 0.  0.
         24    2    1    2    0    0 -0.76215096267E+02 -0.43280797308E+02  0.41096985380E+03  0.42955423105E+03  0.89099092923E+02 0.  0.
        -11    1    3    3    0    0 -0.70349282114E+01 -0.81169124402E+01  0.56249374540E+01  0.12124949644E+02  0.00000000000E+00 0.  1.
         12    1    3    3    0    0  0.16097367125E+02  0.47430130612E+02  0.41642956562E+03  0.41943095455E+03  0.00000000000E+00 0. -1.
        -13    1    5    5    0    0 -0.73538281857E+02 -0.34252211376E+01  0.16941545571E+03  0.18471926719E+03  0.00000000000E+00 0.  1.
         14    1    5    5    0    0 -0.26768144097E+01 -0.39855576170E+02  0.24155439809E+03  0.24483496386E+03  0.00000000000E+00 0. -1.
          5    1    4    4  501    0  0.21622507567E+03 -0.80256792004E+02  0.16219220677E+03  0.28199793962E+03  0.47000000000E+01 0.  1.
         -5    1    4    4    0  501  0.75620314932E+02 -0.66135429635E+02  0.18587126403E+03  0.21133514586E+03  0.47000000000E+01 0.  1.
          1    1    1    2  502    0 -0.49612823837E+02 -0.10769401814E+01 -0.11954185401E+04  0.11964481093E+04  0.00000000000E+00 0. -1.
          1    1    1    2  503    0 -0.17507990941E+03  0.15143674096E+03  0.12358561279E+04  0.12573489690E+04  0.00000000000E+00 0. -1.
<mgrwt>
<rscale>  0 0.86644887E+02</rscale>
<asrwt>0</asrwt>
<pdfrwt beam="1">  1        2 0.36983572E+00 0.15128283E+03</pdfrwt>
<pdfrwt beam="2">  1        2 0.19019962E+00 0.49624511E+02</pdfrwt>
<totfact> 0.16211956E+01</totfact>
</mgrwt>
</event>
<event>
13    1  0.2038932E-008  0.1210670E+03  0.7546771E-02  0.1244598E+00
          2   -1    0    0  503    0  0.00000000000E+00  0.00000000000E+00  0.16301123515E+04  0.16301123515E+04  0.00000000000E+00 0. -1.
          2   -1    0    0  502    0 -0.00000000000E+00 -0.00000000000E+00 -0.99029392542E+03  0.99029392542E+03  0.00000000000E+00 0. -1.
         24    2    1    2    0    0  0.59154597861E+02  0.25415539843E+01  0.35041534409E+02  0.10653451460E+03  0.81338599218E+02 0.  0.
         25    2    1    2    0    0 -0.29671245451E+02 -0.79010970087E+02  0.46625996829E+03  0.49004796549E+03  0.12500213697E+03 0.  0.
         24    2    1    2    0    0 -0.93454846007E+01  0.43882136489E+02  0.19348608407E+03  0.21549529537E+03  0.83596516755E+02 0.  0.
        -11    1    5    5    0    0  0.96355029167E+01 -0.21798306513E+02  0.30181233419E+02  0.38456676065E+02  0.00000000000E+00 0.  1.
         12    1    5    5    0    0 -0.18980987517E+02  0.65680443002E+02  0.16330485065E+03  0.17703861931E+03  0.00000000000E+00 0. -1.
        -13    1    3    3    0    0 -0.17806344195E+02 -0.86761976637E+01 -0.28661069878E+01  0.20013916877E+02  0.00000000000E+00 0.  1.
         14    1    3    3    0    0  0.76960942056E+02  0.11217751648E+02  0.37907641397E+02  0.86520597724E+02  0.00000000000E+00 0. -1.
          5    1    4    4  501    0 -0.39557384504E+02 -0.21041803389E+02  0.41633768518E+02  0.61343335740E+02  0.47000000000E+01 0. -1.
         -5    1    4    4    0  501  0.98861390534E+01 -0.57969166699E+02  0.42462619977E+03  0.42870462975E+03  0.47000000000E+01 0. -1.
          1    1    1    2  502    0  0.94306412670E+02 -0.38572243953E+02 -0.92365185012E+03  0.92925467860E+03  0.00000000000E+00 0. -1.
          1    1    1    2  503    0 -0.11444428048E+03  0.71159523567E+02  0.86868268940E+03  0.87907382283E+03  0.00000000000E+00 0. -1.
<mgrwt>
<rscale>  0 0.11909456E+03</rscale>
<asrwt>0</asrwt>
<pdfrwt beam="1">  1        2 0.23972240E+00 0.12106698E+03</pdfrwt>
<pdfrwt beam="2">  1        2 0.14563146E+00 0.11715428E+03</pdfrwt>
<totfact> 0.62565944E+01</totfact>
</mgrwt>
</event>
<event>
13    1  0.2038932E-008  0.1026579E+03  0.7546771E-02  0.1282196E+00
          2   -1    0    0  503    0  0.00000000000E+00  0.00000000000E+00  0.16731138426E+04  0.16731138426E+04  0.00000000000E+00 0. -1.
          2   -1    0    0  502    0 -0.00000000000E+00 -0.00000000000E+00 -0.12641711113E+04  0.12641711113E+04  0.00000000000E+00 0. -1.
         24    2    1    2    0    0 -0.26125846930E+02  0.34121274617E+01 -0.52716062419E+02  0.99503471251E+02  0.80173281475E+02 0.  0.
         25    2    1    2    0    0 -0.94396587615E+02  0.18705167879E+03 -0.21044619121E+03  0.32219915217E+03  0.12500259187E+03 0.  0.
         24    2    1    2    0    0  0.58469394226E+02 -0.38219026236E+02  0.97063201725E+03  0.97637545180E+03  0.79392354463E+02 0.  0.
        -11    1    3    3    0    0 -0.72824516516E+01 -0.30497543267E+02  0.31242482061E+01  0.31510239197E+02  0.00000000000E+00 0.  1.
         12    1    3    3    0    0 -0.18843395279E+02  0.33909670729E+02 -0.55840310625E+02  0.67993232055E+02  0.00000000000E+00 0. -1.
        -13    1    5    5    0    0  0.70116110618E+02 -0.50382354179E+02  0.87711370069E+03  0.88135299087E+03  0.00000000000E+00 0.  1.
         14    1    5    5    0    0 -0.11646716392E+02  0.12163327943E+02  0.93518316557E+02  0.95022460930E+02  0.00000000000E+00 0. -1.
          5    1    4    4  501    0 -0.17256589433E+02  0.14707699307E+03 -0.17216886770E+03  0.22714233594E+03  0.47000000000E+01 0. -1.
         -5    1    4    4    0  501 -0.77139998182E+02  0.39974685724E+02 -0.38277323509E+02  0.95056816238E+02  0.47000000000E+01 0. -1.
          1    1    1    2  502    0 -0.27416721554E+02 -0.11814175871E+03 -0.91112993420E+03  0.91916642060E+03  0.00000000000E+00 0. -1.
          1    1    1    2  503    0  0.89469761874E+02 -0.34103021309E+02  0.61260290188E+03  0.62004045815E+03  0.00000000000E+00 0. -1.
<mgrwt>
<rscale>  0 0.99101683E+02</rscale>
<asrwt>0</asrwt>
<pdfrwt beam="1">  1        2 0.24604615E+00 0.95668697E+02</pdfrwt>
<pdfrwt beam="2">  1        2 0.18590752E+00 0.10265786E+03</pdfrwt>
<totfact> 0.43352253E+01</totfact>
</mgrwt>
</event>
<event>
13    1  0.2038932E-008  0.2062213E+03  0.7546771E-02  0.1253013E+00
          2   -1    0    0  502    0  0.00000000000E+00  0.00000000000E+00  0.18267287075E+04  0.18267287075E+04  0.00000000000E+00 0. -1.
          2   -1    0    0  503    0 -0.00000000000E+00 -0.00000000000E+00 -0.31135010333E+04  0.31135010333E+04  0.00000000000E+00 0. -1.
         24    2    1    2    0    0  0.15046729550E+02 -0.26454013926E+02 -0.31784776593E+03  0.32944015408E+03  0.81101133738E+02 0.  0.
         25    2    1    2    0    0  0.22217242840E+03  0.13349713933E+03  0.16563773867E+03  0.33203174038E+03  0.12500856770E+03 0.  0.
         24    2    1    2    0    0 -0.10152778356E+03  0.44103498768E+01 -0.16911947130E+04  0.16962465340E+04  0.82373568264E+02 0.  0.
        -11    1    3    3    0    0 -0.21578777196E+02  0.77343086011E+01 -0.32761589265E+02  0.39984808190E+02  0.00000000000E+00 0.  1.
         12    1    3    3    0    0  0.36625506746E+02 -0.34188322528E+02 -0.28508617666E+03  0.28945534589E+03  0.00000000000E+00 0. -1.
        -13    1    5    5    0    0 -0.63323258861E+02 -0.28624065440E+02 -0.62404752228E+03  0.62790483539E+03  0.00000000000E+00 0.  1.
         14    1    5    5    0    0 -0.38204524701E+02  0.33034415317E+02 -0.10671471907E+04  0.10683416986E+04  0.00000000000E+00 0. -1.
          5    1    4    4  501    0  0.71091133672E+02  0.10407682506E+03  0.11285421562E+03  0.16924567583E+03  0.47000000000E+01 0. -1.
         -5    1    4    4    0  501  0.15108129473E+03  0.29420314271E+02  0.52783523045E+02  0.16278606455E+03  0.47000000000E+01 0. -1.
          1    1    1    2  502    0 -0.11224125560E+03 -0.17016665059E+03  0.15619558498E+04  0.15752018490E+04  0.00000000000E+00 0. -1.
          1    1    1    2  503    0 -0.23450118787E+02  0.58713175311E+02 -0.10053234354E+04  0.10073094632E+04  0.00000000000E+00 0. -1.
<mgrwt>
<rscale>  0 0.11418373E+03</rscale>
<asrwt>0</asrwt>
<pdfrwt beam="1">  1        2 0.26863658E+00 0.20622130E+03</pdfrwt>
<pdfrwt beam="2">  1        2 0.45786780E+00 0.63222979E+02</pdfrwt>
<totfact> 0.43883928E+00</totfact>
</mgrwt>
</event>
<event>
13    1  0.2038932E-008  0.3333652E+03  0.7546771E-02  0.1097499E+00
          2   -1    0    0  503    0  0.00000000000E+00  0.00000000000E+00  0.24082494208E+04  0.24082494208E+04  0.00000000000E+00 0. -1.
          2   -1    0    0  502    0 -0.00000000000E+00 -0.00000000000E+00 -0.31570564021E+04  0.31570564021E+04  0.00000000000E+00 0. -1.
         24    2    1    2    0    0  0.14078425620E+03 -0.11277783325E+03 -0.40099287637E+03  0.44636426081E+03  0.76855188280E+02 0.  0.
         25    2    1    2    0    0 -0.54532735444E+03 -0.18376889482E+03  0.36050099278E+03  0.69046343087E+03  0.12500341341E+03 0.  0.
         24    2    1    2    0    0  0.81059267520E+02  0.99700324329E+02  0.19345761615E+03  0.24668018143E+03  0.83153491438E+02 0.  0.
        -13    1    3    3    0    0  0.81753972693E+02 -0.24636198355E+02 -0.13199802716E+03  0.15720729466E+03  0.00000000000E+00 0.  1.
         14    1    3    3    0    0  0.59030283504E+02 -0.88141634897E+02 -0.26899484921E+03  0.28915696615E+03  0.00000000000E+00 0. -1.
        -13    1    5    5    0    0 -0.33282575839E+01 -0.11824539191E+02  0.24030069335E+02  0.26987798314E+02  0.00000000000E+00 0.  1.
         14    1    5    5    0    0  0.84387525104E+02  0.11152486352E+03  0.16942754682E+03  0.21969238311E+03  0.00000000000E+00 0. -1.
          5    1    4    4  501    0 -0.39724767789E+03 -0.85391167071E+02  0.28970640361E+03  0.49904835366E+03  0.47000000000E+01 0. -1.
         -5    1    4    4    0  501 -0.14807967655E+03 -0.98377727747E+02  0.70794589169E+02  0.19141507720E+03  0.47000000000E+01 0. -1.
          1    1    1    2  502    0  0.21288330920E+03  0.56698139230E+03 -0.24821111710E+04  0.25549291708E+04  0.00000000000E+00 0. -1.
          1    1    1    2  503    0  0.11060052153E+03 -0.37013498856E+03  0.15803384571E+04  0.16268687790E+04  0.00000000000E+00 0. -1.
<mgrwt>
<rscale>  0 0.27671019E+03</rscale>
<asrwt>0</asrwt>
<pdfrwt beam="1">  1        2 0.35415433E+00 0.22968365E+03</pdfrwt>
<pdfrwt beam="2">  1        2 0.46427300E+00 0.33336517E+03</pdfrwt>
<totfact> 0.16247076E+00</totfact>
</mgrwt>
</event>
<event>
13    1  0.2038932E-008  0.1058025E+03  0.7546771E-02  0.1352076E+00
          2   -1    0    0  503    0  0.00000000000E+00  0.00000000000E+00  0.12131956491E+04  0.12131956491E+04  0.00000000000E+00 0. -1.
          2   -1    0    0  502    0 -0.00000000000E+00 -0.00000000000E+00 -0.18453177514E+04  0.18453177514E+04  0.00000000000E+00 0. -1.
         24    2    1    2    0    0  0.13605242226E+02  0.13622638785E+02 -0.51968615578E+03  0.52632691688E+03  0.81090344838E+02 0.  0.
         25    2    1    2    0    0 -0.46437040936E+02 -0.79606931130E+02  0.26500269448E+03  0.30715530929E+03  0.12499717470E+03 0.  0.
         24    2    1    2    0    0 -0.59343129280E+02  0.82702690540E+02  0.41172426117E+02  0.13697384347E+03  0.81886037320E+02 0.  0.
        -11    1    5    5    0    0  0.30244301951E+01 -0.11661983474E+02 -0.71081748664E+01  0.13988394707E+02  0.00000000000E+00 0.  1.
         12    1    5    5    0    0 -0.62367559475E+02  0.94364674014E+02  0.48280600983E+02  0.12298544877E+03  0.00000000000E+00 0. -1.
        -13    1    3    3    0    0 -0.22165880984E+02  0.19693828555E+02 -0.40395116548E+03  0.40503792077E+03  0.00000000000E+00 0.  1.
         14    1    3    3    0    0  0.35771123210E+02 -0.60711897693E+01 -0.11573499029E+03  0.12128899612E+03  0.00000000000E+00 0. -1.
          5    1    4    4  501    0  0.34609892224E+02 -0.28069129239E+02  0.31919204598E+02  0.55014964130E+02  0.47000000000E+01 0. -1.
         -5    1    4    4    0  501 -0.81046933160E+02 -0.51537801892E+02  0.23308348989E+03  0.25214034516E+03  0.47000000000E+01 0. -1.
          1    1    1    2  502    0  0.11284130771E+03 -0.61763935886E+02 -0.12492929130E+04  0.12558983745E+04  0.00000000000E+00 0. -1.
          1    1    1    2  503    0 -0.20666379717E+02  0.45045537691E+02  0.83068184589E+03  0.83215895646E+03  0.00000000000E+00 0. -1.
<mgrwt>
<rscale>  0 0.72412561E+02</rscale>
<asrwt>0</asrwt>
<pdfrwt beam="1">  1        2 0.17841112E+00 0.49560062E+02</pdfrwt>
<pdfrwt beam="2">  1        2 0.27137026E+00 0.10580251E+03</pdfrwt>
<totfact> 0.39470641E+01</totfact>
</mgrwt>
</event>
<event>
13    1  0.2038932E-008  0.1577148E+03  0.7546771E-02  0.1350931E+00
          2   -1    0    0  503    0  0.00000000000E+00  0.00000000000E+00  0.58271103221E+03  0.58271103221E+03  0.00000000000E+00 0. -1.
          2   -1    0    0  502    0 -0.00000000000E+00 -0.00000000000E+00 -0.31916779573E+04  0.31916779573E+04  0.00000000000E+00 0. -1.
         24    2    1    2    0    0 -0.39745125104E+02  0.81131588375E+02 -0.31160415052E+03  0.33324329136E+03  0.76104763398E+02 0.  0.
         25    2    1    2    0    0 -0.13034105800E+03 -0.13902020185E+03  0.37383353117E+03  0.43782539723E+03  0.12499664601E+03 0.  0.
         24    2    1    2    0    0  0.20417402345E+03 -0.96410121146E+02 -0.30165851013E+03  0.38507926765E+03  0.79411852547E+02 0.  0.
        -13    1    5    5    0    0  0.13107739062E+03 -0.18264940437E+02 -0.16601609764E+03  0.21231164607E+03  0.00000000000E+00 0.  1.
         14    1    5    5    0    0  0.73096632835E+02 -0.78145180709E+02 -0.13564241249E+03  0.17276762158E+03  0.00000000000E+00 0. -1.
        -13    1    3    3    0    0 -0.12831766999E+02  0.82445909916E+02 -0.17332207433E+03  0.19236040070E+03  0.00000000000E+00 0.  1.
         14    1    3    3    0    0 -0.26913358104E+02 -0.13143215409E+01 -0.13828207619E+03  0.14088289066E+03  0.00000000000E+00 0. -1.
          5    1    4    4  501    0 -0.80296042905E+01 -0.87199735661E+02  0.97183575566E+02  0.13090074791E+03  0.47000000000E+01 0. -1.
         -5    1    4    4    0  501 -0.12231145371E+03 -0.51820466185E+02  0.27664995560E+03  0.30692464932E+03  0.47000000000E+01 0. -1.
          1    1    1    2  502    0 -0.58981662468E+02  0.13177232461E+03 -0.24894932978E+04  0.24936759336E+04  0.00000000000E+00 0. -1.
          1    1    1    2  503    0  0.24893822117E+02  0.22526410009E+02  0.11995550224E+03  0.12456509962E+03  0.00000000000E+00 0. -1.
<mgrwt>
<rscale>  0 0.72766393E+02</rscale>
<asrwt>0</asrwt>
<pdfrwt beam="1">  1        2 0.85692801E-01 0.33572928E+02</pdfrwt>
<pdfrwt beam="2">  1        2 0.46936440E+00 0.15771481E+03</pdfrwt>
<totfact> 0.18845699E+01</totfact>
</mgrwt>
</event>
<event>
13    1  0.2038932E-008  0.1087230E+03  0.7546771E-02  0.1332858E+00
          2   -1    0    0  502    0  0.00000000000E+00  0.00000000000E+00  0.21656873631E+04  0.21656873631E+04  0.00000000000E+00 0. -1.
          4   -1    0    0  503    0 -0.00000000000E+00 -0.00000000000E+00 -0.26949235380E+03  0.26949235380E+03  0.00000000000E+00 0. -1.
         24    2    1    2    0    0 -0.11082289946E+03  0.31120868793E+02 -0.13315666347E+03  0.20015605758E+03  0.95297045270E+02 0.  0.
         25    2    1    2    0    0 -0.42185725883E+02  0.38914229133E+02  0.48283942845E+02  0.14577303765E+03  0.12499794667E+03 0.  0.
         24    2    1    2    0    0 -0.14710852080E+01  0.51190302130E+02  0.29493321475E+03  0.31026287215E+03  0.81577187641E+02 0.  0.
        -11    1    5    5    0    0  0.33451253291E+02  0.15078648071E+02  0.19490362401E+03  0.19832744295E+03  0.00000000000E+00 0.  1.
         12    1    5    5    0    0 -0.34922338499E+02  0.36111654059E+02  0.10002959074E+03  0.11193542919E+03  0.00000000000E+00 0. -1.
        -11    1    3    3    0    0 -0.69964054719E+02  0.24482017213E+01 -0.14590452741E+02  0.71511145674E+02  0.00000000000E+00 0.  1.
         12    1    3    3    0    0 -0.40858844744E+02  0.28672667071E+02 -0.11856621073E+03  0.12864491190E+03  0.00000000000E+00 0. -1.
          5    1    4    4  501    0 -0.18365458650E+02 -0.45685526088E+02  0.19560132354E+02  0.53189718396E+02  0.47000000000E+01 0. -1.
         -5    1    4    4    0  501 -0.23820267234E+02  0.84599755221E+02  0.28723810492E+02  0.92583319252E+02  0.47000000000E+01 0. -1.
          1    1    1    2  502    0  0.11972570579E+03 -0.76135405819E+02  0.17109944649E+04  0.17168671771E+04  0.00000000000E+00 0. -1.
          3    1    1    2  503    0  0.34754004766E+02 -0.45089994236E+02 -0.24859949718E+02  0.62120572498E+02  0.00000000000E+00 0. -1.
<mgrwt>
<rscale>  0 0.78673565E+02</rscale>
<asrwt>0</asrwt>
<pdfrwt beam="1">  1        2 0.31848343E+00 0.10872304E+03</pdfrwt>
<pdfrwt beam="2">  1        4 0.39631230E-01 0.56929328E+02</pdfrwt>
<totfact> 0.22079992E+01</totfact>
</mgrwt>
</event>
<event>
13    1  0.2038932E-008  0.3883343E+02  0.7546771E-02  0.1604698E+00
          2   -1    0    0  503    0  0.00000000000E+00  0.00000000000E+00  0.40192367585E+03  0.40192367585E+03  0.00000000000E+00 0. -1.
          2   -1    0    0  502    0 -0.00000000000E+00 -0.00000000000E+00 -0.20667784191E+04  0.20667784191E+04  0.00000000000E+00 0. -1.
         24    2    1    2    0    0  0.64893302258E+01  0.82707295988E+02 -0.41373795759E+03  0.42966318022E+03  0.80924302103E+02 0.  0.
         25    2    1    2    0    0 -0.40142506591E+02 -0.85805103004E+02  0.17268179469E+03  0.23327652807E+03  0.12499999918E+03 0.  0.
         24    2    1    2    0    0  0.21097771486E+02 -0.87497517178E+01 -0.90934812191E+03  0.91326448646E+03  0.81340895604E+02 0.  0.
        -11    1    3    3    0    0 -0.32463889377E+02  0.62352428482E+02 -0.21810143727E+03  0.22915053216E+03  0.00000000000E+00 0.  1.
         12    1    3    3    0    0  0.38953219603E+02  0.20354867506E+02 -0.19563652032E+03  0.20051264806E+03  0.00000000000E+00 0. -1.
        -13    1    5    5    0    0  0.44674606688E+02 -0.20932987426E+02 -0.75826109524E+03  0.75986439514E+03  0.00000000000E+00 0.  1.
         14    1    5    5    0    0 -0.23576835202E+02  0.12183235708E+02 -0.15108702667E+03  0.15340009133E+03  0.00000000000E+00 0. -1.
          5    1    4    4  501    0  0.27256312785E+02 -0.84502953558E+02  0.90333468670E+02  0.12675125762E+03  0.47000000000E+01 0. -1.
         -5    1    4    4    0  501 -0.67398819377E+02 -0.13021494455E+01  0.82348326020E+02  0.10652527045E+03  0.47000000000E+01 0. -1.
          1    1    1    2  502    0  0.33149439599E+02  0.20333666103E+02 -0.70227817617E+03  0.70335409294E+03  0.00000000000E+00 0. -1.
          1    1    1    2  503    0 -0.20594034720E+02 -0.84861073701E+01  0.18782771772E+03  0.18914380727E+03  0.00000000000E+00 0. -1.
<mgrwt>
<rscale>  0 0.29410430E+02</rscale>
<asrwt>0</asrwt>
<pdfrwt beam="1">  1        2 0.59106423E-01 0.22273937E+02</pdfrwt>
<pdfrwt beam="2">  1        2 0.30393800E+00 0.38833431E+02</pdfrwt>
<totfact> 0.12299528E+02</totfact>
</mgrwt>
</event>
<event>
13    1  0.2038932E-008  0.2528355E+03  0.7546771E-02  0.1355698E+00
          4   -1    0    0  503    0 -0.00000000000E+00  0.00000000000E+00  0.95969984990E+03  0.95969984990E+03  0.00000000000E+00 0. -1.
          2   -1    0    0  502    0  0.00000000000E+00 -0.00000000000E+00 -0.20350878423E+04  0.20350878423E+04  0.00000000000E+00 0. -1.
         24    2    1    2    0    0  0.14377836108E+02 -0.24221539426E+02 -0.33092634439E+02  0.92751697514E+02  0.81941136154E+02 0.  0.
         25    2    1    2    0    0  0.21031398142E+03  0.10976255773E+03 -0.98268144103E+03  0.10186104673E+04  0.12499871878E+03 0.  0.
         24    2    1    2    0    0 -0.13261501677E+03  0.13426925863E+03 -0.29138999319E+03  0.35650500698E+03  0.81072284921E+02 0.  0.
        -11    1    5    5    0    0 -0.61617078773E+02  0.47613022617E+02 -0.56309205699E+02  0.96095738541E+02  0.00000000000E+00 0.  1.
         12    1    5    5    0    0 -0.70997937996E+02  0.86656236011E+02 -0.23508078749E+03  0.26040926844E+03  0.00000000000E+00 0. -1.
        -13    1    3    3    0    0  0.48621396087E+02 -0.10524077775E+02 -0.18054514574E+02  0.52922224698E+02  0.00000000000E+00 0.  1.
         14    1    3    3    0    0 -0.34243559979E+02 -0.13697461651E+02 -0.15038119866E+02  0.39829472816E+02  0.00000000000E+00 0. -1.
          5    1    4    4  501    0  0.70438029295E+02  0.10613789513E+03 -0.50457331247E+03  0.52042587024E+03  0.47000000000E+01 0.  1.
         -5    1    4    4    0  501  0.13987595212E+03  0.36246626035E+01 -0.47810812855E+03  0.49818459706E+03  0.47000000000E+01 0.  1.
          1    1    1    2  502    0 -0.56476107961E+01  0.19302524424E+02 -0.62902949729E+03  0.62935092867E+03  0.00000000000E+00 0. -1.
          3    1    1    2  503    0 -0.86429189958E+02 -0.23911280136E+03  0.86080557352E+03  0.89756959176E+03  0.00000000000E+00 0. -1.
<mgrwt>
<rscale>  0 0.71308963E+02</rscale>
<asrwt>0</asrwt>
<pdfrwt beam="2">  1        2 0.29927762E+00 0.20111762E+02</pdfrwt>
<pdfrwt beam="1">  1        4 0.14113233E+00 0.25283555E+03</pdfrwt>
<totfact> 0.20698911E+00</totfact>
</mgrwt>
</event>
<event>
13    1  0.2038932E-008  0.1084756E+03  0.7546771E-02  0.1325129E+00
         -1   -1    0    0    0  501 -0.00000000000E+00  0.00000000000E+00  0.26828175988E+03  0.26828175988E+03  0.00000000000E+00 0.  1.
          2   -1    0    0  503    0  0.00000000000E+00 -0.00000000000E+00 -0.49779010000E+04  0.49779010000E+04  0.00000000000E+00 0. -1.
         24    2    1    2    0    0 -0.80159688491E+02  0.97251656639E+02 -0.89125896531E+02  0.17373626393E+03  0.79733328001E+02 0.  0.
         25    2    1    2    0    0 -0.57425980729E+02 -0.40684740131E+02 -0.37260956853E+03  0.39926358988E+03  0.12498212794E+03 0.  0.
         24    2    1    2    0    0  0.14812464150E+02 -0.33674938157E+02 -0.12387714597E+02  0.89150118252E+02  0.80255078078E+02 0.  0.
        -11    1    5    5    0    0 -0.29822099721E+02 -0.12714612219E+02  0.11446806350E+02  0.34380930343E+02  0.00000000000E+00 0.  1.
         12    1    5    5    0    0  0.44634563871E+02 -0.20960325938E+02 -0.23834520947E+02  0.54769187909E+02  0.00000000000E+00 0. -1.
        -13    1    3    3    0    0 -0.44583120586E+02  0.81005041486E+02 -0.20439781760E+02  0.94695596865E+02  0.00000000000E+00 0.  1.
         14    1    3    3    0    0 -0.35576567905E+02  0.16246615154E+02 -0.68686114771E+02  0.79040667066E+02  0.00000000000E+00 0. -1.
          5    1    4    4  502    0 -0.98571640881E+00 -0.11681610421E+02 -0.30911494235E+03  0.30937286442E+03  0.47000000000E+01 0. -1.
         -5    1    4    4    0  502 -0.56440264320E+02 -0.29003129710E+02 -0.63494626181E+02  0.89890725458E+02  0.47000000000E+01 0. -1.
          1    1    1    2  503    0 -0.74840237086E+01 -0.60619886024E+02 -0.43831371773E+04  0.43835627401E+04  0.00000000000E+00 0. -1.
         -2    1    1    2    0  501  0.13025722878E+03  0.37727907673E+02  0.14764111682E+03  0.20047004774E+03  0.00000000000E+00 0.  1.
<mgrwt>
<rscale>  0 0.81398405E+02</rscale>
<asrwt>0</asrwt>
<pdfrwt beam="2">  1        2 0.73204424E+00 0.61080121E+02</pdfrwt>
<pdfrwt beam="1">  1       -1 0.39453202E-01 0.10847556E+03</pdfrwt>
<totfact> 0.10155585E+00</totfact>
</mgrwt>
</event>
<event>
13    1  0.2038932E-008  0.7776674E+02  0.7546771E-02  0.1392011E+00
          2   -1    0    0  502    0  0.00000000000E+00  0.00000000000E+00  0.34946062422E+04  0.34946062422E+04  0.00000000000E+00 0. -1.
          2   -1    0    0  503    0 -0.00000000000E+00 -0.00000000000E+00 -0.12039485960E+04  0.12039485960E+04  0.00000000000E+00 0. -1.
         24    2    1    2    0    0 -0.27171448915E+03  0.19797181769E+03  0.13545494259E+03  0.37244092875E+03  0.85688970798E+02 0.  0.
         25    2    1    2    0    0  0.24964561400E+03 -0.23067735157E+03  0.23665423578E+03  0.43262504948E+03  0.12499693202E+03 0.  0.
         24    2    1    2    0    0 -0.43028927459E+02 -0.72599476068E+02 -0.56169007197E+02  0.12914430613E+03  0.80007011646E+02 0.  0.
        -13    1    5    5    0    0 -0.82789989849E+01 -0.65118251779E+02 -0.65146118768E+02  0.92482135191E+02  0.00000000000E+00 0.  1.
         14    1    5    5    0    0 -0.34749928474E+02 -0.74812242900E+01  0.89771115705E+01  0.36662170939E+02  0.00000000000E+00 0. -1.
        -13    1    3    3    0    0 -0.68469390221E+02  0.62684796135E+02  0.78881166383E+02  0.12181822308E+03  0.00000000000E+00 0.  1.
         14    1    3    3    0    0 -0.20324509893E+03  0.13528702156E+03  0.56573776202E+02  0.25062270567E+03  0.00000000000E+00 0. -1.
          5    1    4    4  501    0  0.15782360052E+02  0.14560170099E+02  0.63696747033E+01  0.22885458221E+02  0.47000000000E+01 0. -1.
         -5    1    4    4    0  501  0.23386325394E+03 -0.24523752166E+03  0.23028456108E+03  0.40973959126E+03  0.47000000000E+01 0. -1.
          1    1    1    2  502    0  0.50457860006E+02  0.59075171644E+02  0.28683476611E+04  0.28693996195E+04  0.00000000000E+00 0. -1.
          1    1    1    2  503    0  0.14639942611E+02  0.46229838296E+02 -0.89363018614E+03  0.89494493431E+03  0.00000000000E+00 0. -1.
<mgrwt>
<rscale>  0 0.61409333E+02</rscale>
<asrwt>0</asrwt>
<pdfrwt beam="1">  1        2 0.51391268E+00 0.77766738E+02</pdfrwt>
<pdfrwt beam="2">  1        2 0.17705126E+00 0.48492534E+02</pdfrwt>
<totfact> 0.59216316E+00</totfact>
</mgrwt>
</event>
<event>
13    1  0.2038932E-008  0.1248775E+03  0.7546771E-02  0.1369788E+00
          2   -1    0    0  503    0  0.00000000000E+00  0.00000000000E+00  0.11750003189E+04  0.11750003189E+04  0.00000000000E+00 0. -1.
          2   -1    0    0  502    0 -0.00000000000E+00 -0.00000000000E+00 -0.31241935482E+04  0.31241935482E+04  0.00000000000E+00 0. -1.
         24    2    1    2    0    0  0.80412788208E+02  0.85422091529E+02 -0.20341437855E+04  0.20391492235E+04  0.81396961398E+02 0.  0.
         25    2    1    2    0    0 -0.24179605473E+03 -0.34557887143E+02  0.80080994099E+03  0.84651153802E+03  0.12500257102E+03 0.  0.
         24    2    1    2    0    0 -0.55437303914E+01  0.19270583112E+02 -0.12650823015E+03  0.15017339966E+03  0.78394064511E+02 0.  0.
        -11    1    5    5    0    0 -0.34024251477E+02  0.11060329481E+02 -0.11119954394E+03  0.11681318055E+03  0.00000000000E+00 0.  1.
         12    1    5    5    0    0  0.28480521086E+02  0.82102536306E+01 -0.15308686208E+02  0.33360219115E+02  0.00000000000E+00 0. -1.
        -13    1    3    3    0    0 -0.14202554563E+01 -0.32575332299E+01 -0.57897467174E+03  0.57898557768E+03  0.00000000000E+00 0.  1.
         14    1    3    3    0    0  0.81833043664E+02  0.88679624759E+02 -0.14551691138E+04  0.14601636458E+04  0.00000000000E+00 0. -1.
          5    1    4    4  501    0 -0.17151389304E+03 -0.27887387191E+01  0.69261574680E+03  0.71355690403E+03  0.47000000000E+01 0.  1.
         -5    1    4    4    0  501 -0.70282161688E+02 -0.31769148424E+02  0.10819419419E+03  0.13295463399E+03  0.47000000000E+01 0.  1.
          1    1    1    2  502    0  0.19043687469E+03 -0.42620665839E+02 -0.91506452807E+03  0.93564192666E+03  0.00000000000E+00 0. -1.
          1    1    1    2  503    0 -0.23509877775E+02 -0.27514121659E+02  0.32571337344E+03  0.32771777931E+03  0.00000000000E+00 0. -1.
<mgrwt>
<rscale>  0 0.67226198E+02</rscale>
<asrwt>0</asrwt>
<pdfrwt beam="1">  1        2 0.17279417E+00 0.36190347E+02</pdfrwt>
<pdfrwt beam="2">  1        2 0.45944022E+00 0.12487754E+03</pdfrwt>
<totfact> 0.93223851E+00</totfact>
</mgrwt>
</event>
<event>
13    1  0.2038932E-008  0.7941794E+02  0.7546771E-02  0.1331278E+00
          4   -1    0    0  503    0  0.00000000000E+00  0.00000000000E+00  0.88080127745E+03  0.88080127745E+03  0.00000000000E+00 0. -1.
          4   -1    0    0  502    0 -0.00000000000E+00 -0.00000000000E+00 -0.12243048657E+04  0.12243048657E+04  0.00000000000E+00 0. -1.
         24    2    1    2    0    0  0.33307038295E+02 -0.49501348706E+02 -0.15157176543E+03  0.18190791937E+03  0.80973753348E+02 0.  0.
         25    2    1    2    0    0 -0.22130198208E+02  0.11445086647E+03  0.27346393756E+03  0.32248459147E+03  0.12500016031E+03 0.  0.
         24    2    1    2    0    0 -0.44689314644E+01  0.23284453033E+00 -0.35222146780E+02  0.87855137398E+02  0.80361060088E+02 0.  0.
        -13    1    5    5    0    0  0.25747307305E+02  0.60437091259E+01  0.13910794716E+02  0.29882444061E+02  0.00000000000E+00 0.  1.
         14    1    5    5    0    0 -0.30216238769E+02 -0.58108645956E+01 -0.49132941496E+02  0.57972693337E+02  0.00000000000E+00 0. -1.
        -13    1    3    3    0    0 -0.60888475990E+01  0.45138389259E-01 -0.10020106625E+03  0.10038590429E+03  0.00000000000E+00 0.  1.
         14    1    3    3    0    0  0.39395885895E+02 -0.49546487095E+02 -0.51370699179E+02  0.81522015082E+02  0.00000000000E+00 0. -1.
          5    1    4    4  501    0 -0.56268665983E+02  0.49112053878E+02  0.21689772256E+03  0.22944469630E+03  0.47000000000E+01 0.  1.
         -5    1    4    4    0  501  0.34138467776E+02  0.65338812595E+02  0.56566215005E+02  0.93039895170E+02  0.47000000000E+01 0.  1.
          3    1    1    2  502    0 -0.75405025564E+02 -0.24925726640E+02 -0.96695141323E+03  0.97020732077E+03  0.00000000000E+00 0. -1.
          3    1    1    2  503    0  0.68697116940E+02 -0.40256635657E+02  0.53677779964E+03  0.54265117413E+03  0.00000000000E+00 0. -1.
<mgrwt>
<rscale>  0 0.79220733E+02</rscale>
<asrwt>0</asrwt>
<pdfrwt beam="1">  1        4 0.12952960E+00 0.79024012E+02</pdfrwt>
<pdfrwt beam="2">  1        4 0.18004483E+00 0.79417943E+02</pdfrwt>
<totfact> 0.15726054E-01</totfact>
</mgrwt>
</event>
<event>
13    1  0.2038932E-008  0.4753000E+02  0.7546771E-02  0.1575933E+00
          2   -1    0    0  503    0  0.00000000000E+00  0.00000000000E+00  0.16624610733E+04  0.16624610733E+04  0.00000000000E+00 0. -1.
          2   -1    0    0  502    0 -0.00000000000E+00 -0.00000000000E+00 -0.23678574257E+04  0.23678574257E+04  0.00000000000E+00 0. -1.
         24    2    1    2    0    0 -0.16934634736E+03 -0.31672282825E+03  0.14994955004E+02  0.36857761452E+03  0.81443685813E+02 0.  0.
         25    2    1    2    0    0  0.20422075500E+03  0.18485926898E+03  0.67894602401E+03  0.74328505336E+03  0.12500360364E+03 0.  0.
         24    2    1    2    0    0 -0.64989562316E+02  0.12281071492E+03 -0.20540623834E+03  0.26659494021E+03  0.97852054079E+02 0.  0.
        -11    1    3    3    0    0 -0.13244139423E+03 -0.16573128915E+03 -0.24618154683E+01  0.21216419030E+03  0.00000000000E+00 0.  1.
         12    1    3    3    0    0 -0.36904953125E+02 -0.15099153909E+03  0.17456770472E+02  0.15641342422E+03  0.00000000000E+00 0. -1.
        -11    1    5    5    0    0 -0.21296122293E+02 -0.14514965713E+02 -0.33821004109E+02  0.42521399005E+02  0.00000000000E+00 0.  1.
         12    1    5    5    0    0 -0.43693440023E+02  0.13732568063E+03 -0.17158523423E+03  0.22407354121E+03  0.00000000000E+00 0. -1.
          5    1    4    4  501    0  0.21667788663E+03  0.16993472115E+03  0.57651863815E+03  0.63892327093E+03  0.47000000000E+01 0.  1.
         -5    1    4    4    0  501 -0.12457131627E+02  0.14924547827E+02  0.10242738587E+03  0.10436178243E+03  0.47000000000E+01 0.  1.
          1    1    1    2  502    0  0.37251291671E+02  0.29529473038E+02 -0.19224408586E+04  0.19230284718E+04  0.00000000000E+00 0. -1.
          1    1    1    2  503    0 -0.71361369976E+01 -0.20476628692E+02  0.72850976548E+03  0.72883241913E+03  0.00000000000E+00 0. -1.
<mgrwt>
<rscale>  0 0.32103947E+02</rscale>
<asrwt>0</asrwt>
<pdfrwt beam="1">  1        2 0.24447957E+00 0.21684482E+02</pdfrwt>
<pdfrwt beam="2">  1        2 0.34821432E+00 0.47529999E+02</pdfrwt>
<totfact> 0.16019016E+01</totfact>
</mgrwt>
</event>
<event>
13    1  0.2038932E-008  0.1483069E+03  0.7546771E-02  0.1319773E+00
          2   -1    0    0  503    0  0.00000000000E+00  0.00000000000E+00  0.24823460445E+04  0.24823460445E+04  0.00000000000E+00 0. -1.
         -1   -1    0    0    0  501 -0.00000000000E+00 -0.00000000000E+00 -0.85327019807E+03  0.85327019807E+03  0.00000000000E+00 0.  1.
         24    2    1    2    0    0  0.16867536807E+03  0.35650367756E+02 -0.17298140165E+03  0.25376044251E+03  0.68916386675E+02 0.  0.
         25    2    1    2    0    0 -0.32174995180E+03 -0.68572362081E+01  0.16260108362E+04  0.16622586349E+04  0.12498990706E+03 0.  0.
         24    2    1    2    0    0 -0.82917065686E+02 -0.25263175865E+02 -0.71189210215E+02  0.13668860070E+03  0.78117872940E+02 0.  0.
        -11    1    3    3    0    0  0.15664809083E+03  0.26117859399E+02 -0.12126451103E+03  0.19981453545E+03  0.00000000000E+00 0.  1.
         12    1    3    3    0    0  0.12027277235E+02  0.95325083576E+01 -0.51716890622E+02  0.53945907063E+02  0.00000000000E+00 0. -1.
        -13    1    5    5    0    0 -0.77329414875E+02  0.17910463422E+01 -0.22243195446E+02  0.80484818417E+02  0.00000000000E+00 0.  1.
         14    1    5    5    0    0 -0.55876508114E+01 -0.27054222207E+02 -0.48946014769E+02  0.56203782281E+02  0.00000000000E+00 0. -1.
          5    1    4    4  502    0 -0.28532911927E+02 -0.40095454309E+02  0.19905772157E+03  0.20510445884E+03  0.47000000000E+01 0.  1.
         -5    1    4    4    0  502 -0.29321703987E+03  0.33238218101E+02  0.14269531146E+04  0.14571541761E+04  0.47000000000E+01 0.  1.
          1    1    1    2  503    0  0.53032966951E+01  0.46555797127E+02  0.73738664431E+03  0.73887389344E+03  0.00000000000E+00 0. -1.
         -2    1    1    2    0  501  0.23068835272E+03 -0.50085752810E+02 -0.49015102217E+03  0.54403467100E+03  0.00000000000E+00 0.  1.
<mgrwt>
<rscale>  0 0.83361863E+02</rscale>
<asrwt>0</asrwt>
<pdfrwt beam="1">  1        2 0.36505089E+00 0.46856880E+02</pdfrwt>
<pdfrwt beam="2">  1       -1 0.12548091E+00 0.14830694E+03</pdfrwt>
<totfact> 0.41867317E+00</totfact>
</mgrwt>
</event>
<event>
13    1  0.2038932E-008  0.1034664E+03  0.7546771E-02  0.1285635E+00
          2   -1    0    0  503    0  0.00000000000E+00  0.00000000000E+00  0.66795149630E+03  0.66795149630E+03  0.00000000000E+00 0. -1.
          2   -1    0    0  502    0 -0.00000000000E+00 -0.00000000000E+00 -0.16526508018E+04  0.16526508018E+04  0.00000000000E+00 0. -1.
         24    2    1    2    0    0 -0.80844766218E+02  0.27067527535E+02 -0.41433763792E+03  0.43059188866E+03  0.80406275341E+02 0.  0.
         25    2    1    2    0    0 -0.11308582824E+03 -0.90473698648E+02 -0.22837295523E+03  0.29791530898E+03  0.12500171978E+03 0.  0.
         24    2    1    2    0    0  0.41208505598E+00  0.13255712639E+02 -0.16201615751E+03  0.17781184254E+03  0.72055064508E+02 0.  0.
        -13    1    5    5    0    0  0.25802358849E+02 -0.15597962055E+02 -0.41367245246E+02  0.51188935540E+02  0.00000000000E+00 0.  1.
         14    1    5    5    0    0 -0.25390273793E+02  0.28853674694E+02 -0.12064891226E+03  0.12662290700E+03  0.00000000000E+00 0. -1.
        -13    1    3    3    0    0 -0.64439471689E+02 -0.18142769176E+02 -0.28040860666E+03  0.28828907762E+03  0.00000000000E+00 0.  1.
         14    1    3    3    0    0 -0.16405294529E+02  0.45210296711E+02 -0.13392903126E+03  0.14230281105E+03  0.00000000000E+00 0. -1.
          5    1    4    4  501    0 -0.68077558025E+02 -0.67096969592E+02 -0.22768099553E+03  0.24697628016E+03  0.47000000000E+01 0.  1.
         -5    1    4    4    0  501 -0.45008270214E+02 -0.23376729056E+02 -0.69195970204E+00  0.50939028821E+02  0.47000000000E+01 0.  1.
          1    1    1    2  502    0  0.11514217797E+03 -0.17355045815E+02 -0.78848748739E+03  0.79703916876E+03  0.00000000000E+00 0. -1.
          1    1    1    2  503    0  0.78376331429E+02  0.67505504289E+02  0.60851493256E+03  0.61724408915E+03  0.00000000000E+00 0. -1.
<mgrwt>
<rscale>  0 0.97503728E+02</rscale>
<asrwt>0</asrwt>
<pdfrwt beam="1">  1        2 0.98228160E-01 0.10346643E+03</pdfrwt>
<pdfrwt beam="2">  1        2 0.24303688E+00 0.91884652E+02</pdfrwt>
<totfact> 0.10157867E+02</totfact>
</mgrwt>
</event>
<event>
13    1  0.2038932E-008  0.5684409E+02  0.7546771E-02  0.1528785E+00
          2   -1    0    0  503    0  0.00000000000E+00  0.00000000000E+00  0.22766301061E+04  0.22766301061E+04  0.00000000000E+00 0. -1.
          2   -1    0    0  502    0 -0.00000000000E+00 -0.00000000000E+00 -0.27594195347E+04  0.27594195347E+04  0.00000000000E+00 0. -1.
         24    2    1    2    0    0 -0.30576960784E+03 -0.27151397246E+03 -0.13540875543E+04  0.14167737489E+04  0.80497580773E+02 0.  0.
         25    2    1    2    0    0  0.62565980284E+02  0.11306078529E+03  0.62104123084E+03  0.64654177944E+03  0.12500727620E+03 0.  0.
         24    2    1    2    0    0  0.26032625801E+03  0.19332689295E+03  0.49402405432E+02  0.33758127284E+03  0.79846540066E+02 0.  0.
        -11    1    3    3    0    0 -0.12239999324E+03 -0.16093109804E+03 -0.62496847142E+03  0.65686084289E+03  0.00000000000E+00 0.  1.
         12    1    3    3    0    0 -0.18336961460E+03 -0.11058287442E+03 -0.72911908290E+03  0.75991290601E+03  0.00000000000E+00 0. -1.
        -11    1    5    5    0    0  0.45733760672E+02  0.34688462841E+02 -0.21769155909E+02  0.61390247340E+02  0.00000000000E+00 0.  1.
         12    1    5    5    0    0  0.21459249734E+03  0.15863843011E+03  0.71171561342E+02  0.27619102550E+03  0.00000000000E+00 0. -1.
          5    1    4    4  501    0  0.10044669458E+03  0.84718511909E+02  0.42865197019E+03  0.44836521527E+03  0.47000000000E+01 0.  1.
         -5    1    4    4    0  501 -0.37880714295E+02  0.28342273378E+02  0.19238926065E+03  0.19817656418E+03  0.47000000000E+01 0.  1.
          1    1    1    2  502    0 -0.11435958284E+02  0.21692808772E+02 -0.12164557153E+04  0.12167028669E+04  0.00000000000E+00 0. -1.
          1    1    1    2  503    0 -0.56866721705E+01 -0.56566514550E+02  0.14173102047E+04  0.14184499727E+04  0.00000000000E+00 0. -1.
<mgrwt>
<rscale>  0 0.37335857E+02</rscale>
<asrwt>0</asrwt>
<pdfrwt beam="1">  1        2 0.33479855E+00 0.56844089E+02</pdfrwt>
<pdfrwt beam="2">  1        2 0.40579699E+00 0.24522624E+02</pdfrwt>
<totfact> 0.54141537E+00</totfact>
</mgrwt>
</event>
<event>
13    1  0.2038932E-008  0.9600791E+02  0.7546771E-02  0.1296298E+00
          2   -1    0    0  503    0  0.00000000000E+00  0.00000000000E+00  0.61027630000E+03  0.61027630000E+03  0.00000000000E+00 0. -1.
          2   -1    0    0  502    0 -0.00000000000E+00 -0.00000000000E+00 -0.12130548469E+04  0.12130548469E+04  0.00000000000E+00 0. -1.
         24    2    1    2    0    0  0.42527842071E+01 -0.22763777650E+03 -0.66461593172E+03  0.70715084293E+03  0.80690361814E+02 0.  0.
         25    2    1    2    0    0 -0.30090092210E+02  0.51849561484E+02  0.30626339659E+03  0.33618098491E+03  0.12500638324E+03 0.  0.
         24    2    1    2    0    0 -0.30696356900E+02 -0.12869641415E+02 -0.35911395433E+02  0.95979085690E+02  0.82549758152E+02 0.  0.
        -11    1    5    5    0    0 -0.23695251602E+02  0.23617609921E+02  0.11829442459E+02  0.35485097658E+02  0.00000000000E+00 0.  1.
         12    1    5    5    0    0 -0.70011052973E+01 -0.36487251336E+02 -0.47740837892E+02  0.60493988032E+02  0.00000000000E+00 0. -1.
        -11    1    3    3    0    0 -0.21920044424E+02 -0.48012790200E+02 -0.23326781711E+03  0.23916435953E+03  0.00000000000E+00 0.  1.
         12    1    3    3    0    0  0.26172828631E+02 -0.17962498630E+03 -0.43134811461E+03  0.46798648339E+03  0.00000000000E+00 0. -1.
          5    1    4    4  501    0  0.12231557931E+02  0.20316926401E+01  0.24840561224E+03  0.24875927516E+03  0.47000000000E+01 0. -1.
         -5    1    4    4    0  501 -0.42321650141E+02  0.49817868844E+02  0.57857784350E+02  0.87421709756E+02  0.47000000000E+01 0. -1.
          1    1    1    2  502    0  0.37610820681E+02  0.10090462724E+03 -0.43092498123E+03  0.44417638060E+03  0.00000000000E+00 0. -1.
          1    1    1    2  503    0  0.18922844221E+02  0.87753229187E+02  0.22241036493E+03  0.23984385273E+03  0.00000000000E+00 0. -1.
<mgrwt>
<rscale>  0 0.92761962E+02</rscale>
<asrwt>0</asrwt>
<pdfrwt beam="1">  1        2 0.89746515E-01 0.89625754E+02</pdfrwt>
<pdfrwt beam="2">  1        2 0.17839042E+00 0.96007912E+02</pdfrwt>
<totfact> 0.18682703E+02</totfact>
</mgrwt>
</event>
<event>
13    1  0.2038932E-008  0.1311939E+03  0.7546771E-02  0.1411477E+00
          2   -1    0    0  502    0  0.00000000000E+00  0.00000000000E+00  0.20999370845E+04  0.20999370845E+04  0.00000000000E+00 0. -1.
          2   -1    0    0  503    0 -0.00000000000E+00 -0.00000000000E+00 -0.44952535310E+03  0.44952535310E+03  0.00000000000E+00 0. -1.
         24    2    1    2    0    0 -0.19654620352E+03  0.32813369092E+03  0.24011125132E+03  0.45779967344E+03  0.74999991737E+02 0.  0.
         25    2    1    2    0    0  0.55147334525E+02 -0.21407351096E+03  0.42639118532E+02  0.25750985266E+03  0.12499813273E+03 0.  0.
         24    2    1    2    0    0  0.67057746979E+02 -0.21565618378E+03  0.89680313514E+03  0.92829030033E+03  0.80390841788E+02 0.  0.
        -11    1    3    3    0    0 -0.11686053873E+03  0.16784255072E+03  0.16854216987E+03  0.26501692469E+03  0.00000000000E+00 0.  1.
         12    1    3    3    0    0 -0.79685664784E+02  0.16029114020E+03  0.71569081443E+02  0.19278274875E+03  0.00000000000E+00 0. -1.
        -13    1    5    5    0    0  0.52942492834E+02 -0.72891066653E+02  0.45316194383E+03  0.46203004500E+03  0.00000000000E+00 0.  1.
         14    1    5    5    0    0  0.14115254145E+02 -0.14276511713E+03  0.44364119131E+03  0.46626025533E+03  0.00000000000E+00 0. -1.
          5    1    4    4  501    0  0.93063436834E+02 -0.12028887291E+03  0.17452904553E+02  0.15315648892E+03  0.47000000000E+01 0.  1.
         -5    1    4    4    0  501 -0.37916102309E+02 -0.93784638052E+02  0.25186213979E+02  0.10435336374E+03  0.47000000000E+01 0.  1.
          1    1    1    2  502    0  0.17894680750E+02 -0.16950256778E+02  0.66829728659E+03  0.66875166846E+03  0.00000000000E+00 0. -1.
          1    1    1    2  503    0  0.56446441266E+02  0.11854626061E+03 -0.19743906022E+03  0.23711094267E+03  0.00000000000E+00 0. -1.
<mgrwt>
<rscale>  0 0.56865503E+02</rscale>
<asrwt>0</asrwt>
<pdfrwt beam="1">  1        2 0.30881427E+00 0.24648140E+02</pdfrwt>
<pdfrwt beam="2">  1        2 0.66106670E-01 0.13119389E+03</pdfrwt>
<totfact> 0.11173934E+02</totfact>
</mgrwt>
</event>
<event>
13    1  0.2038932E-008  0.1128781E+03  0.7546771E-02  0.1392345E+00
         -1   -1    0    0    0  501 -0.00000000000E+00  0.00000000000E+00  0.11832212357E+04  0.11832212357E+04  0.00000000000E+00 0.  1.
          2   -1    0    0  503    0  0.00000000000E+00 -0.00000000000E+00 -0.27987941289E+04  0.27987941289E+04  0.00000000000E+00 0. -1.
         24    2    1    2    0    0  0.52696097405E+02 -0.73981813127E+02 -0.28466432434E+02  0.12518412202E+03  0.81305222931E+02 0.  0.
         25    2    1    2    0    0 -0.55555848621E+02  0.10888733632E+02  0.10408653511E+02  0.13760593764E+03  0.12498814811E+03 0.  0.
         24    2    1    2    0    0  0.93460486674E+02  0.53357902225E+02 -0.86272462675E+03  0.87310827217E+03  0.80264220175E+02 0.  0.
        -11    1    5    5    0    0  0.99617243049E+02  0.55866714528E+02 -0.62875673733E+03  0.63904594486E+03  0.00000000000E+00 0.  1.
         12    1    5    5    0    0 -0.61567563754E+01 -0.25088123026E+01 -0.23396788941E+03  0.23406232731E+03  0.00000000000E+00 0. -1.
        -11    1    3    3    0    0  0.67940363206E+02 -0.56637927570E+02 -0.42531988237E+02  0.98146410099E+02  0.00000000000E+00 0.  1.
         12    1    3    3    0    0 -0.15244265801E+02 -0.17343885558E+02  0.14065555803E+02  0.27037711924E+02  0.00000000000E+00 0. -1.
          5    1    4    4  502    0 -0.70293203806E+02 -0.23938849949E+02  0.44309999038E+02  0.86600629634E+02  0.47000000000E+01 0. -1.
         -5    1    4    4    0  502  0.14737355186E+02  0.34827583582E+02 -0.33901345527E+02  0.51005308004E+02  0.47000000000E+01 0. -1.
          1    1    1    2  503    0 -0.10623403100E+03  0.39159256931E+02 -0.17884002149E+04  0.17919805929E+04  0.00000000000E+00 0. -1.
         -2    1    1    2    0  501  0.15633295539E+02 -0.29424079662E+02  0.10536097274E+04  0.10541364399E+04  0.00000000000E+00 0.  1.
<mgrwt>
<rscale>  0 0.61327158E+02</rscale>
<asrwt>0</asrwt>
<pdfrwt beam="2">  1        2 0.41158737E+00 0.11287810E+03</pdfrwt>
<pdfrwt beam="1">  1       -1 0.17400312E+00 0.33319310E+02</pdfrwt>
<totfact> 0.12399433E+00</totfact>
</mgrwt>
</event>
<event>
13    1  0.2038932E-008  0.7643335E+02  0.7546771E-02  0.1379039E+00
          2   -1    0    0  502    0  0.00000000000E+00  0.00000000000E+00  0.47876887983E+03  0.47876887983E+03  0.00000000000E+00 0. -1.
          2   -1    0    0  503    0 -0.00000000000E+00 -0.00000000000E+00 -0.13749017483E+04  0.13749017483E+04  0.00000000000E+00 0. -1.
         24    2    1    2    0    0 -0.21379926898E+02  0.14159739627E+03 -0.32638407540E+03  0.36806747230E+03  0.91870428218E+02 0.  0.
         25    2    1    2    0    0 -0.24110916973E+02 -0.89519412762E+01  0.20860297956E+03  0.24454461033E+03  0.12500155914E+03 0.  0.
         24    2    1    2    0    0 -0.71274983966E+02 -0.11231611557E+03  0.39787577130E+01  0.15471276653E+03  0.78899787426E+02 0.  0.
        -13    1    3    3    0    0 -0.29756019408E+02  0.59428402914E+02 -0.61303206807E+02  0.90417027869E+02  0.00000000000E+00 0.  1.
         14    1    3    3    0    0  0.83760925098E+01  0.82168993358E+02 -0.26508086859E+03  0.27765044443E+03  0.00000000000E+00 0. -1.
        -13    1    5    5    0    0 -0.47711425843E+02 -0.22440346791E+02 -0.23638636523E+02  0.57781783087E+02  0.00000000000E+00 0.  1.
         14    1    5    5    0    0 -0.23563558123E+02 -0.89875768784E+02  0.27617394236E+02  0.96930983438E+02  0.00000000000E+00 0. -1.
          5    1    4    4  501    0  0.75846469835E+01 -0.62547251017E+02  0.83352846859E+02  0.10459193353E+03  0.47000000000E+01 0. -1.
         -5    1    4    4    0  501 -0.31695563957E+02  0.53595309741E+02  0.12525013271E+03  0.13995267680E+03  0.47000000000E+01 0. -1.
          1    1    1    2  502    0  0.65105601448E+02 -0.38601724730E+02  0.14172344895E+03  0.16066850493E+03  0.00000000000E+00 0. -1.
          1    1    1    2  503    0  0.51660226390E+02  0.18272385309E+02 -0.92405397926E+03  0.92567727402E+03  0.00000000000E+00 0. -1.
<mgrwt>
<rscale>  0 0.64716937E+02</rscale>
<asrwt>0</asrwt>
<pdfrwt beam="1">  1        2 0.70407188E-01 0.76433350E+02</pdfrwt>
<pdfrwt beam="2">  1        2 0.20219143E+00 0.54796524E+02</pdfrwt>
<totfact> 0.20933247E+02</totfact>
</mgrwt>
</event>
<event>
13    1  0.2038932E-008  0.9579112E+02  0.7546771E-02  0.1389612E+00
          2   -1    0    0  502    0  0.00000000000E+00  0.00000000000E+00  0.10328285593E+04  0.10328285593E+04  0.00000000000E+00 0. -1.
          2   -1    0    0  503    0 -0.00000000000E+00 -0.00000000000E+00 -0.12480225196E+04  0.12480225196E+04  0.00000000000E+00 0. -1.
         24    2    1    2    0    0 -0.15730140190E+03  0.94436353841E+02 -0.55576364009E+03  0.59075266110E+03  0.80333847043E+02 0.  0.
         25    2    1    2    0    0  0.71646198746E+02 -0.84798120609E+02  0.22644992066E+03  0.28147096354E+03  0.12498975037E+03 0.  0.
         24    2    1    2    0    0  0.16839295257E+02 -0.22868371009E+02  0.15008414294E+03  0.17339746844E+03  0.82066484278E+02 0.  0.
        -13    1    5    5    0    0 -0.19161458332E+02  0.20129529583E+02  0.30176948120E+02  0.41024476164E+02  0.00000000000E+00 0.  1.
         14    1    5    5    0    0  0.36000753590E+02 -0.42997900592E+02  0.11990719482E+03  0.13237299228E+03  0.00000000000E+00 0. -1.
        -13    1    3    3    0    0 -0.13938041211E+03  0.10884438627E+03 -0.50351625596E+03  0.53366901701E+03  0.00000000000E+00 0.  1.
         14    1    3    3    0    0 -0.17920989790E+02 -0.14408032431E+02 -0.52247384131E+02  0.57083644086E+02  0.00000000000E+00 0. -1.
          5    1    4    4  501    0 -0.28114912249E+02 -0.85782121011E+01  0.95362977816E+02  0.99901058811E+02  0.47000000000E+01 0. -1.
         -5    1    4    4    0  501  0.99761110994E+02 -0.76219908508E+02  0.13108694284E+03  0.18156990473E+03  0.47000000000E+01 0. -1.
          1    1    1    2  502    0 -0.12484825605E+02 -0.38141858086E+02  0.59531542772E+03  0.59666668308E+03  0.00000000000E+00 0. -1.
          1    1    1    2  503    0  0.81300733503E+02  0.51371995862E+02 -0.63127981152E+03  0.63856330278E+03  0.00000000000E+00 0. -1.
<mgrwt>
<rscale>  0 0.62003244E+02</rscale>
<asrwt>0</asrwt>
<pdfrwt beam="1">  1        2 0.15188655E+00 0.40133181E+02</pdfrwt>
<pdfrwt beam="2">  1        2 0.18353272E+00 0.95791117E+02</pdfrwt>
<totfact> 0.98951518E+01</totfact>
</mgrwt>
</event>
<event>
13    1  0.2038932E-008  0.1626472E+03  0.7546771E-02  0.1383281E+00
          2   -1    0    0  503    0  0.00000000000E+00  0.00000000000E+00  0.25212211478E+04  0.25212211478E+04  0.00000000000E+00 0. -1.
          2   -1    0    0  502    0 -0.00000000000E+00 -0.00000000000E+00 -0.20221344152E+04  0.20221344152E+04  0.00000000000E+00 0. -1.
         24    2    1    2    0    0  0.28280510018E+03  0.33824867379E+03 -0.26386595539E+03  0.52069343939E+03  0.84294278564E+02 0.  0.
         25    2    1    2    0    0 -0.22920553979E+03 -0.57611054718E+03  0.30342650047E+03  0.70152014910E+03  0.12499734539E+03 0.  0.
         24    2    1    2    0    0 -0.16944797967E+03  0.36269916304E+03  0.86390704013E+03  0.95562315394E+03  0.81344561419E+02 0.  0.
        -11    1    5    5    0    0 -0.61882052965E+02  0.19942040164E+03  0.51401155291E+03  0.55480245276E+03  0.00000000000E+00 0.  1.
         12    1    5    5    0    0 -0.10756592670E+03  0.16327876140E+03  0.34989548723E+03  0.40082070118E+03  0.00000000000E+00 0. -1.
        -13    1    3    3    0    0  0.18509670293E+03  0.26952752392E+03 -0.16843372188E+03  0.36779857837E+03  0.00000000000E+00 0.  1.
         14    1    3    3    0    0  0.97708397248E+02  0.68721149875E+02 -0.95432233511E+02  0.15289486102E+03  0.00000000000E+00 0. -1.
          5    1    4    4  501    0 -0.16097631199E+03 -0.51737044240E+03  0.25025563323E+03  0.59685468889E+03  0.47000000000E+01 0. -1.
         -5    1    4    4    0  501 -0.68229227807E+02 -0.58740104787E+02  0.53170867236E+02  0.10466546021E+03  0.47000000000E+01 0. -1.
          1    1    1    2  502    0  0.92600474394E+02 -0.13369091623E+03 -0.13800165389E+04  0.13895660318E+04  0.00000000000E+00 0. -1.
          1    1    1    2  503    0  0.23247944892E+02  0.88536265810E+01  0.97563568629E+03  0.97595278882E+03  0.00000000000E+00 0. -1.
<mgrwt>
<rscale>  0 0.63609246E+02</rscale>
<asrwt>0</asrwt>
<pdfrwt beam="1">  1        2 0.37076782E+00 0.24876769E+02</pdfrwt>
<pdfrwt beam="2">  1        2 0.29737271E+00 0.16264717E+03</pdfrwt>
<totfact> 0.82481602E+00</totfact>
</mgrwt>
</event>
<event>
13    1  0.2038932E-008  0.3637037E+02  0.7546771E-02  0.1573389E+00
          4   -1    0    0  503    0 -0.00000000000E+00  0.00000000000E+00  0.35991207994E+03  0.35991207994E+03  0.00000000000E+00 0. -1.
          2   -1    0    0  502    0  0.00000000000E+00 -0.00000000000E+00 -0.32789681399E+04  0.32789681399E+04  0.00000000000E+00 0. -1.
         24    2    1    2    0    0  0.17025124896E+03  0.40510893471E+03 -0.14033877275E+03  0.46826785202E+03  0.80505113728E+02 0.  0.
         25    2    1    2    0    0  0.16351110077E+03 -0.50228517462E+03 -0.13201210871E+04  0.14273651886E+04  0.12500168066E+03 0.  0.
         24    2    1    2    0    0 -0.34307454835E+03  0.15614734182E+03 -0.52550110186E+03  0.65173280198E+03  0.80759513655E+02 0.  0.
        -11    1    5    5    0    0 -0.48337350435E+01  0.13613849648E+02 -0.59886475491E+01  0.15638599559E+02  0.00000000000E+00 0.  1.
         12    1    5    5    0    0 -0.33824081331E+03  0.14253349217E+03 -0.51951245431E+03  0.63609420242E+03  0.00000000000E+00 0. -1.
        -13    1    3    3    0    0  0.68641318280E+02  0.17665549291E+03 -0.19367150124E+02  0.19050952799E+03  0.00000000000E+00 0.  1.
         14    1    3    3    0    0  0.10160993069E+03  0.22845344180E+03 -0.12097162263E+03  0.27775832403E+03  0.00000000000E+00 0. -1.
          5    1    4    4  501    0  0.77010022437E+02 -0.33448589963E+03 -0.70890968217E+03  0.78764610586E+03  0.47000000000E+01 0.  1.
         -5    1    4    4    0  501  0.86501078335E+02 -0.16779927499E+03 -0.61121140495E+03  0.63971908271E+03  0.47000000000E+01 0.  1.
          1    1    1    2  502    0 -0.87318642538E+01 -0.27433678088E+02 -0.10079215723E+04  0.10083326574E+04  0.00000000000E+00 0. -1.
          3    1    1    2  503    0  0.18044062867E+02 -0.31537423825E+02  0.74826474027E+02  0.83181719876E+02  0.00000000000E+00 0. -1.
<mgrwt>
<rscale>  0 0.32358853E+02</rscale>
<asrwt>0</asrwt>
<pdfrwt beam="2">  1        2 0.48220118E+00 0.28789792E+02</pdfrwt>
<pdfrwt beam="1">  1        4 0.52928249E-01 0.36370369E+02</pdfrwt>
<totfact> 0.40288654E+00</totfact>
</mgrwt>
</event>
<event>
13    1  0.2038932E-008  0.1377849E+03  0.7546771E-02  0.1246889E+00
          2   -1    0    0  503    0  0.00000000000E+00  0.00000000000E+00  0.35560044439E+04  0.35560044439E+04  0.00000000000E+00 0. -1.
          2   -1    0    0  502    0 -0.00000000000E+00 -0.00000000000E+00 -0.33667622402E+04  0.33667622402E+04  0.00000000000E+00 0. -1.
         24    2    1    2    0    0 -0.52077787220E+03  0.78729091837E+03 -0.14451621094E+04  0.17272625722E+04  0.62497108368E+02 0.  0.
         25    2    1    2    0    0  0.39969530285E+03 -0.10436800448E+04  0.24890990689E+03  0.11517836298E+04  0.12500006808E+03 0.  0.
         24    2    1    2    0    0  0.48669692848E+02  0.34753603988E+03  0.13580745162E+03  0.38468479122E+03  0.79929260350E+02 0.  0.
        -11    1    3    3    0    0 -0.18210701001E+03  0.27818418809E+03 -0.45552046116E+03  0.56395770775E+03  0.00000000000E+00 0.  1.
         12    1    3    3    0    0 -0.33867086219E+03  0.50910673028E+03 -0.98964164829E+03  0.11633048645E+04  0.00000000000E+00 0. -1.
        -13    1    5    5    0    0  0.30906787685E+02  0.16800133056E+03  0.24158611936E+02  0.17252047741E+03  0.00000000000E+00 0.  1.
         14    1    5    5    0    0  0.17762905163E+02  0.17953470932E+03  0.11164883968E+03  0.21216431381E+03  0.00000000000E+00 0. -1.
          5    1    4    4  501    0  0.28972109500E+03 -0.87626818027E+03  0.22534021608E+03  0.95004449350E+03  0.47000000000E+01 0. -1.
         -5    1    4    4    0  501  0.10997420785E+03 -0.16741186451E+03  0.23569690810E+02  0.20173913625E+03  0.47000000000E+01 0. -1.
          1    1    1    2  502    0  0.13725058883E+03 -0.14235912996E+02 -0.11996872204E+04  0.12075967092E+04  0.00000000000E+00 0. -1.
          1    1    1    2  503    0 -0.64837712337E+02 -0.76911000481E+02  0.24493741751E+04  0.24514389816E+04  0.00000000000E+00 0. -1.
<mgrwt>
<rscale>  0 0.11773016E+03</rscale>
<asrwt>0</asrwt>
<pdfrwt beam="1">  1        2 0.52294183E+00 0.10059439E+03</pdfrwt>
<pdfrwt beam="2">  1        2 0.49511210E+00 0.13778492E+03</pdfrwt>
<totfact> 0.37695074E-01</totfact>
</mgrwt>
</event>
<event>
13    1  0.2038932E-008  0.3145390E+03  0.7546771E-02  0.1267452E+00
         -3   -1    0    0    0  501 -0.00000000000E+00  0.00000000000E+00  0.37818336313E+03  0.37818336313E+03  0.00000000000E+00 0.  1.
          2   -1    0    0  503    0  0.00000000000E+00 -0.00000000000E+00 -0.18262722561E+04  0.18262722561E+04  0.00000000000E+00 0. -1.
         24    2    1    2    0    0 -0.11600670854E+03 -0.73453395478E+02 -0.28555198263E+03  0.32605123571E+03  0.76918891002E+02 0.  0.
         25    2    1    2    0    0 -0.18823353661E+03 -0.83793528655E+02 -0.61988015666E+03  0.66508203331E+03  0.12501792935E+03 0.  0.
         24    2    1    2    0    0  0.60645005956E+02  0.30992484352E+03 -0.23374014200E+03  0.40112369617E+03  0.80836503291E+02 0.  0.
        -13    1    5    5    0    0  0.65840329473E+02  0.15257640131E+03 -0.95829239102E+02  0.19182739713E+03  0.00000000000E+00 0.  1.
         14    1    5    5    0    0 -0.51953235175E+01  0.15734844221E+03 -0.13791090290E+03  0.20929629904E+03  0.00000000000E+00 0. -1.
        -13    1    3    3    0    0 -0.85984532582E+02 -0.17377455873E+02 -0.11956233406E+03  0.14829183235E+03  0.00000000000E+00 0.  1.
         14    1    3    3    0    0 -0.30022175960E+02 -0.56075939605E+02 -0.16598964857E+03  0.17775940336E+03  0.00000000000E+00 0. -1.
          5    1    4    4  502    0  0.13378701879E+02 -0.27800796349E+02 -0.95801167489E+02  0.10075627838E+03  0.47000000000E+01 0.  1.
         -5    1    4    4    0  502 -0.20161223849E+03 -0.55992732306E+02 -0.52407898917E+03  0.56432575492E+03  0.47000000000E+01 0.  1.
          1    1    1    2  503    0 -0.12456589013E+02  0.33743222703E+02 -0.45991536365E+03  0.46131975181E+03  0.00000000000E+00 0. -1.
         -4    1    1    2    0  501  0.25605182821E+03 -0.18642114209E+03  0.15099875195E+03  0.35087890224E+03  0.00000000000E+00 0.  1.
<mgrwt>
<rscale>  0 0.10636572E+03</rscale>
<asrwt>0</asrwt>
<pdfrwt beam="2">  1        2 0.26856945E+00 0.35969038E+02</pdfrwt>
<pdfrwt beam="1">  1       -3 0.55615200E-01 0.31453903E+03</pdfrwt>
<totfact> 0.24739607E+01</totfact>
</mgrwt>
</event>
<event>
13    1  0.2038932E-008  0.1330467E+03  0.7546771E-02  0.1372252E+00
          2   -1    0    0  502    0  0.00000000000E+00  0.00000000000E+00  0.37188200045E+04  0.37188200045E+04  0.00000000000E+00 0. -1.
          2   -1    0    0  503    0 -0.00000000000E+00 -0.00000000000E+00 -0.27669771475E+04  0.27669771475E+04  0.00000000000E+00 0. -1.
         24    2    1    2    0    0  0.87862295185E+01  0.48944526272E+02 -0.20142161988E+03  0.22240999608E+03  0.80142204353E+02 0.  0.
         25    2    1    2    0    0 -0.18329603125E+03  0.89591024615E+02  0.17611828340E+04  0.17773617675E+04  0.12500356446E+03 0.  0.
         24    2    1    2    0    0  0.37460130445E+02 -0.10229600786E+02  0.18024840072E+03  0.20387804941E+03  0.86999235415E+02 0.  0.
        -11    1    5    5    0    0 -0.25879144433E+01 -0.28071697335E+02  0.14473972104E+03  0.14745950067E+03  0.00000000000E+00 0.  1.
         12    1    5    5    0    0  0.40048044888E+02  0.17842096549E+02  0.35508679683E+02  0.56418548736E+02  0.00000000000E+00 0. -1.
        -13    1    3    3    0    0  0.20762231850E+02 -0.15962851818E+02 -0.80428257515E+02  0.84584794830E+02  0.00000000000E+00 0.  1.
         14    1    3    3    0    0 -0.11976002331E+02  0.64907378090E+02 -0.12099336237E+03  0.13782520125E+03  0.00000000000E+00 0. -1.
          5    1    4    4  501    0 -0.12179309648E+03 -0.92180233005E+01  0.84116469800E+03  0.84999921733E+03  0.47000000000E+01 0. -1.
         -5    1    4    4    0  501 -0.61502934763E+02  0.98809047916E+02  0.92001813598E+03  0.92736255017E+03  0.47000000000E+01 0. -1.
          1    1    1    2  502    0 -0.30090698587E+02 -0.14224167722E+02  0.17427928775E+04  0.17431106651E+04  0.00000000000E+00 0. -1.
          1    1    1    2  503    0  0.16714036987E+03 -0.11408178238E+03 -0.25309596352E+04  0.25390366739E+04  0.00000000000E+00 0. -1.
<mgrwt>
<rscale>  0 0.66544962E+02</rscale>
<asrwt>0</asrwt>
<pdfrwt beam="1">  1        2 0.54688529E+00 0.33283285E+02</pdfrwt>
<pdfrwt beam="2">  1        2 0.40690841E+00 0.13304672E+03</pdfrwt>
<totfact> 0.80730714E-01</totfact>
</mgrwt>
</event>
<event>
13    1  0.2038932E-008  0.2215562E+03  0.7546771E-02  0.1144570E+00
          2   -1    0    0  502    0  0.00000000000E+00  0.00000000000E+00  0.16603431275E+04  0.16603431275E+04  0.00000000000E+00 0. -1.
          2   -1    0    0  503    0 -0.00000000000E+00 -0.00000000000E+00 -0.48713334045E+04  0.48713334045E+04  0.00000000000E+00 0. -1.
         24    2    1    2    0    0  0.56396199020E+02 -0.15747014584E+03 -0.40083298533E+03  0.44158211563E+03  0.79688798586E+02 0.  0.
         25    2    1    2    0    0 -0.92439343723E+02  0.13729887515E+03  0.37597494837E+03  0.42940460713E+03  0.12504055917E+03 0.  0.
         24    2    1    2    0    0 -0.71695526999E+02  0.19408263808E+03 -0.26645399549E+03  0.34639586533E+03  0.78638697910E+02 0.  0.
        -11    1    3    3    0    0  0.72151599329E+02 -0.95423271192E+02 -0.23216347787E+03  0.26117299712E+03  0.00000000000E+00 0.  1.
         12    1    3    3    0    0 -0.15755400309E+02 -0.62046874653E+02 -0.16866950746E+03  0.18040911851E+03  0.00000000000E+00 0. -1.
        -11    1    5    5    0    0 -0.56933091292E+02  0.19792101405E+03 -0.24478289627E+03  0.31989493743E+03  0.00000000000E+00 0.  1.
         12    1    5    5    0    0 -0.14762435706E+02 -0.38383759717E+01 -0.21671099221E+02  0.26500927899E+02  0.00000000000E+00 0. -1.
          5    1    4    4  501    0 -0.42432658870E+02  0.14371732606E+03  0.32312765355E+03  0.35621450116E+03  0.47000000000E+01 0. -1.
         -5    1    4    4    0  501 -0.50006684853E+02 -0.64184509067E+01  0.52847294819E+02  0.73190105969E+02  0.47000000000E+01 0. -1.
          1    1    1    2  502    0  0.19189075228E+03 -0.20138008437E+01  0.11873756404E+04  0.12027830343E+04  0.00000000000E+00 0. -1.
          1    1    1    2  503    0 -0.84152080580E+02 -0.17189756655E+03 -0.41070538849E+04  0.41115109096E+04  0.00000000000E+00 0. -1.
<mgrwt>
<rscale>  0 0.20625042E+03</rscale>
<asrwt>0</asrwt>
<pdfrwt beam="1">  1        2 0.24416810E+00 0.19200199E+03</pdfrwt>
<pdfrwt beam="2">  1        2 0.71637257E+00 0.22155622E+03</pdfrwt>
<totfact> 0.24962021E-01</totfact>
</mgrwt>
</event>
<event>
13    1  0.2038932E-008  0.4331340E+02  0.7546771E-02  0.1488675E+00
          2   -1    0    0  502    0  0.00000000000E+00  0.00000000000E+00  0.14596132485E+04  0.14596132485E+04  0.00000000000E+00 0. -1.
          2   -1    0    0  503    0 -0.00000000000E+00 -0.00000000000E+00 -0.11149796026E+04  0.11149796026E+04  0.00000000000E+00 0. -1.
         24    2    1    2    0    0  0.10814891522E+02 -0.49758290895E+02  0.24764926435E+03  0.26502229931E+03  0.79459496633E+02 0.  0.
         25    2    1    2    0    0 -0.14999291860E+02  0.78214617199E+02 -0.11959388343E+03  0.19044451215E+03  0.12499564055E+03 0.  0.
         24    2    1    2    0    0 -0.17780161086E+02  0.34157410096E+02  0.10378769411E+04  0.10420467404E+04  0.84793877171E+02 0.  0.
        -11    1    3    3    0    0  0.28755757815E+02 -0.99551655576E+01  0.28927884301E+02  0.41985966929E+02  0.00000000000E+00 0.  1.
         12    1    3    3    0    0 -0.17940866293E+02 -0.39803125338E+02  0.21872138005E+03  0.22303633238E+03  0.00000000000E+00 0. -1.
        -13    1    5    5    0    0 -0.23572389092E+02  0.53370822114E+01  0.92772206796E+03  0.92803684051E+03  0.00000000000E+00 0.  1.
         14    1    5    5    0    0  0.57922280065E+01  0.28820327885E+02  0.11015487313E+03  0.11400989992E+03  0.00000000000E+00 0. -1.
          5    1    4    4  501    0 -0.68565633650E+02  0.60476091360E+02 -0.76090477509E+02  0.11903971821E+03  0.47000000000E+01 0. -1.
         -5    1    4    4    0  501  0.53566341790E+02  0.17738525839E+02 -0.43503405918E+02  0.71404793944E+02  0.47000000000E+01 0. -1.
          1    1    1    2  502    0  0.36508287065E+02 -0.22935742354E+02  0.12377088131E+03  0.13106538202E+03  0.00000000000E+00 0. -1.
          1    1    1    2  503    0 -0.14543725642E+02 -0.39677994046E+02 -0.94506955741E+03  0.94601391719E+03  0.00000000000E+00 0. -1.
<mgrwt>
<rscale>  0 0.42783191E+02</rscale>
<asrwt>0</asrwt>
<pdfrwt beam="1">  1        2 0.21464901E+00 0.43313399E+02</pdfrwt>
<pdfrwt beam="2">  1        2 0.16396759E+00 0.42259474E+02</pdfrwt>
<totfact> 0.74128058E+01</totfact>
</mgrwt>
</event>
<event>
13    1  0.2038932E-008  0.1418980E+03  0.7546771E-02  0.1411668E+00
          2   -1    0    0  503    0  0.00000000000E+00  0.00000000000E+00  0.92723009308E+03  0.92723009308E+03  0.00000000000E+00 0. -1.
          2   -1    0    0  502    0 -0.00000000000E+00 -0.00000000000E+00 -0.14964114056E+04  0.14964114056E+04  0.00000000000E+00 0. -1.
         24    2    1    2    0    0  0.10249835074E+03 -0.22576161306E+03 -0.43959913078E+03  0.51162422848E+03  0.83891224494E+02 0.  0.
         25    2    1    2    0    0  0.78212856360E+02  0.66110869125E+02  0.41981111893E+03  0.44983792330E+03  0.12499953501E+03 0.  0.
         24    2    1    2    0    0  0.14629476704E+02 -0.22624869645E+02 -0.19069630630E+03  0.20565027489E+03  0.72118291782E+02 0.  0.
        -11    1    3    3    0    0  0.23452858213E+02 -0.13655560014E+01 -0.47500498028E+02  0.52992439219E+02  0.00000000000E+00 0.  1.
         12    1    3    3    0    0  0.79045492527E+02 -0.22439605706E+03 -0.39209863276E+03  0.45863178926E+03  0.00000000000E+00 0. -1.
        -13    1    5    5    0    0  0.30539796038E+02  0.16506287464E+02 -0.83189979510E+02  0.90142716615E+02  0.00000000000E+00 0.  1.
         14    1    5    5    0    0 -0.15910319334E+02 -0.39131157109E+02 -0.10750632679E+03  0.11550755827E+03  0.00000000000E+00 0. -1.
          5    1    4    4  501    0 -0.31264140949E+02  0.14873688554E+01  0.12106451990E+03  0.12513339584E+03  0.47000000000E+01 0. -1.
         -5    1    4    4    0  501  0.10947699731E+03  0.64623500270E+02  0.29874659902E+03  0.32470452746E+03  0.47000000000E+01 0. -1.
          1    1    1    2  502    0 -0.21561333056E+03  0.19261029899E+03 -0.78142226328E+03  0.83319180814E+03  0.00000000000E+00 0. -1.
          1    1    1    2  503    0  0.20272646759E+02 -0.10334685415E+02  0.42272526896E+03  0.42333726383E+03  0.00000000000E+00 0. -1.
<mgrwt>
<rscale>  0 0.56823194E+02</rscale>
<asrwt>0</asrwt>
<pdfrwt beam="1">  1        2 0.13635737E+00 0.22754910E+02</pdfrwt>
<pdfrwt beam="2">  1        2 0.22006050E+00 0.14189796E+03</pdfrwt>
<totfact> 0.84436978E+01</totfact>
</mgrwt>
</event>
<event>
13    1  0.2038932E-008  0.1157358E+03  0.7546771E-02  0.1268757E+00
          2   -1    0    0  502    0  0.00000000000E+00  0.00000000000E+00  0.22132586876E+04  0.22132586876E+04  0.00000000000E+00 0. -1.
          4   -1    0    0  503    0 -0.00000000000E+00 -0.00000000000E+00 -0.41709890874E+03  0.41709890874E+03  0.00000000000E+00 0. -1.
         24    2    1    2    0    0  0.99135516762E+01  0.59815923437E+02 -0.29575933164E+02  0.10535661074E+03  0.80926240496E+02 0.  0.
         25    2    1    2    0    0  0.49455898919E+02  0.19554331646E+03  0.84114233752E+03  0.87397408587E+03  0.12500878473E+03 0.  0.
         24    2    1    2    0    0 -0.99259931910E+02 -0.15614264467E+03  0.77028996611E+03  0.79638027992E+03  0.81497599818E+02 0.  0.
        -11    1    3    3    0    0 -0.12909870254E+02 -0.14646223873E+02  0.49865280411E+01  0.20150485989E+02  0.00000000000E+00 0.  1.
         12    1    3    3    0    0  0.22823421931E+02  0.74462147310E+02 -0.34562461205E+02  0.85206124752E+02  0.00000000000E+00 0. -1.
        -11    1    5    5    0    0 -0.29654044138E+02 -0.49792567672E+00  0.79263736048E+02  0.84630668885E+02  0.00000000000E+00 0.  1.
         12    1    5    5    0    0 -0.69605887772E+02 -0.15564471899E+03  0.69102623007E+03  0.71174961103E+03  0.00000000000E+00 0. -1.
          5    1    4    4  501    0  0.48006053987E+02  0.20240949057E+03  0.84007511025E+03  0.86546083907E+03  0.47000000000E+01 0. -1.
         -5    1    4    4    0  501  0.14498449327E+01 -0.68661741054E+01  0.10672272674E+01  0.85132468080E+01  0.47000000000E+01 0. -1.
          1    1    1    2  502    0 -0.87090275532E+02 -0.41621804707E+02  0.51459155907E+03  0.52356619772E+03  0.00000000000E+00 0. -1.
          3    1    1    2  503    0  0.12698075685E+03 -0.57594790525E+02 -0.30028815064E+03  0.33108042213E+03  0.00000000000E+00 0. -1.
<mgrwt>
<rscale>  0 0.10569487E+03</rscale>
<asrwt>0</asrwt>
<pdfrwt beam="1">  1        2 0.32547921E+00 0.96525078E+02</pdfrwt>
<pdfrwt beam="2">  1        4 0.61338076E-01 0.11573579E+03</pdfrwt>
<totfact> 0.93779336E+00</totfact>
</mgrwt>
</event>
<event>
13    1  0.2038932E-008  0.6290294E+02  0.7546771E-02  0.1441166E+00
          2   -1    0    0  503    0  0.00000000000E+00  0.00000000000E+00  0.16218799511E+04  0.16218799511E+04  0.00000000000E+00 0. -1.
         -3   -1    0    0    0  501 -0.00000000000E+00 -0.00000000000E+00 -0.24525007129E+04  0.24525007129E+04  0.00000000000E+00 0.  1.
         24    2    1    2    0    0 -0.34864436687E+03  0.32945318372E+03 -0.44619471718E+03  0.66073196454E+03  0.85934326717E+02 0.  0.
         25    2    1    2    0    0  0.44099927542E+03  0.11694194777E+03  0.10773662800E+03  0.48516535945E+03  0.12498985932E+03 0.  0.
         24    2    1    2    0    0 -0.10849955769E+03 -0.46655753384E+03  0.24875335928E+03  0.54946268012E+03  0.10287330405E+03 0.  0.
        -11    1    3    3    0    0 -0.24577850952E+03  0.28171919316E+03 -0.33822449460E+03  0.50415135454E+03  0.00000000000E+00 0.  1.
         12    1    3    3    0    0 -0.10286585736E+03  0.47733990562E+02 -0.10797022258E+03  0.15658061000E+03  0.00000000000E+00 0. -1.
        -11    1    5    5    0    0 -0.38836210313E+02 -0.20867413358E+03  0.54409615667E+02  0.21911994783E+03  0.00000000000E+00 0.  1.
         12    1    5    5    0    0 -0.69663347375E+02 -0.25788340026E+03  0.19434374362E+03  0.33034273229E+03  0.00000000000E+00 0. -1.
          5    1    4    4  502    0  0.36059701740E+03  0.12389801425E+03  0.12727668665E+03  0.40199797494E+03  0.47000000000E+01 0.  1.
         -5    1    4    4    0  502  0.80402258016E+02 -0.69560664749E+01 -0.19540058645E+02  0.83167384513E+02  0.47000000000E+01 0.  1.
          1    1    1    2  503    0  0.56385486605E+02  0.28003438112E+02  0.81757255389E+03  0.81999292468E+03  0.00000000000E+00 0. -1.
         -4    1    1    2    0  501 -0.40240837459E+02 -0.78410357631E+01 -0.15584885858E+04  0.15590277351E+04  0.00000000000E+00 0.  1.
<mgrwt>
<rscale>  0 0.50782597E+02</rscale>
<asrwt>0</asrwt>
<pdfrwt beam="1">  1        2 0.23851176E+00 0.62902936E+02</pdfrwt>
<pdfrwt beam="2">  1       -3 0.36066186E+00 0.40997644E+02</pdfrwt>
<totfact> 0.22808172E-01</totfact>
</mgrwt>
</event>
<event>
13    1  0.2038932E-008  0.1526867E+03  0.7546771E-02  0.1320620E+00
          2   -1    0    0  503    0  0.00000000000E+00  0.00000000000E+00  0.55581886789E+03  0.55581886789E+03  0.00000000000E+00 0. -1.
         -3   -1    0    0    0  501 -0.00000000000E+00 -0.00000000000E+00 -0.46751761289E+03  0.46751761289E+03  0.00000000000E+00 0.  1.
         24    2    1    2    0    0 -0.82497248060E+02  0.17675821184E+02 -0.97931031157E+02  0.15252201006E+03  0.80958298514E+02 0.  0.
         25    2    1    2    0    0  0.26369066625E+03 -0.11661895616E+03  0.21999711711E+03  0.38360939126E+03  0.12499874048E+03 0.  0.
         24    2    1    2    0    0 -0.98218882788E+02  0.24263876119E+02 -0.37522160000E+02  0.12143281454E+03  0.55698575697E+02 0.  0.
        -11    1    3    3    0    0 -0.92306921213E+02  0.11536054970E+02 -0.10393446831E+03  0.13948484495E+03  0.00000000000E+00 0.  1.
         12    1    3    3    0    0  0.98096731539E+01  0.61397662145E+01  0.60034371515E+01  0.13037165113E+02  0.00000000000E+00 0. -1.
        -13    1    5    5    0    0 -0.93656011498E+02  0.35895182629E+02 -0.24217870683E+02  0.10318148034E+03  0.00000000000E+00 0.  1.
         14    1    5    5    0    0 -0.45628712908E+01 -0.11631306511E+02 -0.13304289317E+02  0.18251334192E+02  0.00000000000E+00 0. -1.
          5    1    4    4  502    0  0.26900851737E+03 -0.10331291725E+03  0.17740987841E+03  0.33843093276E+03  0.47000000000E+01 0. -1.
         -5    1    4    4    0  502 -0.53178511263E+01 -0.13306038904E+02  0.42587238705E+02  0.45178458500E+02  0.47000000000E+01 0. -1.
          1    1    1    2  503    0  0.12396646821E+02 -0.43435174919E+02  0.14898535665E+03  0.15568213696E+03  0.00000000000E+00 0. -1.
         -4    1    1    2    0  501 -0.95371182220E+02  0.11811443377E+03 -0.14522802760E+03  0.21009012796E+03  0.00000000000E+00 0.  1.
<mgrwt>
<rscale>  0 0.83046949E+02</rscale>
<asrwt>0</asrwt>
<pdfrwt beam="1">  1        2 0.81738070E-01 0.45169583E+02</pdfrwt>
<pdfrwt beam="2">  1       -3 0.68752590E-01 0.15268672E+03</pdfrwt>
<totfact> 0.75743056E+01</totfact>
</mgrwt>
</event>
<event>
13    1  0.2038932E-008  0.8555112E+02  0.7546771E-02  0.1344396E+00
          2   -1    0    0  502    0  0.00000000000E+00  0.00000000000E+00  0.18014725821E+04  0.18014725821E+04  0.00000000000E+00 0. -1.
          2   -1    0    0  503    0 -0.00000000000E+00 -0.00000000000E+00 -0.32197914475E+04  0.32197914475E+04  0.00000000000E+00 0. -1.
         24    2    1    2    0    0  0.44731706160E+02 -0.72159563044E+02 -0.23330122804E+04  0.23359247605E+04  0.79939092133E+02 0.  0.
         25    2    1    2    0    0 -0.21000549057E+03  0.74994758712E+02 -0.25074661557E+03  0.35807077997E+03  0.12495718604E+03 0.  0.
         24    2    1    2    0    0  0.65554591003E+02  0.24801951192E+01 -0.27595922217E+03  0.29498343249E+03  0.80982574508E+02 0.  0.
        -13    1    3    3    0    0  0.50028257606E+02 -0.13523443951E+02 -0.14660625175E+04  0.14669781918E+04  0.00000000000E+00 0.  1.
         14    1    3    3    0    0 -0.52965514452E+01 -0.58636119092E+02 -0.86694976286E+03  0.86894656869E+03  0.00000000000E+00 0. -1.
        -13    1    5    5    0    0  0.83145550047E+01 -0.21833297150E+02 -0.17615239817E+02  0.29259551657E+02  0.00000000000E+00 0.  1.
         14    1    5    5    0    0  0.57240035998E+02  0.24313492269E+02 -0.25834398235E+03  0.26572388084E+03  0.00000000000E+00 0. -1.
          5    1    4    4  501    0 -0.19497861641E+03  0.80861788133E+02 -0.26300871287E+03  0.33726986625E+03  0.47000000000E+01 0.  1.
         -5    1    4    4    0  501 -0.15026874161E+02 -0.58670294205E+01  0.12262097298E+02  0.20800913716E+02  0.47000000000E+01 0.  1.
          1    1    1    2  502    0  0.62083322871E+02 -0.58866320660E+02  0.17321481633E+04  0.17342597390E+04  0.00000000000E+00 0. -1.
          1    1    1    2  503    0  0.37635870540E+02  0.53550929873E+02 -0.29074891070E+03  0.29802531757E+03  0.00000000000E+00 0. -1.
<mgrwt>
<rscale>  0 0.74830612E+02</rscale>
<asrwt>0</asrwt>
<pdfrwt beam="1">  1        2 0.26492244E+00 0.85551122E+02</pdfrwt>
<pdfrwt beam="2">  1        2 0.47349873E+00 0.65453501E+02</pdfrwt>
<totfact> 0.42626108E+00</totfact>
</mgrwt>
</event>
<event>
13    1  0.2038932E-008  0.1782546E+03  0.7546771E-02  0.1338112E+00
          2   -1    0    0  502    0  0.00000000000E+00  0.00000000000E+00  0.21817426757E+04  0.21817426757E+04  0.00000000000E+00 0. -1.
          2   -1    0    0  503    0 -0.00000000000E+00 -0.00000000000E+00 -0.23465855869E+04  0.23465855869E+04  0.00000000000E+00 0. -1.
         24    2    1    2    0    0 -0.57838262734E+03  0.11977834028E+02  0.82173644617E+03  0.10106672698E+04  0.10736671315E+03 0.  0.
         25    2    1    2    0    0  0.57001397787E+03 -0.68492220845E+02 -0.73652655998E+03  0.94218069142E+03  0.12500384973E+03 0.  0.
         24    2    1    2    0    0  0.16098454866E+03  0.45290035582E+02  0.95355034450E+02  0.20616112246E+03  0.73774071241E+02 0.  0.
        -11    1    5    5    0    0  0.10756595779E+03  0.49864824364E+02  0.95981935209E+02  0.15254333113E+03  0.00000000000E+00 0.  1.
         12    1    5    5    0    0  0.53418590867E+02 -0.45747887815E+01 -0.62690075872E+00  0.53617791330E+02  0.00000000000E+00 0. -1.
        -13    1    3    3    0    0 -0.12250186235E+03 -0.31288446186E+02  0.13223736044E+03  0.18295461907E+03  0.00000000000E+00 0.  1.
         14    1    3    3    0    0 -0.45588076499E+03  0.43266280214E+02  0.68949908573E+03  0.82771265069E+03  0.00000000000E+00 0. -1.
          5    1    4    4  501    0  0.28997752146E+03 -0.38775212734E+02 -0.47469606326E+03  0.55762794276E+03  0.47000000000E+01 0.  1.
         -5    1    4    4    0  501  0.28003645640E+03 -0.29717008111E+02 -0.26183049672E+03  0.38455274865E+03  0.47000000000E+01 0.  1.
          1    1    1    2  502    0 -0.17819077802E+03 -0.98947806317E+01  0.10038818983E+04  0.10196218543E+04  0.00000000000E+00 0. -1.
          1    1    1    2  503    0  0.25574878841E+02  0.21119131867E+02 -0.13492897301E+04  0.13496973246E+04  0.00000000000E+00 0. -1.
<mgrwt>
<rscale>  0 0.76891370E+02</rscale>
<asrwt>0</asrwt>
<pdfrwt beam="1">  1        2 0.32084451E+00 0.17825457E+03</pdfrwt>
<pdfrwt beam="2">  1        2 0.34508611E+00 0.33167637E+02</pdfrwt>
<totfact> 0.78662888E+00</totfact>
</mgrwt>
</event>
<event>
13    1  0.2038932E-008  0.3447659E+03  0.7546771E-02  0.1293607E+00
          2   -1    0    0  503    0  0.00000000000E+00  0.00000000000E+00  0.11328404293E+04  0.11328404293E+04  0.00000000000E+00 0. -1.
          2   -1    0    0  502    0 -0.00000000000E+00 -0.00000000000E+00 -0.48242483462E+04  0.48242483462E+04  0.00000000000E+00 0. -1.
         24    2    1    2    0    0  0.45315176208E+02 -0.28634371749E+03 -0.37113339522E+03  0.47744439760E+03  0.78530032570E+02 0.  0.
         25    2    1    2    0    0  0.25824568452E+02 -0.13386822565E+03  0.12651535085E+03  0.22409734152E+03  0.12500349715E+03 0.  0.
         24    2    1    2    0    0 -0.48287561738E+02  0.43268299304E+02  0.10199788213E+02  0.10461030691E+03  0.81458248741E+02 0.  0.
        -11    1    3    3    0    0  0.58941993495E+02 -0.12279649112E+03 -0.16490228514E+03  0.21388291300E+03  0.00000000000E+00 0.  1.
         12    1    3    3    0    0 -0.13626817286E+02 -0.16354722636E+03 -0.20623111008E+03  0.26356148461E+03  0.00000000000E+00 0. -1.
        -13    1    5    5    0    0  0.86363148719E+01 -0.77396753016E+01 -0.19435398910E+02  0.22632349395E+02  0.00000000000E+00 0.  1.
         14    1    5    5    0    0 -0.56923876610E+02  0.51007974605E+02  0.29635187124E+02  0.81977957510E+02  0.00000000000E+00 0. -1.
          5    1    4    4  501    0  0.32401066771E+02 -0.37742208791E+02 -0.15593140416E+02  0.52340610241E+02  0.47000000000E+01 0.  1.
         -5    1    4    4    0  501 -0.65764983191E+01 -0.96126016858E+02  0.14210849127E+03  0.17175673127E+03  0.47000000000E+01 0.  1.
          1    1    1    2  502    0 -0.25042894538E+02  0.35144729346E+03 -0.42965569814E+04  0.43109794991E+04  0.00000000000E+00 0. -1.
          1    1    1    2  503    0  0.21907116159E+01  0.25496350375E+02  0.83956732064E+03  0.83995723045E+03  0.00000000000E+00 0. -1.
<mgrwt>
<rscale>  0 0.93929013E+02</rscale>
<asrwt>0</asrwt>
<pdfrwt beam="1">  1        2 0.16659418E+00 0.25590293E+02</pdfrwt>
<pdfrwt beam="2">  1        2 0.70944828E+00 0.34476586E+03</pdfrwt>
<totfact> 0.52983695E-01</totfact>
</mgrwt>
</event>
<event>
13    1  0.2038932E-008  0.2674577E+03  0.7546771E-02  0.1128850E+00
          2   -1    0    0  503    0  0.00000000000E+00  0.00000000000E+00  0.20871398041E+04  0.20871398041E+04  0.00000000000E+00 0. -1.
          2   -1    0    0  502    0 -0.00000000000E+00 -0.00000000000E+00 -0.17359986739E+04  0.17359986739E+04  0.00000000000E+00 0. -1.
         24    2    1    2    0    0 -0.78528260740E+03  0.25266106473E+03 -0.24301288072E+03  0.86383004206E+03  0.81490454939E+02 0.  0.
         25    2    1    2    0    0  0.56761712027E+02  0.22323071126E+03  0.68042949667E+03  0.72915305662E+03  0.12500415046E+03 0.  0.
         24    2    1    2    0    0  0.64320206286E+03 -0.42854025331E+03  0.52045848345E+03  0.93685341673E+03  0.97271008441E+02 0.  0.
        -11    1    3    3    0    0 -0.52910670052E+03  0.20060280196E+03 -0.19155543301E+03  0.59740176482E+03  0.00000000000E+00 0.  1.
         12    1    3    3    0    0 -0.25617590688E+03  0.52058262775E+02 -0.51457447709E+02  0.26642827724E+03  0.00000000000E+00 0. -1.
        -11    1    5    5    0    0  0.34512361446E+03 -0.28651999160E+03  0.31136123152E+03  0.54603098020E+03  0.00000000000E+00 0.  1.
         12    1    5    5    0    0  0.29807844839E+03 -0.14202026171E+03  0.20909725193E+03  0.39082243653E+03  0.00000000000E+00 0. -1.
          5    1    4    4  501    0  0.34816847753E+02  0.27205499438E+02  0.27150339503E+03  0.27511549502E+03  0.47000000000E+01 0. -1.
         -5    1    4    4    0  501  0.21944864275E+02  0.19602521182E+03  0.40892610164E+03  0.45403756160E+03  0.47000000000E+01 0. -1.
          1    1    1    2  502    0 -0.14298542469E+03  0.12884296753E+03 -0.87711706009E+03  0.89798645817E+03  0.00000000000E+00 0. -1.
          1    1    1    2  503    0  0.22830425720E+03 -0.17619449022E+03  0.27038309084E+03  0.39531550444E+03  0.00000000000E+00 0. -1.
<mgrwt>
<rscale>  0 0.22688769E+03</rscale>
<asrwt>0</asrwt>
<pdfrwt beam="1">  1        2 0.30693233E+00 0.26745767E+03</pdfrwt>
<pdfrwt beam="2">  1        2 0.25529392E+00 0.19247167E+03</pdfrwt>
<totfact> 0.13584052E+01</totfact>
</mgrwt>
</event>
<event>
13    1  0.2038932E-008  0.1282015E+03  0.7546771E-02  0.1334379E+00
          2   -1    0    0  502    0  0.00000000000E+00  0.00000000000E+00  0.18041419453E+04  0.18041419453E+04  0.00000000000E+00 0. -1.
          4   -1    0    0  503    0 -0.00000000000E+00 -0.00000000000E+00 -0.65246182140E+03  0.65246182140E+03  0.00000000000E+00 0. -1.
         24    2    1    2    0    0 -0.12205152963E+03  0.15823538159E+03 -0.88375656171E+02  0.23272533373E+03  0.80098767039E+02 0.  0.
         25    2    1    2    0    0  0.18903148194E+03 -0.59685221618E+02  0.57191646623E+03  0.61806868990E+03  0.12500093697E+03 0.  0.
         24    2    1    2    0    0  0.22870238125E+02 -0.17748371568E+03  0.11639864488E+02  0.19965630211E+03  0.87770356069E+02 0.  0.
        -11    1    3    3    0    0  0.88686263590E+00  0.44334921745E+02 -0.25047236609E+01  0.44414473453E+02  0.00000000000E+00 0.  1.
         12    1    3    3    0    0 -0.12293839227E+03  0.11390045985E+03 -0.85870932510E+02  0.18831086027E+03  0.00000000000E+00 0. -1.
        -11    1    5    5    0    0  0.46156093764E+02 -0.73598569349E+02  0.29416422747E+02  0.91719465376E+02  0.00000000000E+00 0.  1.
         12    1    5    5    0    0 -0.23285855639E+02 -0.10388514633E+03 -0.17776558259E+02  0.10793683673E+03  0.00000000000E+00 0. -1.
          5    1    4    4  501    0  0.11038261473E+03 -0.79764584749E+02  0.23660159183E+03  0.27303683610E+03  0.47000000000E+01 0. -1.
         -5    1    4    4    0  501  0.78648867219E+02  0.20079363131E+02  0.33531487440E+03  0.34503185380E+03  0.47000000000E+01 0. -1.
          1    1    1    2  502    0 -0.31679192143E+02 -0.35583170128E+02  0.10197502474E+04  0.10208625276E+04  0.00000000000E+00 0. -1.
          3    1    1    2  503    0 -0.58170998295E+02  0.11451672583E+03 -0.36325079811E+03  0.38529091329E+03  0.00000000000E+00 0. -1.
<mgrwt>
<rscale>  0 0.78152038E+02</rscale>
<asrwt>0</asrwt>
<pdfrwt beam="1">  1        2 0.26531499E+00 0.47641717E+02</pdfrwt>
<pdfrwt beam="2">  1        4 0.95950269E-01 0.12820153E+03</pdfrwt>
<totfact> 0.59677542E+00</totfact>
</mgrwt>
</event>
<event>
13    1  0.2038932E-008  0.4361893E+02  0.7546771E-02  0.1524710E+00
          2   -1    0    0  502    0  0.00000000000E+00  0.00000000000E+00  0.40930737382E+03  0.40930737382E+03  0.00000000000E+00 0. -1.
          2   -1    0    0  503    0 -0.00000000000E+00 -0.00000000000E+00 -0.22797490264E+04  0.22797490264E+04  0.00000000000E+00 0. -1.
         24    2    1    2    0    0  0.14530897630E+02  0.11394345591E+02 -0.79856906367E+02  0.11605580282E+03  0.82163530702E+02 0.  0.
         25    2    1    2    0    0 -0.95586710193E+02  0.55599216875E+02 -0.25814569939E+03  0.30739497680E+03  0.12499751025E+03 0.  0.
         24    2    1    2    0    0  0.82645898982E+02 -0.55558565385E+02  0.29976382268E+03  0.32654819058E+03  0.82814688158E+02 0.  0.
        -11    1    3    3    0    0 -0.22787142646E+02  0.31763885506E+02 -0.52666263700E+02  0.65589127335E+02  0.00000000000E+00 0.  1.
         12    1    3    3    0    0  0.37318040276E+02 -0.20369539915E+02 -0.27190642666E+02  0.50466675490E+02  0.00000000000E+00 0. -1.
        -11    1    5    5    0    0 -0.42862221914E+01 -0.19501256494E+02  0.13769563397E+03  0.13913575500E+03  0.00000000000E+00 0.  1.
         12    1    5    5    0    0  0.86932121173E+02 -0.36057308891E+02  0.16206818871E+03  0.18741243557E+03  0.00000000000E+00 0. -1.
          5    1    4    4  501    0 -0.11865938421E+03  0.71367580178E+02 -0.21348612282E+03  0.25450303652E+03  0.47000000000E+01 0.  1.
         -5    1    4    4    0  501  0.23072674018E+02 -0.15768363303E+02 -0.44659576568E+02  0.52891940283E+02  0.47000000000E+01 0.  1.
          1    1    1    2  502    0 -0.48335357482E+01 -0.44106721485E+02  0.44046464858E+02  0.62520852637E+02  0.00000000000E+00 0. -1.
          1    1    1    2  503    0  0.32434493296E+01  0.32671724404E+02 -0.18762493344E+04  0.18765365774E+04  0.00000000000E+00 0. -1.
<mgrwt>
<rscale>  0 0.37843241E+02</rscale>
<asrwt>0</asrwt>
<pdfrwt beam="1">  1        2 0.60192262E-01 0.43618930E+02</pdfrwt>
<pdfrwt beam="2">  1        2 0.33525720E+00 0.32832325E+02</pdfrwt>
<totfact> 0.98779993E+01</totfact>
</mgrwt>
</event>
<event>
13    1  0.2038932E-008  0.6425277E+02  0.7546771E-02  0.1434815E+00
          2   -1    0    0  503    0  0.00000000000E+00  0.00000000000E+00  0.48798396310E+04  0.48798396310E+04  0.00000000000E+00 0. -1.
          2   -1    0    0  502    0 -0.00000000000E+00 -0.00000000000E+00 -0.36052400027E+04  0.36052400027E+04  0.00000000000E+00 0. -1.
         24    2    1    2    0    0 -0.71855874354E+01 -0.15796531033E+02 -0.40050524612E+02  0.10697467000E+03  0.97664591538E+02 0.  0.
         25    2    1    2    0    0 -0.75932418973E+02  0.18068974192E+02  0.66555336464E+02  0.16170270323E+03  0.12500372530E+03 0.  0.
         24    2    1    2    0    0  0.62440130259E+02  0.68042996259E+01 -0.52060746828E+03  0.53071564358E+03  0.81742828155E+02 0.  0.
        -11    1    3    3    0    0  0.55490121910E+01  0.60144686634E+01 -0.68468229764E+02  0.68955520857E+02  0.00000000000E+00 0.  1.
         12    1    3    3    0    0 -0.12734599626E+02 -0.21810999697E+02  0.28417705152E+02  0.38019149142E+02  0.00000000000E+00 0. -1.
        -11    1    5    5    0    0  0.22814588200E+02 -0.37343558100E+02 -0.21904120159E+03  0.22336986090E+03  0.00000000000E+00 0.  1.
         12    1    5    5    0    0  0.39625542060E+02  0.44147857726E+02 -0.30156626669E+03  0.30734578268E+03  0.00000000000E+00 0. -1.
          5    1    4    4  501    0  0.32061043670E+01  0.58048890474E+02  0.21756763705E+02  0.62252707230E+02  0.47000000000E+01 0.  1.
         -5    1    4    4    0  501 -0.79138523340E+02 -0.39979916282E+02  0.44798572759E+02  0.99449995996E+02  0.47000000000E+01 0.  1.
          1    1    1    2  502    0 -0.33522947874E+02  0.25455986585E+02 -0.29581239973E+04  0.29584234617E+04  0.00000000000E+00 0. -1.
          1    1    1    2  503    0  0.54200824023E+02 -0.34532729370E+02  0.47268262820E+04  0.47272631552E+04  0.00000000000E+00 0. -1.
<mgrwt>
<rscale>  0 0.52005504E+02</rscale>
<asrwt>0</asrwt>
<pdfrwt beam="1">  1        2 0.71762347E+00 0.64252769E+02</pdfrwt>
<pdfrwt beam="2">  1        2 0.53018236E+00 0.42092699E+02</pdfrwt>
<totfact> 0.41419157E-02</totfact>
</mgrwt>
</event>
<event>
13    1  0.2038932E-008  0.1074882E+03  0.7546771E-02  0.1331372E+00
          2   -1    0    0  503    0  0.00000000000E+00  0.00000000000E+00  0.63477737947E+03  0.63477737947E+03  0.00000000000E+00 0. -1.
          2   -1    0    0  502    0 -0.00000000000E+00 -0.00000000000E+00 -0.11239383128E+04  0.11239383128E+04  0.00000000000E+00 0. -1.
         24    2    1    2    0    0  0.18650898046E+03 -0.72080232640E+02 -0.34645664936E+03  0.40798522970E+03  0.80240750444E+02 0.  0.
         25    2    1    2    0    0 -0.23529855087E+03  0.75993143196E+02  0.81134756098E+02  0.28870122507E+03  0.12500073142E+03 0.  0.
         24    2    1    2    0    0  0.85244151731E+01 -0.68811018220E+02 -0.13077963839E+03  0.16794787293E+03  0.79344516646E+02 0.  0.
        -13    1    3    3    0    0  0.14324986316E+02 -0.36878712466E+02 -0.69581258463E+02  0.80042464951E+02  0.00000000000E+00 0.  1.
         14    1    3    3    0    0  0.17218399415E+03 -0.35201520174E+02 -0.27687539090E+03  0.32794276474E+03  0.00000000000E+00 0. -1.
        -13    1    5    5    0    0  0.22317954969E+02  0.10645333359E+02 -0.30772416522E+02  0.39476016198E+02  0.00000000000E+00 0.  1.
         14    1    5    5    0    0 -0.13793539796E+02 -0.79456351578E+02 -0.10000722187E+03  0.12847185673E+03  0.00000000000E+00 0. -1.
          5    1    4    4  501    0 -0.69688817349E+02  0.81529191918E+01  0.84128875924E+02  0.10964834298E+03  0.47000000000E+01 0. -1.
         -5    1    4    4    0  501 -0.16560973352E+03  0.67840224004E+02 -0.29941198264E+01  0.17905288209E+03  0.47000000000E+01 0. -1.
          1    1    1    2  502    0  0.80430738221E+02  0.10720821758E+03 -0.48225775080E+03  0.50053495759E+03  0.00000000000E+00 0. -1.
          1    1    1    2  503    0 -0.40165582982E+02 -0.42310109912E+02  0.38919834914E+03  0.39354640696E+03  0.00000000000E+00 0. -1.
<mgrwt>
<rscale>  0 0.79187964E+02</rscale>
<asrwt>0</asrwt>
<pdfrwt beam="1">  1        2 0.93349615E-01 0.58338833E+02</pdfrwt>
<pdfrwt beam="2">  1        2 0.16528504E+00 0.10748816E+03</pdfrwt>
<totfact> 0.20022313E+02</totfact>
</mgrwt>
</event>
<event>
13    1  0.2038932E-008  0.1672081E+03  0.7546771E-02  0.1289432E+00
          2   -1    0    0  502    0  0.00000000000E+00  0.00000000000E+00  0.18306440017E+04  0.18306440017E+04  0.00000000000E+00 0. -1.
          2   -1    0    0  503    0 -0.00000000000E+00 -0.00000000000E+00 -0.23854010953E+04  0.23854010953E+04  0.00000000000E+00 0. -1.
         24    2    1    2    0    0 -0.74892215967E+01  0.71948762333E+02 -0.17857356792E+03  0.20840649192E+03  0.79448309442E+02 0.  0.
         25    2    1    2    0    0 -0.78115873576E+02 -0.23445215362E+03  0.40069778970E+03  0.48708304025E+03  0.12498506864E+03 0.  0.
         24    2    1    2    0    0 -0.94854947560E+02  0.65549174441E+02  0.10451293242E+02  0.14071684454E+03  0.79986532989E+02 0.  0.
        -11    1    5    5    0    0 -0.76760636283E+02  0.49583096326E+02  0.42350269783E+02  0.10071853888E+03  0.00000000000E+00 0.  1.
         12    1    5    5    0    0 -0.18094311277E+02  0.15966078115E+02 -0.31898976540E+02  0.39998305655E+02  0.00000000000E+00 0. -1.
        -11    1    3    3    0    0 -0.42981747461E+02  0.48499663381E+02 -0.11222622488E+03  0.12959310751E+03  0.00000000000E+00 0.  1.
         12    1    3    3    0    0  0.35492525864E+02  0.23449098952E+02 -0.66347343044E+02  0.78813384414E+02  0.00000000000E+00 0. -1.
          5    1    4    4  501    0 -0.22708888113E+02 -0.20511368827E+03  0.25275264663E+03  0.32633312596E+03  0.47000000000E+01 0.  1.
         -5    1    4    4    0  501 -0.55406985463E+02 -0.29338465349E+02  0.14794514307E+03  0.16074991429E+03  0.47000000000E+01 0.  1.
          1    1    1    2  502    0 -0.48554671551E+02  0.25542550072E+02  0.12887626488E+04  0.12899298985E+04  0.00000000000E+00 0. -1.
          1    1    1    2  503    0  0.22901471428E+03  0.71411666777E+02 -0.20760952574E+04  0.20899088218E+04  0.00000000000E+00 0. -1.
<mgrwt>
<rscale>  0 0.95778808E+02</rscale>
<asrwt>0</asrwt>
<pdfrwt beam="1">  1        2 0.26921235E+00 0.54863266E+02</pdfrwt>
<pdfrwt beam="2">  1        2 0.35079428E+00 0.16720806E+03</pdfrwt>
<totfact> 0.10226712E+01</totfact>
</mgrwt>
</event>
<event>
13    1  0.2038932E-008  0.9671036E+02  0.7546771E-02  0.1418543E+00
          2   -1    0    0  503    0  0.00000000000E+00  0.00000000000E+00  0.30222316093E+04  0.30222316093E+04  0.00000000000E+00 0. -1.
          2   -1    0    0  502    0 -0.00000000000E+00 -0.00000000000E+00 -0.27577881184E+03  0.27577881184E+03  0.00000000000E+00 0. -1.
         24    2    1    2    0    0  0.63787210438E+02 -0.59683684538E+01 -0.88167307877E+02  0.13625949898E+03  0.81784761699E+02 0.  0.
         25    2    1    2    0    0 -0.92784873303E+02 -0.10488477123E+02  0.12688492240E+04  0.12784085528E+04  0.12502413238E+03 0.  0.
         24    2    1    2    0    0  0.70608290758E+02  0.94721915224E+02  0.63914477712E+03  0.65476103774E+03  0.79045546887E+02 0.  0.
        -11    1    3    3    0    0 -0.10106141829E+02 -0.23137958509E+02 -0.36852508420E+02  0.44672212879E+02  0.00000000000E+00 0.  1.
         12    1    3    3    0    0  0.73893352267E+02  0.17169590055E+02 -0.51314799458E+02  0.91587286100E+02  0.00000000000E+00 0. -1.
        -13    1    5    5    0    0  0.63684904402E+02  0.61376626343E+02  0.57837702824E+03  0.58510071279E+03  0.00000000000E+00 0.  1.
         14    1    5    5    0    0  0.69233863565E+01  0.33345288881E+02  0.60767748879E+02  0.69660324957E+02  0.00000000000E+00 0. -1.
          5    1    4    4  501    0 -0.52228508844E+02  0.37128356690E+02  0.10110098223E+04  0.10130494967E+04  0.47000000000E+01 0.  1.
         -5    1    4    4    0  501 -0.40556364459E+02 -0.47616833813E+02  0.25783940173E+03  0.26535905608E+03  0.47000000000E+01 0.  1.
          1    1    1    2  502    0 -0.72842254263E+02 -0.83430584901E+02 -0.13039668279E+03  0.17108463223E+03  0.00000000000E+00 0. -1.
          1    1    1    2  503    0  0.31231626370E+02  0.51655152538E+01  0.10570227870E+04  0.10574966994E+04  0.00000000000E+00 0. -1.
<mgrwt>
<rscale>  0 0.55330417E+02</rscale>
<asrwt>0</asrwt>
<pdfrwt beam="1">  1        2 0.44444581E+00 0.31655916E+02</pdfrwt>
<pdfrwt beam="2">  1        2 0.40555709E-01 0.96710360E+02</pdfrwt>
<totfact> 0.66023651E+01</totfact>
</mgrwt>
</event>
<event>
13    1  0.2038932E-008  0.7856740E+02  0.7546771E-02  0.1351498E+00
          2   -1    0    0  502    0  0.00000000000E+00  0.00000000000E+00  0.20853530480E+04  0.20853530480E+04  0.00000000000E+00 0. -1.
          2   -1    0    0  503    0 -0.00000000000E+00 -0.00000000000E+00 -0.21862893642E+04  0.21862893642E+04  0.00000000000E+00 0. -1.
         24    2    1    2    0    0  0.47114485835E+02 -0.47262564541E+03 -0.65494567647E+03  0.81406990146E+03  0.90339304067E+02 0.  0.
         25    2    1    2    0    0 -0.10073670601E+03  0.41602022383E+03  0.26941112653E+03  0.52098785084E+03  0.12500110019E+03 0.  0.
         24    2    1    2    0    0  0.23333256993E+02  0.19880678297E+03 -0.23791574374E+02  0.21670858144E+03  0.79548679576E+02 0.  0.
        -11    1    5    5    0    0  0.48473571103E+02  0.84822616111E+02 -0.21126468973E+02  0.99954444577E+02  0.00000000000E+00 0.  1.
         12    1    5    5    0    0 -0.25140314110E+02  0.11398416686E+03 -0.26651054002E+01  0.11675413686E+03  0.00000000000E+00 0. -1.
        -11    1    3    3    0    0  0.56096648288E+01 -0.37299879228E+03 -0.54078305087E+03  0.65696717992E+03  0.00000000000E+00 0.  1.
         12    1    3    3    0    0  0.41504821006E+02 -0.99626853129E+02 -0.11416262560E+03  0.15710272154E+03  0.00000000000E+00 0. -1.
          5    1    4    4  501    0  0.28667765262E+02  0.56246604260E+02  0.44452097291E+02  0.77353734295E+02  0.47000000000E+01 0.  1.
         -5    1    4    4    0  501 -0.12940447127E+03  0.35977361957E+03  0.22495902923E+03  0.44363411654E+03  0.47000000000E+01 0.  1.
          1    1    1    2  502    0  0.16536472118E+02 -0.64998354078E+02  0.15121137912E+04  0.15136004620E+04  0.00000000000E+00 0. -1.
          1    1    1    2  503    0  0.13752491061E+02 -0.77203007316E+02 -0.12037239831E+04  0.12062756165E+04  0.00000000000E+00 0. -1.
<mgrwt>
<rscale>  0 0.72590850E+02</rscale>
<asrwt>0</asrwt>
<pdfrwt beam="1">  1        2 0.30666957E+00 0.67068927E+02</pdfrwt>
<pdfrwt beam="2">  1        2 0.32151314E+00 0.78567404E+02</pdfrwt>
<totfact> 0.10390388E+01</totfact>
</mgrwt>
</event>
<event>
13    1  0.2038932E-008  0.6155597E+02  0.7546771E-02  0.1437634E+00
          2   -1    0    0  503    0  0.00000000000E+00  0.00000000000E+00  0.22029570948E+04  0.22029570948E+04  0.00000000000E+00 0. -1.
          2   -1    0    0  502    0 -0.00000000000E+00 -0.00000000000E+00 -0.49869694698E+03  0.49869694698E+03  0.00000000000E+00 0. -1.
         24    2    1    2    0    0 -0.73444166849E+02 -0.53475102558E+02 -0.13184299182E+03  0.17968700331E+03  0.81554965681E+02 0.  0.
         25    2    1    2    0    0  0.17018298251E+03  0.27866614236E+03  0.15080374851E+03  0.38076747363E+03  0.12500012790E+03 0.  0.
         24    2    1    2    0    0 -0.83630888676E+02 -0.20726963425E+03  0.15829196096E+04  0.16006246670E+04  0.80062520556E+02 0.  0.
        -13    1    3    3    0    0 -0.51233103477E+02 -0.46319186836E+02 -0.13905468537E+03  0.15526269186E+03  0.00000000000E+00 0.  1.
         14    1    3    3    0    0 -0.22211063373E+02 -0.71559157218E+01  0.72116935443E+01  0.24424311448E+02  0.00000000000E+00 0. -1.
        -13    1    5    5    0    0 -0.48287297792E+01 -0.67754490245E+02  0.69960025051E+03  0.70289010385E+03  0.00000000000E+00 0.  1.
         14    1    5    5    0    0 -0.78802158896E+02 -0.13951514400E+03  0.88331935912E+03  0.89773456313E+03  0.00000000000E+00 0. -1.
          5    1    4    4  501    0  0.72083213850E+02  0.16226767038E+03  0.17693991021E+02  0.17849917055E+03  0.47000000000E+01 0.  1.
         -5    1    4    4    0  501  0.98099768661E+02  0.11639847198E+03  0.13310975749E+03  0.20226830308E+03  0.47000000000E+01 0.  1.
          1    1    1    2  502    0  0.41429836666E+02  0.11573588100E+02 -0.21394717064E+03  0.21822871289E+03  0.00000000000E+00 0. -1.
          1    1    1    2  503    0 -0.54537763652E+02 -0.29494993656E+02  0.31632695219E+03  0.32234618502E+03  0.00000000000E+00 0. -1.
<mgrwt>
<rscale>  0 0.51457688E+02</rscale>
<asrwt>0</asrwt>
<pdfrwt beam="1">  1        2 0.32396427E+00 0.61555967E+02</pdfrwt>
<pdfrwt beam="2">  1        2 0.73337787E-01 0.43016035E+02</pdfrwt>
<totfact> 0.80772090E+01</totfact>
</mgrwt>
</event>
<event>
13    1  0.2038932E-008  0.5934622E+02  0.7546771E-02  0.1483001E+00
          2   -1    0    0  502    0  0.00000000000E+00  0.00000000000E+00  0.21571491263E+04  0.21571491263E+04  0.00000000000E+00 0. -1.
          2   -1    0    0  503    0 -0.00000000000E+00 -0.00000000000E+00 -0.26391173892E+04  0.26391173892E+04  0.00000000000E+00 0. -1.
         24    2    1    2    0    0 -0.11940234619E+03  0.45178960839E+03 -0.35725802280E+03  0.59851228907E+03  0.11051196674E+03 0.  0.
         25    2    1    2    0    0  0.12940067468E+03 -0.56477670616E+03  0.18223565699E+03  0.62012250960E+03  0.12499931923E+03 0.  0.
         24    2    1    2    0    0 -0.80886278951E+02  0.16791133860E+03  0.99360446745E+01  0.20273084742E+03  0.79147102031E+02 0.  0.
        -13    1    5    5    0    0 -0.73619277931E+02  0.61791713958E+02  0.53892778762E+01  0.96265561407E+02  0.00000000000E+00 0.  1.
         14    1    5    5    0    0 -0.72670010192E+01  0.10611962464E+03  0.45467667983E+01  0.10646528601E+03  0.00000000000E+00 0. -1.
        -13    1    3    3    0    0 -0.34184928699E+02  0.32874831569E+03 -0.24566192879E+03  0.41181773599E+03  0.00000000000E+00 0.  1.
         14    1    3    3    0    0 -0.85217417487E+02  0.12304129270E+03 -0.11159609400E+03  0.18669455308E+03  0.00000000000E+00 0. -1.
          5    1    4    4  501    0  0.12338808337E+03 -0.55844256968E+03  0.15712086584E+03  0.59312037499E+03  0.47000000000E+01 0.  1.
         -5    1    4    4    0  501  0.60125913071E+01 -0.63341364822E+01  0.25114791145E+02  0.27002134609E+02  0.47000000000E+01 0.  1.
          1    1    1    2  502    0  0.19290579034E+02 -0.25649063633E+02  0.15283643149E+04  0.15287012396E+04  0.00000000000E+00 0. -1.
          1    1    1    2  503    0  0.51597371422E+02 -0.29275177194E+02 -0.18452462568E+04  0.18461996297E+04  0.00000000000E+00 0. -1.
<mgrwt>
<rscale>  0 0.43642129E+02</rscale>
<asrwt>0</asrwt>
<pdfrwt beam="1">  1        2 0.31722781E+00 0.32093627E+02</pdfrwt>
<pdfrwt beam="2">  1        2 0.38810550E+00 0.59346219E+02</pdfrwt>
<totfact> 0.65828963E+00</totfact>
</mgrwt>
</event>
<event>
13    1  0.2038932E-008  0.1933524E+03  0.7546771E-02  0.1258064E+00
          2   -1    0    0  503    0  0.00000000000E+00  0.00000000000E+00  0.91701823765E+03  0.91701823765E+03  0.00000000000E+00 0. -1.
          2   -1    0    0  502    0 -0.00000000000E+00 -0.00000000000E+00 -0.16330303236E+04  0.16330303236E+04  0.00000000000E+00 0. -1.
         24    2    1    2    0    0  0.60029295147E+01  0.24843160877E+02 -0.78069981807E+02  0.11538231981E+03  0.81024316475E+02 0.  0.
         25    2    1    2    0    0 -0.40771496670E+02 -0.21407454172E+03  0.18985406837E+03  0.31489616358E+03  0.12499920884E+03 0.  0.
         24    2    1    2    0    0 -0.78965780304E+02 -0.36904007457E+02  0.26901521418E+01  0.11933758481E+03  0.81466078855E+02 0.  0.
        -11    1    5    5    0    0 -0.99067975800E+01  0.24759650814E+02 -0.92874761663E+00  0.26684218536E+02  0.00000000000E+00 0.  1.
         12    1    5    5    0    0 -0.69058982724E+02 -0.61663658271E+02  0.36188997585E+01  0.92653366273E+02  0.00000000000E+00 0. -1.
        -11    1    3    3    0    0  0.14070029825E+01 -0.21793113022E+02 -0.62173458080E+02  0.65897331678E+02  0.00000000000E+00 0.  1.
         12    1    3    3    0    0  0.45959265322E+01  0.46636273899E+02 -0.15896523727E+02  0.49484988132E+02  0.00000000000E+00 0. -1.
          5    1    4    4  501    0 -0.49311578527E+02 -0.15990645973E+03  0.67066713697E+02  0.18033785439E+03  0.47000000000E+01 0.  1.
         -5    1    4    4    0  501  0.85400818568E+01 -0.54168081984E+02  0.12278735468E+03  0.13455830919E+03  0.47000000000E+01 0.  1.
          1    1    1    2  502    0  0.28169634392E+02  0.57625590047E+02 -0.13994413005E+04  0.14009104862E+04  0.00000000000E+00 0. -1.
          1    1    1    2  503    0  0.85564713067E+02  0.16850979825E+03  0.56895497578E+03  0.59952200685E+03  0.00000000000E+00 0. -1.
<mgrwt>
<rscale>  0 0.11136458E+03</rscale>
<asrwt>0</asrwt>
<pdfrwt beam="1">  1        2 0.13485562E+00 0.19335237E+03</pdfrwt>
<pdfrwt beam="2">  1        2 0.24015151E+00 0.64142318E+02</pdfrwt>
<totfact> 0.71282745E+01</totfact>
</mgrwt>
</event>
<event>
13    1  0.2038932E-008  0.9465102E+02  0.7546771E-02  0.1318724E+00
          2   -1    0    0  502    0  0.00000000000E+00  0.00000000000E+00  0.12753618860E+04  0.12753618860E+04  0.00000000000E+00 0. -1.
          2   -1    0    0  503    0 -0.00000000000E+00 -0.00000000000E+00 -0.11603334149E+04  0.11603334149E+04  0.00000000000E+00 0. -1.
         24    2    1    2    0    0  0.26829885708E+02  0.70790089249E+02 -0.45428500910E+03  0.46741279528E+03  0.79804587550E+02 0.  0.
         25    2    1    2    0    0 -0.16079540696E+03 -0.19616463536E+03  0.88796538542E+02  0.29638650053E+03  0.12499762148E+03 0.  0.
         24    2    1    2    0    0  0.45454128391E+02  0.79879605711E+02 -0.18693648671E+03  0.22416313223E+03  0.82807189253E+02 0.  0.
        -11    1    5    5    0    0  0.44018366605E+01 -0.17373385798E+02 -0.22613934703E+02  0.28854821830E+02  0.00000000000E+00 0.  1.
         12    1    5    5    0    0  0.41052291730E+02  0.97252991509E+02 -0.16432255201E+03  0.19530831040E+03  0.00000000000E+00 0. -1.
        -11    1    3    3    0    0  0.50518237025E+02  0.22239489211E+02 -0.25735528987E+03  0.26320796412E+03  0.00000000000E+00 0.  1.
         12    1    3    3    0    0 -0.23688351316E+02  0.48550600038E+02 -0.19692971923E+03  0.20420483115E+03  0.00000000000E+00 0. -1.
          5    1    4    4  501    0 -0.14160194886E+03 -0.15941102445E+03  0.17773172660E+02  0.21401159385E+03  0.47000000000E+01 0.  1.
         -5    1    4    4    0  501 -0.19193458098E+02 -0.36753610907E+02  0.71023365883E+02  0.82374906676E+02  0.47000000000E+01 0.  1.
          1    1    1    2  502    0  0.90297621343E+02 -0.28595029302E+02  0.10519264516E+04  0.10561820846E+04  0.00000000000E+00 0. -1.
          1    1    1    2  503    0 -0.17862284815E+01  0.74089969698E+02 -0.38447302323E+03  0.39155078830E+03  0.00000000000E+00 0. -1.
<mgrwt>
<rscale>  0 0.83753978E+02</rscale>
<asrwt>0</asrwt>
<pdfrwt beam="1">  1        2 0.18755322E+00 0.94651018E+02</pdfrwt>
<pdfrwt beam="2">  1        2 0.17063727E+00 0.74111499E+02</pdfrwt>
<totfact> 0.79155309E+01</totfact>
</mgrwt>
</event>
<event>
13    1  0.2038932E-008  0.1065912E+03  0.7546771E-02  0.1313426E+00
          2   -1    0    0  502    0  0.00000000000E+00  0.00000000000E+00  0.12210647014E+04  0.12210647014E+04  0.00000000000E+00 0. -1.
          2   -1    0    0  503    0 -0.00000000000E+00 -0.00000000000E+00 -0.12301868379E+04  0.12301868379E+04  0.00000000000E+00 0. -1.
         24    2    1    2    0    0 -0.18010892843E+02  0.14683512042E+02 -0.19564338632E+03  0.21220306289E+03  0.78827707705E+02 0.  0.
         25    2    1    2    0    0  0.78346558472E+02  0.58916199837E+02  0.26903486793E+03  0.31243307503E+03  0.12500145751E+03 0.  0.
         24    2    1    2    0    0  0.86759554414E+01 -0.25901046590E+02 -0.13979818374E+03  0.16037619901E+03  0.73694345875E+02 0.  0.
        -11    1    3    3    0    0  0.11065927955E+02 -0.28226736089E+02 -0.74954514674E+02  0.80854082530E+02  0.00000000000E+00 0.  1.
         12    1    3    3    0    0 -0.29076820798E+02  0.42910248131E+02 -0.12068887164E+03  0.13134898036E+03  0.00000000000E+00 0. -1.
        -11    1    5    5    0    0 -0.31985247543E+02 -0.19367758052E+02 -0.64764816630E+02  0.74784006214E+02  0.00000000000E+00 0.  1.
         12    1    5    5    0    0  0.40661202985E+02 -0.65332885380E+01 -0.75033367110E+02  0.85592192793E+02  0.00000000000E+00 0. -1.
          5    1    4    4  501    0 -0.25312372681E+02  0.33339470335E+02  0.33616387952E+02  0.53892374524E+02  0.47000000000E+01 0.  1.
         -5    1    4    4    0  501  0.10365893115E+03  0.25576729503E+02  0.23541847998E+03  0.25854070050E+03  0.47000000000E+01 0.  1.
          1    1    1    2  502    0 -0.37916972336E+01  0.68914887085E+02  0.90521695987E+03  0.90784436060E+03  0.00000000000E+00 0. -1.
          1    1    1    2  503    0 -0.65219923836E+02 -0.11661355237E+03 -0.84793239426E+03  0.85839484173E+03  0.00000000000E+00 0. -1.
<mgrwt>
<rscale>  0 0.85771987E+02</rscale>
<asrwt>0</asrwt>
<pdfrwt beam="1">  1        2 0.17956834E+00 0.69019118E+02</pdfrwt>
<pdfrwt beam="2">  1        2 0.18090983E+00 0.10659125E+03</pdfrwt>
<totfact> 0.77434093E+01</totfact>
</mgrwt>
</event>
<event>
13    1  0.2038932E-008  0.9000105E+02  0.7546771E-02  0.1376365E+00
          2   -1    0    0  502    0  0.00000000000E+00  0.00000000000E+00  0.74023508926E+03  0.74023508926E+03  0.00000000000E+00 0. -1.
          2   -1    0    0  503    0 -0.00000000000E+00 -0.00000000000E+00 -0.23664699951E+04  0.23664699951E+04  0.00000000000E+00 0. -1.
         24    2    1    2    0    0  0.18673885583E+02 -0.41487845210E+02 -0.28871198753E+03  0.30318492974E+03  0.80601082991E+02 0.  0.
         25    2    1    2    0    0 -0.68785914420E+02  0.55587640943E+02  0.33203789773E+03  0.36564853015E+03  0.12501277627E+03 0.  0.
         24    2    1    2    0    0 -0.77824298766E+02 -0.54385171811E+02 -0.18117069802E+03  0.21984229304E+03  0.80581906136E+02 0.  0.
        -11    1    5    5    0    0 -0.58661382081E+02 -0.75516603918E+02 -0.14647415505E+03  0.17492453605E+03  0.00000000000E+00 0.  1.
         12    1    5    5    0    0 -0.19162916685E+02  0.21131432107E+02 -0.34696542960E+02  0.44917756981E+02  0.00000000000E+00 0. -1.
        -13    1    3    3    0    0  0.29521393712E+02 -0.53519690358E+02 -0.27573554549E+03  0.28242868302E+03  0.00000000000E+00 0.  1.
         14    1    3    3    0    0 -0.10847508130E+02  0.12031845148E+02 -0.12976442032E+02  0.20756246725E+02  0.00000000000E+00 0. -1.
          5    1    4    4  501    0 -0.41554096843E+02 -0.24731224909E+02  0.44701257811E+02  0.66020215842E+02  0.47000000000E+01 0.  1.
         -5    1    4    4    0  501 -0.27231817577E+02  0.80318865852E+02  0.28733663991E+03  0.29962831431E+03  0.47000000000E+01 0.  1.
          1    1    1    2  502    0  0.39014933540E+02  0.27208866944E+02  0.36217389513E+03  0.36528402346E+03  0.00000000000E+00 0. -1.
          1    1    1    2  503    0  0.88921394063E+02  0.13076509134E+02 -0.18505640132E+04  0.18527453080E+04  0.00000000000E+00 0. -1.
<mgrwt>
<rscale>  0 0.65429008E+02</rscale>
<asrwt>0</asrwt>
<pdfrwt beam="1">  1        2 0.10885810E+00 0.47565612E+02</pdfrwt>
<pdfrwt beam="2">  1        2 0.34801029E+00 0.90001050E+02</pdfrwt>
<totfact> 0.41919605E+01</totfact>
</mgrwt>
</event>
<event>
13    1  0.2038932E-008  0.1132627E+03  0.7546771E-02  0.1332531E+00
          2   -1    0    0  503    0  0.00000000000E+00  0.00000000000E+00  0.13859387174E+04  0.13859387174E+04  0.00000000000E+00 0. -1.
          2   -1    0    0  502    0 -0.00000000000E+00 -0.00000000000E+00 -0.15014680147E+04  0.15014680147E+04  0.00000000000E+00 0. -1.
         24    2    1    2    0    0 -0.15466237240E+03  0.45519058579E+02 -0.11065490157E+04  0.11220518417E+04  0.92505011016E+02 0.  0.
         25    2    1    2    0    0 -0.16624325132E+03  0.53944922720E+02  0.28340889219E+03  0.35565759081E+03  0.12499939374E+03 0.  0.
         24    2    1    2    0    0  0.43728844816E+03 -0.21417457713E+03  0.18200893286E+03  0.52659896214E+03  0.84185978046E+02 0.  0.
        -11    1    5    5    0    0  0.85891530271E+01 -0.21257372260E+02  0.13248435264E+01  0.22965291975E+02  0.00000000000E+00 0.  1.
         12    1    5    5    0    0  0.42869929514E+03 -0.19291720487E+03  0.18068408934E+03  0.50363367017E+03  0.00000000000E+00 0. -1.
        -11    1    3    3    0    0 -0.46284559687E+02 -0.22734145242E+02 -0.20189986311E+03  0.20838103693E+03  0.00000000000E+00 0.  1.
         12    1    3    3    0    0 -0.10837781272E+03  0.68253203821E+02 -0.90464915262E+03  0.91367080475E+03  0.00000000000E+00 0. -1.
          5    1    4    4  501    0 -0.55734664419E+02 -0.17360556012E+02  0.21212416826E+02  0.62288027345E+02  0.47000000000E+01 0. -1.
         -5    1    4    4    0  501 -0.11050858690E+03  0.71305478732E+02  0.26219647536E+03  0.29336956346E+03  0.47000000000E+01 0. -1.
          1    1    1    2  502    0 -0.67972866476E+02  0.89020122640E+02 -0.16000128172E+03  0.19530822554E+03  0.00000000000E+00 0. -1.
          1    1    1    2  503    0 -0.48409957965E+02  0.25690473194E+02  0.68560317509E+03  0.68779011198E+03  0.00000000000E+00 0. -1.
<mgrwt>
<rscale>  0 0.78786391E+02</rscale>
<asrwt>0</asrwt>
<pdfrwt beam="1">  1        2 0.20381452E+00 0.54804420E+02</pdfrwt>
<pdfrwt beam="2">  1        2 0.22080412E+00 0.11326268E+03</pdfrwt>
<totfact> 0.47060031E+01</totfact>
</mgrwt>
</event>
<event>
13    1  0.2038932E-008  0.1624336E+03  0.7546771E-02  0.1292414E+00
          2   -1    0    0  502    0  0.00000000000E+00  0.00000000000E+00  0.18360653332E+04  0.18360653332E+04  0.00000000000E+00 0. -1.
          2   -1    0    0  503    0 -0.00000000000E+00 -0.00000000000E+00 -0.48942016096E+03  0.48942016096E+03  0.00000000000E+00 0. -1.
         24    2    1    2    0    0 -0.70211905422E+02  0.29889720581E+00 -0.18445306085E+03  0.21307347442E+03  0.80296779792E+02 0.  0.
         25    2    1    2    0    0  0.46883902233E+02 -0.27387100078E+03  0.70261867586E+03  0.76583322527E+03  0.12499639956E+03 0.  0.
         24    2    1    2    0    0 -0.66591358529E+02  0.53448240505E+01  0.30365058029E+03  0.32061812163E+03  0.78290030222E+02 0.  0.
        -11    1    3    3    0    0  0.16763053830E+02 -0.30537080612E+01 -0.15574605977E+02  0.23084485222E+02  0.00000000000E+00 0.  1.
         12    1    3    3    0    0 -0.86974959252E+02  0.33526052670E+01 -0.16887845487E+03  0.18998898920E+03  0.00000000000E+00 0. -1.
        -11    1    5    5    0    0 -0.37691765925E+02 -0.16493610132E+02  0.26288211164E+03  0.26608215463E+03  0.00000000000E+00 0.  1.
         12    1    5    5    0    0 -0.28899592604E+02  0.21838434182E+02  0.40768468648E+02  0.54535966995E+02  0.00000000000E+00 0. -1.
          5    1    4    4  501    0  0.80041620645E+02 -0.20798878688E+03  0.59407318647E+03  0.63451638071E+03  0.47000000000E+01 0.  1.
         -5    1    4    4    0  501 -0.33157718412E+02 -0.65882213906E+02  0.10854548939E+03  0.13131684456E+03  0.47000000000E+01 0.  1.
          1    1    1    2  502    0  0.50366506071E+02  0.23012155570E+03  0.75418579841E+03  0.79011956934E+03  0.00000000000E+00 0. -1.
          1    1    1    2  503    0  0.39552855648E+02  0.38105723827E+02 -0.22935682144E+03  0.23584110354E+03  0.00000000000E+00 0. -1.
<mgrwt>
<rscale>  0 0.94452383E+02</rscale>
<asrwt>0</asrwt>
<pdfrwt beam="1">  1        2 0.27000961E+00 0.16243365E+03</pdfrwt>
<pdfrwt beam="2">  1        2 0.71973553E-01 0.54922441E+02</pdfrwt>
<totfact> 0.11153934E+02</totfact>
</mgrwt>
</event>
<event>
13    1  0.2038932E-008  0.1769697E+03  0.7546771E-02  0.1394010E+00
          2   -1    0    0  502    0  0.00000000000E+00  0.00000000000E+00  0.30778835577E+04  0.30778835577E+04  0.00000000000E+00 0. -1.
          2   -1    0    0  503    0 -0.00000000000E+00 -0.00000000000E+00 -0.43542682246E+04  0.43542682246E+04  0.00000000000E+00 0. -1.
         24    2    1    2    0    0  0.39514223203E+03 -0.40790045247E+03 -0.11091556545E+04  0.12471089860E+04  0.50342769151E+02 0.  0.
         25    2    1    2    0    0 -0.59007942670E+03 -0.28660763474E+02  0.15981649780E+04  0.17084408633E+04  0.12499486872E+03 0.  0.
         24    2    1    2    0    0  0.36905712490E+03  0.52092566271E+03 -0.49979760336E+03  0.81481374852E+03  0.80975878759E+02 0.  0.
        -11    1    5    5    0    0  0.25317381542E+03  0.34617479570E+03 -0.28686264194E+03  0.51596913215E+03  0.00000000000E+00 0.  1.
         12    1    5    5    0    0  0.11588330948E+03  0.17475086702E+03 -0.21293496142E+03  0.29884461637E+03  0.00000000000E+00 0. -1.
        -11    1    3    3    0    0  0.11525873336E+03 -0.11774573097E+03 -0.27363124110E+03  0.31940990730E+03  0.00000000000E+00 0.  1.
         12    1    3    3    0    0  0.27988349866E+03 -0.29015472149E+03 -0.83552441336E+03  0.92769907866E+03  0.00000000000E+00 0. -1.
          5    1    4    4  501    0 -0.15196528299E+03 -0.59765507236E+02  0.48359918875E+03  0.51044649911E+03  0.47000000000E+01 0.  1.
         -5    1    4    4    0  501 -0.43811414371E+03  0.31104743763E+02  0.11145657893E+04  0.11979943642E+04  0.47000000000E+01 0.  1.
          1    1    1    2  502    0 -0.20643919672E+02  0.36910912539E+01  0.11948267601E+04  0.11950107875E+04  0.00000000000E+00 0. -1.
          1    1    1    2  503    0 -0.15347601055E+03 -0.88055538028E+02 -0.24604231471E+04  0.24667773970E+04  0.00000000000E+00 0. -1.
<mgrwt>
<rscale>  0 0.60920312E+02</rscale>
<asrwt>0</asrwt>
<pdfrwt beam="1">  1        2 0.45262994E+00 0.20971304E+02</pdfrwt>
<pdfrwt beam="2">  1        2 0.64033356E+00 0.17696966E+03</pdfrwt>
<totfact> 0.19746002E-01</totfact>
</mgrwt>
</event>
<event>
13    1  0.2038932E-008  0.1065556E+03  0.7546771E-02  0.1400973E+00
          2   -1    0    0  503    0  0.00000000000E+00  0.00000000000E+00  0.10975840213E+04  0.10975840213E+04  0.00000000000E+00 0. -1.
          2   -1    0    0  502    0 -0.00000000000E+00 -0.00000000000E+00 -0.52474256693E+03  0.52474256693E+03  0.00000000000E+00 0. -1.
         24    2    1    2    0    0  0.23096519645E+03  0.92524831505E+02 -0.23301912788E+03  0.35097271323E+03  0.83535412023E+02 0.  0.
         25    2    1    2    0    0 -0.24508577241E+03  0.22432589485E+02  0.41127072002E+03  0.49531832228E+03  0.12500551319E+03 0.  0.
         24    2    1    2    0    0 -0.49274456396E+02 -0.73298667369E+02  0.62298361418E+02  0.13497203517E+03  0.80843662408E+02 0.  0.
        -11    1    3    3    0    0  0.22676860409E+02 -0.99634351796E+01 -0.43960464540E+01  0.25156217184E+02  0.00000000000E+00 0.  1.
         12    1    3    3    0    0  0.20828833604E+03  0.10248826668E+03 -0.22862308143E+03  0.32581649605E+03  0.00000000000E+00 0. -1.
        -13    1    5    5    0    0 -0.57945554256E+02 -0.80093861476E+02  0.70344238109E+02  0.12133023423E+03  0.00000000000E+00 0.  1.
         14    1    5    5    0    0  0.86710978599E+01  0.67951941075E+01 -0.80458766909E+01  0.13641800936E+02  0.00000000000E+00 0. -1.
          5    1    4    4  501    0 -0.10087036944E+03 -0.30409431655E+02  0.25597540102E+03  0.27684844390E+03  0.47000000000E+01 0. -1.
         -5    1    4    4    0  501 -0.14421540297E+03  0.52842021141E+02  0.15529531900E+03  0.21846987837E+03  0.47000000000E+01 0. -1.
          1    1    1    2  502    0  0.83400265110E+02 -0.67846232276E+02 -0.13501789974E+03  0.17259359404E+03  0.00000000000E+00 0. -1.
          1    1    1    2  503    0 -0.20005232747E+02  0.26187478655E+02  0.46730940054E+03  0.46846992349E+03  0.00000000000E+00 0. -1.
<mgrwt>
<rscale>  0 0.59257724E+02</rscale>
<asrwt>0</asrwt>
<pdfrwt beam="1">  1        2 0.16140941E+00 0.32954414E+02</pdfrwt>
<pdfrwt beam="2">  1        2 0.77168025E-01 0.10655562E+03</pdfrwt>
<totfact> 0.26937152E+02</totfact>
</mgrwt>
</event>
<event>
13    1  0.2038932E-008  0.1532593E+03  0.7546771E-02  0.1226679E+00
          2   -1    0    0  502    0  0.00000000000E+00  0.00000000000E+00  0.22457966681E+04  0.22457966681E+04  0.00000000000E+00 0. -1.
          4   -1    0    0  503    0 -0.00000000000E+00 -0.00000000000E+00 -0.80121295653E+03  0.80121295653E+03  0.00000000000E+00 0. -1.
         24    2    1    2    0    0  0.15376116100E+03  0.61346190514E+02  0.33674313714E+03  0.38377922211E+03  0.80527642397E+02 0.  0.
         25    2    1    2    0    0 -0.69641782493E+02  0.78381119621E+02  0.34169532194E+03  0.37865011701E+03  0.12500656100E+03 0.  0.
         24    2    1    2    0    0 -0.47283297807E+02 -0.11977425961E+03  0.66288134371E+03  0.67990864927E+03  0.79262298726E+02 0.  0.
        -11    1    3    3    0    0  0.11259962481E+03  0.23280388578E+02  0.15121403738E+03  0.18996404160E+03  0.00000000000E+00 0.  1.
         12    1    3    3    0    0  0.41161536190E+02  0.38065801936E+02  0.18552909977E+03  0.19381518052E+03  0.00000000000E+00 0. -1.
        -13    1    5    5    0    0 -0.42845304596E+02 -0.38476723765E+02  0.15129132064E+03  0.16188033265E+03  0.00000000000E+00 0.  1.
         14    1    5    5    0    0 -0.44379932113E+01 -0.81297535846E+02  0.51159002307E+03  0.51802831662E+03  0.00000000000E+00 0. -1.
          5    1    4    4  501    0  0.46782483277E+01  0.39321969196E+02  0.25415525976E+03  0.25726462900E+03  0.47000000000E+01 0.  1.
         -5    1    4    4    0  501 -0.74320030820E+02  0.39059150425E+02  0.87540062175E+02  0.12138548801E+03  0.47000000000E+01 0.  1.
          1    1    1    2  502    0  0.95479552767E+02  0.56927943601E+02  0.84247986798E+03  0.84978200953E+03  0.00000000000E+00 0. -1.
          3    1    1    2  503    0 -0.13231563347E+03 -0.76880994125E+02 -0.73921595922E+03  0.75488962669E+03  0.00000000000E+00 0. -1.
<mgrwt>
<rscale>  0 0.13052474E+03</rscale>
<asrwt>0</asrwt>
<pdfrwt beam="1">  1        2 0.33026421E+00 0.11116265E+03</pdfrwt>
<pdfrwt beam="2">  1        4 0.11782544E+00 0.15325926E+03</pdfrwt>
<totfact> 0.20850438E+00</totfact>
</mgrwt>
</event>
<event>
13    1  0.2038932E-008  0.4917805E+02  0.7546771E-02  0.1568148E+00
          2   -1    0    0  503    0  0.00000000000E+00  0.00000000000E+00  0.20780677856E+04  0.20780677856E+04  0.00000000000E+00 0. -1.
         -1   -1    0    0    0  501 -0.00000000000E+00 -0.00000000000E+00 -0.48140518650E+03  0.48140518650E+03  0.00000000000E+00 0.  1.
         24    2    1    2    0    0  0.13997527013E+03  0.47005371249E+03  0.25501719925E+03  0.55858372486E+03  0.80239870965E+02 0.  0.
         25    2    1    2    0    0 -0.20239573548E+03  0.76988878131E+02  0.48205665188E+03  0.54304611021E+03  0.12501656330E+03 0.  0.
         24    2    1    2    0    0  0.12401426084E+03 -0.53057455138E+03  0.73156533221E+03  0.91834547511E+03  0.10621527618E+03 0.  0.
        -11    1    5    5    0    0  0.47384206511E+02 -0.59550797003E+02  0.76717259715E+02  0.10806062367E+03  0.00000000000E+00 0.  1.
         12    1    5    5    0    0  0.76630054326E+02 -0.47102375437E+03  0.65484807250E+03  0.81028485143E+03  0.00000000000E+00 0. -1.
        -13    1    3    3    0    0  0.28579285492E+02  0.23245259641E+03  0.10978613739E+03  0.25865803893E+03  0.00000000000E+00 0.  1.
         14    1    3    3    0    0  0.11139598463E+03  0.23760111608E+03  0.14523106186E+03  0.29992568593E+03  0.00000000000E+00 0. -1.
          5    1    4    4  502    0 -0.20729701313E+03  0.40101272713E+02  0.42775748753E+03  0.47705211651E+03  0.47000000000E+01 0. -1.
         -5    1    4    4    0  502  0.49012776516E+01  0.36887605418E+02  0.54299164343E+02  0.65993993700E+02  0.47000000000E+01 0. -1.
          1    1    1    2  503    0 -0.19848544164E+02  0.94906403082E+01  0.33045310594E+03  0.33118467988E+03  0.00000000000E+00 0. -1.
         -2    1    1    2    0  501 -0.41745251315E+02 -0.25958679550E+02 -0.20242969014E+03  0.20831298208E+03  0.00000000000E+00 0.  1.
<mgrwt>
<rscale>  0 0.32893137E+02</rscale>
<asrwt>0</asrwt>
<pdfrwt beam="1">  1        2 0.30559820E+00 0.22000840E+02</pdfrwt>
<pdfrwt beam="2">  1       -1 0.70794881E-01 0.49178053E+02</pdfrwt>
<totfact> 0.25295695E+01</totfact>
</mgrwt>
</event>
<event>
13    1  0.2038932E-008  0.9433713E+02  0.7546771E-02  0.1295723E+00
          2   -1    0    0  503    0  0.00000000000E+00  0.00000000000E+00  0.28196391559E+04  0.28196391559E+04  0.00000000000E+00 0. -1.
         -1   -1    0    0    0  501 -0.00000000000E+00 -0.00000000000E+00 -0.43450869026E+03  0.43450869026E+03  0.00000000000E+00 0.  1.
         24    2    1    2    0    0 -0.70169439233E+02 -0.22339523962E+02  0.19098746917E+03  0.21943001081E+03  0.79060177907E+02 0.  0.
         25    2    1    2    0    0 -0.11021705487E+03  0.17244064124E+03  0.12091122992E+04  0.12326639652E+04  0.12499730054E+03 0.  0.
         24    2    1    2    0    0  0.25622773079E+02 -0.21230683192E+03 -0.16071241716E+03  0.27868099044E+03  0.78127434510E+02 0.  0.
        -11    1    3    3    0    0 -0.41064078700E+01 -0.27148788526E+02  0.14777224427E+02  0.31181495567E+02  0.00000000000E+00 0.  1.
         12    1    3    3    0    0 -0.66063031363E+02  0.48092645640E+01  0.17621024474E+03  0.18824851524E+03  0.00000000000E+00 0. -1.
        -11    1    5    5    0    0  0.34664120608E+01 -0.20350658918E+03 -0.14805838309E+03  0.25169074805E+03  0.00000000000E+00 0.  1.
         12    1    5    5    0    0  0.22156361018E+02 -0.88002427400E+01 -0.12654034069E+02  0.26990242386E+02  0.00000000000E+00 0. -1.
          5    1    4    4  502    0 -0.12678020228E+03  0.90440912089E+02  0.76097738068E+03  0.77676344030E+03  0.47000000000E+01 0.  1.
         -5    1    4    4    0  502  0.16563147409E+02  0.81999729150E+02  0.44813491854E+03  0.45590052495E+03  0.47000000000E+01 0.  1.
          1    1    1    2  503    0  0.61076656977E+02  0.68400333633E+02  0.13211973345E+04  0.13243758380E+04  0.00000000000E+00 0. -1.
         -2    1    1    2    0  501  0.93687064044E+02 -0.61946189878E+01 -0.17545422004E+03  0.19899704169E+03  0.00000000000E+00 0.  1.
<mgrwt>
<rscale>  0 0.93009421E+02</rscale>
<asrwt>0</asrwt>
<pdfrwt beam="1">  1        2 0.41465281E+00 0.91700402E+02</pdfrwt>
<pdfrwt beam="2">  1       -1 0.63898339E-01 0.94337126E+02</pdfrwt>
<totfact> 0.11018184E+01</totfact>
</mgrwt>
</event>
<event>
13    1  0.2038932E-008  0.2512467E+03  0.7546771E-02  0.1297741E+00
          2   -1    0    0  502    0  0.00000000000E+00  0.00000000000E+00  0.16828057518E+04  0.16828057518E+04  0.00000000000E+00 0. -1.
          2   -1    0    0  503    0 -0.00000000000E+00 -0.00000000000E+00 -0.45627441584E+04  0.45627441584E+04  0.00000000000E+00 0. -1.
         24    2    1    2    0    0 -0.14474135583E+03 -0.73059925750E+02 -0.10067257615E+04  0.10229134175E+04  0.81038805949E+02 0.  0.
         25    2    1    2    0    0  0.15533434415E+03  0.14341112003E+03  0.41860762353E+03  0.48533694765E+03  0.12499640977E+03 0.  0.
         24    2    1    2    0    0  0.13201192738E+03  0.82147375450E+02  0.17066328100E+03  0.24442055218E+03  0.80250299575E+02 0.  0.
        -13    1    3    3    0    0 -0.97905794498E+01 -0.30764130336E+02 -0.32954798800E+03  0.33112560088E+03  0.00000000000E+00 0.  1.
         14    1    3    3    0    0 -0.13495077638E+03 -0.42295795414E+02 -0.67717777349E+03  0.69178781665E+03  0.00000000000E+00 0. -1.
        -13    1    5    5    0    0  0.10959760301E+03  0.33718221366E+02  0.14596169339E+03  0.18561618727E+03  0.00000000000E+00 0.  1.
         14    1    5    5    0    0  0.22414324363E+02  0.48429154083E+02  0.24701587608E+02  0.58804364908E+02  0.00000000000E+00 0. -1.
          5    1    4    4  501    0 -0.65076763360E+01 -0.14989935670E+02  0.48760896488E+02  0.51640711159E+02  0.47000000000E+01 0. -1.
         -5    1    4    4    0  501  0.16184202049E+03  0.15840105570E+03  0.36984672704E+03  0.43369623649E+03  0.47000000000E+01 0. -1.
          1    1    1    2  502    0  0.61492660114E+01 -0.33229417917E+02  0.10123022531E+04  0.10128661607E+04  0.00000000000E+00 0. -1.
          1    1    1    2  503    0 -0.14875418170E+03 -0.11926915182E+03 -0.34747858028E+04  0.34800128322E+04  0.00000000000E+00 0. -1.
<mgrwt>
<rscale>  0 0.92144072E+02</rscale>
<asrwt>0</asrwt>
<pdfrwt beam="1">  1        2 0.24747144E+00 0.33793604E+02</pdfrwt>
<pdfrwt beam="2">  1        2 0.67099178E+00 0.25124665E+03</pdfrwt>
<totfact> 0.51931398E-01</totfact>
</mgrwt>
</event>
<event>
13    1  0.2038932E-008  0.2493629E+03  0.7546771E-02  0.1312677E+00
          2   -1    0    0  503    0  0.00000000000E+00  0.00000000000E+00  0.20357463670E+04  0.20357463670E+04  0.00000000000E+00 0. -1.
          2   -1    0    0  502    0 -0.00000000000E+00 -0.00000000000E+00 -0.26686531111E+04  0.26686531111E+04  0.00000000000E+00 0. -1.
         24    2    1    2    0    0 -0.21515280756E+03  0.10755989838E+03 -0.14578117949E+04  0.14796687215E+04  0.79651952948E+02 0.  0.
         25    2    1    2    0    0 -0.99784069588E+02  0.71108767649E+02  0.25944721352E+03  0.31298498708E+03  0.12503370809E+03 0.  0.
         24    2    1    2    0    0  0.10239164628E+03 -0.11950596882E+03 -0.23159998859E+03  0.29243840384E+03  0.84356028345E+02 0.  0.
        -11    1    3    3    0    0 -0.36691952402E+02 -0.11002491839E+02 -0.26731448206E+03  0.27004515644E+03  0.00000000000E+00 0.  1.
         12    1    3    3    0    0 -0.17846085516E+03  0.11856239022E+03 -0.11904973129E+04  0.12096235651E+04  0.00000000000E+00 0. -1.
        -11    1    5    5    0    0  0.27729095274E+02  0.57974845915E+01 -0.65627678860E+02  0.71480807108E+02  0.00000000000E+00 0.  1.
         12    1    5    5    0    0  0.74662551005E+02 -0.12530345341E+03 -0.16597230973E+03  0.22095759674E+03  0.00000000000E+00 0. -1.
          5    1    4    4  501    0 -0.68033954949E+02 -0.25730021350E+02  0.11463562809E+03  0.13584575905E+03  0.47000000000E+01 0. -1.
         -5    1    4    4    0  501 -0.31750114640E+02  0.96838788999E+02  0.14481158543E+03  0.17713922803E+03  0.47000000000E+01 0. -1.
          1    1    1    2  502    0 -0.29700393635E+02  0.37279403107E+00 -0.90177168884E+03  0.90226073347E+03  0.00000000000E+00 0. -1.
          1    1    1    2  503    0  0.24224562451E+03 -0.59535491241E+02  0.16988295147E+04  0.17170466322E+04  0.00000000000E+00 0. -1.
<mgrwt>
<rscale>  0 0.86062540E+02</rscale>
<asrwt>0</asrwt>
<pdfrwt beam="1">  1        2 0.29937447E+00 0.24936294E+03</pdfrwt>
<pdfrwt beam="2">  1        2 0.39244898E+00 0.29702733E+02</pdfrwt>
<totfact> 0.64518151E+00</totfact>
</mgrwt>
</event>
<event>
13    1  0.2038932E-008  0.1858469E+03  0.7546771E-02  0.1171580E+00
          4   -1    0    0  503    0 -0.00000000000E+00  0.00000000000E+00  0.27790980283E+04  0.27790980283E+04  0.00000000000E+00 0. -1.
          2   -1    0    0  502    0  0.00000000000E+00 -0.00000000000E+00 -0.22327432184E+04  0.22327432184E+04  0.00000000000E+00 0. -1.
         24    2    1    2    0    0 -0.20498908314E+03 -0.60416720022E+01  0.29896326561E+02  0.22220409818E+03  0.80148892050E+02 0.  0.
         25    2    1    2    0    0  0.32891394073E+03 -0.18063567847E+03 -0.66015862964E+03  0.76957673188E+03  0.12500120484E+03 0.  0.
         24    2    1    2    0    0 -0.14570610135E+03 -0.11958650357E+03 -0.25887018238E+03  0.33016267258E+03  0.80389173615E+02 0.  0.
        -13    1    5    5    0    0 -0.10010794260E+03 -0.12238558686E+03 -0.21450748574E+03  0.26648319550E+03  0.00000000000E+00 0.  1.
         14    1    5    5    0    0 -0.45598158749E+02  0.27990832952E+01 -0.44362696639E+02  0.63679477084E+02  0.00000000000E+00 0. -1.
        -13    1    3    3    0    0 -0.14676962437E+03 -0.49007700519E+01  0.57569076410E+02  0.15773249109E+03  0.00000000000E+00 0.  1.
         14    1    3    3    0    0 -0.58219458768E+02 -0.11409019502E+01 -0.27672749849E+02  0.64471607089E+02  0.00000000000E+00 0. -1.
          5    1    4    4  501    0  0.11045612891E+03 -0.58696912426E+01 -0.13556428733E+03  0.17502792831E+03  0.47000000000E+01 0.  1.
         -5    1    4    4    0  501  0.21845781183E+03 -0.17476598723E+03 -0.52459434231E+03  0.59454880357E+03  0.47000000000E+01 0.  1.
          1    1    1    2  502    0 -0.76119359091E+02  0.14860208813E+03 -0.11176359145E+04  0.11300383953E+04  0.00000000000E+00 0. -1.
          3    1    1    2  503    0  0.97900602844E+02  0.15766176592E+03  0.25531232099E+04  0.25598593488E+04  0.00000000000E+00 0. -1.
<mgrwt>
<rscale>  0 0.17615223E+03</rscale>
<asrwt>0</asrwt>
<pdfrwt beam="2">  1        2 0.32834459E+00 0.16696328E+03</pdfrwt>
<pdfrwt beam="1">  1        4 0.40869089E+00 0.18584690E+03</pdfrwt>
<totfact> 0.27422944E-02</totfact>
</mgrwt>
</event>
<event>
13    1  0.2038932E-008  0.1258567E+03  0.7546771E-02  0.1341306E+00
          2   -1    0    0  503    0  0.00000000000E+00  0.00000000000E+00  0.27036564584E+04  0.27036564584E+04  0.00000000000E+00 0. -1.
          2   -1    0    0  502    0 -0.00000000000E+00 -0.00000000000E+00 -0.21331421358E+04  0.21331421358E+04  0.00000000000E+00 0. -1.
         24    2    1    2    0    0  0.97066921067E+02  0.11429671447E+03 -0.40883485431E+03  0.44280541521E+03  0.80280580066E+02 0.  0.
         25    2    1    2    0    0  0.84998084442E+02 -0.12427722016E+03  0.94875122511E+03  0.96872185896E+03  0.12499460414E+03 0.  0.
         24    2    1    2    0    0 -0.14502938389E+03  0.81853347734E+02 -0.26211115886E+03  0.32120972506E+03  0.82097108053E+02 0.  0.
        -13    1    5    5    0    0 -0.83841101032E+01 -0.13344310185E+02 -0.87776316689E+01  0.18039144499E+02  0.00000000000E+00 0.  1.
         14    1    5    5    0    0 -0.13664527379E+03  0.95197657919E+02 -0.25333352719E+03  0.30317058056E+03  0.00000000000E+00 0. -1.
        -13    1    3    3    0    0  0.18185459984E+02 -0.80474997988E+01 -0.22898563044E+02  0.30328491511E+02  0.00000000000E+00 0.  1.
         14    1    3    3    0    0  0.78881461083E+02  0.12234421427E+03 -0.38593629127E+03  0.41247692370E+03  0.00000000000E+00 0. -1.
          5    1    4    4  501    0 -0.28668620898E+02 -0.56914431679E+01  0.10380338786E+03  0.10794218675E+03  0.47000000000E+01 0.  1.
         -5    1    4    4    0  501  0.11366670534E+03 -0.11858577699E+03  0.84494783725E+03  0.86077967221E+03  0.47000000000E+01 0.  1.
          1    1    1    2  502    0 -0.49626450265E+02 -0.11579762388E+03 -0.14025449554E+04  0.14081918286E+04  0.00000000000E+00 0. -1.
          1    1    1    2  503    0  0.12590828647E+02  0.43924781835E+02  0.16952540662E+04  0.16958697663E+04  0.00000000000E+00 0. -1.
<mgrwt>
<rscale>  0 0.75834413E+02</rscale>
<asrwt>0</asrwt>
<pdfrwt beam="1">  1        2 0.39759654E+00 0.45693713E+02</pdfrwt>
<pdfrwt beam="2">  1        2 0.31369737E+00 0.12585666E+03</pdfrwt>
<totfact> 0.55597387E+00</totfact>
</mgrwt>
</event>
<event>
13    1  0.2038932E-008  0.6350868E+02  0.7546771E-02  0.1436976E+00
          2   -1    0    0  503    0  0.00000000000E+00  0.00000000000E+00  0.96661763679E+03  0.96661763679E+03  0.00000000000E+00 0. -1.
         -1   -1    0    0    0  501 -0.00000000000E+00 -0.00000000000E+00 -0.65483578190E+03  0.65483578190E+03  0.00000000000E+00 0.  1.
         24    2    1    2    0    0  0.12588516821E+02 -0.75118555589E+01 -0.64031751518E+02  0.92953864009E+02  0.65768205859E+02 0.  0.
         25    2    1    2    0    0  0.43687030356E+02 -0.14611797045E+03  0.38116982245E+03  0.42915669913E+03  0.12500408375E+03 0.  0.
         24    2    1    2    0    0 -0.39039083456E+02  0.13845302490E+03 -0.13756776038E+03  0.21443095325E+03  0.79764997817E+02 0.  0.
        -11    1    5    5    0    0 -0.11315355564E+02  0.12625124538E+03 -0.13311999490E+03  0.18381606914E+03  0.00000000000E+00 0.  1.
         12    1    5    5    0    0 -0.27723727892E+02  0.12201779516E+02 -0.44477654821E+01  0.30614884115E+02  0.00000000000E+00 0. -1.
        -11    1    3    3    0    0  0.67587651348E+01  0.23745543444E+02 -0.39851550451E+01  0.25008262641E+02  0.00000000000E+00 0.  1.
         12    1    3    3    0    0  0.58297516867E+01 -0.31257399003E+02 -0.60046596473E+02  0.67945601367E+02  0.00000000000E+00 0. -1.
          5    1    4    4  502    0  0.65586334159E+02 -0.15158025007E+03  0.36597744274E+03  0.40154665736E+03  0.47000000000E+01 0.  1.
         -5    1    4    4    0  502 -0.21899303803E+02  0.54622796130E+01  0.15192379702E+02  0.27610041772E+02  0.47000000000E+01 0.  1.
          1    1    1    2  503    0  0.18627520676E+02 -0.37531359654E+02  0.50498798910E+03  0.50672325447E+03  0.00000000000E+00 0. -1.
         -2    1    1    2    0  501 -0.35863984398E+02  0.52708160769E+02 -0.37277644475E+03  0.37818864783E+03  0.00000000000E+00 0.  1.
<mgrwt>
<rscale>  0 0.51584849E+02</rscale>
<asrwt>0</asrwt>
<pdfrwt beam="1">  1        2 0.14214965E+00 0.41899731E+02</pdfrwt>
<pdfrwt beam="2">  1       -1 0.96299379E-01 0.63508681E+02</pdfrwt>
<totfact> 0.42873217E+01</totfact>
</mgrwt>
</event>
<event>
13    1  0.2038932E-008  0.8350883E+02  0.7546771E-02  0.1339788E+00
          2   -1    0    0  502    0  0.00000000000E+00  0.00000000000E+00  0.62551879412E+03  0.62551879412E+03  0.00000000000E+00 0. -1.
          2   -1    0    0  503    0 -0.00000000000E+00 -0.00000000000E+00 -0.33899757772E+04  0.33899757772E+04  0.00000000000E+00 0. -1.
         24    2    1    2    0    0  0.20993362312E+03 -0.23374212834E+03 -0.24780724435E+04  0.24991974357E+04  0.80232653634E+02 0.  0.
         25    2    1    2    0    0  0.17607794310E+02  0.30184432603E+03  0.12433337671E+03  0.34999990432E+03  0.12498445055E+03 0.  0.
         24    2    1    2    0    0 -0.26828189485E+03  0.70675262503E+02 -0.26279437751E+03  0.39017815845E+03  0.78790498446E+02 0.  0.
        -11    1    3    3    0    0  0.62910470084E+02 -0.12298433075E+03 -0.12033688944E+04  0.12112718806E+04  0.00000000000E+00 0.  1.
         12    1    3    3    0    0  0.14702315304E+03 -0.11075779759E+03 -0.12747035492E+04  0.12879255551E+04  0.00000000000E+00 0. -1.
        -13    1    5    5    0    0 -0.26988649376E+03  0.60323303135E+02 -0.24466836303E+03  0.36924277689E+03  0.00000000000E+00 0.  1.
         14    1    5    5    0    0  0.16045989058E+01  0.10351959368E+02 -0.18126014473E+02  0.20935381560E+02  0.00000000000E+00 0. -1.
          5    1    4    4  501    0  0.54959932837E+02  0.22611819760E+03  0.51470370035E+02  0.23837223516E+03  0.47000000000E+01 0. -1.
         -5    1    4    4    0  501 -0.37352138526E+02  0.75726128428E+02  0.72863006677E+02  0.11162766916E+03  0.47000000000E+01 0. -1.
          1    1    1    2  502    0 -0.16939450999E+01 -0.83387809220E+02  0.30584686523E+03  0.31701530112E+03  0.00000000000E+00 0. -1.
          1    1    1    2  503    0  0.42434422520E+02 -0.55389650976E+02 -0.45377040394E+03  0.45910377165E+03  0.00000000000E+00 0. -1.
<mgrwt>
<rscale>  0 0.76334227E+02</rscale>
<asrwt>0</asrwt>
<pdfrwt beam="1">  1        2 0.91988058E-01 0.83508830E+02</pdfrwt>
<pdfrwt beam="2">  1        2 0.49852585E+00 0.69776025E+02</pdfrwt>
<totfact> 0.15210695E+01</totfact>
</mgrwt>
</event>
<event>
13    1  0.2038932E-008  0.1199366E+03  0.7546771E-02  0.1319227E+00
          2   -1    0    0  503    0  0.00000000000E+00  0.00000000000E+00  0.23753787944E+04  0.23753787944E+04  0.00000000000E+00 0. -1.
          2   -1    0    0  502    0 -0.00000000000E+00 -0.00000000000E+00 -0.34023827331E+03  0.34023827331E+03  0.00000000000E+00 0. -1.
         24    2    1    2    0    0 -0.13040977686E+03  0.13425616591E+01  0.29016835842E+03  0.32834106194E+03  0.81250626828E+02 0.  0.
         25    2    1    2    0    0  0.17365561937E+03  0.24464884345E+02  0.31571517248E+03  0.38217286274E+03  0.12500088872E+03 0.  0.
         24    2    1    2    0    0  0.90621706468E+02 -0.30095998030E+02  0.42427581645E+03  0.44191657192E+03  0.78499842856E+02 0.  0.
        -13    1    5    5    0    0  0.22561974067E+02  0.24139835203E+02  0.16940942469E+03  0.17260164394E+03  0.00000000000E+00 0.  1.
         14    1    5    5    0    0  0.68059732402E+02 -0.54235833233E+02  0.25486639176E+03  0.26931492798E+03  0.00000000000E+00 0. -1.
        -13    1    3    3    0    0 -0.12631270385E+03 -0.17767120368E+02  0.20897612805E+03  0.24482972004E+03  0.00000000000E+00 0.  1.
         14    1    3    3    0    0 -0.40970730054E+01  0.19109682027E+02  0.81192230367E+02  0.83511341902E+02  0.00000000000E+00 0. -1.
          5    1    4    4  501    0  0.13341752599E+03 -0.38781473903E+02  0.22393012172E+03  0.26357357298E+03  0.47000000000E+01 0.  1.
         -5    1    4    4    0  501  0.40238093378E+02  0.63246358248E+02  0.91785050755E+02  0.11859928976E+03  0.47000000000E+01 0.  1.
          1    1    1    2  502    0  0.41355148331E+02 -0.40985590087E+02 -0.26960280162E+03  0.27581830529E+03  0.00000000000E+00 0. -1.
          1    1    1    2  503    0 -0.17522269731E+03  0.45274142113E+02  0.12745839753E+04  0.12873682658E+04  0.00000000000E+00 0. -1.
<mgrwt>
<rscale>  0 0.83565677E+02</rscale>
<asrwt>0</asrwt>
<pdfrwt beam="1">  1        2 0.34932040E+00 0.11993660E+03</pdfrwt>
<pdfrwt beam="2">  1        2 0.50035041E-01 0.58224281E+02</pdfrwt>
<totfact> 0.91089677E+01</totfact>
</mgrwt>
</event>
<event>
13    1  0.2038932E-008  0.1076669E+03  0.7546771E-02  0.1313190E+00
          2   -1    0    0  502    0  0.00000000000E+00  0.00000000000E+00  0.22354680311E+04  0.22354680311E+04  0.00000000000E+00 0. -1.
          2   -1    0    0  503    0 -0.00000000000E+00 -0.00000000000E+00 -0.15588645302E+04  0.15588645302E+04  0.00000000000E+00 0. -1.
         24    2    1    2    0    0  0.46106238673E+02  0.29660060351E+02 -0.11696248113E+03  0.16754518905E+03  0.10670362672E+03 0.  0.
         25    2    1    2    0    0 -0.40116510680E+02  0.79246904205E+02 -0.76616479038E+02  0.17142227087E+03  0.12500441526E+03 0.  0.
         24    2    1    2    0    0 -0.16015878563E+02  0.71461139380E+01  0.10244323404E+04  0.10279249804E+04  0.82828556922E+02 0.  0.
        -11    1    5    5    0    0  0.20488064806E+02  0.18907771698E+02  0.78035668218E+03  0.78085454218E+03  0.00000000000E+00 0.  1.
         12    1    5    5    0    0 -0.36503943369E+02 -0.11761657760E+02  0.24407565826E+03  0.24707043819E+03  0.00000000000E+00 0. -1.
        -13    1    3    3    0    0  0.61837040018E+02  0.34705781389E+02 -0.12893140073E+03  0.14714488395E+03  0.00000000000E+00 0.  1.
         14    1    3    3    0    0 -0.15730801345E+02 -0.50457210376E+01  0.11968919595E+02  0.20400305096E+02  0.00000000000E+00 0. -1.
          5    1    4    4  501    0 -0.53910243937E+02  0.50564697745E+02 -0.10501857745E+03  0.12850717750E+03  0.47000000000E+01 0. -1.
         -5    1    4    4    0  501  0.13793733258E+02  0.28682206461E+02  0.28402098413E+02  0.42915093369E+02  0.47000000000E+01 0. -1.
          1    1    1    2  502    0 -0.59530942437E+02 -0.33836925867E+02  0.11333137939E+04  0.11353805645E+04  0.00000000000E+00 0. -1.
          1    1    1    2  503    0  0.69557093006E+02 -0.82216152627E+02 -0.12875636733E+04  0.12920595565E+04  0.00000000000E+00 0. -1.
<mgrwt>
<rscale>  0 0.85863408E+02</rscale>
<asrwt>0</asrwt>
<pdfrwt beam="1">  1        2 0.32874530E+00 0.68475329E+02</pdfrwt>
<pdfrwt beam="2">  1        2 0.22924478E+00 0.10766688E+03</pdfrwt>
<totfact> 0.17102409E+01</totfact>
</mgrwt>
</event>
<event>
13    1  0.2038932E-008  0.2458949E+03  0.7546771E-02  0.1191341E+00
          2   -1    0    0  502    0  0.00000000000E+00  0.00000000000E+00  0.92704864207E+03  0.92704864207E+03  0.00000000000E+00 0. -1.
          2   -1    0    0  503    0 -0.00000000000E+00 -0.00000000000E+00 -0.19821485309E+04  0.19821485309E+04  0.00000000000E+00 0. -1.
         24    2    1    2    0    0 -0.13887912100E+03  0.15683207148E+02 -0.18571022116E+03  0.24553556825E+03  0.79158422144E+02 0.  0.
         25    2    1    2    0    0  0.10555414165E+03  0.95423655083E+01  0.10892293164E+03  0.19678250477E+03  0.12500566222E+03 0.  0.
         24    2    1    2    0    0 -0.91109242103E+00  0.12849698636E+03 -0.20832000577E+03  0.25754111014E+03  0.80111753300E+02 0.  0.
        -13    1    3    3    0    0 -0.11986659526E+03 -0.16579582516E+02 -0.15767005807E+03  0.19875293816E+03  0.00000000000E+00 0.  1.
         14    1    3    3    0    0 -0.19012525744E+02  0.32262789664E+02 -0.28040163082E+02  0.46782630086E+02  0.00000000000E+00 0. -1.
        -13    1    5    5    0    0  0.25203654735E+02  0.12109375853E+03 -0.17909062645E+03  0.21765195852E+03  0.00000000000E+00 0.  1.
         14    1    5    5    0    0 -0.26114747156E+02  0.74032278243E+01 -0.29229379322E+02  0.39889151618E+02  0.00000000000E+00 0. -1.
          5    1    4    4  501    0  0.11676629153E+03  0.32592922974E+02  0.47911928382E+02  0.13043890657E+03  0.47000000000E+01 0. -1.
         -5    1    4    4    0  501 -0.11212149872E+02 -0.23050557466E+02  0.61011003256E+02  0.66343598203E+02  0.47000000000E+01 0. -1.
          1    1    1    2  502    0  0.38829502490E+02 -0.25473106962E+03  0.69480933633E+03  0.74105037747E+03  0.00000000000E+00 0. -1.
          1    1    1    2  503    0 -0.45934307235E+01  0.10100851060E+03 -0.14648019298E+04  0.14682876123E+04  0.00000000000E+00 0. -1.
<mgrwt>
<rscale>  0 0.15768052E+03</rscale>
<asrwt>0</asrwt>
<pdfrwt beam="1">  1        2 0.13633069E+00 0.24589489E+03</pdfrwt>
<pdfrwt beam="2">  1        2 0.29149243E+00 0.10111290E+03</pdfrwt>
<totfact> 0.45359919E+01</totfact>
</mgrwt>
</event>
<event>
13    1  0.2038932E-008  0.6449937E+02  0.7546771E-02  0.1434189E+00
          2   -1    0    0  503    0  0.00000000000E+00  0.00000000000E+00  0.19163020257E+04  0.19163020257E+04  0.00000000000E+00 0. -1.
          2   -1    0    0  502    0 -0.00000000000E+00 -0.00000000000E+00 -0.21893404453E+04  0.21893404453E+04  0.00000000000E+00 0. -1.
         24    2    1    2    0    0  0.27312725011E+03 -0.23494965783E+03 -0.55446167643E+03  0.66727798106E+03  0.89623194084E+02 0.  0.
         25    2    1    2    0    0 -0.33442708831E+03  0.32942039733E+03  0.64597847611E+02  0.49004033213E+03  0.12492945862E+03 0.  0.
         24    2    1    2    0    0  0.57774601863E+01 -0.28354998770E+02 -0.24075417977E+02  0.87146269214E+02  0.78596828726E+02 0.  0.
        -11    1    3    3    0    0  0.21713577279E+03 -0.15477114568E+03 -0.45767368501E+03  0.52968599501E+03  0.00000000000E+00 0.  1.
         12    1    3    3    0    0  0.55991477322E+02 -0.80178512150E+02 -0.96787991415E+02  0.13759198605E+03  0.00000000000E+00 0. -1.
        -11    1    5    5    0    0  0.11660227315E+02  0.16419408786E+02  0.16807114131E+02  0.26230458847E+02  0.00000000000E+00 0.  1.
         12    1    5    5    0    0 -0.58827671286E+01 -0.44774407556E+02 -0.40882532108E+02  0.60915810367E+02  0.00000000000E+00 0. -1.
          5    1    4    4  501    0 -0.34073855866E+03  0.32363215682E+03  0.74845172341E+02  0.47588278820E+03  0.47000000000E+01 0.  1.
         -5    1    4    4    0  501  0.63114703467E+01  0.57882405098E+01 -0.10247324730E+02  0.14157543935E+02  0.47000000000E+01 0.  1.
          1    1    1    2  502    0  0.13504489321E+02 -0.63043553649E+02 -0.13090589117E+04  0.13106456788E+04  0.00000000000E+00 0. -1.
          1    1    1    2  503    0  0.42017888693E+02 -0.30721870763E+01  0.15499597389E+04  0.15505322098E+04  0.00000000000E+00 0. -1.
<mgrwt>
<rscale>  0 0.52128320E+02</rscale>
<asrwt>0</asrwt>
<pdfrwt beam="1">  1        2 0.28180912E+00 0.42130052E+02</pdfrwt>
<pdfrwt beam="2">  1        2 0.32196183E+00 0.64499368E+02</pdfrwt>
<totfact> 0.13389484E+01</totfact>
</mgrwt>
</event>
<event>
13    1  0.2038932E-008  0.1286909E+03  0.7546771E-02  0.1356894E+00
          2   -1    0    0  502    0  0.00000000000E+00  0.00000000000E+00  0.36290911771E+03  0.36290911771E+03  0.00000000000E+00 0. -1.
          2   -1    0    0  503    0 -0.00000000000E+00 -0.00000000000E+00 -0.28285915937E+04  0.28285915937E+04  0.00000000000E+00 0. -1.
         24    2    1    2    0    0 -0.92956472489E+02 -0.93687471179E+02 -0.49003631224E+03  0.51394419112E+03  0.81146757467E+02 0.  0.
         25    2    1    2    0    0 -0.41155781497E+02  0.90003468538E+02  0.45149332998E+02  0.16569096887E+03  0.12498244755E+03 0.  0.
         24    2    1    2    0    0  0.53758932912E+02 -0.56454396376E+02 -0.42655520542E+03  0.43988009128E+03  0.73946126972E+02 0.  0.
        -11    1    5    5    0    0  0.69468136575E+02 -0.39691349102E+02 -0.37496802410E+03  0.38340871702E+03  0.00000000000E+00 0.  1.
         12    1    5    5    0    0 -0.15709203663E+02 -0.16763047274E+02 -0.51587181324E+02  0.56471374258E+02  0.00000000000E+00 0. -1.
        -11    1    3    3    0    0 -0.10255773694E+03 -0.93437006837E+02 -0.39960754815E+03  0.42300680395E+03  0.00000000000E+00 0.  1.
         12    1    3    3    0    0  0.96012644491E+01 -0.25046434275E+00 -0.90428764086E+02  0.90937387171E+02  0.00000000000E+00 0. -1.
          5    1    4    4  501    0 -0.24568841741E+02 -0.25232516606E+02  0.33085888990E+02  0.48549705756E+02  0.47000000000E+01 0.  1.
         -5    1    4    4    0  501 -0.16586939756E+02  0.11523598514E+03  0.12063444008E+02  0.11714126311E+03  0.47000000000E+01 0.  1.
          1    1    1    2  502    0 -0.29123976800E+02 -0.26111728581E+02  0.23460187148E+03  0.23784042233E+03  0.00000000000E+00 0. -1.
          1    1    1    2  503    0  0.10947729787E+03  0.86250127598E+02 -0.18288421628E+04  0.18341450378E+04  0.00000000000E+00 0. -1.
<mgrwt>
<rscale>  0 0.70949419E+02</rscale>
<asrwt>0</asrwt>
<pdfrwt beam="1">  1        2 0.53368990E-01 0.39115577E+02</pdfrwt>
<pdfrwt beam="2">  1        2 0.41596933E+00 0.12869093E+03</pdfrwt>
<totfact> 0.49575310E+01</totfact>
</mgrwt>
</event>
<event>
13    1  0.2038932E-008  0.7309236E+02  0.7546771E-02  0.1400680E+00
          2   -1    0    0  502    0  0.00000000000E+00  0.00000000000E+00  0.27760906614E+04  0.27760906614E+04  0.00000000000E+00 0. -1.
          4   -1    0    0  503    0 -0.00000000000E+00 -0.00000000000E+00 -0.38242506570E+03  0.38242506570E+03  0.00000000000E+00 0. -1.
         24    2    1    2    0    0 -0.18373725923E+03  0.11312193695E+02 -0.19437062706E+02  0.19944878051E+03  0.74260827390E+02 0.  0.
         25    2    1    2    0    0  0.15892485108E+03  0.12513090645E+03  0.18513174096E+03  0.30135571463E+03  0.12500661260E+03 0.  0.
         24    2    1    2    0    0  0.70162238553E+02 -0.94552647348E+02  0.73292407759E+03  0.74644946075E+03  0.78397392228E+02 0.  0.
        -11    1    5    5    0    0  0.17495424560E+02 -0.76659839164E+02  0.53902002546E+03  0.54472507622E+03  0.00000000000E+00 0.  1.
         12    1    5    5    0    0  0.52666813993E+02 -0.17892808184E+02  0.19390405213E+03  0.20172438453E+03  0.00000000000E+00 0. -1.
        -13    1    3    3    0    0 -0.89395513283E+02  0.17141982704E+01  0.27627545413E+02  0.93582998116E+02  0.00000000000E+00 0.  1.
         14    1    3    3    0    0 -0.94341745946E+02  0.95979954247E+01 -0.47064608118E+02  0.10586578239E+03  0.00000000000E+00 0. -1.
          5    1    4    4  501    0 -0.17464811207E+01  0.29730635693E+02  0.83104271431E+02  0.88404585996E+02  0.47000000000E+01 0. -1.
         -5    1    4    4    0  501  0.16067133220E+03  0.95400270755E+02  0.10202746953E+03  0.21295112864E+03  0.47000000000E+01 0. -1.
          1    1    1    2  502    0  0.27853720953E+02 -0.39279885851E+02  0.16963563733E+04  0.16970396826E+04  0.00000000000E+00 0. -1.
          3    1    1    2  503    0 -0.73203551353E+02 -0.26105669439E+01 -0.20130953343E+03  0.21422208859E+03  0.00000000000E+00 0. -1.
<mgrwt>
<rscale>  0 0.59326532E+02</rscale>
<asrwt>0</asrwt>
<pdfrwt beam="1">  1        2 0.40824861E+00 0.48153289E+02</pdfrwt>
<pdfrwt beam="2">  1        4 0.56238982E-01 0.73092357E+02</pdfrwt>
<totfact> 0.63304322E+00</totfact>
</mgrwt>
</event>
<event>
13    1  0.2038932E-008  0.8973285E+02  0.7546771E-02  0.1391541E+00
          2   -1    0    0  502    0  0.00000000000E+00  0.00000000000E+00  0.29844506893E+04  0.29844506893E+04  0.00000000000E+00 0. -1.
          2   -1    0    0  503    0 -0.00000000000E+00 -0.00000000000E+00 -0.85377434676E+03  0.85377434676E+03  0.00000000000E+00 0. -1.
         24    2    1    2    0    0  0.10133919366E+02  0.19633898369E+02 -0.17551673817E+03  0.19347763057E+03  0.78353569570E+02 0.  0.
         25    2    1    2    0    0 -0.40690099453E+02 -0.20265695390E+03  0.41386901698E+03  0.47920475526E+03  0.12499643631E+03 0.  0.
         24    2    1    2    0    0  0.45251536073E+02  0.12052304767E+03  0.51983980724E+03  0.54159746950E+03  0.80752010763E+02 0.  0.
        -13    1    3    3    0    0 -0.19502360953E+02 -0.19895016591E+02 -0.36327577994E+02  0.45780418203E+02  0.00000000000E+00 0.  1.
         14    1    3    3    0    0  0.29636280319E+02  0.39528914961E+02 -0.13918916018E+03  0.14769721236E+03  0.00000000000E+00 0. -1.
        -13    1    5    5    0    0  0.21922795167E+02  0.26458623903E+02  0.43169738049E+02  0.55175121296E+02  0.00000000000E+00 0.  1.
         14    1    5    5    0    0  0.23328740906E+02  0.94064423763E+02  0.47667006919E+03  0.48642234821E+03  0.00000000000E+00 0. -1.
          5    1    4    4  501    0  0.34328084858E+02 -0.12265746597E+02  0.57941955826E+02  0.68616515465E+02  0.47000000000E+01 0. -1.
         -5    1    4    4    0  501 -0.75018184310E+02 -0.19039120731E+03  0.35592706115E+03  0.41058823979E+03  0.47000000000E+01 0. -1.
          1    1    1    2  502    0  0.41672919403E+02 -0.65499369026E+01  0.19948161912E+04  0.19952621809E+04  0.00000000000E+00 0. -1.
          1    1    1    2  503    0 -0.56368275390E+02  0.69049944771E+02 -0.62233193469E+03  0.62868299984E+03  0.00000000000E+00 0. -1.
<mgrwt>
<rscale>  0 0.61525097E+02</rscale>
<asrwt>0</asrwt>
<pdfrwt beam="1">  1        2 0.43888981E+00 0.42184522E+02</pdfrwt>
<pdfrwt beam="2">  1        2 0.12555505E+00 0.89732854E+02</pdfrwt>
<totfact> 0.19080782E+01</totfact>
</mgrwt>
</event>
<event>
13    1  0.2038932E-008  0.1420918E+03  0.7546771E-02  0.1231009E+00
          2   -1    0    0  502    0  0.00000000000E+00  0.00000000000E+00  0.90774588871E+03  0.90774588871E+03  0.00000000000E+00 0. -1.
          2   -1    0    0  503    0 -0.00000000000E+00 -0.00000000000E+00 -0.37551639144E+04  0.37551639144E+04  0.00000000000E+00 0. -1.
         24    2    1    2    0    0 -0.44831052079E+02 -0.70166268692E+02 -0.13726259576E+03  0.17914446790E+03  0.79489569710E+02 0.  0.
         25    2    1    2    0    0  0.25358550582E+03 -0.14554672059E+03 -0.30341897795E+03  0.43952007747E+03  0.12500146274E+03 0.  0.
         24    2    1    2    0    0  0.23507882749E+02  0.36342495574E+02  0.48932060651E+02  0.10491030714E+03  0.82087931202E+02 0.  0.
        -11    1    5    5    0    0 -0.26275139365E+02  0.26692901965E+02  0.37348990907E+02  0.52894622465E+02  0.00000000000E+00 0.  1.
         12    1    5    5    0    0  0.49783022114E+02  0.96495936092E+01  0.11583069745E+02  0.52015684676E+02  0.00000000000E+00 0. -1.
        -11    1    3    3    0    0  0.15564005442E+02 -0.47514109387E+00 -0.49301490938E+02  0.51702040899E+02  0.00000000000E+00 0.  1.
         12    1    3    3    0    0 -0.60395057522E+02 -0.69691127598E+02 -0.87961104818E+02  0.12744242700E+03  0.00000000000E+00 0. -1.
          5    1    4    4  501    0  0.22198531459E+03 -0.15348809088E+03 -0.30407263834E+03  0.40659357265E+03  0.47000000000E+01 0. -1.
         -5    1    4    4    0  501  0.31600191229E+02  0.79413702943E+01  0.65366038876E+00  0.32926504822E+02  0.47000000000E+01 0. -1.
          1    1    1    2  502    0 -0.22667846543E+03  0.12259086096E+02  0.72221684815E+03  0.75705388688E+03  0.00000000000E+00 0. -1.
          1    1    1    2  503    0 -0.55838710595E+01  0.16711140761E+03 -0.31778853608E+04  0.31822810638E+04  0.00000000000E+00 0. -1.
<mgrwt>
<rscale>  0 0.12763442E+03</rscale>
<asrwt>0</asrwt>
<pdfrwt beam="1">  1        2 0.13349204E+00 0.14209176E+03</pdfrwt>
<pdfrwt beam="2">  1        2 0.55222998E+00 0.11464805E+03</pdfrwt>
<totfact> 0.52966065E+00</totfact>
</mgrwt>
</event>
<event>
13    1  0.2038932E-008  0.1436033E+03  0.7546771E-02  0.1224722E+00
          4   -1    0    0  503    0 -0.00000000000E+00  0.00000000000E+00  0.74996094371E+03  0.74996094371E+03  0.00000000000E+00 0. -1.
          2   -1    0    0  502    0  0.00000000000E+00 -0.00000000000E+00 -0.18835826355E+04  0.18835826355E+04  0.00000000000E+00 0. -1.
         24    2    1    2    0    0  0.19438056294E+02 -0.13424462995E+03  0.17362052861E+03  0.23441816148E+03  0.80052031664E+02 0.  0.
         25    2    1    2    0    0  0.71551642504E+02  0.25484798910E+00 -0.14795005727E+03  0.20647228314E+03  0.12498752644E+03 0.  0.
         24    2    1    2    0    0  0.20751783545E+02 -0.53624483303E+02 -0.64973657657E+03  0.65970747063E+03  0.98742625783E+02 0.  0.
        -13    1    3    3    0    0 -0.23074419734E+02 -0.20585499881E+02  0.14094642910E+02  0.33983093005E+02  0.00000000000E+00 0.  1.
         14    1    3    3    0    0  0.42512476028E+02 -0.11365913007E+03  0.15952588570E+03  0.20043506847E+03  0.00000000000E+00 0. -1.
        -13    1    5    5    0    0  0.48464856635E+02 -0.59241316208E+02 -0.56978508125E+03  0.57490296111E+03  0.00000000000E+00 0.  1.
         14    1    5    5    0    0 -0.27713073090E+02  0.56168329058E+01 -0.79951495313E+02  0.84804509519E+02  0.00000000000E+00 0. -1.
          5    1    4    4  501    0  0.10096249266E+03 -0.38349811587E+01 -0.70218182358E+02  0.12312926191E+03  0.47000000000E+01 0.  1.
         -5    1    4    4    0  501 -0.29410850158E+02  0.40898291478E+01 -0.77731874916E+02  0.83343021228E+02  0.47000000000E+01 0.  1.
          1    1    1    2  502    0 -0.14534547311E+03  0.42451565222E+02 -0.10046084766E+04  0.10159555272E+04  0.00000000000E+00 0. -1.
          3    1    1    2  503    0  0.33603990770E+02  0.14516270004E+03  0.49505289000E+03  0.51699013683E+03  0.00000000000E+00 0. -1.
<mgrwt>
<rscale>  0 0.13185984E+03</rscale>
<asrwt>0</asrwt>
<pdfrwt beam="2">  1        2 0.27699745E+00 0.12107669E+03</pdfrwt>
<pdfrwt beam="1">  1        4 0.11028837E+00 0.14360335E+03</pdfrwt>
<totfact> 0.36210283E+00</totfact>
</mgrwt>
</event>
<event>
13    1  0.2038932E-008  0.6382888E+02  0.7546771E-02  0.1403439E+00
          2   -1    0    0  502    0  0.00000000000E+00  0.00000000000E+00  0.15741677174E+03  0.15741677174E+03  0.00000000000E+00 0. -1.
          2   -1    0    0  503    0 -0.00000000000E+00 -0.00000000000E+00 -0.22722268630E+04  0.22722268630E+04  0.00000000000E+00 0. -1.
         24    2    1    2    0    0 -0.49036538906E+02  0.30481322776E+02 -0.16918747165E+04  0.16946539191E+04  0.77962530095E+02 0.  0.
         25    2    1    2    0    0  0.20034477009E+03 -0.79615678673E+02 -0.21078239407E+03  0.32639176461E+03  0.12500273264E+03 0.  0.
         24    2    1    2    0    0 -0.56856932940E+02  0.43902109988E+02  0.62690552916E+01  0.10712704523E+03  0.79226237329E+02 0.  0.
        -11    1    5    5    0    0  0.16959104883E+02  0.15315445531E+02 -0.12112356421E+02  0.25862778047E+02  0.00000000000E+00 0.  1.
         12    1    5    5    0    0 -0.73816037823E+02  0.28586664456E+02  0.18381411713E+02  0.81264267185E+02  0.00000000000E+00 0. -1.
        -13    1    3    3    0    0  0.11744266637E+02  0.22817489214E+02 -0.21778524493E+03  0.21929199374E+03  0.00000000000E+00 0.  1.
         14    1    3    3    0    0 -0.60780805543E+02  0.76638335618E+01 -0.14740894715E+04  0.14753619253E+04  0.00000000000E+00 0. -1.
          5    1    4    4  501    0  0.14503852817E+03  0.11617735863E+01 -0.15999638230E+03  0.21600568678E+03  0.47000000000E+01 0.  1.
         -5    1    4    4    0  501  0.55306241924E+02 -0.80777452259E+02 -0.50786011765E+02  0.11038607784E+03  0.47000000000E+01 0.  1.
          1    1    1    2  502    0 -0.39573968133E+02  0.36673267290E+02  0.17889325372E+02  0.56842373718E+02  0.00000000000E+00 0. -1.
          1    1    1    2  503    0 -0.54877330110E+02 -0.31441021381E+02 -0.23631136139E+03  0.24462853208E+03  0.00000000000E+00 0. -1.
<mgrwt>
<rscale>  0 0.58684065E+02</rscale>
<asrwt>0</asrwt>
<pdfrwt beam="1">  1        2 0.23149526E-01 0.53953939E+02</pdfrwt>
<pdfrwt beam="2">  1        2 0.33415101E+00 0.63828880E+02</pdfrwt>
<totfact> 0.24658783E+02</totfact>
</mgrwt>
</event>
<event>
13    1  0.2038932E-008  0.1019003E+03  0.7546771E-02  0.1317137E+00
          2   -1    0    0  503    0  0.00000000000E+00  0.00000000000E+00  0.93439351235E+03  0.93439351235E+03  0.00000000000E+00 0. -1.
          2   -1    0    0  502    0 -0.00000000000E+00 -0.00000000000E+00 -0.13582067132E+04  0.13582067132E+04  0.00000000000E+00 0. -1.
         24    2    1    2    0    0  0.13170573858E+02  0.63706500979E+02 -0.21863087894E+03  0.24127294788E+03  0.78620556279E+02 0.  0.
         25    2    1    2    0    0 -0.41631525004E+02 -0.79287545492E+02  0.34184676611E+03  0.37483823668E+03  0.12499917372E+03 0.  0.
         24    2    1    2    0    0  0.42584759546E+02  0.66017557284E+02 -0.20775616469E+03  0.23561802341E+03  0.78622193895E+02 0.  0.
        -11    1    5    5    0    0  0.10503728143E+02  0.36582167558E+02 -0.20227520689E+02  0.43101460316E+02  0.00000000000E+00 0.  1.
         12    1    5    5    0    0  0.32081031403E+02  0.29435389727E+02 -0.18752864400E+03  0.19251656309E+03  0.00000000000E+00 0. -1.
        -13    1    3    3    0    0  0.29692062312E+02  0.68151567480E+02 -0.11993514196E+03  0.14110525501E+03  0.00000000000E+00 0.  1.
         14    1    3    3    0    0 -0.16521488453E+02 -0.44450665014E+01 -0.98695736979E+02  0.10016769287E+03  0.00000000000E+00 0. -1.
          5    1    4    4  501    0 -0.79000853814E+02 -0.63306959186E+02  0.29848629620E+03  0.31522224700E+03  0.47000000000E+01 0.  1.
         -5    1    4    4    0  501  0.37369328810E+02 -0.15980586307E+02  0.43360469915E+02  0.59615989681E+02  0.47000000000E+01 0.  1.
          1    1    1    2  502    0 -0.83370336081E+02 -0.59405809681E+02 -0.88489625233E+03  0.89079797965E+03  0.00000000000E+00 0. -1.
          1    1    1    2  503    0  0.69246527680E+02  0.89692969097E+01  0.54562332901E+03  0.55007303792E+03  0.00000000000E+00 0. -1.
<mgrwt>
<rscale>  0 0.84351569E+02</rscale>
<asrwt>0</asrwt>
<pdfrwt beam="1">  1        2 0.13741081E+00 0.69824995E+02</pdfrwt>
<pdfrwt beam="2">  1        2 0.19973628E+00 0.10190029E+03</pdfrwt>
<totfact> 0.95638294E+01</totfact>
</mgrwt>
</event>
<event>
13    1  0.2038932E-008  0.4752609E+03  0.7546771E-02  0.1249911E+00
          2   -1    0    0  502    0  0.00000000000E+00  0.00000000000E+00  0.25460822169E+04  0.25460822169E+04  0.00000000000E+00 0. -1.
          4   -1    0    0  503    0 -0.00000000000E+00 -0.00000000000E+00 -0.52321373451E+03  0.52321373451E+03  0.00000000000E+00 0. -1.
         24    2    1    2    0    0  0.14696949188E+02 -0.61547103111E-01  0.69492975946E+03  0.70033801926E+03  0.85615223752E+02 0.  0.
         25    2    1    2    0    0  0.13775340746E+01  0.51907358724E+03  0.84539124902E+03  0.99987597939E+03  0.12500529455E+03 0.  0.
         24    2    1    2    0    0  0.22859522438E+02 -0.23353056380E+02  0.10465317250E+03  0.13207143796E+03  0.73638680071E+02 0.  0.
        -11    1    3    3    0    0  0.37828442097E+02  0.16019118126E+02  0.17958069983E+03  0.18421951832E+03  0.00000000000E+00 0.  1.
         12    1    3    3    0    0 -0.23131492908E+02 -0.16080665230E+02  0.51534905962E+03  0.51611850094E+03  0.00000000000E+00 0. -1.
        -13    1    5    5    0    0  0.45340420484E+01 -0.39652259392E+02  0.99227723492E+02  0.10695326232E+03  0.00000000000E+00 0.  1.
         14    1    5    5    0    0  0.18325480389E+02  0.16299203012E+02  0.54254490038E+01  0.25118175635E+02  0.00000000000E+00 0. -1.
          5    1    4    4  501    0 -0.18802158956E+02  0.41513643226E+03  0.57506327186E+03  0.70951507047E+03  0.47000000000E+01 0.  1.
         -5    1    4    4    0  501  0.20179693030E+02  0.10393715498E+03  0.27032797716E+03  0.29036090892E+03  0.47000000000E+01 0.  1.
          1    1    1    2  502    0  0.30083525067E+01 -0.28133916981E+02  0.67883390109E+03  0.67942330895E+03  0.00000000000E+00 0. -1.
          3    1    1    2  503    0 -0.41942358207E+02 -0.46752506678E+03 -0.30093959967E+03  0.55758720585E+03  0.00000000000E+00 0. -1.
<mgrwt>
<rscale>  0 0.11596195E+03</rscale>
<asrwt>0</asrwt>
<pdfrwt beam="1">  1        2 0.37442385E+00 0.28294301E+02</pdfrwt>
<pdfrwt beam="2">  1        4 0.76943198E-01 0.47526085E+03</pdfrwt>
<totfact> 0.49514865E+00</totfact>
</mgrwt>
</event>
<event>
13    1  0.2038932E-008  0.2031538E+03  0.7546771E-02  0.1281966E+00
          2   -1    0    0  502    0  0.00000000000E+00  0.00000000000E+00  0.87726180315E+03  0.87726180315E+03  0.00000000000E+00 0. -1.
          2   -1    0    0  503    0 -0.00000000000E+00 -0.00000000000E+00 -0.15415039300E+04  0.15415039300E+04  0.00000000000E+00 0. -1.
         24    2    1    2    0    0 -0.18257597968E+02 -0.46095256190E+02 -0.30165371653E+03  0.31609172529E+03  0.80379733621E+02 0.  0.
         25    2    1    2    0    0  0.87637036567E+01  0.76081000201E+02 -0.21195004114E+03  0.25770630347E+03  0.12499839126E+03 0.  0.
         24    2    1    2    0    0  0.15392145572E+03 -0.16159791591E+03 -0.15582656356E+03  0.28378998712E+03  0.80306524772E+02 0.  0.
        -11    1    5    5    0    0  0.27153179433E+02 -0.38990082508E+02 -0.77305764683E+02  0.90739753915E+02  0.00000000000E+00 0.  1.
         12    1    5    5    0    0  0.12676827629E+03 -0.12260783340E+03 -0.78520798877E+02  0.19305023320E+03  0.00000000000E+00 0. -1.
        -13    1    3    3    0    0 -0.31472980859E+02  0.46153403691E+01 -0.51687508646E+02  0.60691419829E+02  0.00000000000E+00 0.  1.
         14    1    3    3    0    0  0.13215382890E+02 -0.50710596559E+02 -0.24996620788E+03  0.25540030546E+03  0.00000000000E+00 0. -1.
          5    1    4    4  501    0 -0.18252152105E+02 -0.29303651937E+02 -0.31632544606E+02  0.47059036875E+02  0.47000000000E+01 0.  1.
         -5    1    4    4    0  501  0.27015855762E+02  0.10538465214E+03 -0.18031749653E+03  0.21064726659E+03  0.47000000000E+01 0.  1.
          1    1    1    2  502    0 -0.17800203457E+03  0.96682625851E+02  0.76930498375E+03  0.79552650017E+03  0.00000000000E+00 0. -1.
          1    1    1    2  503    0  0.33574473168E+02  0.34929546044E+02 -0.76411678934E+03  0.76565121706E+03  0.00000000000E+00 0. -1.
<mgrwt>
<rscale>  0 0.99209996E+02</rscale>
<asrwt>0</asrwt>
<pdfrwt beam="1">  1        2 0.12900909E+00 0.20315376E+03</pdfrwt>
<pdfrwt beam="2">  1        2 0.22669176E+00 0.48449132E+02</pdfrwt>
<totfact> 0.85363387E+01</totfact>
</mgrwt>
</event>
<event>
13    1  0.2038932E-008  0.7457685E+02  0.7546771E-02  0.1419017E+00
         -3   -1    0    0    0  501 -0.00000000000E+00  0.00000000000E+00  0.63488862529E+03  0.63488862529E+03  0.00000000000E+00 0.  1.
          2   -1    0    0  503    0  0.00000000000E+00 -0.00000000000E+00 -0.22240801960E+04  0.22240801960E+04  0.00000000000E+00 0. -1.
         24    2    1    2    0    0  0.74466275222E+02  0.59753140868E+02  0.27598922693E+03  0.30296466755E+03  0.80634188858E+02 0.  0.
         25    2    1    2    0    0  0.28687483052E+01 -0.46407553361E+02 -0.82704300181E+03  0.83772646429E+03  0.12499444552E+03 0.  0.
         24    2    1    2    0    0 -0.77756094181E+01 -0.18350752605E+02 -0.55772854330E+02  0.99957977920E+02  0.80521896692E+02 0.  0.
        -11    1    5    5    0    0 -0.33006373173E+02 -0.15502299807E+02 -0.63664930485E+02  0.73368694571E+02  0.00000000000E+00 0.  1.
         12    1    5    5    0    0  0.25230763755E+02 -0.28484527981E+01  0.78920761553E+01  0.26589283350E+02  0.00000000000E+00 0. -1.
        -13    1    3    3    0    0  0.43101704529E+02  0.76073164409E+02  0.16889795763E+03  0.19018781078E+03  0.00000000000E+00 0.  1.
         14    1    3    3    0    0  0.31364570693E+02 -0.16320023541E+02  0.10709126930E+03  0.11277685677E+03  0.00000000000E+00 0. -1.
          5    1    4    4  502    0  0.14416145065E+01  0.26981780001E+02 -0.48506311440E+02  0.55722948181E+02  0.47000000000E+01 0. -1.
         -5    1    4    4    0  502  0.14271337988E+01 -0.73389333362E+02 -0.77853669037E+03  0.78200351611E+03  0.47000000000E+01 0. -1.
          1    1    1    2  503    0 -0.65538928206E+02 -0.35698121770E+02 -0.12979506906E+04  0.13000944975E+04  0.00000000000E+00 0. -1.
         -4    1    1    2    0  501 -0.40204859028E+01  0.40703286868E+02  0.31558574908E+03  0.31822521410E+03  0.00000000000E+00 0.  1.
<mgrwt>
<rscale>  0 0.55229477E+02</rscale>
<asrwt>0</asrwt>
<pdfrwt beam="2">  1        2 0.32707061E+00 0.74576848E+02</pdfrwt>
<pdfrwt beam="1">  1       -3 0.93365976E-01 0.40901368E+02</pdfrwt>
<totfact> 0.46470526E+00</totfact>
</mgrwt>
</event>
<event>
13    1  0.2038932E-008  0.1256834E+03  0.7546771E-02  0.1253208E+00
          2   -1    0    0  502    0  0.00000000000E+00  0.00000000000E+00  0.10822519900E+04  0.10822519900E+04  0.00000000000E+00 0. -1.
          2   -1    0    0  503    0 -0.00000000000E+00 -0.00000000000E+00 -0.21674642778E+04  0.21674642778E+04  0.00000000000E+00 0. -1.
         24    2    1    2    0    0 -0.70192450804E+02  0.85534735924E+02 -0.18799826669E+03  0.23327199650E+03  0.82639608389E+02 0.  0.
         25    2    1    2    0    0 -0.21594834856E+02 -0.44674178749E+02 -0.40883997214E+03  0.43039158416E+03  0.12499869501E+03 0.  0.
         24    2    1    2    0    0 -0.26622659038E+01  0.51255569343E+01  0.68841056371E+03  0.69336234742E+03  0.82515947520E+02 0.  0.
        -11    1    3    3    0    0 -0.24996483563E+02  0.89314622080E+02 -0.12555683272E+03  0.15609754690E+03  0.00000000000E+00 0.  1.
         12    1    3    3    0    0 -0.45195967241E+02 -0.37798861560E+01 -0.62441433970E+02  0.77174449596E+02  0.00000000000E+00 0. -1.
        -11    1    5    5    0    0 -0.29496685944E+02 -0.11289196423E+02  0.56906415183E+03  0.56993991731E+03  0.00000000000E+00 0.  1.
         12    1    5    5    0    0  0.26834420040E+02  0.16414753357E+02  0.11934641188E+03  0.12342243011E+03  0.00000000000E+00 0. -1.
          5    1    4    4  501    0 -0.31744167815E+02 -0.13112209617E+02 -0.19817216657E+02  0.39930368235E+02  0.47000000000E+01 0. -1.
         -5    1    4    4    0  501  0.10149332959E+02 -0.31561969133E+02 -0.38902275548E+03  0.39046121592E+03  0.47000000000E+01 0. -1.
          1    1    1    2  502    0  0.18211388639E+03 -0.10103001579E+03  0.32572863291E+03  0.38661566705E+03  0.00000000000E+00 0. -1.
          1    1    1    2  503    0 -0.87664334828E+02  0.55043901682E+02 -0.15025132456E+04  0.15060746727E+04  0.00000000000E+00 0. -1.
<mgrwt>
<rscale>  0 0.11407306E+03</rscale>
<asrwt>0</asrwt>
<pdfrwt beam="1">  1        2 0.15915470E+00 0.12568335E+03</pdfrwt>
<pdfrwt beam="2">  1        2 0.31874475E+00 0.10353530E+03</pdfrwt>
<totfact> 0.30767853E+01</totfact>
</mgrwt>
</event>
<event>
13    1  0.2038932E-008  0.8447934E+02  0.7546771E-02  0.1448212E+00
          2   -1    0    0  503    0  0.00000000000E+00  0.00000000000E+00  0.11007319850E+04  0.11007319850E+04  0.00000000000E+00 0. -1.
          2   -1    0    0  502    0 -0.00000000000E+00 -0.00000000000E+00 -0.87146431652E+03  0.87146431652E+03  0.00000000000E+00 0. -1.
         24    2    1    2    0    0 -0.20257754135E+03 -0.31075378443E+02 -0.15784075959E+03  0.27052925894E+03  0.79177238836E+02 0.  0.
         25    2    1    2    0    0  0.19708185740E+03  0.85294628449E+02  0.93174734263E+02  0.26537396570E+03  0.12500151362E+03 0.  0.
         24    2    1    2    0    0 -0.34595959408E+02  0.35204972191E+02 -0.10742377219E+03  0.14300218681E+03  0.80457989819E+02 0.  0.
        -11    1    5    5    0    0 -0.35704397240E+02  0.41033927261E+02 -0.24142912255E+02  0.59510229212E+02  0.00000000000E+00 0.  1.
         12    1    5    5    0    0  0.11084378314E+01 -0.58289550702E+01 -0.83280859933E+02  0.83491957593E+02  0.00000000000E+00 0. -1.
        -13    1    3    3    0    0 -0.11982943364E+03  0.20102087329E+02 -0.75352948178E+02  0.14297291310E+03  0.00000000000E+00 0.  1.
         14    1    3    3    0    0 -0.82748107716E+02 -0.51177465772E+02 -0.82487811413E+02  0.12755634584E+03  0.00000000000E+00 0. -1.
          5    1    4    4  501    0  0.94776883775E+02  0.91296172186E+02  0.95653523217E+02  0.16275544617E+03  0.47000000000E+01 0. -1.
         -5    1    4    4    0  501  0.10230497363E+03 -0.60015437379E+01 -0.24787889538E+01  0.10261851953E+03  0.47000000000E+01 0. -1.
          1    1    1    2  502    0  0.67643072518E+02 -0.80467013654E+02 -0.43951908074E+03  0.45191542116E+03  0.00000000000E+00 0. -1.
          1    1    1    2  503    0 -0.27551429163E+02 -0.89572085420E+01  0.84087654670E+03  0.84137546887E+03  0.00000000000E+00 0. -1.
<mgrwt>
<rscale>  0 0.49471630E+02</rscale>
<asrwt>0</asrwt>
<pdfrwt beam="1">  1        2 0.16187235E+00 0.28970896E+02</pdfrwt>
<pdfrwt beam="2">  1        2 0.12815652E+00 0.84479340E+02</pdfrwt>
<totfact> 0.15189511E+02</totfact>
</mgrwt>
</event>
<event>
13    1  0.2038932E-008  0.1354088E+03  0.7546771E-02  0.1233806E+00
          2   -1    0    0  502    0  0.00000000000E+00  0.00000000000E+00  0.45118142839E+03  0.45118142839E+03  0.00000000000E+00 0. -1.
          2   -1    0    0  503    0 -0.00000000000E+00 -0.00000000000E+00 -0.10261597091E+04  0.10261597091E+04  0.00000000000E+00 0. -1.
         24    2    1    2    0    0  0.22485478638E+02  0.15137612258E+03 -0.96434817107E+02  0.19896046451E+03  0.82856896208E+02 0.  0.
         25    2    1    2    0    0  0.11808777005E+03  0.74118798051E+02 -0.18789326013E+03  0.26526268693E+03  0.12498839231E+03 0.  0.
         24    2    1    2    0    0 -0.13543920598E+03  0.22189092863E+02  0.12865657201E+03  0.20528041184E+03  0.82166900893E+02 0.  0.
        -13    1    5    5    0    0 -0.14592573059E+03  0.14975167088E+02  0.11341182441E+03  0.18542064717E+03  0.00000000000E+00 0.  1.
         14    1    5    5    0    0  0.10486524609E+02  0.72139257754E+01  0.15244747596E+02  0.19859764670E+02  0.00000000000E+00 0. -1.
        -13    1    3    3    0    0  0.40608756940E+02  0.29282761164E+02 -0.34993507938E+02  0.61082704912E+02  0.00000000000E+00 0.  1.
         14    1    3    3    0    0 -0.18123278302E+02  0.12209336142E+03 -0.61441309169E+02  0.13787775960E+03  0.00000000000E+00 0. -1.
          5    1    4    4  501    0  0.33533179198E+02  0.43304679112E+02 -0.16263312225E+03  0.17167233846E+03  0.47000000000E+01 0. -1.
         -5    1    4    4    0  501  0.84554590852E+02  0.30814118939E+02 -0.25260137882E+02  0.93590348466E+02  0.47000000000E+01 0. -1.
          1    1    1    2  502    0  0.29209125830E+02 -0.13594719600E+03  0.16280574427E+03  0.21410400159E+03  0.00000000000E+00 0. -1.
          1    1    1    2  503    0 -0.34343168534E+02 -0.11173681750E+03 -0.58211251973E+03  0.59373357261E+03  0.00000000000E+00 0. -1.
<mgrwt>
<rscale>  0 0.12581209E+03</rscale>
<asrwt>0</asrwt>
<pdfrwt beam="1">  1        2 0.66350211E-01 0.13540876E+03</pdfrwt>
<pdfrwt beam="2">  1        2 0.15090584E+00 0.11689555E+03</pdfrwt>
<totfact> 0.32334243E+02</totfact>
</mgrwt>
</event>
<event>
13    1  0.2038932E-008  0.4187119E+02  0.7546771E-02  0.1510264E+00
          2   -1    0    0  503    0  0.00000000000E+00  0.00000000000E+00  0.22511553999E+04  0.22511553999E+04  0.00000000000E+00 0. -1.
          2   -1    0    0  502    0 -0.00000000000E+00 -0.00000000000E+00 -0.17410221811E+04  0.17410221811E+04  0.00000000000E+00 0. -1.
         24    2    1    2    0    0 -0.14244140521E+03 -0.16963066737E+03 -0.74116675384E+03  0.78075199468E+03  0.10574215325E+03 0.  0.
         25    2    1    2    0    0 -0.12691824470E+03 -0.72847993454E+02  0.16926251441E+03  0.25629633474E+03  0.12499176544E+03 0.  0.
         24    2    1    2    0    0  0.27122750198E+03  0.24671108965E+03  0.23531942480E+03  0.44297711098E+03  0.80142183482E+02 0.  0.
        -13    1    3    3    0    0 -0.11362668454E+03 -0.60986014456E+02 -0.46597385501E+03  0.48348934937E+03  0.00000000000E+00 0.  1.
         14    1    3    3    0    0 -0.28814720671E+02 -0.10864465291E+03 -0.27519289883E+03  0.29726264531E+03  0.00000000000E+00 0. -1.
        -13    1    5    5    0    0  0.14379687151E+03  0.77931348320E+02  0.11089028809E+03  0.19760438077E+03  0.00000000000E+00 0.  1.
         14    1    5    5    0    0  0.12743063047E+03  0.16877974133E+03  0.12442913671E+03  0.24537273021E+03  0.00000000000E+00 0. -1.
          5    1    4    4  501    0 -0.50397045154E+02 -0.16230817632E+02 -0.92333793629E+01  0.53950411451E+02  0.47000000000E+01 0. -1.
         -5    1    4    4    0  501 -0.76521199550E+02 -0.56617175822E+02  0.17849589377E+03  0.20234592329E+03  0.47000000000E+01 0. -1.
          1    1    1    2  502    0 -0.16261822854E+01  0.37648881518E+02 -0.83202939842E+03  0.83288234618E+03  0.00000000000E+00 0. -1.
          1    1    1    2  503    0 -0.24166978529E+00 -0.41881310350E+02  0.16787474318E+04  0.16792697944E+04  0.00000000000E+00 0. -1.
<mgrwt>
<rscale>  0 0.39722452E+02</rscale>
<asrwt>0</asrwt>
<pdfrwt beam="1">  1        2 0.33105227E+00 0.41871188E+02</pdfrwt>
<pdfrwt beam="2">  1        2 0.25603267E+00 0.37683985E+02</pdfrwt>
<totfact> 0.16098300E+01</totfact>
</mgrwt>
</event>
<event>
13    1  0.2038932E-008  0.5553898E+02  0.7546771E-02  0.1431690E+00
          2   -1    0    0  502    0  0.00000000000E+00  0.00000000000E+00  0.13844154807E+04  0.13844154807E+04  0.00000000000E+00 0. -1.
          2   -1    0    0  503    0 -0.00000000000E+00 -0.00000000000E+00 -0.22122912068E+04  0.22122912068E+04  0.00000000000E+00 0. -1.
         24    2    1    2    0    0 -0.15880021110E+03 -0.21610741968E+03 -0.98910274891E+03  0.10279020918E+04  0.79614939847E+02 0.  0.
         25    2    1    2    0    0  0.36710616777E+03  0.11862164484E+03  0.36224533590E+03  0.54376839399E+03  0.12499739949E+03 0.  0.
         24    2    1    2    0    0 -0.15803738733E+03  0.62587075797E+02 -0.75142873679E+03  0.77459502334E+03  0.80370055708E+02 0.  0.
        -11    1    5    5    0    0 -0.11088540619E+03  0.55208741349E+02 -0.36981738345E+03  0.39001086591E+03  0.00000000000E+00 0.  1.
         12    1    5    5    0    0 -0.47151981140E+02  0.73783344479E+01 -0.38161135335E+03  0.38458415743E+03  0.00000000000E+00 0. -1.
        -13    1    3    3    0    0  0.95839100397E+00 -0.22004489950E+01 -0.89161587472E+02  0.89193885270E+02  0.00000000000E+00 0.  1.
         14    1    3    3    0    0 -0.15975860211E+03 -0.21390697068E+03 -0.89994116143E+03  0.93870820658E+03  0.00000000000E+00 0. -1.
          5    1    4    4  501    0  0.13451473250E+03  0.10177231119E+03  0.18799980329E+03  0.25262191635E+03  0.47000000000E+01 0. -1.
         -5    1    4    4    0  501  0.23259143527E+03  0.16849333657E+02  0.17424553261E+03  0.29114647764E+03  0.47000000000E+01 0. -1.
          1    1    1    2  502    0  0.33260278474E+01  0.49747775973E+02  0.89752042228E+03  0.89890422854E+03  0.00000000000E+00 0. -1.
          1    1    1    2  503    0 -0.53594597182E+02 -0.14849076936E+02 -0.34710999861E+03  0.35153694979E+03  0.00000000000E+00 0. -1.
<mgrwt>
<rscale>  0 0.52622324E+02</rscale>
<asrwt>0</asrwt>
<pdfrwt beam="1">  1        2 0.20359051E+00 0.49858837E+02</pdfrwt>
<pdfrwt beam="2">  1        2 0.32533694E+00 0.55538980E+02</pdfrwt>
<totfact> 0.23263046E+01</totfact>
</mgrwt>
</event>
<event>
13    1  0.2038932E-008  0.3708637E+02  0.7546771E-02  0.1542402E+00
         -1   -1    0    0    0  501 -0.00000000000E+00  0.00000000000E+00  0.10239610363E+04  0.10239610363E+04  0.00000000000E+00 0.  1.
          2   -1    0    0  503    0  0.00000000000E+00 -0.00000000000E+00 -0.16833422877E+04  0.16833422877E+04  0.00000000000E+00 0. -1.
         24    2    1    2    0    0 -0.12366272973E+03 -0.35316280005E+03  0.12011321084E+03  0.40121531419E+03  0.80809101323E+02 0.  0.
         25    2    1    2    0    0 -0.23371371980E+03  0.11114952275E+03 -0.89374096506E+03  0.93881465442E+03  0.12499489387E+03 0.  0.
         24    2    1    2    0    0  0.29660849957E+03  0.27914523448E+03 -0.11038680709E+03  0.43392315773E+03  0.10102175847E+03 0.  0.
        -11    1    3    3    0    0 -0.10484621257E+03 -0.17762126938E+03  0.66135492486E+02  0.21660089334E+03  0.00000000000E+00 0.  1.
         12    1    3    3    0    0 -0.18816517155E+02 -0.17554153067E+03  0.53977718355E+02  0.18461442085E+03  0.00000000000E+00 0. -1.
        -13    1    5    5    0    0  0.27821280359E+03  0.23082525300E+03 -0.12086168931E+03  0.38116952848E+03  0.00000000000E+00 0.  1.
         14    1    5    5    0    0  0.18395695978E+02  0.48319981488E+02  0.10474882213E+02  0.52753629249E+02  0.00000000000E+00 0. -1.
          5    1    4    4  502    0 -0.58558046358E+02  0.48247683656E+02 -0.46822127171E+03  0.47435233008E+03  0.47000000000E+01 0. -1.
         -5    1    4    4    0  502 -0.17515567345E+03  0.62901839096E+02 -0.42551969336E+03  0.46446232435E+03  0.47000000000E+01 0. -1.
          1    1    1    2  503    0  0.32824898845E+02 -0.17101184953E+02 -0.35287932088E+03  0.35481507805E+03  0.00000000000E+00 0. -1.
         -2    1    1    2    0  501  0.27943051121E+02 -0.20030772232E+02  0.57751263076E+03  0.57853511961E+03  0.00000000000E+00 0.  1.
<mgrwt>
<rscale>  0 0.35708017E+02</rscale>
<asrwt>0</asrwt>
<pdfrwt beam="2">  1        2 0.24755033E+00 0.37086367E+02</pdfrwt>
<pdfrwt beam="1">  1       -1 0.15058251E+00 0.34380895E+02</pdfrwt>
<totfact> 0.70782346E+00</totfact>
</mgrwt>
</event>
<event>
13    1  0.2038932E-008  0.8215831E+02  0.7546771E-02  0.1419244E+00
         -1   -1    0    0    0  501 -0.00000000000E+00  0.00000000000E+00  0.13912160549E+04  0.13912160549E+04  0.00000000000E+00 0.  1.
          2   -1    0    0  503    0  0.00000000000E+00 -0.00000000000E+00 -0.23553343852E+04  0.23553343852E+04  0.00000000000E+00 0. -1.
         24    2    1    2    0    0  0.25570030317E+03 -0.23667126263E+02  0.75371236364E+03  0.80192012768E+03  0.95135619858E+02 0.  0.
         25    2    1    2    0    0 -0.13190496890E+03 -0.10165908788E+03 -0.17001741618E+02  0.20892247212E+03  0.12500419661E+03 0.  0.
         24    2    1    2    0    0 -0.68767976383E+02  0.10122461531E+03 -0.29951773543E+03  0.33292416960E+03  0.78435779737E+02 0.  0.
        -13    1    3    3    0    0  0.10240355324E+03  0.26453740854E+02  0.38932034399E+03  0.40343105776E+03  0.00000000000E+00 0.  1.
         14    1    3    3    0    0  0.15329674993E+03 -0.50120867117E+02  0.36439201965E+03  0.39848906992E+03  0.00000000000E+00 0. -1.
        -13    1    5    5    0    0 -0.82257062258E+02  0.61891947675E+02 -0.19650251594E+03  0.22183344258E+03  0.00000000000E+00 0.  1.
         14    1    5    5    0    0  0.13489085875E+02  0.39332667635E+02 -0.10301521950E+03  0.11109072702E+03  0.00000000000E+00 0. -1.
          5    1    4    4  502    0 -0.81305422575E+02 -0.59026692315E+02 -0.71225996039E+02  0.12324753408E+03  0.47000000000E+01 0. -1.
         -5    1    4    4    0  502 -0.50599546325E+02 -0.42632395566E+02  0.54224254421E+02  0.85674938036E+02  0.47000000000E+01 0. -1.
          1    1    1    2  503    0 -0.82177988180E+02 -0.11261126487E+01 -0.19004723253E+04  0.19022485508E+04  0.00000000000E+00 0. -1.
         -2    1    1    2    0  501  0.27150630293E+02  0.25227711482E+02  0.49916110833E+03  0.50053511987E+03  0.00000000000E+00 0.  1.
<mgrwt>
<rscale>  0 0.55181102E+02</rscale>
<asrwt>0</asrwt>
<pdfrwt beam="2">  1        2 0.34637270E+00 0.82158314E+02</pdfrwt>
<pdfrwt beam="1">  1       -1 0.20459060E+00 0.37062031E+02</pdfrwt>
<totfact> 0.13547636E+00</totfact>
</mgrwt>
</event>
<event>
13    1  0.2038932E-008  0.1399056E+03  0.7546771E-02  0.1249320E+00
          2   -1    0    0  502    0  0.00000000000E+00  0.00000000000E+00  0.27654591873E+04  0.27654591873E+04  0.00000000000E+00 0. -1.
          2   -1    0    0  503    0 -0.00000000000E+00 -0.00000000000E+00 -0.11328269090E+04  0.11328269090E+04  0.00000000000E+00 0. -1.
         24    2    1    2    0    0 -0.13425393473E+03 -0.42767106087E+02 -0.87572036010E+02  0.18294436049E+03  0.77114416238E+02 0.  0.
         25    2    1    2    0    0  0.86528430003E+02  0.83873947115E+02  0.21362307922E+03  0.27528609048E+03  0.12500241371E+03 0.  0.
         24    2    1    2    0    0 -0.82951820080E+02 -0.12839023659E+03  0.25208339431E+03  0.30548279649E+03  0.80054006525E+02 0.  0.
        -11    1    3    3    0    0 -0.88739805310E+02  0.10028015880E+02 -0.61909031051E+02  0.10866481618E+03  0.00000000000E+00 0.  1.
         12    1    3    3    0    0 -0.45514129422E+02 -0.52795121967E+02 -0.25663004958E+02  0.74279544318E+02  0.00000000000E+00 0. -1.
        -13    1    5    5    0    0 -0.76092075786E+02 -0.13394162499E+03  0.19893021567E+03  0.25160205406E+03  0.00000000000E+00 0.  1.
         14    1    5    5    0    0 -0.68597442942E+01  0.55513884052E+01  0.53153178645E+02  0.53880742433E+02  0.00000000000E+00 0. -1.
          5    1    4    4  501    0  0.15517290643E+01  0.51979361613E+02  0.11209699780E+02  0.53404206444E+02  0.47000000000E+01 0. -1.
         -5    1    4    4    0  501  0.84976700938E+02  0.31894585502E+02  0.20241337944E+03  0.22188188404E+03  0.47000000000E+01 0. -1.
          1    1    1    2  502    0 -0.90756311607E+01  0.96259257925E+02  0.21882463291E+04  0.21903812930E+04  0.00000000000E+00 0. -1.
          1    1    1    2  503    0  0.13975295597E+03 -0.89758623674E+01 -0.93374848834E+03  0.94419155593E+03  0.00000000000E+00 0. -1.
<mgrwt>
<rscale>  0 0.11630534E+03</rscale>
<asrwt>0</asrwt>
<pdfrwt beam="1">  1        2 0.40668517E+00 0.96686151E+02</pdfrwt>
<pdfrwt beam="2">  1        2 0.16659219E+00 0.13990558E+03</pdfrwt>
<totfact> 0.14596782E+01</totfact>
</mgrwt>
</event>
<event>
13    1  0.2038932E-008  0.1533556E+03  0.7546771E-02  0.1295436E+00
          2   -1    0    0  503    0  0.00000000000E+00  0.00000000000E+00  0.33319326892E+03  0.33319326892E+03  0.00000000000E+00 0. -1.
         -1   -1    0    0    0  501 -0.00000000000E+00 -0.00000000000E+00 -0.17241092225E+04  0.17241092225E+04  0.00000000000E+00 0.  1.
         24    2    1    2    0    0 -0.39968191825E+02  0.71827863196E+02 -0.30971707425E+03  0.33024521643E+03  0.79878273668E+02 0.  0.
         25    2    1    2    0    0 -0.12388888155E+03 -0.15016467965E+03 -0.84120039058E+02  0.24616316670E+03  0.12498895024E+03 0.  0.
         24    2    1    2    0    0 -0.18085281216E+02  0.66706524337E+02 -0.73507262572E+02  0.13819300331E+03  0.94430666240E+02 0.  0.
        -11    1    5    5    0    0 -0.53393433283E+00  0.65560196577E+02 -0.91805210292E+02  0.11281232689E+03  0.00000000000E+00 0.  1.
         12    1    5    5    0    0 -0.17551346883E+02  0.11463277599E+01  0.18297947720E+02  0.25380676419E+02  0.00000000000E+00 0. -1.
        -11    1    3    3    0    0 -0.24971368763E+02  0.73782603154E+02 -0.30440922031E+03  0.31421714656E+03  0.00000000000E+00 0.  1.
         12    1    3    3    0    0 -0.14996823062E+02 -0.19547399576E+01 -0.53078539457E+01  0.16028069870E+02  0.00000000000E+00 0. -1.
          5    1    4    4  502    0 -0.14529348109E+02 -0.20986092103E+02 -0.71857935162E+02  0.76401379987E+02  0.47000000000E+01 0.  1.
         -5    1    4    4    0  502 -0.10935953344E+03 -0.12917858755E+03 -0.12262103896E+02  0.16976178671E+03  0.47000000000E+01 0.  1.
          1    1    1    2  503    0 -0.12921839337E+02 -0.55064678229E+02  0.19617718941E+03  0.20416802484E+03  0.00000000000E+00 0. -1.
         -2    1    1    2    0  501  0.19486419393E+03  0.66694970347E+02 -0.11197487671E+04  0.11385330801E+04  0.00000000000E+00 0.  1.
<mgrwt>
<rscale>  0 0.93133619E+02</rscale>
<asrwt>0</asrwt>
<pdfrwt beam="1">  1        2 0.48999009E-01 0.56560523E+02</pdfrwt>
<pdfrwt beam="2">  1       -1 0.25354548E+00 0.15335557E+03</pdfrwt>
<totfact> 0.93677174E+00</totfact>
</mgrwt>
</event>
<event>
13    1  0.2038932E-008  0.1215604E+03  0.7546771E-02  0.1262018E+00
          2   -1    0    0  503    0  0.00000000000E+00  0.00000000000E+00  0.13218832858E+04  0.13218832858E+04  0.00000000000E+00 0. -1.
          2   -1    0    0  502    0 -0.00000000000E+00 -0.00000000000E+00 -0.45204668618E+04  0.45204668618E+04  0.00000000000E+00 0. -1.
         24    2    1    2    0    0 -0.18078197960E+02 -0.62334663070E+02 -0.32840059462E+03  0.34433848796E+03  0.80682168285E+02 0.  0.
         25    2    1    2    0    0 -0.81680611759E+02  0.10248329944E+03  0.30110880257E+03  0.35137581888E+03  0.12499562435E+03 0.  0.
         24    2    1    2    0    0 -0.42143287960E+02 -0.41724392310E+02 -0.25922778893E+03  0.27865189993E+03  0.83251745620E+02 0.  0.
        -11    1    5    5    0    0 -0.49799413182E+02  0.92381826721E+01 -0.12505218455E+03  0.13491988153E+03  0.00000000000E+00 0.  1.
         12    1    5    5    0    0  0.76561252225E+01 -0.50962574982E+02 -0.13417560438E+03  0.14373201840E+03  0.00000000000E+00 0. -1.
        -13    1    3    3    0    0  0.30709123587E+02 -0.19341171442E+02 -0.15373265161E+03  0.15795841021E+03  0.00000000000E+00 0.  1.
         14    1    3    3    0    0 -0.48787321547E+02 -0.42993491628E+02 -0.17466794301E+03  0.18638007775E+03  0.00000000000E+00 0. -1.
          5    1    4    4  501    0 -0.38934243817E+02  0.74456433524E+02  0.56313761466E+02  0.10125692848E+03  0.47000000000E+01 0.  1.
         -5    1    4    4    0  501 -0.42746367942E+02  0.28026865918E+02  0.24479504110E+03  0.25011889040E+03  0.47000000000E+01 0.  1.
          1    1    1    2  502    0  0.52922814044E+02  0.82642687524E+02 -0.38856981734E+04  0.38869372175E+04  0.00000000000E+00 0. -1.
          1    1    1    2  503    0  0.88979283635E+02 -0.81066931586E+02  0.97363417832E+03  0.98104672341E+03  0.00000000000E+00 0. -1.
<mgrwt>
<rscale>  0 0.10922193E+03</rscale>
<asrwt>0</asrwt>
<pdfrwt beam="1">  1        2 0.19439460E+00 0.12156040E+03</pdfrwt>
<pdfrwt beam="2">  1        2 0.66477453E+00 0.98135814E+02</pdfrwt>
<totfact> 0.93671331E-01</totfact>
</mgrwt>
</event>
<event>
13    1  0.2038932E-008  0.6905207E+02  0.7546771E-02  0.1458906E+00
         -1   -1    0    0    0  501  0.00000000000E+00  0.00000000000E+00  0.15844353777E+04  0.15844353777E+04  0.00000000000E+00 0.  1.
         -1   -1    0    0    0  502 -0.00000000000E+00 -0.00000000000E+00 -0.16738842250E+04  0.16738842250E+04  0.00000000000E+00 0.  1.
         24    2    1    2    0    0  0.73303589267E+02 -0.66937478093E+02 -0.26266025499E+03  0.29216881769E+03  0.80735161531E+02 0.  0.
         25    2    1    2    0    0  0.78546428669E+02 -0.37328213999E+02  0.14363255183E+03  0.20933358311E+03  0.12500920788E+03 0.  0.
         24    2    1    2    0    0 -0.12738386674E+03  0.76810856451E+02 -0.15956081254E+03  0.23264858936E+03  0.80865048428E+02 0.  0.
        -11    1    3    3    0    0  0.40395925775E+01 -0.52849664099E+02 -0.15084705741E+03  0.15988821105E+03  0.00000000000E+00 0.  1.
         12    1    3    3    0    0  0.69263996690E+02 -0.14087813993E+02 -0.11181319758E+03  0.13228060664E+03  0.00000000000E+00 0. -1.
        -13    1    5    5    0    0 -0.13899842137E+03  0.69068867699E+02 -0.14369644286E+03  0.21151769978E+03  0.00000000000E+00 0.  1.
         14    1    5    5    0    0  0.11614554630E+02  0.77419887517E+01 -0.15864369681E+02  0.21130889580E+02  0.00000000000E+00 0. -1.
          5    1    4    4  503    0  0.46657286730E+02 -0.72224435243E+02  0.13636071505E+03  0.16127493934E+03  0.47000000000E+01 0. -1.
         -5    1    4    4    0  503  0.31889141939E+02  0.34896221244E+02  0.72718367849E+01  0.48058643769E+02  0.47000000000E+01 0. -1.
         -2    1    1    2    0  501 -0.40269058718E+02  0.56163981778E+02  0.13555437487E+04  0.13573042564E+04  0.00000000000E+00 0.  1.
         -2    1    1    2    0  502  0.15802907520E+02 -0.28709146138E+02 -0.11664040803E+04  0.11668643561E+04  0.00000000000E+00 0.  1.
<mgrwt>
<rscale>  0 0.47570099E+02</rscale>
<asrwt>0</asrwt>
<pdfrwt beam="1">  1       -1 0.23300520E+00 0.69052070E+02</pdfrwt>
<pdfrwt beam="2">  1       -1 0.24615944E+00 0.32771130E+02</pdfrwt>
<totfact> 0.10466530E-01</totfact>
</mgrwt>
</event>
<event>
13    1  0.2038932E-008  0.2054149E+03  0.7546771E-02  0.1268839E+00
          2   -1    0    0  502    0  0.00000000000E+00  0.00000000000E+00  0.16213424220E+04  0.16213424220E+04  0.00000000000E+00 0. -1.
          2   -1    0    0  503    0 -0.00000000000E+00 -0.00000000000E+00 -0.14320904100E+04  0.14320904100E+04  0.00000000000E+00 0. -1.
         24    2    1    2    0    0  0.84688384364E+01 -0.15634990577E+01 -0.50594592697E+03  0.51373644362E+03  0.88711254803E+02 0.  0.
         25    2    1    2    0    0 -0.51483955355E+02 -0.19027523031E+03  0.54266501955E+02  0.23962412588E+03  0.12497842830E+03 0.  0.
         24    2    1    2    0    0 -0.17313171046E+03  0.25997050838E+03  0.94336577522E+03  0.99705433560E+03  0.81357899943E+02 0.  0.
        -11    1    5    5    0    0 -0.70523034144E+02  0.56324166591E+02  0.19830538409E+03  0.21787825832E+03  0.00000000000E+00 0.  1.
         12    1    5    5    0    0 -0.10260867631E+03  0.20364634179E+03  0.74506039113E+03  0.77917607728E+03  0.00000000000E+00 0. -1.
        -13    1    3    3    0    0  0.69929887551E+01 -0.37829683917E+02 -0.11836906455E+03  0.12446373897E+03  0.00000000000E+00 0.  1.
         14    1    3    3    0    0  0.14758496813E+01  0.36266184859E+02 -0.38757686242E+03  0.38927270465E+03  0.00000000000E+00 0. -1.
          5    1    4    4  501    0 -0.74839084779E+02 -0.10497414118E+03  0.74228602495E+02  0.14883693881E+03  0.47000000000E+01 0. -1.
         -5    1    4    4    0  501  0.23355129424E+02 -0.85301089135E+02 -0.19962100540E+02  0.90787187070E+02  0.47000000000E+01 0. -1.
          1    1    1    2  502    0  0.17355210627E+03 -0.10187532086E+03  0.47907241931E+03  0.51962418875E+03  0.00000000000E+00 0. -1.
          1    1    1    2  503    0  0.42594721108E+02  0.33743541853E+02 -0.78150675750E+03  0.78339373811E+03  0.00000000000E+00 0. -1.
<mgrwt>
<rscale>  0 0.10565242E+03</rscale>
<asrwt>0</asrwt>
<pdfrwt beam="1">  1        2 0.23843271E+00 0.20541485E+03</pdfrwt>
<pdfrwt beam="2">  1        2 0.21060153E+00 0.54340932E+02</pdfrwt>
<totfact> 0.37190211E+01</totfact>
</mgrwt>
</event>
<event>
13    1  0.2038932E-008  0.9033170E+02  0.7546771E-02  0.1430422E+00
          2   -1    0    0  503    0  0.00000000000E+00  0.00000000000E+00  0.16615588879E+04  0.16615588879E+04  0.00000000000E+00 0. -1.
          2   -1    0    0  502    0 -0.00000000000E+00 -0.00000000000E+00 -0.26640410796E+04  0.26640410796E+04  0.00000000000E+00 0. -1.
         24    2    1    2    0    0  0.33342601584E+03 -0.43587279563E+02 -0.57876169353E+03  0.67393374448E+03  0.78414508066E+02 0.  0.
         25    2    1    2    0    0  0.15042194391E+03  0.48422832890E+03 -0.81003987698E+03  0.96379105800E+03  0.12499906189E+03 0.  0.
         24    2    1    2    0    0 -0.43015884354E+03 -0.36397727793E+03  0.92299030372E+03  0.10838780291E+04  0.73242007056E+02 0.  0.
        -11    1    3    3    0    0  0.18243012422E+03 -0.51009587220E+02 -0.26605591847E+03  0.32660140839E+03  0.00000000000E+00 0.  1.
         12    1    3    3    0    0  0.15099589162E+03  0.74223076578E+01 -0.31270577506E+03  0.34733233609E+03  0.00000000000E+00 0. -1.
        -13    1    5    5    0    0 -0.14435965675E+03 -0.11760599499E+03  0.37299507389E+03  0.41688872100E+03  0.00000000000E+00 0.  1.
         14    1    5    5    0    0 -0.28579918680E+03 -0.24637128294E+03  0.54999522983E+03  0.66698930806E+03  0.00000000000E+00 0. -1.
          5    1    4    4  501    0  0.50975311092E+02  0.31046537271E+03 -0.57091170050E+03  0.65188149979E+03  0.47000000000E+01 0.  1.
         -5    1    4    4    0  501  0.99446632816E+02  0.17376295619E+03 -0.23912817648E+03  0.31190955822E+03  0.47000000000E+01 0.  1.
          1    1    1    2  502    0 -0.29190745690E+02  0.10287355829E+02 -0.10662849238E+04  0.10667340194E+04  0.00000000000E+00 0. -1.
          1    1    1    2  503    0 -0.24498370518E+02 -0.86951127237E+02  0.52961399886E+03  0.53726311662E+03  0.00000000000E+00 0. -1.
<mgrwt>
<rscale>  0 0.52875374E+02</rscale>
<asrwt>0</asrwt>
<pdfrwt beam="1">  1        2 0.24434690E+00 0.90331696E+02</pdfrwt>
<pdfrwt beam="2">  1        2 0.39177075E+00 0.30950433E+02</pdfrwt>
<totfact> 0.10796586E+01</totfact>
</mgrwt>
</event>
<event>
13    1  0.2038932E-008  0.7209031E+02  0.7546771E-02  0.1419281E+00
          2   -1    0    0  502    0  0.00000000000E+00  0.00000000000E+00  0.13952498137E+04  0.13952498137E+04  0.00000000000E+00 0. -1.
          2   -1    0    0  503    0 -0.00000000000E+00 -0.00000000000E+00 -0.21061743364E+04  0.21061743364E+04  0.00000000000E+00 0. -1.
         24    2    1    2    0    0 -0.16187500227E+03 -0.49095142216E+02 -0.17114736029E+03  0.25473652187E+03  0.83578868678E+02 0.  0.
         25    2    1    2    0    0  0.18292464000E+03 -0.22635590771E+02  0.11329442768E+03  0.24987076370E+03  0.12500390923E+03 0.  0.
         24    2    1    2    0    0  0.21343651588E+02  0.60553121393E+02 -0.81713751468E+01  0.10435271070E+03  0.81856489578E+02 0.  0.
        -11    1    5    5    0    0 -0.13450917164E+02 -0.63822777708E+01 -0.23069844585E+02  0.27456845618E+02  0.00000000000E+00 0.  1.
         12    1    5    5    0    0  0.34794568752E+02  0.66935399164E+02  0.14898469438E+02  0.76895865087E+02  0.00000000000E+00 0. -1.
        -11    1    3    3    0    0 -0.12840225808E+03 -0.67531216360E+00 -0.13132690408E+03  0.18366913639E+03  0.00000000000E+00 0.  1.
         12    1    3    3    0    0 -0.33472744191E+02 -0.48419830052E+02 -0.39820456206E+02  0.71067385476E+02  0.00000000000E+00 0. -1.
          5    1    4    4  501    0  0.15886496589E+03 -0.10196983639E+02  0.13962887707E+03  0.21180266564E+03  0.47000000000E+01 0.  1.
         -5    1    4    4    0  501  0.24059674110E+02 -0.12438607132E+02 -0.26334449388E+02  0.38068098064E+02  0.47000000000E+01 0.  1.
          1    1    1    2  502    0 -0.49205502127E+02  0.52850722195E+02  0.11223695050E+04  0.11246900400E+04  0.00000000000E+00 0. -1.
          1    1    1    2  503    0  0.68122128127E+01 -0.41673110601E+02 -0.17672697200E+04  0.17677741139E+04  0.00000000000E+00 0. -1.
<mgrwt>
<rscale>  0 0.55173380E+02</rscale>
<asrwt>0</asrwt>
<pdfrwt beam="1">  1        2 0.20518380E+00 0.72090308E+02</pdfrwt>
<pdfrwt beam="2">  1        2 0.30973152E+00 0.42226229E+02</pdfrwt>
<totfact> 0.25912703E+01</totfact>
</mgrwt>
</event>
<event>
13    1  0.2038932E-008  0.8032536E+02  0.7546771E-02  0.1468487E+00
          2   -1    0    0  503    0  0.00000000000E+00  0.00000000000E+00  0.37634522897E+04  0.37634522897E+04  0.00000000000E+00 0. -1.
          2   -1    0    0  502    0 -0.00000000000E+00 -0.00000000000E+00 -0.31491232763E+04  0.31491232763E+04  0.00000000000E+00 0. -1.
         24    2    1    2    0    0 -0.42087925149E+03  0.43358624831E+02  0.55392121774E+03  0.70131258011E+03  0.77403519846E+02 0.  0.
         25    2    1    2    0    0  0.15991311894E+04 -0.69465502299E+03  0.26645690003E+03  0.17681599767E+04  0.12499704698E+03 0.  0.
         24    2    1    2    0    0 -0.12795181683E+04  0.62612848590E+03 -0.13642611944E+04  0.19754149604E+04  0.10886705362E+03 0.  0.
        -11    1    3    3    0    0 -0.17124222918E+03 -0.17402424186E+02  0.24683126728E+03  0.30091929139E+03  0.00000000000E+00 0.  1.
         12    1    3    3    0    0 -0.24963702231E+03  0.60761049017E+02  0.30708995046E+03  0.40039328873E+03  0.00000000000E+00 0. -1.
        -11    1    5    5    0    0 -0.98875494568E+03  0.53341161814E+03 -0.10703986371E+04  0.15517466092E+04  0.00000000000E+00 0.  1.
         12    1    5    5    0    0 -0.29076322260E+03  0.92716867762E+02 -0.29386255731E+03  0.42366835116E+03  0.00000000000E+00 0. -1.
          5    1    4    4  501    0  0.54424119151E+03 -0.28485471594E+03  0.53795559765E+02  0.61664960552E+03  0.47000000000E+01 0. -1.
         -5    1    4    4    0  501  0.10548899979E+04 -0.40980030705E+03  0.21266134026E+03  0.11515103712E+04  0.47000000000E+01 0. -1.
          1    1    1    2  502    0  0.26100226683E+02 -0.31322426295E+01 -0.65358408387E+03  0.65411251897E+03  0.00000000000E+00 0. -1.
          1    1    1    2  503    0  0.75166003670E+02  0.28300154886E+02  0.18117961739E+04  0.18135755299E+04  0.00000000000E+00 0. -1.
<mgrwt>
<rscale>  0 0.45951637E+02</rscale>
<asrwt>0</asrwt>
<pdfrwt beam="1">  1        2 0.55344887E+00 0.80325355E+02</pdfrwt>
<pdfrwt beam="2">  1        2 0.46310636E+00 0.26287502E+02</pdfrwt>
<totfact> 0.52141669E-01</totfact>
</mgrwt>
</event>
<event>
13    1  0.2038932E-008  0.2234374E+03  0.7546771E-02  0.1214610E+00
          2   -1    0    0  503    0  0.00000000000E+00  0.00000000000E+00  0.59931850265E+03  0.59931850265E+03  0.00000000000E+00 0. -1.
          2   -1    0    0  502    0 -0.00000000000E+00 -0.00000000000E+00 -0.12151717987E+04  0.12151717987E+04  0.00000000000E+00 0. -1.
         24    2    1    2    0    0  0.55822868336E+02 -0.38148515953E+01 -0.31720284777E+03  0.33218465249E+03  0.81229618967E+02 0.  0.
         25    2    1    2    0    0  0.11520092353E+03  0.19405986556E+03 -0.36232452148E+03  0.44478568030E+03  0.12499903331E+03 0.  0.
         24    2    1    2    0    0  0.18773348440E+02  0.54479476782E+02 -0.10186520543E+03  0.14140947845E+03  0.79370451143E+02 0.  0.
        -11    1    3    3    0    0  0.46410742567E+02  0.31549918360E+02 -0.13255240422E+03  0.14394267692E+03  0.00000000000E+00 0.  1.
         12    1    3    3    0    0  0.94121257696E+01 -0.35364769955E+02 -0.18465044354E+03  0.18824197557E+03  0.00000000000E+00 0. -1.
        -11    1    5    5    0    0  0.25946891237E+02  0.67186527113E+02 -0.50374839265E+02  0.87891381951E+02  0.00000000000E+00 0.  1.
         12    1    5    5    0    0 -0.71735427967E+01 -0.12707050331E+02 -0.51490366169E+02  0.53518096497E+02  0.00000000000E+00 0. -1.
          5    1    4    4  501    0  0.24112754247E+02  0.11001307515E+03 -0.26214287229E+03  0.28535114704E+03  0.47000000000E+01 0. -1.
         -5    1    4    4    0  501  0.91088169282E+02  0.84046790417E+02 -0.10018164919E+03  0.15943453326E+03  0.47000000000E+01 0. -1.
          1    1    1    2  502    0 -0.56964467094E+02 -0.65143108587E+02 -0.33606065054E+03  0.34702353803E+03  0.00000000000E+00 0. -1.
          1    1    1    2  503    0 -0.13283267321E+03 -0.17958138216E+03  0.50159992922E+03  0.54908695203E+03  0.00000000000E+00 0. -1.
<mgrwt>
<rscale>  0 0.13905216E+03</rscale>
<asrwt>0</asrwt>
<pdfrwt beam="1">  1        2 0.88135074E-01 0.22343740E+03</pdfrwt>
<pdfrwt beam="2">  1        2 0.17870173E+00 0.86536554E+02</pdfrwt>
<totfact> 0.18776493E+02</totfact>
</mgrwt>
</event>
<event>
13    1  0.2038932E-008  0.1012711E+03  0.7546771E-02  0.1342940E+00
          2   -1    0    0  502    0  0.00000000000E+00  0.00000000000E+00  0.12220356930E+04  0.12220356930E+04  0.00000000000E+00 0. -1.
          2   -1    0    0  503    0 -0.00000000000E+00 -0.00000000000E+00 -0.30406170673E+04  0.30406170673E+04  0.00000000000E+00 0. -1.
         24    2    1    2    0    0  0.11492497082E+03  0.22250864849E+02 -0.15723640169E+04  0.15786356335E+04  0.77839654501E+02 0.  0.
         25    2    1    2    0    0 -0.12700700471E+03 -0.92218359656E+02  0.27476686822E+03  0.34023248025E+03  0.12500521445E+03 0.  0.
         24    2    1    2    0    0  0.65453600693E+02 -0.70155904963E+02 -0.37623720593E+03  0.39632797208E+03  0.79469500334E+02 0.  0.
        -11    1    5    5    0    0 -0.52999875789E+01  0.11129701039E+02 -0.83102628928E+02  0.84011945866E+02  0.00000000000E+00 0.  1.
         12    1    5    5    0    0  0.70753588272E+02 -0.81285606002E+02 -0.29313457700E+03  0.31231602622E+03  0.00000000000E+00 0. -1.
        -13    1    3    3    0    0  0.97513271676E+02  0.20952766688E+02 -0.15232241464E+04  0.15264860486E+04  0.00000000000E+00 0.  1.
         14    1    3    3    0    0  0.17411699148E+02  0.12980981611E+01 -0.49139870486E+02  0.52149584825E+02  0.00000000000E+00 0. -1.
          5    1    4    4  501    0 -0.54726932283E+02 -0.98831221362E+02  0.22586953343E+03  0.25259014938E+03  0.47000000000E+01 0.  1.
         -5    1    4    4    0  501 -0.72280072428E+02  0.66128617062E+01  0.48897334795E+02  0.87642330869E+02  0.47000000000E+01 0.  1.
          1    1    1    2  502    0 -0.56152262728E+02  0.84200942176E+02  0.89776022628E+03  0.90344689892E+03  0.00000000000E+00 0. -1.
          1    1    1    2  503    0  0.27806959219E+01  0.55922457594E+02 -0.10425072460E+04  0.10440097755E+04  0.00000000000E+00 0. -1.
<mgrwt>
<rscale>  0 0.75301579E+02</rscale>
<asrwt>0</asrwt>
<pdfrwt beam="1">  1        2 0.17971113E+00 0.10127114E+03</pdfrwt>
<pdfrwt beam="2">  1        2 0.44714956E+00 0.55991549E+02</pdfrwt>
<totfact> 0.10441349E+01</totfact>
</mgrwt>
</event>
<event>
13    1  0.2038932E-008  0.4563191E+02  0.7546771E-02  0.1574046E+00
          2   -1    0    0  503    0  0.00000000000E+00  0.00000000000E+00  0.30710423489E+04  0.30710423489E+04  0.00000000000E+00 0. -1.
         -1   -1    0    0    0  501 -0.00000000000E+00 -0.00000000000E+00 -0.19072388287E+04  0.19072388287E+04  0.00000000000E+00 0.  1.
         24    2    1    2    0    0 -0.36098520560E+03 -0.99147517094E+03  0.53853952299E+02  0.10615871140E+04  0.10360318156E+03 0.  0.
         25    2    1    2    0    0  0.36426971888E+03  0.84930898438E+03  0.10741384737E+04  0.14224684288E+04  0.12499916500E+03 0.  0.
         24    2    1    2    0    0 -0.44732700511E+02  0.96589558727E+02  0.34594987571E+02  0.14229627526E+03  0.87868421159E+02 0.  0.
        -11    1    5    5    0    0 -0.52913365358E+02  0.17462149954E+02  0.43302806470E+00  0.55721974371E+02  0.00000000000E+00 0.  1.
         12    1    5    5    0    0  0.81806648474E+01  0.79127408773E+02  0.34161959506E+02  0.86574300885E+02  0.00000000000E+00 0. -1.
        -13    1    3    3    0    0 -0.54570543966E+02 -0.28449198973E+03  0.12409546841E+02  0.28994419005E+03  0.00000000000E+00 0.  1.
         14    1    3    3    0    0 -0.30641466164E+03 -0.70698318121E+03  0.41444405457E+02  0.77164292398E+03  0.00000000000E+00 0. -1.
          5    1    4    4  502    0  0.26476253427E+03  0.62163652263E+03  0.69648597587E+03  0.97038444464E+03  0.47000000000E+01 0.  1.
         -5    1    4    4    0  502  0.99507184617E+02  0.22767246175E+03  0.37765249784E+03  0.45208398418E+03  0.47000000000E+01 0.  1.
          1    1    1    2  503    0  0.19270582469E+01  0.22771505920E+02  0.11760188370E+04  0.11762408597E+04  0.00000000000E+00 0. -1.
         -2    1    1    2    0  501  0.39521128986E+02  0.22805121911E+02 -0.11748027304E+04  0.11756884998E+04  0.00000000000E+00 0.  1.
<mgrwt>
<rscale>  0 0.32292748E+02</rscale>
<asrwt>0</asrwt>
<pdfrwt beam="1">  1        2 0.45162388E+00 0.22852900E+02</pdfrwt>
<pdfrwt beam="2">  1       -1 0.28047630E+00 0.45631914E+02</pdfrwt>
<totfact> 0.25055996E-01</totfact>
</mgrwt>
</event>
<event>
13    1  0.2038932E-008  0.9754231E+02  0.7546771E-02  0.1326017E+00
          2   -1    0    0  502    0  0.00000000000E+00  0.00000000000E+00  0.16284218265E+04  0.16284218265E+04  0.00000000000E+00 0. -1.
          2   -1    0    0  503    0 -0.00000000000E+00 -0.00000000000E+00 -0.19874463080E+04  0.19874463080E+04  0.00000000000E+00 0. -1.
         24    2    1    2    0    0  0.30286570504E+02 -0.10093837504E+03 -0.10730189270E+04  0.10806949126E+04  0.73661689170E+02 0.  0.
         25    2    1    2    0    0  0.21180629591E+02 -0.65891481793E+02  0.45990702826E+03  0.48159068823E+03  0.12499923961E+03 0.  0.
         24    2    1    2    0    0 -0.75866119973E+02  0.55528506283E+02  0.16459521293E+03  0.20678304199E+03  0.82635096446E+02 0.  0.
        -11    1    5    5    0    0 -0.35155886480E+02  0.71871972549E+02  0.12000366660E+03  0.14423036015E+03  0.00000000000E+00 0.  1.
         12    1    5    5    0    0 -0.40710233493E+02 -0.16343466267E+02  0.44591546327E+02  0.62552681833E+02  0.00000000000E+00 0. -1.
        -11    1    3    3    0    0  0.36896065399E+02 -0.78802036654E+02 -0.10069695030E+04  0.10107218512E+04  0.00000000000E+00 0.  1.
         12    1    3    3    0    0 -0.66094948953E+01 -0.22136338389E+02 -0.66049423988E+02  0.69973061311E+02  0.00000000000E+00 0. -1.
          5    1    4    4  501    0  0.35870714779E+02  0.85498140435E+01  0.32182125001E+03  0.32396113109E+03  0.47000000000E+01 0.  1.
         -5    1    4    4    0  501 -0.14690085188E+02 -0.74441295836E+02  0.13808577825E+03  0.15762955714E+03  0.47000000000E+01 0.  1.
          1    1    1    2  502    0 -0.39299349115E+02  0.89288423561E+02  0.96438909867E+03  0.96931068036E+03  0.00000000000E+00 0. -1.
          1    1    1    2  503    0  0.63698268992E+02  0.22012926992E+02 -0.87489689438E+03  0.87748881146E+03  0.00000000000E+00 0. -1.
<mgrwt>
<rscale>  0 0.81079155E+02</rscale>
<asrwt>0</asrwt>
<pdfrwt beam="1">  1        2 0.23947380E+00 0.97542308E+02</pdfrwt>
<pdfrwt beam="2">  1        2 0.29227152E+00 0.67394647E+02</pdfrwt>
<totfact> 0.20938609E+01</totfact>
</mgrwt>
</event>
<event>
13    1  0.2038932E-008  0.5699907E+02  0.7546771E-02  0.1476721E+00
          2   -1    0    0  503    0  0.00000000000E+00  0.00000000000E+00  0.16802076222E+04  0.16802076222E+04  0.00000000000E+00 0. -1.
          2   -1    0    0  502    0 -0.00000000000E+00 -0.00000000000E+00 -0.10093333015E+04  0.10093333015E+04  0.00000000000E+00 0. -1.
         24    2    1    2    0    0  0.45404980905E+02 -0.67059242876E+02 -0.31965385412E+03  0.33962029527E+03  0.81269946235E+02 0.  0.
         25    2    1    2    0    0  0.20767284256E+03  0.13925470551E+03  0.54062190296E+03  0.60861921019E+03  0.12500167400E+03 0.  0.
         24    2    1    2    0    0 -0.26881700372E+03 -0.52810307665E+02  0.84107098962E+02  0.29728390166E+03  0.79070879626E+02 0.  0.
        -13    1    5    5    0    0 -0.62540101080E+02  0.25227061130E+01 -0.10904611339E+02  0.63533761400E+02  0.00000000000E+00 0.  1.
         14    1    5    5    0    0 -0.20627690264E+03 -0.55333013778E+02  0.95011710301E+02  0.23375014026E+03  0.00000000000E+00 0. -1.
        -13    1    3    3    0    0  0.30143939731E+02 -0.78040455171E+02 -0.30354213940E+03  0.31485996910E+03  0.00000000000E+00 0.  1.
         14    1    3    3    0    0  0.15261041174E+02  0.10981212295E+02 -0.16111714713E+02  0.24760326172E+02  0.00000000000E+00 0. -1.
          5    1    4    4  501    0  0.31810402837E+02  0.71038043427E+02  0.25202923389E+03  0.26381647045E+03  0.47000000000E+01 0. -1.
         -5    1    4    4    0  501  0.17586243972E+03  0.68216662086E+02  0.28859266907E+03  0.34480273974E+03  0.47000000000E+01 0. -1.
          1    1    1    2  502    0  0.49479357179E+02 -0.28428454321E+02 -0.53726048470E+03  0.54028253000E+03  0.00000000000E+00 0. -1.
          1    1    1    2  503    0 -0.33740176928E+02  0.90432993474E+01  0.90305965763E+03  0.90373498662E+03  0.00000000000E+00 0. -1.
<mgrwt>
<rscale>  0 0.44621064E+02</rscale>
<asrwt>0</asrwt>
<pdfrwt beam="1">  1        2 0.24708936E+00 0.34931086E+02</pdfrwt>
<pdfrwt beam="2">  1        2 0.14843137E+00 0.56999067E+02</pdfrwt>
<totfact> 0.66879138E+01</totfact>
</mgrwt>
</event>
<event>
13    1  0.2038932E-008  0.1444849E+03  0.7546771E-02  0.1243870E+00
          2   -1    0    0  503    0  0.00000000000E+00  0.00000000000E+00  0.22201620184E+03  0.22201620184E+03  0.00000000000E+00 0. -1.
          2   -1    0    0  502    0 -0.00000000000E+00 -0.00000000000E+00 -0.33762178395E+04  0.33762178395E+04  0.00000000000E+00 0. -1.
         24    2    1    2    0    0  0.83276873011E+02 -0.14244659164E+03 -0.13945781663E+04  0.14065994614E+04  0.80297657057E+02 0.  0.
         25    2    1    2    0    0 -0.24385148639E+03  0.25658284566E+03 -0.16205229368E+03  0.40888106159E+03  0.12499789012E+03 0.  0.
         24    2    1    2    0    0  0.83598024767E+01  0.90093203387E+02 -0.39326096072E+03  0.41141585569E+03  0.80138327249E+02 0.  0.
        -13    1    3    3    0    0 -0.15456817209E+02 -0.10946361347E+02 -0.16049757891E+03  0.16161128940E+03  0.00000000000E+00 0.  1.
         14    1    3    3    0    0  0.98733690220E+02 -0.13150023029E+03 -0.12340805874E+04  0.12449881720E+04  0.00000000000E+00 0. -1.
        -13    1    5    5    0    0  0.26587384237E+02  0.94471171079E+02 -0.28206670655E+03  0.29865250394E+03  0.00000000000E+00 0.  1.
         14    1    5    5    0    0 -0.18227581760E+02 -0.43779676910E+01 -0.11119425417E+03  0.11276335176E+03  0.00000000000E+00 0. -1.
          5    1    4    4  501    0 -0.82363803245E+02  0.15606361890E+03 -0.12159507967E+03  0.21435275279E+03  0.47000000000E+01 0.  1.
         -5    1    4    4    0  501 -0.16148768315E+03  0.10051922676E+03 -0.40457214011E+02  0.19452830880E+03  0.47000000000E+01 0.  1.
          1    1    1    2  502    0  0.54737595473E+02 -0.18757398069E+03 -0.12480162490E+04  0.12632199969E+04  0.00000000000E+00 0. -1.
          1    1    1    2  503    0  0.97477215433E+02 -0.16655476721E+02  0.43706032063E+02  0.10811766587E+03  0.00000000000E+00 0. -1.
<mgrwt>
<rscale>  0 0.11953284E+03</rscale>
<asrwt>0</asrwt>
<pdfrwt beam="1">  1        2 0.32649443E-01 0.98889901E+02</pdfrwt>
<pdfrwt beam="2">  1        2 0.49650259E+00 0.14448491E+03</pdfrwt>
<totfact> 0.40966443E+01</totfact>
</mgrwt>
</event>
<event>
13    1  0.2038932E-008  0.1185655E+03  0.7546771E-02  0.1252146E+00
          2   -1    0    0  502    0  0.00000000000E+00  0.00000000000E+00  0.11183835926E+04  0.11183835926E+04  0.00000000000E+00 0. -1.
          2   -1    0    0  503    0 -0.00000000000E+00 -0.00000000000E+00 -0.17356645197E+04  0.17356645197E+04  0.00000000000E+00 0. -1.
         24    2    1    2    0    0  0.44720981566E+03 -0.44405117053E+02 -0.25105901506E+03  0.52099172115E+03  0.80207922455E+02 0.  0.
         25    2    1    2    0    0 -0.46865795609E+03  0.23205150346E+03  0.13483917477E+03  0.55433995041E+03  0.12499198978E+03 0.  0.
         24    2    1    2    0    0 -0.19875421034E+01 -0.47629234528E+01 -0.89513243351E+02  0.12070308926E+03  0.80808287065E+02 0.  0.
        -11    1    5    5    0    0 -0.37573196778E+02 -0.19327089736E+02 -0.41935124979E+02  0.59530128682E+02  0.00000000000E+00 0.  1.
         12    1    5    5    0    0  0.35585654675E+02  0.14564166283E+02 -0.47578118371E+02  0.61172960579E+02  0.00000000000E+00 0. -1.
        -13    1    3    3    0    0  0.27454075208E+02 -0.22089750585E+02 -0.28744707435E+02  0.45474625144E+02  0.00000000000E+00 0.  1.
         14    1    3    3    0    0  0.41975574045E+03 -0.22315366468E+02 -0.22231430762E+03  0.47551709601E+03  0.00000000000E+00 0. -1.
          5    1    4    4  501    0 -0.39376427098E+03  0.14426507429E+03  0.81954907147E+02  0.42731886170E+03  0.47000000000E+01 0. -1.
         -5    1    4    4    0  501 -0.74893685107E+02  0.87786429168E+02  0.52884267624E+02  0.12702108871E+03  0.47000000000E+01 0. -1.
          1    1    1    2  502    0 -0.87256279518E+02 -0.80251158272E+02  0.61200924674E+03  0.62338529403E+03  0.00000000000E+00 0. -1.
          1    1    1    2  503    0  0.11069196205E+03 -0.10263230468E+03 -0.10235570902E+04  0.10346280575E+04  0.00000000000E+00 0. -1.
<mgrwt>
<rscale>  0 0.11467703E+03</rscale>
<asrwt>0</asrwt>
<pdfrwt beam="1">  1        2 0.16446818E+00 0.11856553E+03</pdfrwt>
<pdfrwt beam="2">  1        2 0.25524478E+00 0.11091607E+03</pdfrwt>
<totfact> 0.47341461E+01</totfact>
</mgrwt>
</event>
<event>
13    1  0.2038932E-008  0.1527223E+03  0.7546771E-02  0.1345870E+00
          2   -1    0    0  503    0  0.00000000000E+00  0.00000000000E+00  0.26666862707E+03  0.26666862707E+03  0.00000000000E+00 0. -1.
          2   -1    0    0  502    0 -0.00000000000E+00 -0.00000000000E+00 -0.26997145279E+04  0.26997145279E+04  0.00000000000E+00 0. -1.
         24    2    1    2    0    0  0.46354976221E+02 -0.46094478249E+02 -0.60608364976E+03  0.61496961084E+03  0.81097145526E+02 0.  0.
         25    2    1    2    0    0 -0.48520123397E+02 -0.23140984531E+03 -0.55477342216E+03  0.61587708912E+03  0.12500528022E+03 0.  0.
         24    2    1    2    0    0  0.42821185717E+02  0.10389026156E+02 -0.44281971497E+02  0.10726210241E+03  0.87193347246E+02 0.  0.
        -11    1    3    3    0    0  0.50919062431E+02 -0.57564536423E+02 -0.33906653170E+03  0.34766728304E+03  0.00000000000E+00 0.  1.
         12    1    3    3    0    0 -0.45640862098E+01  0.11470058174E+02 -0.26701711805E+03  0.26730232781E+03  0.00000000000E+00 0. -1.
        -11    1    5    5    0    0 -0.16482033822E+02 -0.23168907613E+02 -0.58410155944E+01  0.29027111156E+02  0.00000000000E+00 0.  1.
         12    1    5    5    0    0  0.59303219539E+02  0.33557933769E+02 -0.38440955903E+02  0.78234991258E+02  0.00000000000E+00 0. -1.
          5    1    4    4  501    0 -0.17919478104E+02 -0.73555470661E+02 -0.63453093350E+02  0.98893377004E+02  0.47000000000E+01 0.  1.
         -5    1    4    4    0  501 -0.30600645293E+02 -0.15785437465E+03 -0.49132032881E+03  0.51698371212E+03  0.47000000000E+01 0.  1.
          1    1    1    2  502    0  0.27303419662E+01  0.36100746966E+02 -0.13587670466E+04  0.13592492801E+04  0.00000000000E+00 0. -1.
          1    1    1    2  503    0 -0.43386380507E+02  0.23101455044E+03  0.13086018913E+03  0.26902507249E+03  0.00000000000E+00 0. -1.
<mgrwt>
<rscale>  0 0.74358155E+02</rscale>
<asrwt>0</asrwt>
<pdfrwt beam="1">  1        2 0.39215972E-01 0.15272230E+03</pdfrwt>
<pdfrwt beam="2">  1        2 0.39701686E+00 0.36203849E+02</pdfrwt>
<totfact> 0.97058548E+01</totfact>
</mgrwt>
</event>
<event>
13    1  0.2038932E-008  0.1418576E+03  0.7546771E-02  0.1346311E+00
          2   -1    0    0  503    0  0.00000000000E+00  0.00000000000E+00  0.13091095118E+04  0.13091095118E+04  0.00000000000E+00 0. -1.
         -3   -1    0    0    0  501 -0.00000000000E+00 -0.00000000000E+00 -0.14034612599E+04  0.14034612599E+04  0.00000000000E+00 0.  1.
         24    2    1    2    0    0 -0.53723515871E+02  0.53474082347E+02 -0.36093659922E+03  0.37705270643E+03  0.78408042526E+02 0.  0.
         25    2    1    2    0    0 -0.97686228687E+02  0.25667799786E+02  0.12411821198E+03  0.20305251026E+03  0.12499422449E+03 0.  0.
         24    2    1    2    0    0 -0.62218008726E+02 -0.16313257513E+02  0.90458819859E+02  0.14001331182E+03  0.85344750375E+02 0.  0.
        -11    1    5    5    0    0  0.21649722020E+01 -0.25971133063E+02  0.65140237744E+02  0.70160084311E+02  0.00000000000E+00 0.  1.
         12    1    5    5    0    0 -0.64382980928E+02  0.96578755496E+01  0.25318582115E+02  0.69853227511E+02  0.00000000000E+00 0. -1.
        -13    1    3    3    0    0 -0.53669550200E+02  0.69761717349E+02 -0.33545759033E+03  0.34681250372E+03  0.00000000000E+00 0.  1.
         14    1    3    3    0    0 -0.53965671707E-01 -0.16287635002E+02 -0.25479008889E+02  0.30240202715E+02  0.00000000000E+00 0. -1.
          5    1    4    4  502    0 -0.66470251074E+02  0.47031050680E+02  0.13978613156E+03  0.16184086808E+03  0.47000000000E+01 0.  1.
         -5    1    4    4    0  502 -0.31215977613E+02 -0.21363250893E+02 -0.15667919578E+02  0.41211642178E+02  0.47000000000E+01 0.  1.
          1    1    1    2  503    0 -0.23623100499E+02  0.30816856063E+02  0.10050851238E+04  0.10058348948E+04  0.00000000000E+00 0. -1.
         -4    1    1    2    0  501  0.23725085378E+03 -0.93645480683E+02 -0.95307730453E+03  0.98661734836E+03  0.00000000000E+00 0.  1.
<mgrwt>
<rscale>  0 0.74217640E+02</rscale>
<asrwt>0</asrwt>
<pdfrwt beam="1">  1        2 0.19251610E+00 0.38829493E+02</pdfrwt>
<pdfrwt beam="2">  1       -3 0.20639136E+00 0.14185759E+03</pdfrwt>
<totfact> 0.19576211E+00</totfact>
</mgrwt>
</event>
<event>
13    1  0.2038932E-008  0.5379593E+02  0.7546771E-02  0.1428787E+00
         -1   -1    0    0    0  501 -0.00000000000E+00  0.00000000000E+00  0.87230259014E+03  0.87230259014E+03  0.00000000000E+00 0.  1.
          2   -1    0    0  503    0  0.00000000000E+00 -0.00000000000E+00 -0.10690031055E+04  0.10690031055E+04  0.00000000000E+00 0. -1.
         24    2    1    2    0    0  0.60886807809E+01  0.14932353609E+01  0.44812468049E+03  0.45573756355E+03  0.82714543951E+02 0.  0.
         25    2    1    2    0    0  0.12983861648E+03 -0.87930848319E+02 -0.85888603934E+02  0.21815677908E+03  0.12500251021E+03 0.  0.
         24    2    1    2    0    0 -0.46482303510E+02  0.75652036484E+02  0.15387477476E+03  0.19620935844E+03  0.83287639352E+02 0.  0.
        -11    1    3    3    0    0 -0.14607068434E+02  0.14579865751E+02  0.40940613596E+03  0.40992599709E+03  0.00000000000E+00 0.  1.
         12    1    3    3    0    0  0.20695749215E+02 -0.13086630390E+02  0.38718544534E+02  0.45811566458E+02  0.00000000000E+00 0. -1.
        -13    1    5    5    0    0  0.75278005499E+01  0.52160037387E+02  0.11249798893E+03  0.12423016862E+03  0.00000000000E+00 0.  1.
         14    1    5    5    0    0 -0.54010104060E+02  0.23491999097E+02  0.41376785830E+02  0.71979189824E+02  0.00000000000E+00 0. -1.
          5    1    4    4  502    0  0.44035227326E+02  0.24408192745E+02 -0.52378920614E+02  0.72804549607E+02  0.47000000000E+01 0.  1.
         -5    1    4    4    0  502  0.85803389155E+02 -0.11233904106E+03 -0.33509683319E+02  0.14535222948E+03  0.47000000000E+01 0.  1.
          1    1    1    2  503    0 -0.48783338101E+02 -0.22611999874E+02 -0.88731245279E+03  0.88894010231E+03  0.00000000000E+00 0. -1.
         -2    1    1    2    0  501 -0.40661655651E+02  0.33397576347E+02  0.17450108607E+03  0.18226189230E+03  0.00000000000E+00 0.  1.
<mgrwt>
<rscale>  0 0.53204254E+02</rscale>
<asrwt>0</asrwt>
<pdfrwt beam="2">  1        2 0.15720634E+00 0.53795927E+02</pdfrwt>
<pdfrwt beam="1">  1       -1 0.12827979E+00 0.52619087E+02</pdfrwt>
<totfact> 0.19760336E+01</totfact>
</mgrwt>
</event>
<event>
13    1  0.2038932E-008  0.4849397E+02  0.7546771E-02  0.1496732E+00
         -1   -1    0    0    0  501 -0.00000000000E+00  0.00000000000E+00  0.48265122500E+03  0.48265122500E+03  0.00000000000E+00 0.  1.
          2   -1    0    0  503    0  0.00000000000E+00 -0.00000000000E+00 -0.27059534015E+04  0.27059534015E+04  0.00000000000E+00 0. -1.
         24    2    1    2    0    0  0.11312620498E+02  0.37894524524E+02  0.93176344067E+02  0.13196427008E+03  0.84668572160E+02 0.  0.
         25    2    1    2    0    0  0.66442603848E+02 -0.10591545209E+03 -0.96969958247E+03  0.98569127398E+03  0.12504920932E+03 0.  0.
         24    2    1    2    0    0 -0.61982223391E+02  0.64979729078E+02 -0.28694118422E+03  0.31088790678E+03  0.79068869811E+02 0.  0.
        -11    1    5    5    0    0 -0.34636792482E+02 -0.51913245264E+01 -0.42302961141E+02  0.54919921386E+02  0.00000000000E+00 0.  1.
         12    1    5    5    0    0 -0.27345430909E+02  0.70171053604E+02 -0.24463822308E+03  0.25596798539E+03  0.00000000000E+00 0. -1.
        -13    1    3    3    0    0  0.36891599589E+02 -0.10761617485E+02  0.36224406504E+02  0.52811079876E+02  0.00000000000E+00 0.  1.
         14    1    3    3    0    0 -0.25578979092E+02  0.48656142009E+02  0.56951937564E+02  0.79153190200E+02  0.00000000000E+00 0. -1.
          5    1    4    4  502    0  0.58969219267E+02  0.85074339569E+01 -0.26062954924E+03  0.26739408593E+03  0.47000000000E+01 0.  1.
         -5    1    4    4    0  502  0.74733845810E+01 -0.11442288605E+03 -0.70907003323E+03  0.71829718805E+03  0.47000000000E+01 0.  1.
          1    1    1    2  503    0  0.29885186071E+02  0.19514421377E+02 -0.14080398772E+04  0.14084921841E+04  0.00000000000E+00 0. -1.
         -2    1    1    2    0  501 -0.45658187026E+02 -0.16473222886E+02  0.34820212332E+03  0.35156899153E+03  0.00000000000E+00 0.  1.
<mgrwt>
<rscale>  0 0.41603594E+02</rscale>
<asrwt>0</asrwt>
<pdfrwt beam="2">  1        2 0.39793432E+00 0.35692254E+02</pdfrwt>
<pdfrwt beam="1">  1       -1 0.70978122E-01 0.48493969E+02</pdfrwt>
<totfact> 0.12022815E+01</totfact>
</mgrwt>
</event>
<event>
13    1  0.2038932E-008  0.9393935E+02  0.7546771E-02  0.1437476E+00
          2   -1    0    0  503    0  0.00000000000E+00  0.00000000000E+00  0.18653400603E+04  0.18653400603E+04  0.00000000000E+00 0. -1.
          2   -1    0    0  502    0 -0.00000000000E+00 -0.00000000000E+00 -0.22673516586E+04  0.22673516586E+04  0.00000000000E+00 0. -1.
         24    2    1    2    0    0  0.42749520190E+01  0.93343716578E+01 -0.39503582353E+03  0.40361370344E+03  0.82129860750E+02 0.  0.
         25    2    1    2    0    0 -0.44698803298E+02 -0.20093514849E+03  0.78673152272E+02  0.25335060375E+03  0.12499658641E+03 0.  0.
         24    2    1    2    0    0 -0.72139958361E+01  0.79287480915E+02  0.12454768381E+04  0.12509457772E+04  0.85523312680E+02 0.  0.
        -11    1    5    5    0    0 -0.40013182395E+02  0.58800847263E+02  0.57970829358E+03  0.58405504882E+03  0.00000000000E+00 0.  1.
         12    1    5    5    0    0  0.32799186559E+02  0.20486633652E+02  0.66576854451E+03  0.66689072843E+03  0.00000000000E+00 0. -1.
        -13    1    3    3    0    0  0.11264250730E+02 -0.34219147991E+02 -0.12858352732E+03  0.13353485288E+03  0.00000000000E+00 0.  1.
         14    1    3    3    0    0 -0.69892987114E+01  0.43553519649E+02 -0.26645229620E+03  0.27007885056E+03  0.00000000000E+00 0. -1.
          5    1    4    4  501    0  0.29259657725E+02 -0.50404609719E+02 -0.16104665110E+02  0.60648186200E+02  0.47000000000E+01 0.  1.
         -5    1    4    4    0  501 -0.73958461023E+02 -0.15053053877E+03  0.94777817382E+02  0.19270241755E+03  0.47000000000E+01 0.  1.
          1    1    1    2  502    0  0.47885398115E+02  0.84093695347E+02 -0.17761896728E+04  0.17788239133E+04  0.00000000000E+00 0. -1.
          1    1    1    2  503    0 -0.24755099967E+00  0.28219600574E+02  0.44506390766E+03  0.44595772114E+03  0.00000000000E+00 0. -1.
<mgrwt>
<rscale>  0 0.51488184E+02</rscale>
<asrwt>0</asrwt>
<pdfrwt beam="1">  1        2 0.27431472E+00 0.28220686E+02</pdfrwt>
<pdfrwt beam="2">  1        2 0.33343407E+00 0.93939354E+02</pdfrwt>
<totfact> 0.12955349E+01</totfact>
</mgrwt>
</event>
<event>
13    1  0.2038932E-008  0.9831274E+02  0.7546771E-02  0.1431333E+00
         -1   -1    0    0    0  501 -0.00000000000E+00  0.00000000000E+00  0.88974449057E+03  0.88974449057E+03  0.00000000000E+00 0.  1.
          2   -1    0    0  503    0  0.00000000000E+00 -0.00000000000E+00 -0.11152501410E+04  0.11152501410E+04  0.00000000000E+00 0. -1.
         24    2    1    2    0    0 -0.24629803758E+03 -0.93270221175E+02  0.39677457651E+03  0.48343150766E+03  0.83149868056E+02 0.  0.
         25    2    1    2    0    0  0.12549793581E+03 -0.15379787681E+00  0.16688554832E+03  0.24336339914E+03  0.12500080903E+03 0.  0.
         24    2    1    2    0    0  0.81864390352E+01  0.74463308661E+02 -0.65475530288E+03  0.66422955535E+03  0.82973450203E+02 0.  0.
        -11    1    3    3    0    0 -0.51883411401E+02 -0.56959687251E+02  0.90564470394E+02  0.11890423730E+03  0.00000000000E+00 0.  1.
         12    1    3    3    0    0 -0.19441462618E+03 -0.36310533924E+02  0.30621010612E+03  0.36452727036E+03  0.00000000000E+00 0. -1.
        -13    1    5    5    0    0 -0.23560379635E+02 -0.37288273777E+01 -0.22543692016E+03  0.22669539169E+03  0.00000000000E+00 0.  1.
         14    1    5    5    0    0  0.31746818670E+02  0.78192136039E+02 -0.42931838271E+03  0.43753416366E+03  0.00000000000E+00 0. -1.
          5    1    4    4  502    0 -0.15513466331E+02 -0.19362950345E+02  0.17467866135E+01  0.25312699326E+02  0.47000000000E+01 0.  1.
         -5    1    4    4    0  502  0.14101140214E+03  0.19209152468E+02  0.16513876170E+03  0.21805069982E+03  0.47000000000E+01 0.  1.
          1    1    1    2  503    0  0.21725061494E+02 -0.18046018665E+02 -0.36357899310E+03  0.36467426741E+03  0.00000000000E+00 0. -1.
         -2    1    1    2    0  501  0.90888601235E+02  0.37006729056E+02  0.22916852076E+03  0.24929590197E+03  0.00000000000E+00 0.  1.
<mgrwt>
<rscale>  0 0.52693401E+02</rscale>
<asrwt>0</asrwt>
<pdfrwt beam="2">  1        2 0.16400737E+00 0.28242470E+02</pdfrwt>
<pdfrwt beam="1">  1       -1 0.13084478E+00 0.98312740E+02</pdfrwt>
<totfact> 0.17844070E+01</totfact>
</mgrwt>
</event>
<event>
13    1  0.2038932E-008  0.7644939E+02  0.7546771E-02  0.1358264E+00
          2   -1    0    0  503    0  0.00000000000E+00  0.00000000000E+00  0.45486448531E+04  0.45486448531E+04  0.00000000000E+00 0. -1.
         -3   -1    0    0    0  501 -0.00000000000E+00 -0.00000000000E+00 -0.54711420900E+03  0.54711420900E+03  0.00000000000E+00 0.  1.
         24    2    1    2    0    0 -0.67883565836E+02 -0.80386521049E+02 -0.30357403706E+02  0.13610716624E+03  0.80829558116E+02 0.  0.
         25    2    1    2    0    0  0.37593264352E+03 -0.58402673393E+02  0.58177027250E+03  0.70627006294E+03  0.12499810846E+03 0.  0.
         24    2    1    2    0    0 -0.19263800568E+03  0.58467524029E+02  0.21408149305E+04  0.21517980586E+04  0.81353952256E+02 0.  0.
        -13    1    3    3    0    0 -0.84726021042E+02 -0.78893146450E+02 -0.26579823506E+02  0.11878179244E+03  0.00000000000E+00 0.  1.
         14    1    3    3    0    0  0.16842455206E+02 -0.14933745994E+01 -0.37775802004E+01  0.17325373798E+02  0.00000000000E+00 0. -1.
        -13    1    5    5    0    0 -0.16228813394E+03  0.77074891434E+02  0.18799329649E+04  0.18884983267E+04  0.00000000000E+00 0.  1.
         14    1    5    5    0    0 -0.30349871744E+02 -0.18607367405E+02  0.26088196559E+03  0.26329973188E+03  0.00000000000E+00 0. -1.
          5    1    4    4  502    0  0.33681051953E+03 -0.59604835674E+02  0.43002942138E+03  0.54949199790E+03  0.47000000000E+01 0. -1.
         -5    1    4    4    0  502  0.39122123988E+02  0.12021622810E+01  0.15174085113E+03  0.15677806505E+03  0.47000000000E+01 0. -1.
          1    1    1    2  503    0 -0.58633068477E+02  0.48497188163E+02  0.17019138643E+04  0.17036139866E+04  0.00000000000E+00 0. -1.
         -4    1    1    2    0  501 -0.56778003521E+02  0.31824482250E+02 -0.39261101946E+03  0.39796978775E+03  0.00000000000E+00 0.  1.
<mgrwt>
<rscale>  0 0.70540708E+02</rscale>
<asrwt>0</asrwt>
<pdfrwt beam="1">  1        2 0.66891834E+00 0.76449386E+02</pdfrwt>
<pdfrwt beam="2">  1       -3 0.80457974E-01 0.65088704E+02</pdfrwt>
<totfact> 0.27563691E-01</totfact>
</mgrwt>
</event>
<event>
13    1  0.2038932E-008  0.7740817E+02  0.7546771E-02  0.1362854E+00
         -1   -1    0    0    0  501 -0.00000000000E+00  0.00000000000E+00  0.19439947787E+04  0.19439947787E+04  0.00000000000E+00 0.  1.
          2   -1    0    0  503    0  0.00000000000E+00 -0.00000000000E+00 -0.17341673972E+04  0.17341673972E+04  0.00000000000E+00 0. -1.
         24    2    1    2    0    0  0.15677951821E+03  0.31532195660E+03  0.58864532397E+03  0.69101313829E+03  0.83594773854E+02 0.  0.
         25    2    1    2    0    0 -0.40385724536E+03 -0.33780862356E+03 -0.39311977804E+03  0.66886798420E+03  0.12500351847E+03 0.  0.
         24    2    1    2    0    0  0.29301149985E+03  0.70753962704E+02 -0.58597693602E+01  0.30715433023E+03  0.58716125540E+02 0.  0.
        -11    1    5    5    0    0  0.98087532258E+02  0.16225272465E+02 -0.28654706510E+02  0.10346746182E+03  0.00000000000E+00 0.  1.
         12    1    5    5    0    0  0.19492396760E+03  0.54528690239E+02  0.22794937150E+02  0.20368686841E+03  0.00000000000E+00 0. -1.
        -13    1    3    3    0    0  0.93423022139E+02  0.24541965822E+03  0.47989236168E+03  0.54704236445E+03  0.00000000000E+00 0.  1.
         14    1    3    3    0    0  0.63356496068E+02  0.69902298381E+02  0.10875296229E+03  0.14397077384E+03  0.00000000000E+00 0. -1.
          5    1    4    4  502    0 -0.22656744741E+03 -0.11171300419E+03 -0.20561161737E+03  0.32574657439E+03  0.47000000000E+01 0.  1.
         -5    1    4    4    0  502 -0.17728979795E+03 -0.22609561937E+03 -0.18750816067E+03  0.34312140981E+03  0.47000000000E+01 0.  1.
          1    1    1    2  503    0 -0.77300287547E+02  0.50417768416E+01 -0.99303103631E+03  0.99604788692E+03  0.00000000000E+00 0. -1.
         -2    1    1    2    0  501  0.31366514844E+02 -0.53309072589E+02  0.10131926412E+04  0.10150788362E+04  0.00000000000E+00 0.  1.
<mgrwt>
<rscale>  0 0.69194501E+02</rscale>
<asrwt>0</asrwt>
<pdfrwt beam="2">  1        2 0.25502462E+00 0.77408175E+02</pdfrwt>
<pdfrwt beam="1">  1       -1 0.28588159E+00 0.61852368E+02</pdfrwt>
<totfact> 0.82077467E-01</totfact>
</mgrwt>
</event>
<event>
13    1  0.2038932E-008  0.6349781E+02  0.7546771E-02  0.1500897E+00
          2   -1    0    0  502    0  0.00000000000E+00  0.00000000000E+00  0.15466396894E+04  0.15466396894E+04  0.00000000000E+00 0. -1.
          2   -1    0    0  503    0 -0.00000000000E+00 -0.00000000000E+00 -0.41130414156E+03  0.41130414156E+03  0.00000000000E+00 0. -1.
         24    2    1    2    0    0  0.12293717971E+03  0.41570227173E+01 -0.14495768212E+03  0.20624063954E+03  0.79947737932E+02 0.  0.
         25    2    1    2    0    0 -0.16128372276E+03  0.26312071235E+02  0.27254242490E+03  0.34147798769E+03  0.12499231333E+03 0.  0.
         24    2    1    2    0    0 -0.46709291052E+02 -0.36914102732E+02  0.70498811322E+02  0.11984526988E+03  0.76474815877E+02 0.  0.
        -13    1    3    3    0    0  0.58779243811E+01 -0.48780387442E+01  0.95228722377E+01  0.12207798846E+02  0.00000000000E+00 0.  1.
         14    1    3    3    0    0  0.11705925533E+03  0.90350614616E+01 -0.15448055436E+03  0.19403284070E+03  0.00000000000E+00 0. -1.
        -13    1    5    5    0    0 -0.60894641052E+02 -0.14943870408E+02  0.25274205269E+02  0.67603713091E+02  0.00000000000E+00 0.  1.
         14    1    5    5    0    0  0.14185350000E+02 -0.21970232325E+02  0.45224606052E+02  0.52241556788E+02  0.00000000000E+00 0. -1.
          5    1    4    4  501    0 -0.92164267362E+02 -0.47843146941E+02  0.12858265631E+03  0.16534451424E+03  0.47000000000E+01 0. -1.
         -5    1    4    4    0  501 -0.69119455395E+02  0.74155218176E+02  0.14395976859E+03  0.17613347345E+03  0.47000000000E+01 0. -1.
          1    1    1    2  502    0  0.60968587319E+02  0.17464416944E+02  0.11119138119E+04  0.11137210152E+04  0.00000000000E+00 0. -1.
          1    1    1    2  503    0  0.24087246782E+02 -0.11019408164E+02 -0.17466181818E+03  0.17665891866E+03  0.00000000000E+00 0. -1.
<mgrwt>
<rscale>  0 0.41011466E+02</rscale>
<asrwt>0</asrwt>
<pdfrwt beam="1">  1        2 0.22744701E+00 0.63497808E+02</pdfrwt>
<pdfrwt beam="2">  1        2 0.60485904E-01 0.26488164E+02</pdfrwt>
<totfact> 0.20021275E+02</totfact>
</mgrwt>
</event>
<event>
13    1  0.2038932E-008  0.2276303E+03  0.7546771E-02  0.1269033E+00
          2   -1    0    0  503    0  0.00000000000E+00  0.00000000000E+00  0.35363577384E+04  0.35363577384E+04  0.00000000000E+00 0. -1.
          2   -1    0    0  502    0 -0.00000000000E+00 -0.00000000000E+00 -0.11304645368E+04  0.11304645368E+04  0.00000000000E+00 0. -1.
         24    2    1    2    0    0 -0.12979117570E+03 -0.49348208612E+02 -0.60571892907E+03  0.62664400090E+03  0.80661563649E+02 0.  0.
         25    2    1    2    0    0  0.18315978699E+03  0.33424097084E+03  0.66957869421E+03  0.78052929003E+03  0.12500324273E+03 0.  0.
         24    2    1    2    0    0 -0.11015434177E+03 -0.19252795461E+02  0.27618828385E+03  0.30817335042E+03  0.78652378409E+02 0.  0.
        -11    1    5    5    0    0  0.88259353928E+01 -0.13897756562E+02  0.48469857416E+02  0.51189567794E+02  0.00000000000E+00 0.  1.
         12    1    5    5    0    0 -0.11898027716E+03 -0.53550388992E+01  0.22771842643E+03  0.25698378263E+03  0.00000000000E+00 0. -1.
        -13    1    3    3    0    0 -0.48155114126E-01  0.14483957975E+02 -0.84852833929E+02  0.86080141632E+02  0.00000000000E+00 0.  1.
         14    1    3    3    0    0 -0.12974302059E+03 -0.63832166587E+02 -0.52086609514E+03  0.54056385927E+03  0.00000000000E+00 0. -1.
          5    1    4    4  501    0 -0.17611794863E+02  0.48218084349E+02  0.91280436676E+02  0.10483018218E+03  0.47000000000E+01 0.  1.
         -5    1    4    4    0  501  0.20077158185E+03  0.28602288649E+03  0.57829825754E+03  0.67569910785E+03  0.47000000000E+01 0.  1.
          1    1    1    2  502    0  0.87039377453E+01 -0.25648466389E+03 -0.40536991619E+03  0.47977589591E+03  0.00000000000E+00 0. -1.
          1    1    1    2  503    0  0.48081792734E+02 -0.91553028725E+01  0.24712150688E+04  0.24716997379E+04  0.00000000000E+00 0. -1.
<mgrwt>
<rscale>  0 0.10555339E+03</rscale>
<asrwt>0</asrwt>
<pdfrwt beam="1">  1        2 0.52005261E+00 0.48945667E+02</pdfrwt>
<pdfrwt beam="2">  1        2 0.16624479E+00 0.22763034E+03</pdfrwt>
<totfact> 0.61325639E+00</totfact>
</mgrwt>
</event>
<event>
13    1  0.2038932E-008  0.6975374E+02  0.7546771E-02  0.1388499E+00
          2   -1    0    0  503    0  0.00000000000E+00  0.00000000000E+00  0.24256301156E+04  0.24256301156E+04  0.00000000000E+00 0. -1.
          2   -1    0    0  502    0 -0.00000000000E+00 -0.00000000000E+00 -0.23750236141E+04  0.23750236141E+04  0.00000000000E+00 0. -1.
         24    2    1    2    0    0 -0.20979545552E+03  0.27462412598E+03  0.23051962235E+03  0.42331728803E+03  0.81398318959E+02 0.  0.
         25    2    1    2    0    0 -0.14240269720E+03 -0.74713758327E+02 -0.74339965907E+02  0.21682074171E+03  0.12499651856E+03 0.  0.
         24    2    1    2    0    0  0.24868242102E+03 -0.12968053584E+03  0.31548779991E+03  0.43634808705E+03  0.11048580577E+03 0.  0.
        -11    1    5    5    0    0  0.22654248323E+03 -0.68977208371E+02  0.24970102274E+03  0.34413653212E+03  0.00000000000E+00 0.  1.
         12    1    5    5    0    0  0.22139937790E+02 -0.60703327471E+02  0.65786777171E+02  0.92211554926E+02  0.00000000000E+00 0. -1.
        -13    1    3    3    0    0 -0.58001697269E+02  0.36619441745E+02  0.20893652328E+02  0.71705823385E+02  0.00000000000E+00 0.  1.
         14    1    3    3    0    0 -0.15179375825E+03  0.23800468423E+03  0.20962597002E+03  0.35161146464E+03  0.00000000000E+00 0. -1.
          5    1    4    4  501    0 -0.16565919859E+03 -0.65967954352E+02 -0.64147988247E+02  0.18955683970E+03  0.47000000000E+01 0.  1.
         -5    1    4    4    0  501  0.23256501395E+02 -0.87458039753E+01 -0.10191977660E+02  0.27263902012E+02  0.47000000000E+01 0.  1.
          1    1    1    2  502    0  0.44312032517E+02 -0.33598865301E+02 -0.20715072850E+04  0.20722535732E+04  0.00000000000E+00 0. -1.
          1    1    1    2  503    0  0.59203699186E+02 -0.36630966509E+02  0.16504463302E+04  0.16519140397E+04  0.00000000000E+00 0. -1.
<mgrwt>
<rscale>  0 0.62281501E+02</rscale>
<asrwt>0</asrwt>
<pdfrwt beam="1">  1        2 0.35671031E+00 0.69753741E+02</pdfrwt>
<pdfrwt beam="2">  1        2 0.34926818E+00 0.55609711E+02</pdfrwt>
<totfact> 0.60276143E+00</totfact>
</mgrwt>
</event>
<event>
13    1  0.2038932E-008  0.1431720E+03  0.7546771E-02  0.1304645E+00
          2   -1    0    0  502    0  0.00000000000E+00  0.00000000000E+00  0.54136747321E+03  0.54136747321E+03  0.00000000000E+00 0. -1.
          2   -1    0    0  503    0 -0.00000000000E+00 -0.00000000000E+00 -0.28629265825E+04  0.28629265825E+04  0.00000000000E+00 0. -1.
         24    2    1    2    0    0 -0.69514913660E+01  0.55946974986E+02 -0.64252308495E+03  0.65048624848E+03  0.84368581404E+02 0.  0.
         25    2    1    2    0    0 -0.25366334652E+02  0.22846337520E+03 -0.11800585311E+04  0.12087197572E+04  0.12500539926E+03 0.  0.
         24    2    1    2    0    0 -0.27872828647E+02 -0.39051344716E+02 -0.26399442356E+02  0.92294952877E+02  0.74293510274E+02 0.  0.
        -11    1    3    3    0    0 -0.15542157896E+02  0.71277766036E+02 -0.35455823512E+03  0.36198566366E+03  0.00000000000E+00 0.  1.
         12    1    3    3    0    0  0.85906665295E+01 -0.15330791050E+02 -0.28796484983E+03  0.28850058483E+03  0.00000000000E+00 0. -1.
        -11    1    5    5    0    0  0.22758882675E+01  0.20921711019E+02 -0.94135226540E+01  0.23054545498E+02  0.00000000000E+00 0.  1.
         12    1    5    5    0    0 -0.30148716915E+02 -0.59973055735E+02 -0.16985919702E+02  0.69240407379E+02  0.00000000000E+00 0. -1.
          5    1    4    4  501    0  0.43681511480E+02  0.11029532437E+03 -0.67817470759E+03  0.68848831293E+03  0.47000000000E+01 0. -1.
         -5    1    4    4    0  501 -0.69047846132E+02  0.11816805083E+03 -0.50188382355E+03  0.52023144429E+03  0.47000000000E+01 0. -1.
          1    1    1    2  502    0  0.60866912622E+02 -0.18971010978E+03  0.46900392568E+03  0.50956784544E+03  0.00000000000E+00 0. -1.
          1    1    1    2  503    0 -0.67625795691E+00 -0.55648895698E+02 -0.94158197653E+03  0.94322525170E+03  0.00000000000E+00 0. -1.
<mgrwt>
<rscale>  0 0.89263381E+02</rscale>
<asrwt>0</asrwt>
<pdfrwt beam="1">  1        2 0.79612865E-01 0.14317198E+03</pdfrwt>
<pdfrwt beam="2">  1        2 0.42101861E+00 0.55653005E+02</pdfrwt>
<totfact> 0.35177072E+01</totfact>
</mgrwt>
</event>
<event>
13    1  0.2038932E-008  0.1111307E+03  0.7546771E-02  0.1392099E+00
         -1   -1    0    0    0  501 -0.00000000000E+00  0.00000000000E+00  0.17237381424E+04  0.17237381424E+04  0.00000000000E+00 0.  1.
          2   -1    0    0  503    0  0.00000000000E+00 -0.00000000000E+00 -0.13446942995E+04  0.13446942995E+04  0.00000000000E+00 0. -1.
         24    2    1    2    0    0 -0.28366898039E+03 -0.56190439682E+03  0.10284389085E+04  0.12084623102E+04  0.80560070580E+02 0.  0.
         25    2    1    2    0    0  0.17157158095E+03  0.52115829817E+03 -0.31352914254E+03  0.64418023390E+03  0.12499948554E+03 0.  0.
         24    2    1    2    0    0 -0.16526473803E+02  0.20951024975E+02  0.20715667497E+03  0.22392149475E+03  0.80714794460E+02 0.  0.
        -11    1    5    5    0    0  0.41929233018E+00 -0.26805700254E+02  0.32864657949E+02  0.42412346248E+02  0.00000000000E+00 0.  1.
         12    1    5    5    0    0 -0.16945766134E+02  0.47756725229E+02  0.17429201702E+03  0.18150914850E+03  0.00000000000E+00 0. -1.
        -13    1    3    3    0    0 -0.25263619217E+03 -0.54104992390E+03  0.97186731838E+03  0.11406516341E+04  0.00000000000E+00 0.  1.
         14    1    3    3    0    0 -0.31032788214E+02 -0.20854472919E+02  0.56571590142E+02  0.67810676123E+02  0.00000000000E+00 0. -1.
          5    1    4    4  502    0  0.67096478100E+02  0.11437806348E+03 -0.26084333558E+02  0.13522855185E+03  0.47000000000E+01 0. -1.
         -5    1    4    4    0  502  0.10447510285E+03  0.40678023469E+03 -0.28744480898E+03  0.50895168205E+03  0.47000000000E+01 0. -1.
          1    1    1    2  503    0 -0.91607923471E+01 -0.32649160825E+02 -0.74280477580E+03  0.74357839047E+03  0.00000000000E+00 0. -1.
         -2    1    1    2    0  501  0.13778466558E+03  0.52444234499E+02  0.19978217780E+03  0.24829001262E+03  0.00000000000E+00 0.  1.
<mgrwt>
<rscale>  0 0.61387624E+02</rscale>
<asrwt>0</asrwt>
<pdfrwt beam="2">  1        2 0.19774916E+00 0.33909996E+02</pdfrwt>
<pdfrwt beam="1">  1       -1 0.25349090E+00 0.11113067E+03</pdfrwt>
<totfact> 0.19814005E+00</totfact>
</mgrwt>
</event>
<event>
13    1  0.2038932E-008  0.1017006E+03  0.7546771E-02  0.1324507E+00
          2   -1    0    0  502    0  0.00000000000E+00  0.00000000000E+00  0.19035557327E+04  0.19035557327E+04  0.00000000000E+00 0. -1.
          2   -1    0    0  503    0 -0.00000000000E+00 -0.00000000000E+00 -0.25466062166E+03  0.25466062166E+03  0.00000000000E+00 0. -1.
         24    2    1    2    0    0  0.70581894031E+02 -0.30508524514E+03  0.13225745638E+03  0.35161117671E+03  0.89886452009E+02 0.  0.
         25    2    1    2    0    0  0.38774098942E+02 -0.12392735231E+02  0.58914549374E+03  0.60363488293E+03  0.12500259384E+03 0.  0.
         24    2    1    2    0    0 -0.17158945779E+03  0.27043569210E+03  0.13847346084E+03  0.35775993869E+03  0.78986510127E+02 0.  0.
        -11    1    5    5    0    0 -0.93329728008E+02  0.76781697505E+02  0.45566168231E+02  0.12915937012E+03  0.00000000000E+00 0.  1.
         12    1    5    5    0    0 -0.78259729786E+02  0.19365399460E+03  0.92907292608E+02  0.22860056857E+03  0.00000000000E+00 0. -1.
        -13    1    3    3    0    0  0.85214792205E+02 -0.19158935578E+03  0.10235454315E+03  0.23333344073E+03  0.00000000000E+00 0.  1.
         14    1    3    3    0    0 -0.14632898175E+02 -0.11349588935E+03  0.29902913237E+02  0.11827773598E+03  0.00000000000E+00 0. -1.
          5    1    4    4  501    0  0.58753170304E+02  0.39010732510E+02  0.24222645169E+03  0.25232819139E+03  0.47000000000E+01 0.  1.
         -5    1    4    4    0  501 -0.19979071361E+02 -0.51403467741E+02  0.34691904204E+03  0.35130669154E+03  0.47000000000E+01 0.  1.
          1    1    1    2  502    0  0.10220616151E+03 -0.48586024444E+01  0.77031765917E+03  0.77708365155E+03  0.00000000000E+00 0. -1.
          1    1    1    2  503    0 -0.39972696688E+02  0.51900890708E+02  0.18701040945E+02  0.68126704523E+02  0.00000000000E+00 0. -1.
<mgrwt>
<rscale>  0 0.81623353E+02</rscale>
<asrwt>0</asrwt>
<pdfrwt beam="1">  1        2 0.27993466E+00 0.10170056E+03</pdfrwt>
<pdfrwt beam="2">  1        2 0.37450092E-01 0.65509686E+02</pdfrwt>
<totfact> 0.21251068E+02</totfact>
</mgrwt>
</event>
<event>
13    1  0.2038932E-008  0.1576446E+03  0.7546771E-02  0.1278078E+00
          2   -1    0    0  502    0  0.00000000000E+00  0.00000000000E+00  0.88601430626E+03  0.88601430626E+03  0.00000000000E+00 0. -1.
          2   -1    0    0  503    0 -0.00000000000E+00 -0.00000000000E+00 -0.77688045091E+03  0.77688045091E+03  0.00000000000E+00 0. -1.
         24    2    1    2    0    0  0.45736118100E+02 -0.41172757680E+02 -0.17800962092E+03  0.20450875697E+03  0.79683235771E+02 0.  0.
         25    2    1    2    0    0 -0.24893227303E+03  0.27392257606E+03 -0.97852217100E+02  0.40274383723E+03  0.12500675101E+03 0.  0.
         24    2    1    2    0    0 -0.41928975229E+00 -0.30852525259E+02  0.88096827673E+02  0.12364916656E+03  0.81092608948E+02 0.  0.
        -11    1    5    5    0    0 -0.33351604542E+02 -0.17604299140E+02  0.11827359158E+02  0.39523756127E+02  0.00000000000E+00 0.  1.
         12    1    5    5    0    0  0.32932314790E+02 -0.13248226119E+02  0.76269468515E+02  0.84125410432E+02  0.00000000000E+00 0. -1.
        -13    1    3    3    0    0 -0.20760002443E+02 -0.21585186299E+02 -0.38987758644E+02  0.49162417486E+02  0.00000000000E+00 0.  1.
         14    1    3    3    0    0  0.66496120543E+02 -0.19587571381E+02 -0.13902186228E+03  0.15534633948E+03  0.00000000000E+00 0. -1.
          5    1    4    4  501    0 -0.15586257786E+03  0.10585040582E+03 -0.31348262935E+01  0.18849235720E+03  0.47000000000E+01 0.  1.
         -5    1    4    4    0  501 -0.93069695175E+02  0.16807217025E+03 -0.94717390806E+02  0.21425148002E+03  0.47000000000E+01 0.  1.
          1    1    1    2  502    0  0.13949599031E+03 -0.21118514787E+03  0.58462672360E+03  0.63706098918E+03  0.00000000000E+00 0. -1.
          1    1    1    2  503    0  0.64119454375E+02  0.92878547509E+01 -0.28772785790E+03  0.29493200723E+03  0.00000000000E+00 0. -1.
<mgrwt>
<rscale>  0 0.10106225E+03</rscale>
<asrwt>0</asrwt>
<pdfrwt beam="1">  1        2 0.13029622E+00 0.15764457E+03</pdfrwt>
<pdfrwt beam="2">  1        2 0.11424712E+00 0.64788646E+02</pdfrwt>
<totfact> 0.21467246E+02</totfact>
</mgrwt>
</event>
<event>
13    1  0.2038932E-008  0.1563717E+03  0.7546771E-02  0.1339665E+00
          2   -1    0    0  503    0  0.00000000000E+00  0.00000000000E+00  0.21095246054E+04  0.21095246054E+04  0.00000000000E+00 0. -1.
          2   -1    0    0  502    0 -0.00000000000E+00 -0.00000000000E+00 -0.31935294421E+04  0.31935294421E+04  0.00000000000E+00 0. -1.
         24    2    1    2    0    0  0.46628820212E+03 -0.31739165064E+03 -0.23105820810E+04  0.23797702210E+04  0.79715771890E+02 0.  0.
         25    2    1    2    0    0 -0.46089745662E+03  0.39068532486E+03  0.42681927408E+03  0.75024023702E+03  0.12499692773E+03 0.  0.
         24    2    1    2    0    0 -0.15149589190E+03  0.29832797652E+02  0.14499276264E+03  0.22493387206E+03  0.75705643805E+02 0.  0.
        -13    1    3    3    0    0  0.13172224399E+03 -0.13494409794E+03 -0.77119058791E+03  0.79391157065E+03  0.00000000000E+00 0.  1.
         14    1    3    3    0    0  0.33456595813E+03 -0.18244755270E+03 -0.15393914931E+04  0.15858586504E+04  0.00000000000E+00 0. -1.
        -13    1    5    5    0    0 -0.85833446207E+02  0.46600758948E+02  0.54394623041E+02  0.11179349819E+03  0.00000000000E+00 0.  1.
         14    1    5    5    0    0 -0.65662445696E+02 -0.16767961296E+02  0.90598139597E+02  0.11314037387E+03  0.00000000000E+00 0. -1.
          5    1    4    4  501    0 -0.41230950918E+03  0.31837361459E+03  0.40619768378E+03  0.66059029522E+03  0.47000000000E+01 0. -1.
         -5    1    4    4    0  501 -0.48587947439E+02  0.72311710270E+02  0.20621590291E+02  0.89649941799E+02  0.47000000000E+01 0. -1.
          1    1    1    2  502    0  0.10967282989E+03 -0.11114023859E+03 -0.63697378546E+03  0.65583220843E+03  0.00000000000E+00 0. -1.
          1    1    1    2  503    0  0.36432316513E+02  0.80137667263E+01  0.12917389930E+04  0.12922775090E+04  0.00000000000E+00 0. -1.
<mgrwt>
<rscale>  0 0.76375220E+02</rscale>
<asrwt>0</asrwt>
<pdfrwt beam="1">  1        2 0.31022421E+00 0.37303273E+02</pdfrwt>
<pdfrwt beam="2">  1        2 0.46963668E+00 0.15637165E+03</pdfrwt>
<totfact> 0.29989507E+00</totfact>
</mgrwt>
</event>
<event>
13    1  0.2038932E-008  0.2598759E+03  0.7546771E-02  0.1226429E+00
          2   -1    0    0  502    0  0.00000000000E+00  0.00000000000E+00  0.29499056290E+04  0.29499056290E+04  0.00000000000E+00 0. -1.
          2   -1    0    0  503    0 -0.00000000000E+00 -0.00000000000E+00 -0.22544227219E+04  0.22544227219E+04  0.00000000000E+00 0. -1.
         24    2    1    2    0    0 -0.62163750700E+03  0.19265874246E+03  0.24262535822E+03  0.69898437784E+03  0.78495317455E+02 0.  0.
         25    2    1    2    0    0  0.69147574724E+03  0.18228229826E+03  0.13589819289E+04  0.15407215332E+04  0.12500165804E+03 0.  0.
         24    2    1    2    0    0 -0.48865419501E+01 -0.96228826111E+02  0.14641450266E+03  0.19254496844E+03  0.79702528287E+02 0.  0.
        -13    1    5    5    0    0  0.29292120272E+02 -0.51872757119E+02  0.38392573766E+02  0.70871721875E+02  0.00000000000E+00 0.  1.
         14    1    5    5    0    0 -0.34178662222E+02 -0.44356068991E+02  0.10802192889E+03  0.12167324656E+03  0.00000000000E+00 0. -1.
        -13    1    3    3    0    0 -0.54970564191E+03  0.17746268882E+03  0.18825184960E+03  0.60754263847E+03  0.00000000000E+00 0.  1.
         14    1    3    3    0    0 -0.71931865084E+02  0.15196053640E+02  0.54373508617E+02  0.91441739376E+02  0.00000000000E+00 0. -1.
          5    1    4    4  501    0  0.33070960145E+03  0.13400325409E+03  0.76372929527E+03  0.84298887244E+03  0.47000000000E+01 0. -1.
         -5    1    4    4    0  501  0.36076614579E+03  0.48279044167E+02  0.59525263366E+03  0.69773266079E+03  0.47000000000E+01 0. -1.
          1    1    1    2  502    0 -0.62807016364E+02 -0.19375076885E+02  0.84970119681E+03  0.85223954307E+03  0.00000000000E+00 0. -1.
          1    1    1    2  503    0 -0.21446819264E+01 -0.25933713773E+03 -0.19022400795E+04  0.19198379283E+04  0.00000000000E+00 0. -1.
<mgrwt>
<rscale>  0 0.13069436E+03</rscale>
<asrwt>0</asrwt>
<pdfrwt beam="1">  1        2 0.43380965E+00 0.65727581E+02</pdfrwt>
<pdfrwt beam="2">  1        2 0.33153275E+00 0.25987591E+03</pdfrwt>
<totfact> 0.31762991E+00</totfact>
</mgrwt>
</event>
<event>
13    1  0.2038932E-008  0.1196592E+03  0.7546771E-02  0.1254467E+00
          2   -1    0    0  502    0  0.00000000000E+00  0.00000000000E+00  0.37859747990E+04  0.37859747990E+04  0.00000000000E+00 0. -1.
          2   -1    0    0  503    0 -0.00000000000E+00 -0.00000000000E+00 -0.56548719881E+03  0.56548719881E+03  0.00000000000E+00 0. -1.
         24    2    1    2    0    0 -0.36837507845E+02  0.24986611002E+01 -0.33110153947E+02  0.95493388827E+02  0.81605512827E+02 0.  0.
         25    2    1    2    0    0 -0.66636243634E+02  0.25487194102E+03  0.40194710908E+03  0.49657685873E+03  0.12500801110E+03 0.  0.
         24    2    1    2    0    0  0.12227067159E+03 -0.10860120435E+03  0.23999504882E+03  0.30135359496E+03  0.80448909373E+02 0.  0.
        -11    1    5    5    0    0  0.62495461415E+02 -0.81847785188E+02  0.86558395682E+02  0.13452545670E+03  0.00000000000E+00 0.  1.
         12    1    5    5    0    0  0.59775210171E+02 -0.26753419164E+02  0.15343665314E+03  0.16682813826E+03  0.00000000000E+00 0. -1.
        -11    1    3    3    0    0  0.14327010788E+02 -0.20861868132E+02 -0.29877449840E+02  0.39155367308E+02  0.00000000000E+00 0.  1.
         12    1    3    3    0    0 -0.51164518632E+02  0.23360529232E+02 -0.32327041073E+01  0.56338021520E+02  0.00000000000E+00 0. -1.
          5    1    4    4  501    0 -0.10243978336E+03  0.16704962877E+03  0.25525600305E+03  0.32183412619E+03  0.47000000000E+01 0.  1.
         -5    1    4    4    0  501  0.35803539729E+02  0.87822312252E+02  0.14669110603E+03  0.17474273254E+03  0.47000000000E+01 0.  1.
          1    1    1    2  502    0  0.70278530795E+02 -0.96915504235E+02  0.30273705496E+04  0.30297366439E+04  0.00000000000E+00 0. -1.
          1    1    1    2  503    0 -0.89075450903E+02 -0.51853893535E+02 -0.41571495336E+03  0.42830151140E+03  0.00000000000E+00 0. -1.
<mgrwt>
<rscale>  0 0.11336230E+03</rscale>
<asrwt>0</asrwt>
<pdfrwt beam="1">  1        2 0.55676098E+00 0.11965922E+03</pdfrwt>
<pdfrwt beam="2">  1        2 0.83159884E-01 0.10739674E+03</pdfrwt>
<totfact> 0.88588816E+00</totfact>
</mgrwt>
</event>
<event>
13    1  0.2038932E-008  0.1719196E+03  0.7546771E-02  0.1200632E+00
          2   -1    0    0  502    0  0.00000000000E+00  0.00000000000E+00  0.23888647387E+04  0.23888647387E+04  0.00000000000E+00 0. -1.
          2   -1    0    0  503    0 -0.00000000000E+00 -0.00000000000E+00 -0.22383099013E+04  0.22383099013E+04  0.00000000000E+00 0. -1.
         24    2    1    2    0    0 -0.97516706729E+02 -0.16990388493E+02 -0.49401974704E+03  0.50997789852E+03  0.78890843097E+02 0.  0.
         25    2    1    2    0    0 -0.52208207118E+02 -0.26211441494E+03  0.28217264428E+03  0.40825911885E+03  0.12499777414E+03 0.  0.
         24    2    1    2    0    0  0.11318067968E+03 -0.14300720747E+02 -0.32260251888E+03  0.35094113256E+03  0.77928919326E+02 0.  0.
        -11    1    5    5    0    0  0.93387781796E+02 -0.42501585002E+02 -0.25944860263E+03  0.27900042997E+03  0.00000000000E+00 0.  1.
         12    1    5    5    0    0  0.19792897889E+02  0.28200864255E+02 -0.63153916248E+02  0.71940702589E+02  0.00000000000E+00 0. -1.
        -13    1    3    3    0    0 -0.38436136119E+01  0.22291080855E+02 -0.13431172208E+03  0.13620317302E+03  0.00000000000E+00 0.  1.
         14    1    3    3    0    0 -0.93673093117E+02 -0.39281469348E+02 -0.35970802496E+03  0.37377472550E+03  0.00000000000E+00 0. -1.
          5    1    4    4  501    0 -0.56886607011E+01  0.45734767619E+01 -0.77003451647E+01  0.11604433029E+02  0.47000000000E+01 0. -1.
         -5    1    4    4    0  501 -0.46519546417E+02 -0.26668789170E+03  0.28987298944E+03  0.39665468582E+03  0.47000000000E+01 0. -1.
          1    1    1    2  502    0  0.17571485956E+02  0.15737377420E+03  0.20148570048E+04  0.20210700166E+04  0.00000000000E+00 0. -1.
          1    1    1    2  503    0  0.18972748207E+02  0.13603174998E+03 -0.13298525457E+04  0.13369264735E+04  0.00000000000E+00 0. -1.
<mgrwt>
<rscale>  0 0.14987077E+03</rscale>
<asrwt>0</asrwt>
<pdfrwt beam="1">  1        2 0.35130364E+00 0.17191963E+03</pdfrwt>
<pdfrwt beam="2">  1        2 0.32916322E+00 0.13064970E+03</pdfrwt>
<totfact> 0.59015445E+00</totfact>
</mgrwt>
</event>
<event>
13    1  0.2038932E-008  0.8834977E+02  0.7546771E-02  0.1334011E+00
          2   -1    0    0  502    0  0.00000000000E+00  0.00000000000E+00  0.10508113524E+04  0.10508113524E+04  0.00000000000E+00 0. -1.
          2   -1    0    0  503    0 -0.00000000000E+00 -0.00000000000E+00 -0.14386815308E+04  0.14386815308E+04  0.00000000000E+00 0. -1.
         24    2    1    2    0    0 -0.47939168726E+02  0.53233075511E+02 -0.39184585840E+03  0.40653354619E+03  0.81206053992E+02 0.  0.
         25    2    1    2    0    0 -0.13743470643E+03 -0.25627306661E+03  0.45935640890E+03  0.55785023896E+03  0.12499758203E+03 0.  0.
         24    2    1    2    0    0  0.14503132768E+03  0.15059797516E+03 -0.49882283797E+03  0.54711858938E+03  0.82466302403E+02 0.  0.
        -11    1    3    3    0    0 -0.56906478080E+02  0.53595784440E+02 -0.20386712337E+03  0.21834069558E+03  0.00000000000E+00 0.  1.
         12    1    3    3    0    0  0.89673093545E+01 -0.36270892870E+00 -0.18797873504E+03  0.18819285061E+03  0.00000000000E+00 0. -1.
        -11    1    5    5    0    0 -0.55822334123E+01  0.71036341926E+01 -0.31593116657E+01  0.95710082443E+01  0.00000000000E+00 0.  1.
         12    1    5    5    0    0  0.15061356110E+03  0.14349434097E+03 -0.49566352631E+03  0.53754758114E+03  0.00000000000E+00 0. -1.
          5    1    4    4  501    0 -0.11895874930E+03 -0.26277721453E+03  0.38670580208E+03  0.48245882299E+03  0.47000000000E+01 0.  1.
         -5    1    4    4    0  501 -0.18475957126E+02  0.65041479249E+01  0.72650606815E+02  0.75391415974E+02  0.47000000000E+01 0.  1.
          1    1    1    2  502    0 -0.48329048870E+02  0.49742380445E+02  0.50411003736E+03  0.50885845885E+03  0.00000000000E+00 0. -1.
          1    1    1    2  503    0  0.88671596339E+02  0.26996354902E+01 -0.46066792826E+03  0.46913204981E+03  0.00000000000E+00 0. -1.
<mgrwt>
<rscale>  0 0.78277873E+02</rscale>
<asrwt>0</asrwt>
<pdfrwt beam="1">  1        2 0.15453108E+00 0.69354173E+02</pdfrwt>
<pdfrwt beam="2">  1        2 0.21157081E+00 0.88349771E+02</pdfrwt>
<totfact> 0.75615605E+01</totfact>
</mgrwt>
</event>
<event>
13    1  0.2038932E-008  0.6325701E+02  0.7546771E-02  0.1468530E+00
          2   -1    0    0  503    0  0.00000000000E+00  0.00000000000E+00  0.28099711052E+04  0.28099711052E+04  0.00000000000E+00 0. -1.
          2   -1    0    0  502    0 -0.00000000000E+00 -0.00000000000E+00 -0.17020357013E+04  0.17020357013E+04  0.00000000000E+00 0. -1.
         24    2    1    2    0    0 -0.15544843143E+02 -0.44256420232E+02 -0.26911408937E+03  0.28464548285E+03  0.80002405783E+02 0.  0.
         25    2    1    2    0    0 -0.31899402178E+02 -0.28393038219E+02  0.52256802819E+03  0.53900404888E+03  0.12499713656E+03 0.  0.
         24    2    1    2    0    0  0.15854105086E+02  0.58186705243E+02 -0.26569897184E+03  0.28428910906E+03  0.81162236154E+02 0.  0.
        -11    1    5    5    0    0  0.32711897055E+02  0.70513958169E+02 -0.17971802461E+03  0.19580820942E+03  0.00000000000E+00 0.  1.
         12    1    5    5    0    0 -0.16857791969E+02 -0.12327252926E+02 -0.85980947231E+02  0.88480899643E+02  0.00000000000E+00 0. -1.
        -13    1    3    3    0    0 -0.41380907222E+02 -0.99430810630E+00 -0.10133823561E+03  0.10946600443E+03  0.00000000000E+00 0.  1.
         14    1    3    3    0    0  0.25836064079E+02 -0.43262112126E+02 -0.16777585376E+03  0.17517947841E+03  0.00000000000E+00 0. -1.
          5    1    4    4  501    0 -0.12970449227E+02 -0.59822411097E+02  0.12049773630E+03  0.13523589714E+03  0.47000000000E+01 0.  1.
         -5    1    4    4    0  501 -0.18928952951E+02  0.31429372878E+02  0.40207029189E+03  0.40376815174E+03  0.47000000000E+01 0.  1.
          1    1    1    2  502    0  0.63195098904E+02  0.37530270932E+01 -0.11409432682E+04  0.11426982310E+04  0.00000000000E+00 0. -1.
          1    1    1    2  503    0 -0.31604958669E+02  0.10709726115E+02  0.22611237052E+04  0.22613699348E+04  0.00000000000E+00 0. -1.
<mgrwt>
<rscale>  0 0.45944536E+02</rscale>
<asrwt>0</asrwt>
<pdfrwt beam="1">  1        2 0.41323105E+00 0.33370221E+02</pdfrwt>
<pdfrwt beam="2">  1        2 0.25029937E+00 0.63257010E+02</pdfrwt>
<totfact> 0.89466431E+00</totfact>
</mgrwt>
</event>
<event>
13    1  0.2038932E-008  0.2397550E+03  0.7546771E-02  0.1335457E+00
          2   -1    0    0  502    0  0.00000000000E+00  0.00000000000E+00  0.19608723093E+04  0.19608723093E+04  0.00000000000E+00 0. -1.
          2   -1    0    0  503    0 -0.00000000000E+00 -0.00000000000E+00 -0.21626999170E+04  0.21626999170E+04  0.00000000000E+00 0. -1.
         24    2    1    2    0    0 -0.86918253220E+02  0.32060397179E+03 -0.11295086482E+04  0.11808071632E+04  0.90410623829E+02 0.  0.
         25    2    1    2    0    0 -0.12272537952E+03 -0.31188431909E+03  0.56213522685E+03  0.66629941926E+03  0.12500222228E+03 0.  0.
         24    2    1    2    0    0 -0.24120669263E+02 -0.18961661503E+02  0.49778899181E+01  0.85374325677E+02  0.79515060234E+02 0.  0.
        -11    1    3    3    0    0 -0.76290994304E+01  0.13217822946E+03 -0.32980720378E+03  0.35539003808E+03  0.00000000000E+00 0.  1.
         12    1    3    3    0    0 -0.79289153790E+02  0.18842574233E+03 -0.79970144437E+03  0.82541712510E+03  0.00000000000E+00 0. -1.
        -13    1    5    5    0    0 -0.39067471472E+02 -0.12946464999E+01  0.31481197291E+02  0.50189732214E+02  0.00000000000E+00 0.  1.
         14    1    5    5    0    0  0.14946802209E+02 -0.17667015004E+02 -0.26503307373E+02  0.35184593463E+02  0.00000000000E+00 0. -1.
          5    1    4    4  501    0 -0.91233034614E+01 -0.83036733626E+02  0.60246298618E+02  0.10310208676E+03  0.47000000000E+01 0.  1.
         -5    1    4    4    0  501 -0.11360207606E+03 -0.22884758546E+03  0.50188892823E+03  0.56319733250E+03  0.47000000000E+01 0.  1.
          1    1    1    2  502    0 -0.63114544288E+01  0.24434256988E+02  0.12599029238E+04  0.12601556430E+04  0.00000000000E+00 0. -1.
          1    1    1    2  503    0  0.24007575643E+03 -0.14192248184E+02 -0.89933500014E+03  0.93093567512E+03  0.00000000000E+00 0. -1.
<mgrwt>
<rscale>  0 0.77785047E+02</rscale>
<asrwt>0</asrwt>
<pdfrwt beam="1">  1        2 0.28836358E+00 0.25236231E+02</pdfrwt>
<pdfrwt beam="2">  1        2 0.31804410E+00 0.23975504E+03</pdfrwt>
<totfact> 0.12088845E+01</totfact>
</mgrwt>
</event>
<event>
13    1  0.2038932E-008  0.1179297E+03  0.7546771E-02  0.1318500E+00
          2   -1    0    0  502    0  0.00000000000E+00  0.00000000000E+00  0.13899730853E+04  0.13899730853E+04  0.00000000000E+00 0. -1.
          2   -1    0    0  503    0 -0.00000000000E+00 -0.00000000000E+00 -0.75417984240E+03  0.75417984240E+03  0.00000000000E+00 0. -1.
         24    2    1    2    0    0  0.36451765872E+03  0.83242193212E+02 -0.18206746503E+03  0.42459264629E+03  0.85603546743E+02 0.  0.
         25    2    1    2    0    0 -0.33432460865E+03 -0.13959186928E+03  0.52640721422E+03  0.65114177646E+03  0.12498889532E+03 0.  0.
         24    2    1    2    0    0 -0.76686791185E+02 -0.58609243776E+02  0.31180482090E+03  0.33628396541E+03  0.80924357621E+02 0.  0.
        -13    1    3    3    0    0  0.95401873112E+02  0.56524538865E+02 -0.32522774732E+02  0.11556068433E+03  0.00000000000E+00 0.  1.
         14    1    3    3    0    0  0.26911578561E+03  0.26717654347E+02 -0.14954469030E+03  0.30903196196E+03  0.00000000000E+00 0. -1.
        -13    1    5    5    0    0  0.10967359084E+02  0.74860173728E+01  0.16165665499E+02  0.20920137724E+02  0.00000000000E+00 0.  1.
         14    1    5    5    0    0 -0.87654150269E+02 -0.66095261149E+02  0.29563915540E+03  0.31536382769E+03  0.00000000000E+00 0. -1.
          5    1    4    4  501    0 -0.15505342527E+03 -0.41873945626E+02  0.13584691234E+03  0.21040785537E+03  0.47000000000E+01 0. -1.
         -5    1    4    4    0  501 -0.17927118337E+03 -0.97717923655E+02  0.39056030188E+03  0.44073392109E+03  0.47000000000E+01 0. -1.
          1    1    1    2  502    0 -0.12218639559E+02  0.12521426715E+03  0.34226381742E+03  0.36465384760E+03  0.00000000000E+00 0. -1.
          1    1    1    2  503    0  0.58712380671E+02 -0.10255347305E+02 -0.36261514465E+03  0.36748069190E+03  0.00000000000E+00 0. -1.
<mgrwt>
<rscale>  0 0.83837733E+02</rscale>
<asrwt>0</asrwt>
<pdfrwt beam="1">  1        2 0.20440781E+00 0.11792972E+03</pdfrwt>
<pdfrwt beam="2">  1        2 0.11090880E+00 0.59601307E+02</pdfrwt>
<totfact> 0.11878556E+02</totfact>
</mgrwt>
</event>
<event>
13    1  0.2038932E-008  0.5906376E+02  0.7546771E-02  0.1418920E+00
          2   -1    0    0  502    0  0.00000000000E+00  0.00000000000E+00  0.13618048685E+04  0.13618048685E+04  0.00000000000E+00 0. -1.
          2   -1    0    0  503    0 -0.00000000000E+00 -0.00000000000E+00 -0.10391242865E+04  0.10391242865E+04  0.00000000000E+00 0. -1.
         24    2    1    2    0    0 -0.85073310913E+03 -0.23365565931E+03  0.55506643736E+02  0.88975931131E+03  0.10123662606E+03 0.  0.
         25    2    1    2    0    0  0.33817483293E+03  0.31408108078E+02  0.37155021172E+03  0.51867480424E+03  0.12500122338E+03 0.  0.
         24    2    1    2    0    0  0.53227001413E+03  0.19446613315E+03 -0.40082448303E+02  0.57401304900E+03  0.82194481996E+02 0.  0.
        -11    1    5    5    0    0  0.32356183730E+03  0.14139001273E+03 -0.58327179889E+02  0.35789028790E+03  0.00000000000E+00 0.  1.
         12    1    5    5    0    0  0.20870817683E+03  0.53076120424E+02  0.18244731586E+02  0.21612276110E+03  0.00000000000E+00 0. -1.
        -13    1    3    3    0    0 -0.37419944433E+03 -0.15438038845E+03  0.33428059254E+02  0.40617233241E+03  0.00000000000E+00 0.  1.
         14    1    3    3    0    0 -0.47653366480E+03 -0.79275270863E+02  0.22078584482E+02  0.48358697889E+03  0.00000000000E+00 0. -1.
          5    1    4    4  501    0  0.31342765602E+03  0.45378234573E+02  0.28017326762E+03  0.42286549826E+03  0.47000000000E+01 0.  1.
         -5    1    4    4    0  501  0.24747176909E+02 -0.13970126495E+02  0.91376944102E+02  0.95809305981E+02  0.47000000000E+01 0.  1.
          1    1    1    2  502    0 -0.10206685400E+02 -0.50664650777E+02  0.16955286850E+03  0.17725478409E+03  0.00000000000E+00 0. -1.
          1    1    1    2  503    0 -0.95050525280E+01  0.58446068856E+02 -0.23384669358E+03  0.24122720636E+03  0.00000000000E+00 0. -1.
<mgrwt>
<rscale>  0 0.55250013E+02</rscale>
<asrwt>0</asrwt>
<pdfrwt beam="1">  1        2 0.20026542E+00 0.51682524E+02</pdfrwt>
<pdfrwt beam="2">  1        2 0.15281239E+00 0.59063755E+02</pdfrwt>
<totfact> 0.87888501E+01</totfact>
</mgrwt>
</event>
<event>
13    1  0.2038932E-008  0.1236998E+03  0.7546771E-02  0.1275039E+00
          2   -1    0    0  502    0  0.00000000000E+00  0.00000000000E+00  0.79800592593E+03  0.79800592593E+03  0.00000000000E+00 0. -1.
          2   -1    0    0  503    0 -0.00000000000E+00 -0.00000000000E+00 -0.11414614914E+04  0.11414614914E+04  0.00000000000E+00 0. -1.
         24    2    1    2    0    0 -0.23713224503E+01 -0.10052317073E+03 -0.43478612229E+03  0.45278919163E+03  0.76606454690E+02 0.  0.
         25    2    1    2    0    0  0.37257536803E+02  0.89568845880E+02  0.11934818598E+03  0.19818610284E+03  0.12499215840E+03 0.  0.
         24    2    1    2    0    0 -0.12153610642E+03 -0.79157971689E+02 -0.13133819696E+03  0.21237846014E+03  0.82570446914E+02 0.  0.
        -11    1    5    5    0    0 -0.19553512572E+02 -0.54674779332E+02 -0.25637333339E+02  0.63473964817E+02  0.00000000000E+00 0.  1.
         12    1    5    5    0    0 -0.10198259385E+03 -0.24483192357E+02 -0.10570086362E+03  0.14890449532E+03  0.00000000000E+00 0. -1.
        -13    1    3    3    0    0  0.69086335348E+01  0.79180279664E+00 -0.15370199958E+03  0.15385922411E+03  0.00000000000E+00 0.  1.
         14    1    3    3    0    0 -0.92799559851E+01 -0.10131497352E+03 -0.28108412271E+03  0.29892996752E+03  0.00000000000E+00 0. -1.
          5    1    4    4  501    0  0.28839509197E+02 -0.27718567867E+02  0.25556966927E+02  0.47699946057E+02  0.47000000000E+01 0. -1.
         -5    1    4    4    0  501  0.84180276052E+01  0.11728741375E+03  0.93791219051E+02  0.15048615678E+03  0.47000000000E+01 0. -1.
          1    1    1    2  502    0  0.18554356627E+02 -0.82953888979E+02  0.56866372829E+03  0.57498178034E+03  0.00000000000E+00 0. -1.
          1    1    1    2  503    0  0.68095535441E+02  0.17306618551E+03 -0.46534316045E+03  0.50113188234E+03  0.00000000000E+00 0. -1.
<mgrwt>
<rscale>  0 0.10254232E+03</rscale>
<asrwt>0</asrwt>
<pdfrwt beam="1">  1        2 0.11735381E+00 0.85003599E+02</pdfrwt>
<pdfrwt beam="2">  1        2 0.16786198E+00 0.12369979E+03</pdfrwt>
<totfact> 0.14795629E+02</totfact>
</mgrwt>
</event>
<event>
13    1  0.2038932E-008  0.8541296E+02  0.7546771E-02  0.1379227E+00
          2   -1    0    0  503    0  0.00000000000E+00  0.00000000000E+00  0.16782991578E+04  0.16782991578E+04  0.00000000000E+00 0. -1.
          2   -1    0    0  502    0 -0.00000000000E+00 -0.00000000000E+00 -0.15533298031E+04  0.15533298031E+04  0.00000000000E+00 0. -1.
         24    2    1    2    0    0 -0.21411622555E+02  0.39977606264E+02 -0.37931723333E+03  0.39009289225E+03  0.78957168787E+02 0.  0.
         25    2    1    2    0    0  0.39794637625E+02 -0.29120588074E+02  0.28660092371E+03  0.31653939300E+03  0.12500190406E+03 0.  0.
         24    2    1    2    0    0  0.51729355164E+01 -0.38726065402E+02 -0.29059189989E+03  0.30361420948E+03  0.78812870218E+02 0.  0.
        -11    1    3    3    0    0 -0.46206539337E+02  0.41604878623E+02 -0.21163788442E+03  0.22058242070E+03  0.00000000000E+00 0.  1.
         12    1    3    3    0    0  0.24794916782E+02 -0.16272723592E+01 -0.16767934891E+03  0.16951047155E+03  0.00000000000E+00 0. -1.
        -13    1    5    5    0    0  0.24197921642E+02  0.13650040799E+02 -0.56235877811E+02  0.62724293370E+02  0.00000000000E+00 0.  1.
         14    1    5    5    0    0 -0.19024986126E+02 -0.52376106201E+02 -0.23435602208E+03  0.24088991611E+03  0.00000000000E+00 0. -1.
          5    1    4    4  501    0  0.22580925046E+02  0.86614404165E+00 -0.43635936042E+01  0.23489983622E+02  0.47000000000E+01 0.  1.
         -5    1    4    4    0  501  0.17213712580E+02 -0.29986732115E+02  0.29096451731E+03  0.29304940938E+03  0.47000000000E+01 0.  1.
          1    1    1    2  502    0  0.33110146406E+02 -0.36067241855E+02 -0.85451406516E+03  0.85591554214E+03  0.00000000000E+00 0. -1.
          1    1    1    2  503    0 -0.56666096993E+02  0.63936289067E+02  0.13627916294E+04  0.13654669241E+04  0.00000000000E+00 0. -1.
<mgrwt>
<rscale>  0 0.64667293E+02</rscale>
<asrwt>0</asrwt>
<pdfrwt beam="1">  1        2 0.24680870E+00 0.85412961E+02</pdfrwt>
<pdfrwt beam="2">  1        2 0.22843085E+00 0.48960471E+02</pdfrwt>
<totfact> 0.33083599E+01</totfact>
</mgrwt>
</event>
<event>
13    1  0.2038932E-008  0.1380291E+03  0.7546771E-02  0.1318312E+00
          2   -1    0    0  503    0  0.00000000000E+00  0.00000000000E+00  0.74111683676E+03  0.74111683676E+03  0.00000000000E+00 0. -1.
          2   -1    0    0  502    0 -0.00000000000E+00 -0.00000000000E+00 -0.23219127671E+04  0.23219127671E+04  0.00000000000E+00 0. -1.
         24    2    1    2    0    0 -0.24204217615E+02 -0.44426667661E+02 -0.40061699981E+03  0.41162366976E+03  0.79877982069E+02 0.  0.
         25    2    1    2    0    0  0.64581996582E+02  0.73005229049E+02  0.52845683294E+03  0.55171836536E+03  0.12500373050E+03 0.  0.
         24    2    1    2    0    0 -0.38809591090E+02  0.86058616157E+02 -0.24352039553E+03  0.27329597755E+03  0.80475080209E+02 0.  0.
        -11    1    5    5    0    0  0.23348624637E+02  0.27229409979E+02 -0.99472840368E+02  0.10574235202E+03  0.00000000000E+00 0.  1.
         12    1    5    5    0    0 -0.62158215727E+02  0.58829206177E+02 -0.14404755516E+03  0.16755362553E+03  0.00000000000E+00 0. -1.
        -13    1    3    3    0    0 -0.45516797508E+02 -0.51086103486E+02 -0.34447161480E+03  0.35120117060E+03  0.00000000000E+00 0.  1.
         14    1    3    3    0    0  0.21312579893E+02  0.66594358255E+01 -0.56145385004E+02  0.60422499157E+02  0.00000000000E+00 0. -1.
          5    1    4    4  501    0  0.26679155880E+02  0.14764941949E+02  0.16387704503E+02  0.34934620766E+02  0.47000000000E+01 0.  1.
         -5    1    4    4    0  501  0.37902840703E+02  0.58240287100E+02  0.51206912844E+03  0.51678374459E+03  0.47000000000E+01 0.  1.
          1    1    1    2  502    0 -0.19106208638E+02 -0.16253541084E+03 -0.16379918414E+04  0.16461470407E+04  0.00000000000E+00 0. -1.
          1    1    1    2  503    0  0.17538020761E+02  0.47898233292E+02  0.17287647345E+03  0.18024455053E+03  0.00000000000E+00 0. -1.
<mgrwt>
<rscale>  0 0.83908271E+02</rscale>
<asrwt>0</asrwt>
<pdfrwt beam="1">  1        2 0.10898777E+00 0.51008067E+02</pdfrwt>
<pdfrwt beam="2">  1        2 0.34145776E+00 0.13802911E+03</pdfrwt>
<totfact> 0.41744820E+01</totfact>
</mgrwt>
</event>
<event>
13    1  0.2038932E-008  0.9532758E+02  0.7546771E-02  0.1337145E+00
          2   -1    0    0  502    0  0.00000000000E+00  0.00000000000E+00  0.23023034526E+04  0.23023034526E+04  0.00000000000E+00 0. -1.
          2   -1    0    0  503    0 -0.00000000000E+00 -0.00000000000E+00 -0.54443831339E+03  0.54443831339E+03  0.00000000000E+00 0. -1.
         24    2    1    2    0    0 -0.62210173471E+02 -0.13344288828E+02 -0.29382806361E+03  0.31134207412E+03  0.80936891610E+02 0.  0.
         25    2    1    2    0    0 -0.13758423827E+03 -0.18802963944E+02  0.27307408800E+03  0.33087414269E+03  0.12500106675E+03 0.  0.
         24    2    1    2    0    0  0.10033362596E+03 -0.17043890598E+02  0.54802579437E+03  0.56307803671E+03  0.79795196786E+02 0.  0.
        -13    1    5    5    0    0  0.63136727462E+02  0.20610265079E+02  0.40824090474E+03  0.41360810641E+03  0.00000000000E+00 0.  1.
         14    1    5    5    0    0  0.37196898495E+02 -0.37654155677E+02  0.13978488962E+03  0.14946993030E+03  0.00000000000E+00 0. -1.
        -13    1    3    3    0    0 -0.75954373820E+02 -0.29423814762E+02 -0.24297911282E+03  0.25626875940E+03  0.00000000000E+00 0.  1.
         14    1    3    3    0    0  0.13744200350E+02  0.16079525934E+02 -0.50848950789E+02  0.55073314716E+02  0.00000000000E+00 0. -1.
          5    1    4    4  501    0 -0.11289931428E+03  0.42143385519E+02  0.16726081345E+03  0.20620521290E+03  0.47000000000E+01 0.  1.
         -5    1    4    4    0  501 -0.24684923985E+02 -0.60946349463E+02  0.10581327454E+03  0.12466892979E+03  0.47000000000E+01 0.  1.
          1    1    1    2  502    0  0.50016679540E+01  0.62343855892E+02  0.14242279594E+04  0.14256005940E+04  0.00000000000E+00 0. -1.
          1    1    1    2  503    0  0.94459117830E+02 -0.13152712522E+02 -0.19363463903E+03  0.21584691848E+03  0.00000000000E+00 0. -1.
<mgrwt>
<rscale>  0 0.77215181E+02</rscale>
<asrwt>0</asrwt>
<pdfrwt beam="1">  1        2 0.33857403E+00 0.62544169E+02</pdfrwt>
<pdfrwt beam="2">  1        2 0.80064459E-01 0.95327578E+02</pdfrwt>
<totfact> 0.65205083E+01</totfact>
</mgrwt>
</event>
<event>
13    1  0.2038932E-008  0.1980569E+03  0.7546771E-02  0.1211263E+00
          2   -1    0    0  503    0  0.00000000000E+00  0.00000000000E+00  0.22107470194E+04  0.22107470194E+04  0.00000000000E+00 0. -1.
          2   -1    0    0  502    0 -0.00000000000E+00 -0.00000000000E+00 -0.14798707454E+04  0.14798707454E+04  0.00000000000E+00 0. -1.
         24    2    1    2    0    0  0.51562064206E+02 -0.95010012280E+02  0.60435129758E+02  0.14713485380E+03  0.79439986126E+02 0.  0.
         25    2    1    2    0    0  0.29469571675E+03  0.25949205688E+02 -0.13185924542E+02  0.32142924643E+03  0.12499586035E+03 0.  0.
         24    2    1    2    0    0 -0.85828726696E+02  0.17688053190E+03  0.30434961098E+03  0.37103162941E+03  0.79890496471E+02 0.  0.
        -11    1    5    5    0    0 -0.47772785678E+01  0.17303982881E+01 -0.45353831403E+01  0.68107539215E+01  0.00000000000E+00 0.  1.
         12    1    5    5    0    0 -0.81051448128E+02  0.17515013362E+03  0.30888499412E+03  0.36422087549E+03  0.00000000000E+00 0. -1.
        -11    1    3    3    0    0  0.66814277784E+01 -0.73735381253E+02  0.72929800036E+01  0.74395802859E+02  0.00000000000E+00 0.  1.
         12    1    3    3    0    0  0.44880636427E+02 -0.21274631026E+02  0.53142149755E+02  0.72739050942E+02  0.00000000000E+00 0. -1.
          5    1    4    4  501    0  0.15713137500E+03  0.35414428879E+02  0.51331859493E+02  0.16911978175E+03  0.47000000000E+01 0.  1.
         -5    1    4    4    0  501  0.13756434175E+03 -0.94652231904E+01 -0.64517784035E+02  0.15230946467E+03  0.47000000000E+01 0.  1.
          1    1    1    2  502    0 -0.10102537229E+03  0.52068294918E+01 -0.12278742931E+04  0.12320343001E+04  0.00000000000E+00 0. -1.
          1    1    1    2  503    0 -0.15940368197E+03 -0.11302655480E+03  0.16071517509E+04  0.16189877351E+04  0.00000000000E+00 0. -1.
<mgrwt>
<rscale>  0 0.14154621E+03</rscale>
<asrwt>0</asrwt>
<pdfrwt beam="1">  1        2 0.32510986E+00 0.19805689E+03</pdfrwt>
<pdfrwt beam="2">  1        2 0.21762805E+00 0.10115946E+03</pdfrwt>
<totfact> 0.17140719E+01</totfact>
</mgrwt>
</event>
<event>
13    1  0.2038932E-008  0.9769008E+02  0.7546771E-02  0.1454792E+00
          2   -1    0    0  503    0  0.00000000000E+00  0.00000000000E+00  0.37860693287E+04  0.37860693287E+04  0.00000000000E+00 0. -1.
          2   -1    0    0  502    0 -0.00000000000E+00 -0.00000000000E+00 -0.21147838689E+04  0.21147838689E+04  0.00000000000E+00 0. -1.
         24    2    1    2    0    0 -0.87523608196E+01 -0.57509152606E+02 -0.80319631810E+02  0.12810597793E+03  0.81092489627E+02 0.  0.
         25    2    1    2    0    0 -0.57885160737E+02 -0.56200677976E+02  0.46650704791E+03  0.48965717031E+03  0.12500444249E+03 0.  0.
         24    2    1    2    0    0  0.13975429612E+02  0.27223647939E+02  0.16797991076E+04  0.16820409442E+04  0.81241962534E+02 0.  0.
        -11    1    3    3    0    0  0.29637277013E+02 -0.53547828128E+02 -0.48744104105E+02  0.78241458135E+02  0.00000000000E+00 0.  1.
         12    1    3    3    0    0 -0.38389637833E+02 -0.39613244775E+01 -0.31575527705E+02  0.49864519795E+02  0.00000000000E+00 0. -1.
        -11    1    5    5    0    0 -0.90246815635E+01 -0.25564749340E+02  0.37926534310E+03  0.38023308873E+03  0.00000000000E+00 0.  1.
         12    1    5    5    0    0  0.23000111176E+02  0.52788397278E+02  0.13005337645E+04  0.13018078555E+04  0.00000000000E+00 0. -1.
          5    1    4    4  501    0 -0.24754457937E+02 -0.63582730494E+02  0.97690351361E+02  0.11925200859E+03  0.47000000000E+01 0.  1.
         -5    1    4    4    0  501 -0.33130702800E+02  0.73820525177E+01  0.36881669655E+03  0.37040516171E+03  0.47000000000E+01 0.  1.
          1    1    1    2  502    0  0.29695239363E+02  0.92990339316E+02 -0.19965937202E+04  0.19989786127E+04  0.00000000000E+00 0. -1.
          1    1    1    2  503    0  0.22966852582E+02 -0.65041566729E+01  0.16018926563E+04  0.16020704924E+04  0.00000000000E+00 0. -1.
<mgrwt>
<rscale>  0 0.48289433E+02</rscale>
<asrwt>0</asrwt>
<pdfrwt beam="1">  1        2 0.55677490E+00 0.23870073E+02</pdfrwt>
<pdfrwt beam="2">  1        2 0.31099763E+00 0.97690083E+02</pdfrwt>
<totfact> 0.17484502E+00</totfact>
</mgrwt>
</event>
<event>
13    1  0.2038932E-008  0.1582902E+03  0.7546771E-02  0.1323560E+00
          2   -1    0    0  502    0  0.00000000000E+00  0.00000000000E+00  0.14350260987E+04  0.14350260987E+04  0.00000000000E+00 0. -1.
          2   -1    0    0  503    0 -0.00000000000E+00 -0.00000000000E+00 -0.23892311297E+04  0.23892311297E+04  0.00000000000E+00 0. -1.
         24    2    1    2    0    0 -0.77022845368E+02  0.14477754743E+03 -0.32516649539E+02  0.18571557725E+03  0.80869562800E+02 0.  0.
         25    2    1    2    0    0  0.10092896122E+03  0.88916029264E+01  0.63140494291E+03  0.65158492718E+03  0.12499999830E+03 0.  0.
         24    2    1    2    0    0  0.30695263009E+01  0.34486847233E+01  0.34477630624E+01  0.78696541687E+02  0.78485305538E+02 0.  0.
        -11    1    3    3    0    0 -0.21440672024E+02  0.11587629009E+03 -0.69362701109E+01  0.11804714679E+03  0.00000000000E+00 0.  1.
         12    1    3    3    0    0 -0.55582173344E+02  0.28901257342E+02 -0.25580379428E+02  0.67668430462E+02  0.00000000000E+00 0. -1.
        -13    1    5    5    0    0 -0.31374759332E+02  0.11510722738E+02  0.20728522437E+02  0.39326122407E+02  0.00000000000E+00 0.  1.
         14    1    5    5    0    0  0.34444285633E+02 -0.80620380146E+01 -0.17280759375E+02  0.39370419280E+02  0.00000000000E+00 0. -1.
          5    1    4    4  501    0  0.88836934748E+01 -0.45605671453E+02  0.11357737643E+03  0.12280353299E+03  0.47000000000E+01 0. -1.
         -5    1    4    4    0  501  0.92045267745E+02  0.54497274379E+02  0.51782756648E+03  0.52878139418E+03  0.47000000000E+01 0. -1.
          1    1    1    2  502    0 -0.42440038617E+02  0.64593993913E+00  0.67237544205E+03  0.67371381847E+03  0.00000000000E+00 0. -1.
          1    1    1    2  503    0  0.15464396464E+02 -0.15776377502E+03 -0.22289165295E+04  0.22345463637E+04  0.00000000000E+00 0. -1.
<mgrwt>
<rscale>  0 0.81967180E+02</rscale>
<asrwt>0</asrwt>
<pdfrwt beam="1">  1        2 0.21103325E+00 0.42444954E+02</pdfrwt>
<pdfrwt beam="2">  1        2 0.35135751E+00 0.15829016E+03</pdfrwt>
<totfact> 0.16099518E+01</totfact>
</mgrwt>
</event>
<event>
13    1  0.2038932E-008  0.1051487E+03  0.7546771E-02  0.1349852E+00
          2   -1    0    0  503    0  0.00000000000E+00  0.00000000000E+00  0.56079753308E+03  0.56079753308E+03  0.00000000000E+00 0. -1.
         -1   -1    0    0    0  501 -0.00000000000E+00 -0.00000000000E+00 -0.48921213414E+03  0.48921213414E+03  0.00000000000E+00 0.  1.
         24    2    1    2    0    0 -0.90686098610E+02  0.76176912297E+02 -0.72751828283E+02  0.16245280909E+03  0.84090405012E+02 0.  0.
         25    2    1    2    0    0  0.90293222988E+02 -0.15928571316E+03 -0.80322994453E+02  0.23580134850E+03  0.12500275190E+03 0.  0.
         24    2    1    2    0    0  0.38460142048E+02  0.20741577636E+02  0.63359352310E+02  0.10970937559E+03  0.78181481175E+02 0.  0.
        -11    1    5    5    0    0  0.24716325327E+02  0.48699472126E+02  0.24372346172E+02  0.59804235477E+02  0.00000000000E+00 0.  1.
         12    1    5    5    0    0  0.13743816721E+02 -0.27957894490E+02  0.38987006138E+02  0.49905140116E+02  0.00000000000E+00 0. -1.
        -11    1    3    3    0    0  0.15974727516E+02  0.89840797328E+01 -0.36262786475E+01  0.18683027182E+02  0.00000000000E+00 0.  1.
         12    1    3    3    0    0 -0.10666082613E+03  0.67192832564E+02 -0.69125549635E+02  0.14376978191E+03  0.00000000000E+00 0. -1.
          5    1    4    4  502    0  0.52616124315E+02  0.48334016045E+01 -0.15011027372E+02  0.55129295767E+02  0.47000000000E+01 0. -1.
         -5    1    4    4    0  502  0.37677098672E+02 -0.16411911476E+03 -0.65311967081E+02  0.18067205273E+03  0.47000000000E+01 0. -1.
          1    1    1    2  503    0 -0.44522822297E+02  0.11277758107E+03  0.33752385273E+03  0.35864106800E+03  0.00000000000E+00 0. -1.
         -2    1    1    2    0  501  0.64555558718E+01 -0.50410357850E+02 -0.17622298337E+03  0.18340506603E+03  0.00000000000E+00 0.  1.
<mgrwt>
<rscale>  0 0.73101791E+02</rscale>
<asrwt>0</asrwt>
<pdfrwt beam="1">  1        2 0.82470226E-01 0.10514874E+03</pdfrwt>
<pdfrwt beam="2">  1       -1 0.71942960E-01 0.50822027E+02</pdfrwt>
<totfact> 0.14231136E+02</totfact>
</mgrwt>
</event>
<event>
13    1  0.2038932E-008  0.1228401E+03  0.7546771E-02  0.1373446E+00
          2   -1    0    0  503    0  0.00000000000E+00  0.00000000000E+00  0.16992751439E+04  0.16992751439E+04  0.00000000000E+00 0. -1.
          2   -1    0    0  502    0 -0.00000000000E+00 -0.00000000000E+00 -0.12619550912E+04  0.12619550912E+04  0.00000000000E+00 0. -1.
         24    2    1    2    0    0  0.89534743543E+02  0.21053347222E+03 -0.16233289437E+02  0.24505199892E+03  0.86291072887E+02 0.  0.
         25    2    1    2    0    0  0.22372148491E+02 -0.81016986533E+02  0.33533469385E+02  0.15431765817E+03  0.12500072368E+03 0.  0.
         24    2    1    2    0    0  0.16207353496E+02 -0.21933804420E+03 -0.10247018781E+03  0.25791996377E+03  0.87468350733E+02 0.  0.
        -11    1    5    5    0    0 -0.91139211156E+01 -0.20829473578E+03 -0.84511710243E+02  0.22497108632E+03  0.00000000000E+00 0.  1.
         12    1    5    5    0    0  0.25321274611E+02 -0.11043308424E+02 -0.17958477566E+02  0.32948877453E+02  0.00000000000E+00 0. -1.
        -13    1    3    3    0    0  0.76446623598E+01  0.98970658275E+02  0.21586937128E+02  0.10158556943E+03  0.00000000000E+00 0.  1.
         14    1    3    3    0    0  0.81890081184E+02  0.11156281395E+03 -0.37820226565E+02  0.14346642948E+03  0.00000000000E+00 0. -1.
          5    1    4    4  501    0 -0.41686086474E+02 -0.48637518418E+02 -0.16963479842E+02  0.66431827099E+02  0.47000000000E+01 0. -1.
         -5    1    4    4    0  501  0.64058234966E+02 -0.32379468115E+02  0.50496949227E+02  0.87885831074E+02  0.47000000000E+01 0. -1.
          1    1    1    2  502    0 -0.10522777808E+03  0.62428194746E+02 -0.88629645369E+03  0.89470194400E+03  0.00000000000E+00 0. -1.
          1    1    1    2  503    0 -0.22886467448E+02  0.27393363766E+02  0.14087865143E+04  0.14092386702E+04  0.00000000000E+00 0. -1.
<mgrwt>
<rscale>  0 0.66218354E+02</rscale>
<asrwt>0</asrwt>
<pdfrwt beam="1">  1        2 0.24989341E+00 0.35695753E+02</pdfrwt>
<pdfrwt beam="2">  1        2 0.18558163E+00 0.12284011E+03</pdfrwt>
<totfact> 0.45767056E+01</totfact>
</mgrwt>
</event>
<event>
13    1  0.2038932E-008  0.7635178E+02  0.7546771E-02  0.1374687E+00
          2   -1    0    0  503    0  0.00000000000E+00  0.00000000000E+00  0.53887958223E+03  0.53887958223E+03  0.00000000000E+00 0. -1.
          2   -1    0    0  502    0 -0.00000000000E+00 -0.00000000000E+00 -0.31870439767E+04  0.31870439767E+04  0.00000000000E+00 0. -1.
         24    2    1    2    0    0 -0.69627460786E+00 -0.16877066250E+02 -0.68926532111E+03  0.69421149700E+03  0.80979006655E+02 0.  0.
         25    2    1    2    0    0  0.18246503532E+02  0.11210762468E+03  0.26055621852E+03  0.31050990866E+03  0.12500322381E+03 0.  0.
         24    2    1    2    0    0  0.10305600938E+03 -0.39101141131E+02 -0.79813331570E+03  0.80965683747E+03  0.79862159600E+02 0.  0.
        -11    1    5    5    0    0  0.82008247204E+02 -0.27247734506E+02 -0.33740624554E+03  0.34829695114E+03  0.00000000000E+00 0.  1.
         12    1    5    5    0    0  0.21047762175E+02 -0.11853406625E+02 -0.46072707015E+03  0.46135988633E+03  0.00000000000E+00 0. -1.
        -13    1    3    3    0    0  0.27637138682E+01  0.94905925171E+01 -0.88230454785E+01  0.13249739325E+02  0.00000000000E+00 0.  1.
         14    1    3    3    0    0 -0.34599884761E+01 -0.26367658768E+02 -0.68044227563E+03  0.68096175768E+03  0.00000000000E+00 0. -1.
          5    1    4    4  501    0  0.57519107800E+02  0.51394422826E+02  0.61778185186E+02  0.98936689983E+02  0.47000000000E+01 0.  1.
         -5    1    4    4    0  501 -0.39272604268E+02  0.60713201858E+02  0.19877803333E+03  0.21157321868E+03  0.47000000000E+01 0.  1.
          1    1    1    2  502    0 -0.69236782384E+02 -0.31783464262E+02 -0.16622534368E+04  0.16639983199E+04  0.00000000000E+00 0. -1.
          1    1    1    2  503    0 -0.51369455919E+02 -0.24345953041E+02  0.24093146062E+03  0.24754699584E+03  0.00000000000E+00 0. -1.
<mgrwt>
<rscale>  0 0.65881303E+02</rscale>
<asrwt>0</asrwt>
<pdfrwt beam="1">  1        2 0.79246996E-01 0.56846692E+02</pdfrwt>
<pdfrwt beam="2">  1        2 0.46868295E+00 0.76351780E+02</pdfrwt>
<totfact> 0.22978395E+01</totfact>
</mgrwt>
</event>
<event>
13    1  0.2038932E-008  0.8740233E+02  0.7546771E-02  0.1347630E+00
          2   -1    0    0  502    0  0.00000000000E+00  0.00000000000E+00  0.22696902970E+04  0.22696902970E+04  0.00000000000E+00 0. -1.
          2   -1    0    0  503    0 -0.00000000000E+00 -0.00000000000E+00 -0.25889929164E+03  0.25889929164E+03  0.00000000000E+00 0. -1.
         24    2    1    2    0    0 -0.35804109232E+01  0.17638532102E+02 -0.14301348378E+03  0.16424184845E+03  0.78731131607E+02 0.  0.
         25    2    1    2    0    0 -0.14876301995E+03 -0.13077190401E+03  0.55490372708E+03  0.60230619605E+03  0.12499152164E+03 0.  0.
         24    2    1    2    0    0  0.14520117398E+03  0.71499355987E+02  0.49677960667E+03  0.52898375221E+03  0.82693975961E+02 0.  0.
        -11    1    3    3    0    0 -0.38527104227E+02  0.23061534302E+02 -0.70880461590E+02  0.83905970941E+02  0.00000000000E+00 0.  1.
         12    1    3    3    0    0  0.34946693303E+02 -0.54230021999E+01 -0.72133022186E+02  0.80335877511E+02  0.00000000000E+00 0. -1.
        -13    1    5    5    0    0  0.11001867250E+03  0.87613810005E+02  0.42142043692E+03  0.44426959457E+03  0.00000000000E+00 0.  1.
         14    1    5    5    0    0  0.35182501484E+02 -0.16114454017E+02  0.75359169751E+02  0.84714157639E+02  0.00000000000E+00 0. -1.
          5    1    4    4  501    0 -0.98847822407E+02 -0.13404409505E+03  0.50381801633E+03  0.53065374303E+03  0.47000000000E+01 0. -1.
         -5    1    4    4    0  501 -0.49915197546E+02  0.32721910374E+01  0.51085710750E+02  0.71652453015E+02  0.47000000000E+01 0. -1.
          1    1    1    2  502    0  0.54171788401E+02 -0.30796005815E+02  0.11378822902E+04  0.11395872423E+04  0.00000000000E+00 0. -1.
          1    1    1    2  503    0 -0.47029531509E+02  0.72430021736E+02 -0.35761134777E+02  0.93470549603E+02  0.00000000000E+00 0. -1.
<mgrwt>
<rscale>  0 0.73799380E+02</rscale>
<asrwt>0</asrwt>
<pdfrwt beam="1">  1        2 0.33377797E+00 0.62313535E+02</pdfrwt>
<pdfrwt beam="2">  1        2 0.38073427E-01 0.87402334E+02</pdfrwt>
<totfact> 0.14810325E+02</totfact>
</mgrwt>
</event>
<event>
13    1  0.2038932E-008  0.1060188E+03  0.7546771E-02  0.1362624E+00
          2   -1    0    0  503    0  0.00000000000E+00  0.00000000000E+00  0.15742038306E+04  0.15742038306E+04  0.00000000000E+00 0. -1.
          2   -1    0    0  502    0 -0.00000000000E+00 -0.00000000000E+00 -0.47197376876E+04  0.47197376876E+04  0.00000000000E+00 0. -1.
         24    2    1    2    0    0  0.27054880209E+03 -0.23482911414E+03 -0.12870790285E+04  0.13385726497E+04  0.82842898963E+02 0.  0.
         25    2    1    2    0    0  0.11272016720E+03 -0.21684361946E+02  0.20567222242E+03  0.26665066696E+03  0.12500186985E+03 0.  0.
         24    2    1    2    0    0 -0.43926155438E+03  0.37206322113E+03 -0.10997105857E+04  0.12440131506E+04  0.82605040809E+02 0.  0.
        -11    1    5    5    0    0 -0.79004925700E+02  0.11207553038E+03 -0.27185188909E+03  0.30447685035E+03  0.00000000000E+00 0.  1.
         12    1    5    5    0    0 -0.36025662868E+03  0.25998769076E+03 -0.82785869662E+03  0.93953630021E+03  0.00000000000E+00 0. -1.
        -13    1    3    3    0    0  0.71061564038E+02 -0.42200149564E+02 -0.19410742021E+03  0.21096987720E+03  0.00000000000E+00 0.  1.
         14    1    3    3    0    0  0.19948723805E+03 -0.19262896457E+03 -0.10929716082E+04  0.11276027725E+04  0.00000000000E+00 0. -1.
          5    1    4    4  501    0  0.11549628077E+03 -0.52206925122E+02  0.19726908899E+03  0.23452534484E+03  0.47000000000E+01 0.  1.
         -5    1    4    4    0  501 -0.27761135710E+01  0.30522563176E+02  0.84031334302E+01  0.32125322113E+02  0.47000000000E+01 0.  1.
          1    1    1    2  502    0  0.44079117594E+02 -0.10216089209E+02 -0.22020626413E+04  0.22025274603E+04  0.00000000000E+00 0. -1.
          1    1    1    2  503    0  0.11913467496E+02 -0.10533365584E+03  0.12376461760E+04  0.12421775907E+04  0.00000000000E+00 0. -1.
<mgrwt>
<rscale>  0 0.69261016E+02</rscale>
<asrwt>0</asrwt>
<pdfrwt beam="1">  1        2 0.23150056E+00 0.10601884E+03</pdfrwt>
<pdfrwt beam="2">  1        2 0.69407907E+00 0.45247509E+02</pdfrwt>
<totfact> 0.59288123E-01</totfact>
</mgrwt>
</event>
<event>
13    1  0.2038932E-008  0.4361580E+02  0.7546771E-02  0.1494707E+00
          4   -1    0    0  503    0 -0.00000000000E+00  0.00000000000E+00  0.12035991812E+04  0.12035991812E+04  0.00000000000E+00 0. -1.
          2   -1    0    0  502    0  0.00000000000E+00 -0.00000000000E+00 -0.21010327636E+04  0.21010327636E+04  0.00000000000E+00 0. -1.
         24    2    1    2    0    0  0.71997278495E+03  0.60028963927E+01  0.68198100258E+03  0.99491807561E+03  0.79793755805E+02 0.  0.
         25    2    1    2    0    0 -0.60720301343E+03  0.15058750322E+03 -0.13208689250E+04  0.14668600964E+04  0.12494690736E+03 0.  0.
         24    2    1    2    0    0 -0.10395107493E+03 -0.18583777585E+03  0.12941946319E+03  0.26714698378E+03  0.96315152368E+02 0.  0.
        -11    1    3    3    0    0  0.21578186829E+03  0.27798771011E+02  0.17085798066E+03  0.27663520366E+03  0.00000000000E+00 0.  1.
         12    1    3    3    0    0  0.50419091666E+03 -0.21795874618E+02  0.51112302193E+03  0.71828287195E+03  0.00000000000E+00 0. -1.
        -11    1    5    5    0    0 -0.67106269375E+02 -0.49481864875E+02  0.85036063368E+02  0.11909172269E+03  0.00000000000E+00 0.  1.
         12    1    5    5    0    0 -0.36844805553E+02 -0.13635591098E+03  0.44383399825E+02  0.14805526108E+03  0.00000000000E+00 0. -1.
          5    1    4    4  501    0 -0.40807012099E+03  0.55167936742E+02 -0.76662603563E+03  0.87023117239E+03  0.47000000000E+01 0.  1.
         -5    1    4    4    0  501 -0.19913289244E+03  0.95419566482E+02 -0.55424288941E+03  0.59662892402E+03  0.47000000000E+01 0.  1.
          1    1    1    2  502    0 -0.42924242634E+02  0.78849390940E+01 -0.47647916736E+03  0.47847367723E+03  0.00000000000E+00 0. -1.
          3    1    1    2  503    0  0.34105546045E+02  0.21362437140E+02  0.88514044210E+02  0.97233111716E+02  0.00000000000E+00 0. -1.
<mgrwt>
<rscale>  0 0.41895750E+02</rscale>
<asrwt>0</asrwt>
<pdfrwt beam="2">  1        2 0.30897540E+00 0.43615798E+02</pdfrwt>
<pdfrwt beam="1">  1        4 0.17699988E+00 0.40243534E+02</pdfrwt>
<totfact> 0.96306019E-01</totfact>
</mgrwt>
</event>
<event>
13    1  0.2038932E-008  0.1124049E+03  0.7546771E-02  0.1295173E+00
          2   -1    0    0  503    0  0.00000000000E+00  0.00000000000E+00  0.24756398344E+04  0.24756398344E+04  0.00000000000E+00 0. -1.
          2   -1    0    0  502    0 -0.00000000000E+00 -0.00000000000E+00 -0.13972245998E+04  0.13972245998E+04  0.00000000000E+00 0. -1.
         24    2    1    2    0    0 -0.15887473739E+00 -0.13874177641E+03 -0.28012488537E+03  0.32301330398E+03  0.81353164573E+02 0.  0.
         25    2    1    2    0    0  0.38861332803E+02  0.17153677249E+03  0.11017243172E+04  0.11226559452E+04  0.12499933121E+03 0.  0.
         24    2    1    2    0    0  0.20854831826E+02 -0.56279521698E+02  0.10164173178E+04  0.10213400447E+04  0.80181134238E+02 0.  0.
        -11    1    5    5    0    0  0.50251659090E+02 -0.27239728835E+02  0.67906464351E+03  0.68146608290E+03  0.00000000000E+00 0.  1.
         12    1    5    5    0    0 -0.29396827264E+02 -0.29039792862E+02  0.33735267431E+03  0.33987396177E+03  0.00000000000E+00 0. -1.
        -13    1    3    3    0    0  0.23968190789E+02 -0.60484857798E+01 -0.30263050775E+02  0.39075703348E+02  0.00000000000E+00 0.  1.
         14    1    3    3    0    0 -0.24127065526E+02 -0.13269329063E+03 -0.24986183459E+03  0.28393760064E+03  0.00000000000E+00 0. -1.
          5    1    4    4  501    0 -0.21143656485E+02  0.13005759810E+03  0.52434606300E+03  0.54066895307E+03  0.47000000000E+01 0.  1.
         -5    1    4    4    0  501  0.60004989288E+02  0.41479174398E+02  0.57737825419E+03  0.58198699217E+03  0.47000000000E+01 0.  1.
          1    1    1    2  502    0 -0.50843629763E+02  0.10034722308E+03 -0.10751216923E+04  0.10809908849E+04  0.00000000000E+00 0. -1.
          1    1    1    2  503    0 -0.87136601291E+01 -0.76862697466E+02  0.31552017732E+03  0.32486425539E+03  0.00000000000E+00 0. -1.
<mgrwt>
<rscale>  0 0.93247431E+02</rscale>
<asrwt>0</asrwt>
<pdfrwt beam="1">  1        2 0.36406468E+00 0.77355039E+02</pdfrwt>
<pdfrwt beam="2">  1        2 0.20547421E+00 0.11240487E+03</pdfrwt>
<totfact> 0.15470462E+01</totfact>
</mgrwt>
</event>
<event>
13    1  0.2038932E-008  0.1814081E+03  0.7546771E-02  0.1351987E+00
          2   -1    0    0  503    0  0.00000000000E+00  0.00000000000E+00  0.21082647207E+04  0.21082647207E+04  0.00000000000E+00 0. -1.
          2   -1    0    0  502    0 -0.00000000000E+00 -0.00000000000E+00 -0.17190857710E+04  0.17190857710E+04  0.00000000000E+00 0. -1.
         24    2    1    2    0    0 -0.38354809815E+02 -0.45178541395E+02  0.22068259202E+02  0.10302217946E+03  0.81328773250E+02 0.  0.
         25    2    1    2    0    0 -0.49987515093E+02  0.16349209853E+03 -0.44877286545E+03  0.49623593706E+03  0.12499841006E+03 0.  0.
         24    2    1    2    0    0 -0.54545257297E+02 -0.57136332210E+02 -0.13979434254E+03  0.18094330740E+03  0.83416285793E+02 0.  0.
        -11    1    3    3    0    0  0.46744637859E+01 -0.37690050439E+02  0.40584591136E+02  0.55583266830E+02  0.00000000000E+00 0.  1.
         12    1    3    3    0    0 -0.43029273601E+02 -0.74884909553E+01 -0.18516331934E+02  0.47438912632E+02  0.00000000000E+00 0. -1.
        -13    1    5    5    0    0  0.24811180288E+01 -0.48833990101E+02 -0.31192492234E+02  0.57999018161E+02  0.00000000000E+00 0.  1.
         14    1    5    5    0    0 -0.57026375326E+02 -0.83023421093E+01 -0.10860185030E+03  0.12294428924E+03  0.00000000000E+00 0. -1.
          5    1    4    4  501    0 -0.13308473256E+02 -0.27007369829E+01 -0.16268830404E+03  0.16332171843E+03  0.47000000000E+01 0.  1.
         -5    1    4    4    0  501 -0.36679041838E+02  0.16619283551E+03 -0.28608456141E+03  0.33291421863E+03  0.47000000000E+01 0.  1.
          1    1    1    2  502    0 -0.19063701830E+02  0.21756336782E+02 -0.10413989820E+04  0.10418006539E+04  0.00000000000E+00 0. -1.
          1    1    1    2  503    0  0.16195128404E+03 -0.82933561705E+02  0.19970768805E+04  0.20053484138E+04  0.00000000000E+00 0. -1.
<mgrwt>
<rscale>  0 0.72440082E+02</rscale>
<asrwt>0</asrwt>
<pdfrwt beam="1">  1        2 0.31003893E+00 0.18140809E+03</pdfrwt>
<pdfrwt beam="2">  1        2 0.25280673E+00 0.28926855E+02</pdfrwt>
<totfact> 0.16739338E+01</totfact>
</mgrwt>
</event>
<event>
13    1  0.2038932E-008  0.1921239E+03  0.7546771E-02  0.1271636E+00
          2   -1    0    0  503    0  0.00000000000E+00  0.00000000000E+00  0.16255578617E+04  0.16255578617E+04  0.00000000000E+00 0. -1.
          2   -1    0    0  502    0 -0.00000000000E+00 -0.00000000000E+00 -0.40635821844E+03  0.40635821844E+03  0.00000000000E+00 0. -1.
         24    2    1    2    0    0 -0.19211302821E+03  0.26808218460E+02 -0.14821602117E+03  0.25701990517E+03  0.80406134953E+02 0.  0.
         25    2    1    2    0    0  0.48672834571E+03 -0.34871444694E+02  0.66575033694E+03  0.83484551027E+03  0.12499205852E+03 0.  0.
         24    2    1    2    0    0 -0.11820068783E+03  0.10398043797E+03  0.48095766591E+03  0.51230023903E+03  0.79673862913E+02 0.  0.
        -11    1    5    5    0    0 -0.49311122679E+02  0.67986107160E+02  0.14591020542E+03  0.16835523643E+03  0.00000000000E+00 0.  1.
         12    1    5    5    0    0 -0.68889565153E+02  0.35994330812E+02  0.33504746049E+03  0.34394500260E+03  0.00000000000E+00 0. -1.
        -13    1    3    3    0    0 -0.16458805611E+03 -0.62963188090E+01 -0.10140644476E+03  0.19342217785E+03  0.00000000000E+00 0.  1.
         14    1    3    3    0    0 -0.27524972097E+02  0.33104537269E+02 -0.46809576411E+02  0.63597727322E+02  0.00000000000E+00 0. -1.
          5    1    4    4  501    0  0.81562337307E+01  0.12825823482E+00  0.66366315084E+02  0.67030727108E+02  0.47000000000E+01 0.  1.
         -5    1    4    4    0  501  0.47857211198E+03 -0.34999702929E+02  0.59938402186E+03  0.76781478316E+03  0.47000000000E+01 0.  1.
          1    1    1    2  502    0 -0.36069598696E+02  0.43554438205E+02 -0.61205857154E+02  0.83331638574E+02  0.00000000000E+00 0. -1.
          1    1    1    2  503    0 -0.14034503098E+03 -0.13947164994E+03  0.28191351869E+03  0.34441878706E+03  0.00000000000E+00 0. -1.
<mgrwt>
<rscale>  0 0.10423427E+03</rscale>
<asrwt>0</asrwt>
<pdfrwt beam="1">  1        2 0.23905262E+00 0.19212394E+03</pdfrwt>
<pdfrwt beam="2">  1        2 0.59758562E-01 0.56550907E+02</pdfrwt>
<totfact> 0.16968047E+02</totfact>
</mgrwt>
</event>
<event>
13    1  0.2038932E-008  0.9200167E+02  0.7546771E-02  0.1385238E+00
          2   -1    0    0  503    0  0.00000000000E+00  0.00000000000E+00  0.11106347039E+04  0.11106347039E+04  0.00000000000E+00 0. -1.
          2   -1    0    0  502    0 -0.00000000000E+00 -0.00000000000E+00 -0.16844647276E+04  0.16844647276E+04  0.00000000000E+00 0. -1.
         24    2    1    2    0    0  0.18698289208E+03 -0.12045209305E+03 -0.58853942091E+03  0.63404099669E+03  0.78473096473E+02 0.  0.
         25    2    1    2    0    0 -0.17650776808E+03  0.22079387224E+03  0.26140320776E+02  0.31018334853E+03  0.12500186849E+03 0.  0.
         24    2    1    2    0    0 -0.50156645292E+02 -0.31262307419E+02 -0.57238624232E+02  0.11453570905E+03  0.79681538710E+02 0.  0.
        -11    1    3    3    0    0  0.28236977940E+02  0.10262667893E+02 -0.83565561778E+02  0.88802321989E+02  0.00000000000E+00 0.  1.
         12    1    3    3    0    0  0.15874591414E+03 -0.13071476094E+03 -0.50497385913E+03  0.54523867470E+03  0.00000000000E+00 0. -1.
        -13    1    5    5    0    0  0.50953979415E+01  0.14508417746E+02 -0.36876978333E+02  0.39954584176E+02  0.00000000000E+00 0.  1.
         14    1    5    5    0    0 -0.55252043233E+02 -0.45770725165E+02 -0.20361645899E+02  0.74581124873E+02  0.00000000000E+00 0. -1.
          5    1    4    4  501    0 -0.15825268302E+03  0.18877314533E+03  0.66631030084E+02  0.25522734228E+03  0.47000000000E+01 0.  1.
         -5    1    4    4    0  501 -0.18255085059E+02  0.32020726916E+02 -0.40490709308E+02  0.54956006251E+02  0.47000000000E+01 0.  1.
          1    1    1    2  502    0  0.78088234274E+02 -0.49112889507E+02 -0.84222016537E+03  0.84725713642E+03  0.00000000000E+00 0. -1.
          1    1    1    2  503    0 -0.38406712983E+02 -0.19966582273E+02  0.88802786605E+03  0.88908224079E+03  0.00000000000E+00 0. -1.
<mgrwt>
<rscale>  0 0.63106660E+02</rscale>
<asrwt>0</asrwt>
<pdfrwt beam="1">  1        2 0.16332863E+00 0.43286719E+02</pdfrwt>
<pdfrwt beam="2">  1        2 0.24771540E+00 0.92001673E+02</pdfrwt>
<totfact> 0.54454756E+01</totfact>
</mgrwt>
</event>
<event>
13    1  0.2038932E-008  0.8480124E+02  0.7546771E-02  0.1316248E+00
          2   -1    0    0  502    0  0.00000000000E+00  0.00000000000E+00  0.65188333768E+03  0.65188333768E+03  0.00000000000E+00 0. -1.
          2   -1    0    0  503    0 -0.00000000000E+00 -0.00000000000E+00 -0.24530685178E+04  0.24530685178E+04  0.00000000000E+00 0. -1.
         24    2    1    2    0    0 -0.46993423545E+01  0.51070002852E+00 -0.14841945224E+03  0.16651959216E+03  0.75353142851E+02 0.  0.
         25    2    1    2    0    0 -0.21271841339E+03  0.40604779986E+02 -0.10377246995E+04  0.10674245073E+04  0.12499862090E+03 0.  0.
         24    2    1    2    0    0  0.57200374737E+02  0.17146284491E+02  0.36704126868E+03  0.38048828072E+03  0.80536705326E+02 0.  0.
        -13    1    3    3    0    0 -0.22612961748E+02 -0.23448226809E+02 -0.12307026933E+03  0.12730850943E+03  0.00000000000E+00 0.  1.
         14    1    3    3    0    0  0.17913619393E+02  0.23958926838E+02 -0.25349182905E+02  0.39211082731E+02  0.00000000000E+00 0. -1.
        -13    1    5    5    0    0  0.26346840076E+02  0.39098337690E+02  0.29834363117E+03  0.30204595387E+03  0.00000000000E+00 0.  1.
         14    1    5    5    0    0  0.30853534662E+02 -0.21952053199E+02  0.68697637518E+02  0.78442326848E+02  0.00000000000E+00 0. -1.
          5    1    4    4  501    0 -0.17103042643E+03  0.21868030202E+02 -0.52421228285E+03  0.55186069347E+03  0.47000000000E+01 0.  1.
         -5    1    4    4    0  501 -0.41687986965E+02  0.18736749783E+02 -0.51351241669E+03  0.51556381385E+03  0.47000000000E+01 0.  1.
          1    1    1    2  502    0  0.64086242315E+02 -0.55554020498E+02  0.24521088410E+03  0.25946420433E+03  0.00000000000E+00 0. -1.
          1    1    1    2  503    0  0.96131138693E+02 -0.27077440068E+01 -0.12272931811E+04  0.12310552709E+04  0.00000000000E+00 0. -1.
<mgrwt>
<rscale>  0 0.84688811E+02</rscale>
<asrwt>0</asrwt>
<pdfrwt beam="1">  1        2 0.95865196E-01 0.84801237E+02</pdfrwt>
<pdfrwt beam="2">  1        2 0.36074537E+00 0.84576533E+02</pdfrwt>
<totfact> 0.43552263E+01</totfact>
</mgrwt>
</event>
<event>
13    1  0.2038932E-008  0.1223867E+03  0.7546771E-02  0.1272569E+00
          2   -1    0    0  502    0  0.00000000000E+00  0.00000000000E+00  0.50648726291E+03  0.50648726291E+03  0.00000000000E+00 0. -1.
          2   -1    0    0  503    0 -0.00000000000E+00 -0.00000000000E+00 -0.25499985434E+04  0.25499985434E+04  0.00000000000E+00 0. -1.
         24    2    1    2    0    0 -0.10924129019E+03  0.16962274112E+03 -0.18252759598E+04  0.18381567137E+04  0.80512365415E+02 0.  0.
         25    2    1    2    0    0  0.78063985360E+02 -0.76751846997E+02  0.97654674857E+02  0.19273372597E+03  0.12500008711E+03 0.  0.
         24    2    1    2    0    0 -0.86435513643E+02  0.85527402214E+01 -0.19194790273E+03  0.22470197184E+03  0.78119980828E+02 0.  0.
        -11    1    3    3    0    0  0.64844946015E+01 -0.46483335122E+01 -0.59802390560E+02  0.60332259956E+02  0.00000000000E+00 0.  1.
         12    1    3    3    0    0 -0.11572578479E+03  0.17427107463E+03 -0.17654735692E+04  0.17778244538E+04  0.00000000000E+00 0. -1.
        -13    1    5    5    0    0  0.92184790533E+00 -0.23535266562E+02 -0.44283948059E+02  0.50158016622E+02  0.00000000000E+00 0.  1.
         14    1    5    5    0    0 -0.87357361548E+02  0.32088006783E+02 -0.14766395467E+03  0.17454395522E+03  0.00000000000E+00 0. -1.
          5    1    4    4  501    0  0.29961496685E+02 -0.90148468704E+02  0.10541631907E+03  0.14198284410E+03  0.47000000000E+01 0. -1.
         -5    1    4    4    0  501  0.48102488676E+02  0.13396621706E+02 -0.77616442108E+01  0.50750881872E+02  0.47000000000E+01 0. -1.
          1    1    1    2  502    0  0.86068447619E+02  0.18237017267E+02  0.32422787382E+03  0.33595249759E+03  0.00000000000E+00 0. -1.
          1    1    1    2  503    0  0.31544370850E+02 -0.11966065161E+03 -0.44816996666E+03  0.46494089720E+03  0.00000000000E+00 0. -1.
<mgrwt>
<rscale>  0 0.10376658E+03</rscale>
<asrwt>0</asrwt>
<pdfrwt beam="1">  1        2 0.74483420E-01 0.87979353E+02</pdfrwt>
<pdfrwt beam="2">  1        2 0.37499979E+00 0.12238670E+03</pdfrwt>
<totfact> 0.48979669E+01</totfact>
</mgrwt>
</event>
<event>
13    1  0.2038932E-008  0.9113977E+02  0.7546771E-02  0.1363562E+00
          2   -1    0    0  503    0  0.00000000000E+00  0.00000000000E+00  0.10783260751E+04  0.10783260751E+04  0.00000000000E+00 0. -1.
          2   -1    0    0  502    0 -0.00000000000E+00 -0.00000000000E+00 -0.69194671841E+03  0.69194671841E+03  0.00000000000E+00 0. -1.
         24    2    1    2    0    0 -0.31372638301E+02  0.17225516008E+03 -0.19705199043E+02  0.19253614991E+03  0.77625972091E+02 0.  0.
         25    2    1    2    0    0  0.15025470377E+03 -0.13971058417E+03  0.13942871359E+03  0.27776381934E+03  0.12496739505E+03 0.  0.
         24    2    1    2    0    0  0.34345794169E+02 -0.40200330004E+02 -0.47725504301E+02  0.10730184782E+03  0.80251247195E+02 0.  0.
        -11    1    3    3    0    0 -0.31083841866E+02  0.31199345632E+02  0.16294517239E+02  0.46958659319E+02  0.00000000000E+00 0.  1.
         12    1    3    3    0    0 -0.28879643492E+00  0.14105581445E+03 -0.35999716282E+02  0.14557749059E+03  0.00000000000E+00 0. -1.
        -11    1    5    5    0    0  0.19503681270E+02 -0.61002724592E+02 -0.50551646803E+02  0.81591635510E+02  0.00000000000E+00 0.  1.
         12    1    5    5    0    0  0.14842112898E+02  0.20802394587E+02  0.28261425018E+01  0.25710212315E+02  0.00000000000E+00 0. -1.
          5    1    4    4  501    0  0.51748202457E+02 -0.63535130767E+01  0.90991617955E+02  0.10497527387E+03  0.47000000000E+01 0. -1.
         -5    1    4    4    0  501  0.98506501312E+02 -0.13335707109E+03  0.48437095638E+02  0.17278854547E+03  0.47000000000E+01 0. -1.
          1    1    1    2  502    0 -0.10252737357E+03 -0.48626617726E+01 -0.43222248624E+03  0.44424293514E+03  0.00000000000E+00 0. -1.
          1    1    1    2  503    0 -0.50700486070E+02  0.12518415863E+02  0.74660383268E+03  0.74842804129E+03  0.00000000000E+00 0. -1.
<mgrwt>
<rscale>  0 0.68989850E+02</rscale>
<asrwt>0</asrwt>
<pdfrwt beam="1">  1        2 0.15857736E+00 0.52223079E+02</pdfrwt>
<pdfrwt beam="2">  1        2 0.10175687E+00 0.91139768E+02</pdfrwt>
<totfact> 0.19801220E+02</totfact>
</mgrwt>
</event>
<event>
13    1  0.2038932E-008  0.1962171E+03  0.7546771E-02  0.1223035E+00
          2   -1    0    0  502    0  0.00000000000E+00  0.00000000000E+00  0.32018786612E+04  0.32018786612E+04  0.00000000000E+00 0. -1.
          2   -1    0    0  503    0 -0.00000000000E+00 -0.00000000000E+00 -0.87229984780E+03  0.87229984780E+03  0.00000000000E+00 0. -1.
         24    2    1    2    0    0 -0.92929734743E+02  0.12801478574E+02 -0.12202968873E+03  0.17631357841E+03  0.85996625218E+02 0.  0.
         25    2    1    2    0    0 -0.44501257488E+02 -0.39501829648E+03  0.78378474187E+03  0.88767317214E+03  0.12500128995E+03 0.  0.
         24    2    1    2    0    0 -0.16930209487E+01  0.17912418446E+03  0.94496343897E+03  0.96559078553E+03  0.85564737672E+02 0.  0.
        -13    1    5    5    0    0 -0.83834856557E+01  0.81613997313E+02  0.64275599603E+03  0.64797098532E+03  0.00000000000E+00 0.  1.
         14    1    5    5    0    0  0.66904647069E+01  0.97510187142E+02  0.30220744295E+03  0.31761980021E+03  0.00000000000E+00 0. -1.
        -13    1    3    3    0    0 -0.94636590895E+02 -0.67857523957E+01 -0.62485068216E+02  0.11360684188E+03  0.00000000000E+00 0.  1.
         14    1    3    3    0    0  0.17068561514E+01  0.19587230970E+02 -0.59544620510E+02  0.62706736534E+02  0.00000000000E+00 0. -1.
          5    1    4    4  501    0  0.30199324343E+02 -0.26143294179E+03  0.47732290776E+03  0.54508570933E+03  0.47000000000E+01 0.  1.
         -5    1    4    4    0  501 -0.74700581830E+02 -0.13358535469E+03  0.30646183410E+03  0.34258746281E+03  0.47000000000E+01 0.  1.
          1    1    1    2  502    0 -0.54166520803E+01  0.19405233713E+03  0.13688650520E+04  0.13825618178E+04  0.00000000000E+00 0. -1.
          1    1    1    2  503    0  0.14454066526E+03  0.90402963211E+01 -0.64600473064E+03  0.66203915510E+03  0.00000000000E+00 0. -1.
<mgrwt>
<rscale>  0 0.13302478E+03</rscale>
<asrwt>0</asrwt>
<pdfrwt beam="1">  1        2 0.47086450E+00 0.19621707E+03</pdfrwt>
<pdfrwt beam="2">  1        2 0.12827939E+00 0.90183756E+02</pdfrwt>
<totfact> 0.11065541E+01</totfact>
</mgrwt>
</event>
<event>
13    1  0.2038932E-008  0.2076124E+03  0.7546771E-02  0.1173612E+00
         -3   -1    0    0    0  501 -0.00000000000E+00  0.00000000000E+00  0.42694083193E+03  0.42694083193E+03  0.00000000000E+00 0.  1.
          2   -1    0    0  503    0  0.00000000000E+00 -0.00000000000E+00 -0.18627023472E+04  0.18627023472E+04  0.00000000000E+00 0. -1.
         24    2    1    2    0    0 -0.10459211111E+03  0.18114996320E+02 -0.66394128905E+02  0.14899909313E+03  0.80776770186E+02 0.  0.
         25    2    1    2    0    0  0.54378335834E+02 -0.39847096934E+03 -0.13781121527E+04  0.14410251286E+04  0.12499679620E+03 0.  0.
         24    2    1    2    0    0  0.44555649745E+02 -0.37877042956E+01  0.11976730669E+03  0.15103321736E+03  0.80419353188E+02 0.  0.
        -13    1    5    5    0    0 -0.41524925837E+01  0.27600186984E+02  0.67321446370E+02  0.72877916117E+02  0.00000000000E+00 0.  1.
         14    1    5    5    0    0  0.48708142329E+02 -0.31387891279E+02  0.52445860316E+02  0.78155301243E+02  0.00000000000E+00 0. -1.
        -13    1    3    3    0    0 -0.35162134204E+01  0.72037662446E+01  0.16159959143E+02  0.18038910289E+02  0.00000000000E+00 0.  1.
         14    1    3    3    0    0 -0.10107589769E+03  0.10911230076E+02 -0.82554088049E+02  0.13096018284E+03  0.00000000000E+00 0. -1.
          5    1    4    4  502    0 -0.43229484604E+01 -0.61122813296E+02 -0.96152447414E+02  0.11411428189E+03  0.47000000000E+01 0. -1.
         -5    1    4    4    0  502  0.58701284294E+02 -0.33734815604E+03 -0.12819597052E+04  0.13269108467E+04  0.47000000000E+01 0. -1.
          1    1    1    2  503    0  0.18392906106E+03  0.22265394550E+03 -0.10708739767E+03  0.30801361933E+03  0.00000000000E+00 0. -1.
         -4    1    1    2    0  501 -0.17827093552E+03  0.16148973181E+03 -0.39351427386E+01  0.24057212075E+03  0.00000000000E+00 0.  1.
<mgrwt>
<rscale>  0 0.17412645E+03</rscale>
<asrwt>0</asrwt>
<pdfrwt beam="2">  1        2 0.27392682E+00 0.20761239E+03</pdfrwt>
<pdfrwt beam="1">  1       -3 0.62785415E-01 0.14604148E+03</pdfrwt>
<totfact> 0.15260410E+01</totfact>
</mgrwt>
</event>
<event>
13    1  0.2038932E-008  0.1974536E+03  0.7546771E-02  0.1195061E+00
          2   -1    0    0  502    0  0.00000000000E+00  0.00000000000E+00  0.25277532013E+04  0.25277532013E+04  0.00000000000E+00 0. -1.
          2   -1    0    0  503    0 -0.00000000000E+00 -0.00000000000E+00 -0.85554194104E+03  0.85554194104E+03  0.00000000000E+00 0. -1.
         24    2    1    2    0    0 -0.25599060188E+03 -0.32307767571E+02 -0.33487800277E+03  0.43066023030E+03  0.82158244387E+02 0.  0.
         25    2    1    2    0    0  0.37206866489E+03  0.10833009540E+03  0.32715467237E+03  0.52232669123E+03  0.12499796702E+03 0.  0.
         24    2    1    2    0    0  0.66463644691E+02  0.10295238115E+03 -0.78762816264E+01  0.14698720351E+03  0.80787333986E+02 0.  0.
        -11    1    5    5    0    0  0.84192922355E+02  0.71501841157E+02 -0.93551110105E+01  0.11085341477E+03  0.00000000000E+00 0.  1.
         12    1    5    5    0    0 -0.17729277665E+02  0.31450539993E+02  0.14788293841E+01  0.36133788740E+02  0.00000000000E+00 0. -1.
        -11    1    3    3    0    0 -0.88988672713E+01 -0.12989113237E+02 -0.53131999130E+02  0.55415848211E+02  0.00000000000E+00 0.  1.
         12    1    3    3    0    0 -0.24709173461E+03 -0.19318654334E+02 -0.28174600364E+03  0.37524438209E+03  0.00000000000E+00 0. -1.
          5    1    4    4  501    0  0.21544202784E+03  0.57762124884E+02  0.10706101375E+03  0.24745884727E+03  0.47000000000E+01 0. -1.
         -5    1    4    4    0  501  0.15662663705E+03  0.50567970518E+02  0.22009365862E+03  0.27486784396E+03  0.47000000000E+01 0. -1.
          1    1    1    2  502    0  0.10912370994E+02 -0.12038225827E+03  0.19491720155E+04  0.19529164124E+04  0.00000000000E+00 0. -1.
          1    1    1    2  503    0 -0.19345407869E+03 -0.58592450711E+02 -0.26136114312E+03  0.33040460496E+03  0.00000000000E+00 0. -1.
<mgrwt>
<rscale>  0 0.15449066E+03</rscale>
<asrwt>0</asrwt>
<pdfrwt beam="1">  1        2 0.37172841E+00 0.12087584E+03</pdfrwt>
<pdfrwt beam="2">  1        2 0.12581499E+00 0.19745357E+03</pdfrwt>
<totfact> 0.26884265E+01</totfact>
</mgrwt>
</event>
<event>
13    1  0.2038932E-008  0.1901129E+03  0.7546771E-02  0.1198803E+00
          2   -1    0    0  503    0  0.00000000000E+00  0.00000000000E+00  0.28914485209E+04  0.28914485209E+04  0.00000000000E+00 0. -1.
         -1   -1    0    0    0  501 -0.00000000000E+00 -0.00000000000E+00 -0.56449866215E+03  0.56449866215E+03  0.00000000000E+00 0.  1.
         24    2    1    2    0    0 -0.25837893251E+02  0.12416817946E+03  0.21331483619E+03  0.26033915365E+03  0.78663346392E+02 0.  0.
         25    2    1    2    0    0  0.31852834442E+03 -0.20233288314E+03  0.66035779009E+01  0.39757487402E+03  0.12499308546E+03 0.  0.
         24    2    1    2    0    0  0.34974721422E+02  0.81360386830E+02  0.15592493902E+03  0.19500492859E+03  0.76626313249E+02 0.  0.
        -13    1    5    5    0    0 -0.77647302991E+01  0.72287582746E+02  0.86750947701E+02  0.11318795246E+03  0.00000000000E+00 0.  1.
         14    1    5    5    0    0  0.42739451721E+02  0.90728040839E+01  0.69173991316E+02  0.81816976124E+02  0.00000000000E+00 0. -1.
        -13    1    3    3    0    0 -0.28015171751E+02  0.41083564163E+01  0.52376537725E+02  0.59540155733E+02  0.00000000000E+00 0.  1.
         14    1    3    3    0    0  0.21772784998E+01  0.12005982304E+03  0.16093829846E+03  0.20079899791E+03  0.00000000000E+00 0. -1.
          5    1    4    4  502    0  0.29152585902E+03 -0.21786002627E+03 -0.50075785902E+01  0.36400203758E+03  0.47000000000E+01 0. -1.
         -5    1    4    4    0  502  0.27002485402E+02  0.15527143124E+02  0.11611156491E+02  0.33572836438E+02  0.47000000000E+01 0. -1.
          1    1    1    2  503    0 -0.14530018154E+03 -0.24372604493E+02  0.22486132153E+04  0.22534346138E+04  0.00000000000E+00 0. -1.
         -2    1    1    2    0  501 -0.18236499105E+03  0.21176921344E+02 -0.29750670966E+03  0.34959361300E+03  0.00000000000E+00 0.  1.
<mgrwt>
<rscale>  0 0.15136729E+03</rscale>
<asrwt>0</asrwt>
<pdfrwt beam="1">  1        2 0.42521301E+00 0.12051818E+03</pdfrwt>
<pdfrwt beam="2">  1       -1 0.83014510E-01 0.19011286E+03</pdfrwt>
<totfact> 0.56612783E+00</totfact>
</mgrwt>
</event>
<event>
13    1  0.2038932E-008  0.7472758E+02  0.7546771E-02  0.1373511E+00
          2   -1    0    0  502    0  0.00000000000E+00  0.00000000000E+00  0.27922633096E+04  0.27922633096E+04  0.00000000000E+00 0. -1.
          2   -1    0    0  503    0 -0.00000000000E+00 -0.00000000000E+00 -0.32724049644E+04  0.32724049644E+04  0.00000000000E+00 0. -1.
         24    2    1    2    0    0  0.17239394227E+03  0.46325108120E+02 -0.25898044416E+03  0.32126356474E+03  0.65373699581E+02 0.  0.
         25    2    1    2    0    0  0.45336767337E+03 -0.29253248276E+03  0.51251741238E+03  0.75459729599E+03  0.12500192155E+03 0.  0.
         24    2    1    2    0    0 -0.53335349206E+03  0.33584976455E+03  0.11558701890E+04  0.13189593803E+04  0.79730428924E+02 0.  0.
        -11    1    3    3    0    0  0.48459069994E+02  0.30931337230E+02 -0.43060894353E+02  0.71828056565E+02  0.00000000000E+00 0.  1.
         12    1    3    3    0    0  0.12393487228E+03  0.15393770890E+02 -0.21591954980E+03  0.24943550817E+03  0.00000000000E+00 0. -1.
        -13    1    5    5    0    0 -0.41291169664E+03  0.26822164701E+03  0.96491916127E+03  0.10832857005E+04  0.00000000000E+00 0.  1.
         14    1    5    5    0    0 -0.12044179542E+03  0.67628117531E+02  0.19095102769E+03  0.23567367978E+03  0.00000000000E+00 0. -1.
          5    1    4    4  501    0  0.28613937652E+03 -0.23940642399E+03  0.39502481808E+03  0.54337636638E+03  0.47000000000E+01 0. -1.
         -5    1    4    4    0  501  0.16722829685E+03 -0.53126058773E+02  0.11749259430E+03  0.21122092961E+03  0.47000000000E+01 0. -1.
          1    1    1    2  502    0 -0.63937143797E+02 -0.38370260289E+02  0.88827795744E+03  0.89140224641E+03  0.00000000000E+00 0. -1.
          1    1    1    2  503    0 -0.28470979787E+02 -0.51272129613E+02 -0.27778267694E+04  0.27784457866E+04  0.00000000000E+00 0. -1.
<mgrwt>
<rscale>  0 0.66200615E+02</rscale>
<asrwt>0</asrwt>
<pdfrwt beam="1">  1        2 0.41062696E+00 0.74727583E+02</pdfrwt>
<pdfrwt beam="2">  1        2 0.48123602E+00 0.58646636E+02</pdfrwt>
<totfact> 0.13622997E+00</totfact>
</mgrwt>
</event>
<event>
13    1  0.2038932E-008  0.5888214E+02  0.7546771E-02  0.1404897E+00
          2   -1    0    0  502    0  0.00000000000E+00  0.00000000000E+00  0.17865252698E+04  0.17865252698E+04  0.00000000000E+00 0. -1.
          2   -1    0    0  503    0 -0.00000000000E+00 -0.00000000000E+00 -0.16277454878E+04  0.16277454878E+04  0.00000000000E+00 0. -1.
         24    2    1    2    0    0  0.28731815463E+02  0.18478507381E+02 -0.17451331922E+03  0.19586947006E+03  0.82115639566E+02 0.  0.
         25    2    1    2    0    0 -0.23605925872E+02 -0.24498542629E+02  0.20514263384E+03  0.24262203679E+03  0.12499813675E+03 0.  0.
         24    2    1    2    0    0  0.42359636991E+02  0.45712867698E-01 -0.63848527080E+02  0.11120170414E+03  0.80590592865E+02 0.  0.
        -11    1    5    5    0    0  0.30211326470E+01 -0.32867264280E+02 -0.54092866159E+01  0.33446146047E+02  0.00000000000E+00 0.  1.
         12    1    5    5    0    0  0.39338504344E+02  0.32912977148E+02 -0.58439240464E+02  0.77755558095E+02  0.00000000000E+00 0. -1.
        -11    1    3    3    0    0  0.18037784082E+02 -0.23800318870E+02 -0.21592577018E+02  0.36851814272E+02  0.00000000000E+00 0.  1.
         12    1    3    3    0    0  0.10694031381E+02  0.42278826251E+02 -0.15292074221E+03  0.15901765579E+03  0.00000000000E+00 0. -1.
          5    1    4    4  501    0 -0.55702762897E+01  0.43223692933E+02  0.27876766701E+02  0.51947278373E+02  0.47000000000E+01 0. -1.
         -5    1    4    4    0  501 -0.18035649582E+02 -0.67722235562E+02  0.17726586714E+03  0.19067475842E+03  0.47000000000E+01 0. -1.
          1    1    1    2  502    0 -0.28986958710E+02 -0.50028198922E+02  0.15270901346E+04  0.15281843290E+04  0.00000000000E+00 0. -1.
          1    1    1    2  503    0 -0.18498567872E+02  0.56002521302E+02 -0.13350911402E+04  0.13363932176E+04  0.00000000000E+00 0. -1.
<mgrwt>
<rscale>  0 0.58348269E+02</rscale>
<asrwt>0</asrwt>
<pdfrwt beam="1">  1        2 0.26272431E+00 0.57819240E+02</pdfrwt>
<pdfrwt beam="2">  1        2 0.23937434E+00 0.58882139E+02</pdfrwt>
<totfact> 0.27648044E+01</totfact>
</mgrwt>
</event>
<event>
13    1  0.2038932E-008  0.1357729E+03  0.7546771E-02  0.1301198E+00
          2   -1    0    0  503    0  0.00000000000E+00  0.00000000000E+00  0.32834597387E+04  0.32834597387E+04  0.00000000000E+00 0. -1.
          2   -1    0    0  502    0 -0.00000000000E+00 -0.00000000000E+00 -0.59355556275E+03  0.59355556275E+03  0.00000000000E+00 0. -1.
         24    2    1    2    0    0 -0.10178638164E+02  0.10685497169E+03  0.14252028386E+03  0.19709963289E+03  0.83753473521E+02 0.  0.
         25    2    1    2    0    0  0.67489052641E+02 -0.25484057364E+03 -0.17141120160E+03  0.33839164431E+03  0.12501445798E+03 0.  0.
         24    2    1    2    0    0 -0.67749179591E+02  0.19681605155E+02  0.60596270380E+03  0.61532505716E+03  0.80354282091E+02 0.  0.
        -11    1    3    3    0    0 -0.39774171976E+02  0.79979103096E+02  0.67027853711E+02  0.11167530999E+03  0.00000000000E+00 0.  1.
         12    1    3    3    0    0  0.29595533812E+02  0.26875868592E+02  0.75492430144E+02  0.85424322902E+02  0.00000000000E+00 0. -1.
        -11    1    5    5    0    0 -0.49435133879E+01  0.25610449003E+02  0.37487329705E+03  0.37577961928E+03  0.00000000000E+00 0.  1.
         12    1    5    5    0    0 -0.62805666203E+02 -0.59288438478E+01  0.23108940675E+03  0.23954543788E+03  0.00000000000E+00 0. -1.
          5    1    4    4  501    0 -0.27605326875E+02 -0.51826208009E+02 -0.49284887386E+01  0.59113364899E+02  0.47000000000E+01 0.  1.
         -5    1    4    4    0  501  0.95094379516E+02 -0.20301436563E+03 -0.16648271286E+03  0.27927827941E+03  0.47000000000E+01 0.  1.
          1    1    1    2  502    0  0.58821580312E+02  0.14456848252E+02 -0.30209384090E+03  0.30810658461E+03  0.00000000000E+00 0. -1.
          1    1    1    2  503    0 -0.48382815199E+02  0.11384714855E+03  0.24149262308E+04  0.24180923824E+04  0.00000000000E+00 0. -1.
<mgrwt>
<rscale>  0 0.90686558E+02</rscale>
<asrwt>0</asrwt>
<pdfrwt beam="1">  1        2 0.48286172E+00 0.13577294E+03</pdfrwt>
<pdfrwt beam="2">  1        2 0.87287584E-01 0.60572096E+02</pdfrwt>
<totfact> 0.16621914E+01</totfact>
</mgrwt>
</event>
<event>
13    1  0.2038932E-008  0.9510388E+02  0.7546771E-02  0.1347880E+00
          2   -1    0    0  503    0  0.00000000000E+00  0.00000000000E+00  0.50031285554E+03  0.50031285554E+03  0.00000000000E+00 0. -1.
         -1   -1    0    0    0  501 -0.00000000000E+00 -0.00000000000E+00 -0.26343484785E+04  0.26343484785E+04  0.00000000000E+00 0.  1.
         24    2    1    2    0    0  0.27135889690E+02 -0.32310191982E+02 -0.41247277540E+03  0.42266904421E+03  0.82067200914E+02 0.  0.
         25    2    1    2    0    0  0.75879175207E+02 -0.22474211209E+02  0.28112313169E+03  0.31767579552E+03  0.12499982594E+03 0.  0.
         24    2    1    2    0    0  0.27196909337E+02  0.11364589739E+03 -0.46634373423E+03  0.48744159920E+03  0.80422461428E+02 0.  0.
        -11    1    5    5    0    0 -0.28235307397E+02  0.45523868957E+02 -0.19608088209E+03  0.20326673991E+03  0.00000000000E+00 0.  1.
         12    1    5    5    0    0  0.55432216734E+02  0.68122028433E+02 -0.27026285213E+03  0.28417485929E+03  0.00000000000E+00 0. -1.
        -13    1    3    3    0    0  0.48556955470E+02 -0.45032018702E+02 -0.32703702519E+03  0.33367480648E+03  0.00000000000E+00 0.  1.
         14    1    3    3    0    0 -0.21421065781E+02  0.12721826720E+02 -0.85435750217E+02  0.88994237731E+02  0.00000000000E+00 0. -1.
          5    1    4    4  502    0 -0.82533425848E+01  0.18874085924E+02  0.17387826070E+03  0.17515732450E+03  0.47000000000E+01 0.  1.
         -5    1    4    4    0  502  0.84132517792E+02 -0.41348297133E+02  0.10724487099E+03  0.14251847101E+03  0.47000000000E+01 0.  1.
          1    1    1    2  503    0 -0.16464267532E+02 -0.54721677628E+02  0.17892824905E+03  0.18783197922E+03  0.00000000000E+00 0. -1.
         -2    1    1    2    0  501 -0.11374770670E+03 -0.41398165707E+01 -0.17152704940E+04  0.17190429159E+04  0.00000000000E+00 0.  1.
<mgrwt>
<rscale>  0 0.73720397E+02</rscale>
<asrwt>0</asrwt>
<pdfrwt beam="1">  1        2 0.73575419E-01 0.57144852E+02</pdfrwt>
<pdfrwt beam="2">  1       -1 0.38740419E+00 0.95103876E+02</pdfrwt>
<totfact> 0.96178853E-01</totfact>
</mgrwt>
</event>
<event>
13    1  0.2038932E-008  0.1428241E+03  0.7546771E-02  0.1272003E+00
         -1   -1    0    0    0  501 -0.00000000000E+00  0.00000000000E+00  0.16058603946E+04  0.16058603946E+04  0.00000000000E+00 0.  1.
          2   -1    0    0  503    0  0.00000000000E+00 -0.00000000000E+00 -0.11158759059E+04  0.11158759059E+04  0.00000000000E+00 0. -1.
         24    2    1    2    0    0 -0.35073295432E+02 -0.57017476451E+02  0.16434608608E+03  0.19469736851E+03  0.80101814098E+02 0.  0.
         25    2    1    2    0    0  0.11896831242E+03  0.37602988993E+02 -0.47140055611E+03  0.50339715037E+03  0.12499104994E+03 0.  0.
         24    2    1    2    0    0 -0.27950633260E+02  0.10040638944E+03 -0.77620008398E+02  0.15335163389E+03  0.81419757881E+02 0.  0.
        -11    1    5    5    0    0  0.20031001996E+02  0.35728485208E+01 -0.27543530260E+02  0.34244011837E+02  0.00000000000E+00 0.  1.
         12    1    5    5    0    0 -0.47981635256E+02  0.96833540916E+02 -0.50076478138E+02  0.11910762205E+03  0.00000000000E+00 0. -1.
        -11    1    3    3    0    0 -0.56467070645E+02 -0.42188204574E+02  0.80970315920E+02  0.10735253482E+03  0.00000000000E+00 0.  1.
         12    1    3    3    0    0  0.21393775213E+02 -0.14829271877E+02  0.83375770164E+02  0.87344833692E+02  0.00000000000E+00 0. -1.
          5    1    4    4  502    0  0.14890235878E+01 -0.17446422664E+02 -0.43566978894E+01  0.18645795009E+02  0.47000000000E+01 0.  1.
         -5    1    4    4    0  502  0.11747928884E+03  0.55049411658E+02 -0.46704385822E+03  0.48475135536E+03  0.47000000000E+01 0.  1.
          1    1    1    2  503    0 -0.44321967972E+02  0.61494557315E+02 -0.49117754240E+03  0.49699234962E+03  0.00000000000E+00 0. -1.
         -2    1    1    2    0  501 -0.11622415760E+02 -0.14248645929E+03  0.13658365095E+04  0.13732977981E+04  0.00000000000E+00 0.  1.
<mgrwt>
<rscale>  0 0.10405009E+03</rscale>
<asrwt>0</asrwt>
<pdfrwt beam="2">  1        2 0.16409940E+00 0.75802490E+02</pdfrwt>
<pdfrwt beam="1">  1       -1 0.23615594E+00 0.14282408E+03</pdfrwt>
<totfact> 0.30667980E+00</totfact>
</mgrwt>
</event>
<event>
13    1  0.2038932E-008  0.3334088E+03  0.7546771E-02  0.1076928E+00
          2   -1    0    0  503    0  0.00000000000E+00  0.00000000000E+00  0.19668590846E+04  0.19668590846E+04  0.00000000000E+00 0. -1.
          2   -1    0    0  502    0 -0.00000000000E+00 -0.00000000000E+00 -0.12911566930E+04  0.12911566930E+04  0.00000000000E+00 0. -1.
         24    2    1    2    0    0 -0.17914401658E+03 -0.28334365144E+03 -0.37156804875E+03  0.50678859409E+03  0.79972875179E+02 0.  0.
         25    2    1    2    0    0 -0.49789151908E+03 -0.29993769494E+03  0.10964827596E+04  0.12472999245E+04  0.12499629596E+03 0.  0.
         24    2    1    2    0    0 -0.12643792802E+03  0.10171870994E+03 -0.94187128782E+02  0.20377239773E+03  0.79490434985E+02 0.  0.
        -11    1    3    3    0    0 -0.73732286368E+02 -0.18137046546E+03 -0.18390079980E+03  0.26860975403E+03  0.00000000000E+00 0.  1.
         12    1    3    3    0    0 -0.10541173022E+03 -0.10197318598E+03 -0.18766724894E+03  0.23817884006E+03  0.00000000000E+00 0. -1.
        -11    1    5    5    0    0 -0.12859383936E+03  0.88903457653E+02 -0.10375850948E+03  0.18763269596E+03  0.00000000000E+00 0.  1.
         12    1    5    5    0    0  0.21559113376E+01  0.12815252289E+02  0.95713806941E+01  0.16139701773E+02  0.00000000000E+00 0. -1.
          5    1    4    4  501    0 -0.24726870628E+03 -0.91256899911E+02  0.41262820490E+03  0.48964656679E+03  0.47000000000E+01 0. -1.
         -5    1    4    4    0  501 -0.25062281281E+03 -0.20868079503E+03  0.68385455472E+03  0.75765335776E+03  0.47000000000E+01 0. -1.
          1    1    1    2  502    0  0.64057920817E+03  0.17722626140E+03 -0.36975040593E+03  0.76056967620E+03  0.00000000000E+00 0. -1.
          1    1    1    2  503    0  0.16289425551E+03  0.30433637504E+03  0.41472521541E+03  0.53958518507E+03  0.00000000000E+00 0. -1.
<mgrwt>
<rscale>  0 0.31723760E+03</rscale>
<asrwt>0</asrwt>
<pdfrwt beam="1">  1        2 0.28924398E+00 0.30185072E+03</pdfrwt>
<pdfrwt beam="2">  1        2 0.18987598E+00 0.33340884E+03</pdfrwt>
<totfact> 0.25207712E+01</totfact>
</mgrwt>
</event>
<event>
13    1  0.2038932E-008  0.7400316E+02  0.7546771E-02  0.1411972E+00
          2   -1    0    0  502    0  0.00000000000E+00  0.00000000000E+00  0.34418172150E+04  0.34418172150E+04  0.00000000000E+00 0. -1.
          2   -1    0    0  503    0 -0.00000000000E+00 -0.00000000000E+00 -0.27199638777E+04  0.27199638777E+04  0.00000000000E+00 0. -1.
         24    2    1    2    0    0 -0.28139839791E+02  0.18288702164E+04  0.80128478853E+03  0.19994464142E+04  0.10084905609E+03 0.  0.
         25    2    1    2    0    0 -0.17751828197E+03 -0.72180523455E+03 -0.12187074602E+03  0.76353496122E+03  0.12497048134E+03 0.  0.
         24    2    1    2    0    0  0.10953938560E+03 -0.10649259346E+04 -0.13401871385E+04  0.17171507596E+04  0.80243638879E+02 0.  0.
        -11    1    5    5    0    0  0.10924595876E+03 -0.68901941313E+03 -0.87523570623E+03  0.11192497365E+04  0.00000000000E+00 0.  1.
         12    1    5    5    0    0  0.29342683185E+00 -0.37590652149E+03 -0.46495143229E+03  0.59790102307E+03  0.00000000000E+00 0. -1.
        -13    1    3    3    0    0 -0.54290328424E+02  0.13249020584E+04  0.54776073504E+03  0.14346967369E+04  0.00000000000E+00 0.  1.
         14    1    3    3    0    0  0.26150488633E+02  0.50396815801E+03  0.25352405350E+03  0.56474967733E+03  0.00000000000E+00 0. -1.
          5    1    4    4  501    0 -0.88248337195E+02 -0.14320453134E+03 -0.26352716880E+02  0.17032868960E+03  0.47000000000E+01 0. -1.
         -5    1    4    4    0  501 -0.89269944779E+02 -0.57860070320E+03 -0.95518029140E+02  0.59320627161E+03  0.47000000000E+01 0. -1.
          1    1    1    2  502    0  0.22390644629E+02 -0.37328443221E+02  0.15226796115E+04  0.15233016618E+04  0.00000000000E+00 0. -1.
          1    1    1    2  503    0  0.73728091539E+02 -0.48106039956E+01 -0.14005317817E+03  0.15834729587E+03  0.00000000000E+00 0. -1.
<mgrwt>
<rscale>  0 0.56756201E+02</rscale>
<asrwt>0</asrwt>
<pdfrwt beam="1">  1        2 0.50614959E+00 0.43528768E+02</pdfrwt>
<pdfrwt beam="2">  1        2 0.39999469E+00 0.74003158E+02</pdfrwt>
<totfact> 0.12649781E+00</totfact>
</mgrwt>
</event>
<event>
13    1  0.2038932E-008  0.1264091E+03  0.7546771E-02  0.1240499E+00
          2   -1    0    0  502    0  0.00000000000E+00  0.00000000000E+00  0.40251028393E+04  0.40251028393E+04  0.00000000000E+00 0. -1.
          2   -1    0    0  503    0 -0.00000000000E+00 -0.00000000000E+00 -0.66278289760E+03  0.66278289760E+03  0.00000000000E+00 0. -1.
         24    2    1    2    0    0 -0.17191176206E+02  0.22645544279E+03 -0.26735578959E+03  0.36017236659E+03  0.81654218053E+02 0.  0.
         25    2    1    2    0    0  0.10437789439E+03 -0.58511486224E+02  0.26411840292E+03  0.31575310979E+03  0.12499262667E+03 0.  0.
         24    2    1    2    0    0 -0.11138301110E+03 -0.12961745680E+03  0.48177285921E+03  0.51737882877E+03  0.79805415334E+02 0.  0.
        -11    1    3    3    0    0 -0.48984587811E+02  0.16541711834E+03 -0.19088158681E+03  0.25728990083E+03  0.00000000000E+00 0.  1.
         12    1    3    3    0    0  0.31793411605E+02  0.61038324448E+02 -0.76474202773E+02  0.10288246577E+03  0.00000000000E+00 0. -1.
        -13    1    5    5    0    0 -0.24591391322E+01 -0.69850831020E+01 -0.10287034541E+01  0.74764284261E+01  0.00000000000E+00 0.  1.
         14    1    5    5    0    0 -0.10892387197E+03 -0.12263237370E+03  0.48280156266E+03  0.50990240034E+03  0.00000000000E+00 0. -1.
          5    1    4    4  501    0  0.86865289463E+02 -0.55973075889E+02  0.27544147600E+03  0.29422552650E+03  0.47000000000E+01 0.  1.
         -5    1    4    4    0  501  0.17512604924E+02 -0.25384103353E+01 -0.11323073085E+02  0.21527583291E+02  0.47000000000E+01 0.  1.
          1    1    1    2  502    0 -0.10274166577E+03 -0.55874944889E+02  0.31746161942E+04  0.31767697178E+04  0.00000000000E+00 0. -1.
          1    1    1    2  503    0  0.12693795869E+03  0.17548445126E+02 -0.29083172501E+03  0.31781171400E+03  0.00000000000E+00 0. -1.
<mgrwt>
<rscale>  0 0.12158881E+03</rscale>
<asrwt>0</asrwt>
<pdfrwt beam="1">  1        2 0.59192687E+00 0.11695238E+03</pdfrwt>
<pdfrwt beam="2">  1        2 0.97468075E-01 0.12640905E+03</pdfrwt>
<totfact> 0.51665867E+00</totfact>
</mgrwt>
</event>
<event>
13    1  0.2038932E-008  0.2151326E+03  0.7546771E-02  0.1358866E+00
          2   -1    0    0  502    0  0.00000000000E+00  0.00000000000E+00  0.27406383030E+04  0.27406383030E+04  0.00000000000E+00 0. -1.
          2   -1    0    0  503    0 -0.00000000000E+00 -0.00000000000E+00 -0.15673762952E+04  0.15673762952E+04  0.00000000000E+00 0. -1.
         24    2    1    2    0    0 -0.12445710472E+03  0.10283091656E+03  0.50886342269E+02  0.18711750951E+03  0.79748192564E+02 0.  0.
         25    2    1    2    0    0  0.31944674857E+03 -0.45104259500E+02  0.22105909437E+03  0.41057528303E+03  0.12499728169E+03 0.  0.
         24    2    1    2    0    0 -0.55164878366E+01 -0.88240164980E+01  0.12410142466E+04  0.12437068212E+04  0.81129537936E+02 0.  0.
        -13    1    5    5    0    0 -0.75890848174E+01  0.31995652981E+02  0.29830543970E+03  0.30011239790E+03  0.00000000000E+00 0.  1.
         14    1    5    5    0    0  0.20725969808E+01 -0.40819669479E+02  0.94270880694E+03  0.94359442333E+03  0.00000000000E+00 0. -1.
        -13    1    3    3    0    0 -0.10888930968E+03  0.96660303977E+02  0.70126696807E+02  0.16161017831E+03  0.00000000000E+00 0.  1.
         14    1    3    3    0    0 -0.15567795045E+02  0.61706125860E+01 -0.19240354538E+02  0.25507331201E+02  0.00000000000E+00 0. -1.
          5    1    4    4  501    0  0.31666304653E+03 -0.21860659650E+02  0.22081496779E+03  0.38669718577E+03  0.47000000000E+01 0. -1.
         -5    1    4    4    0  501  0.27837020390E+01 -0.23243599850E+02  0.24412658162E+00  0.23878097261E+02  0.47000000000E+01 0. -1.
          1    1    1    2  502    0  0.19982110679E+02 -0.11415281029E+02  0.10552655259E+04  0.10555164251E+04  0.00000000000E+00 0. -1.
          1    1    1    2  503    0 -0.20945526669E+03 -0.37487359536E+02 -0.13949632014E+04  0.14110985594E+04  0.00000000000E+00 0. -1.
<mgrwt>
<rscale>  0 0.70362092E+02</rscale>
<asrwt>0</asrwt>
<pdfrwt beam="1">  1        2 0.40303505E+00 0.23012896E+02</pdfrwt>
<pdfrwt beam="2">  1        2 0.23049651E+00 0.21513259E+03</pdfrwt>
<totfact> 0.10830668E+01</totfact>
</mgrwt>
</event>
<event>
13    1  0.2038932E-008  0.6805985E+02  0.7546771E-02  0.1490999E+00
          2   -1    0    0  502    0  0.00000000000E+00  0.00000000000E+00  0.16779345448E+04  0.16779345448E+04  0.00000000000E+00 0. -1.
          2   -1    0    0  503    0 -0.00000000000E+00 -0.00000000000E+00 -0.85866684381E+03  0.85866684381E+03  0.00000000000E+00 0. -1.
         24    2    1    2    0    0 -0.60007810413E+02 -0.48652697526E+03 -0.32355675345E+03  0.59026172692E+03  0.58399474254E+02 0.  0.
         25    2    1    2    0    0  0.22319575858E+03 -0.12312292401E+03  0.24779766290E+03  0.37683537715E+03  0.12500247466E+03 0.  0.
         24    2    1    2    0    0 -0.11539398986E+03  0.69088867746E+03  0.30729068055E+03  0.76910741728E+03  0.80347491679E+02 0.  0.
        -11    1    5    5    0    0 -0.10432607712E+03  0.67017357705E+03  0.28183164115E+03  0.73446962340E+03  0.00000000000E+00 0.  1.
         12    1    5    5    0    0 -0.11067912744E+02  0.20715100405E+02  0.25459039398E+02  0.34637793873E+02  0.00000000000E+00 0. -1.
        -13    1    3    3    0    0  0.61958299891E+01 -0.13304600137E+03 -0.10320131717E+03  0.16849373476E+03  0.00000000000E+00 0.  1.
         14    1    3    3    0    0 -0.66203640402E+02 -0.35348097389E+03 -0.22035543628E+03  0.42176799215E+03  0.00000000000E+00 0. -1.
          5    1    4    4  501    0  0.17258546825E+03 -0.12229134376E+03  0.12945262912E+03  0.24803425125E+03  0.47000000000E+01 0.  1.
         -5    1    4    4    0  501  0.50610290336E+02 -0.83158024829E+00  0.11834503378E+03  0.12880112590E+03  0.47000000000E+01 0.  1.
          1    1    1    2  502    0 -0.36880874102E+02 -0.57131944262E+02  0.69072419545E+03  0.69406352167E+03  0.00000000000E+00 0. -1.
          1    1    1    2  503    0 -0.10913084205E+02 -0.24106833933E+02 -0.10298808445E+03  0.10633334561E+03  0.00000000000E+00 0. -1.
<mgrwt>
<rscale>  0 0.42438149E+02</rscale>
<asrwt>0</asrwt>
<pdfrwt beam="1">  1        2 0.24675508E+00 0.68059852E+02</pdfrwt>
<pdfrwt beam="2">  1        2 0.12627454E+00 0.26461951E+02</pdfrwt>
<totfact> 0.79431729E+01</totfact>
</mgrwt>
</event>
<event>
13    1  0.2038932E-008  0.8577028E+03  0.7546771E-02  0.1044267E+00
          2   -1    0    0  502    0  0.00000000000E+00  0.00000000000E+00  0.85682352067E+03  0.85682352067E+03  0.00000000000E+00 0. -1.
          2   -1    0    0  503    0 -0.00000000000E+00 -0.00000000000E+00 -0.21479110047E+04  0.21479110047E+04  0.00000000000E+00 0. -1.
         24    2    1    2    0    0 -0.52476291366E+03 -0.53777133018E+02 -0.19369670025E+03  0.56741937708E+03  0.78601795229E+02 0.  0.
         25    2    1    2    0    0 -0.28015269111E+03 -0.37283577128E+03 -0.85984464350E+02  0.49041857654E+03  0.12500003768E+03 0.  0.
         24    2    1    2    0    0  0.13310365563E+03 -0.15954812860E+02 -0.32439103290E+03  0.35978238726E+03  0.79010662301E+02 0.  0.
        -11    1    3    3    0    0 -0.93372713604E+02  0.20439204714E+02 -0.32666279613E+02  0.10101143776E+03  0.00000000000E+00 0.  1.
         12    1    3    3    0    0 -0.43139020005E+03 -0.74216337733E+02 -0.16103042064E+03  0.46640793932E+03  0.00000000000E+00 0. -1.
        -11    1    5    5    0    0 -0.45745447308E+01  0.74546742671E+01 -0.28106716802E+01  0.91868657994E+01  0.00000000000E+00 0.  1.
         12    1    5    5    0    0  0.13767820036E+03 -0.23409487127E+02 -0.32158036122E+03  0.35059552146E+03  0.00000000000E+00 0. -1.
          5    1    4    4  501    0 -0.65511991688E+02 -0.32747557650E+02  0.16837191870E+02  0.75298105003E+02  0.47000000000E+01 0.  1.
         -5    1    4    4    0  501 -0.21464069942E+03 -0.34008821363E+03 -0.10282165622E+03  0.41512047153E+03  0.47000000000E+01 0.  1.
          1    1    1    2  502    0  0.58491109911E+03  0.60570924098E+03  0.34071333805E+02  0.84271319810E+03  0.00000000000E+00 0. -1.
          1    1    1    2  503    0  0.86900850022E+02 -0.16314152381E+03 -0.72108662035E+03  0.74440098641E+03  0.00000000000E+00 0. -1.
<mgrwt>
<rscale>  0 0.39859678E+03</rscale>
<asrwt>0</asrwt>
<pdfrwt beam="1">  1        2 0.12600346E+00 0.85770277E+03</pdfrwt>
<pdfrwt beam="2">  1        2 0.31586926E+00 0.18523829E+03</pdfrwt>
<totfact> 0.37431345E+01</totfact>
</mgrwt>
</event>
<event>
13    1  0.2038932E-008  0.8657605E+02  0.7546771E-02  0.1427119E+00
          2   -1    0    0  503    0  0.00000000000E+00  0.00000000000E+00  0.10647062337E+04  0.10647062337E+04  0.00000000000E+00 0. -1.
          2   -1    0    0  502    0 -0.00000000000E+00 -0.00000000000E+00 -0.13968941849E+04  0.13968941849E+04  0.00000000000E+00 0. -1.
         24    2    1    2    0    0  0.18866083110E+03 -0.34201475828E+02  0.47009263110E+02  0.21261430138E+03  0.78945045391E+02 0.  0.
         25    2    1    2    0    0 -0.28057541915E+03 -0.20397871503E+02  0.67178246198E+03  0.73895548849E+03  0.12499959500E+03 0.  0.
         24    2    1    2    0    0 -0.16924499536E+02  0.58323766195E+02 -0.10431473077E+03  0.14366086976E+03  0.77902388000E+02 0.  0.
        -11    1    5    5    0    0 -0.15908627156E+02 -0.15755812926E+02 -0.12364355236E+02  0.25577477189E+02  0.00000000000E+00 0.  1.
         12    1    5    5    0    0 -0.10158723797E+01  0.74079579121E+02 -0.91950375538E+02  0.11808339257E+03  0.00000000000E+00 0. -1.
        -13    1    3    3    0    0  0.18420818383E+03 -0.46363955190E+02  0.31731814455E+02  0.19258551186E+03  0.00000000000E+00 0.  1.
         14    1    3    3    0    0  0.44526472679E+01  0.12162479362E+02  0.15277448655E+02  0.20028789513E+02  0.00000000000E+00 0. -1.
          5    1    4    4  501    0 -0.16021479003E+03 -0.26425661239E+02  0.52177786672E+03  0.54648085668E+03  0.47000000000E+01 0. -1.
         -5    1    4    4    0  501 -0.12036062912E+03  0.60277897354E+01  0.15000459526E+03  0.19247463181E+03  0.47000000000E+01 0. -1.
          1    1    1    2  502    0  0.83014332374E+02 -0.24450637610E+02 -0.11535801569E+04  0.11568216766E+04  0.00000000000E+00 0. -1.
          1    1    1    2  503    0  0.25824755214E+02  0.20726218747E+02  0.20691521135E+03  0.20954808235E+03  0.00000000000E+00 0. -1.
<mgrwt>
<rscale>  0 0.53542724E+02</rscale>
<asrwt>0</asrwt>
<pdfrwt beam="1">  1        2 0.15657445E+00 0.33113353E+02</pdfrwt>
<pdfrwt beam="2">  1        2 0.20542561E+00 0.86576052E+02</pdfrwt>
<totfact> 0.81277861E+01</totfact>
</mgrwt>
</event>
<event>
13    1  0.2038932E-008  0.8786887E+02  0.7546771E-02  0.1346436E+00
          2   -1    0    0  503    0  0.00000000000E+00  0.00000000000E+00  0.17469681618E+04  0.17469681618E+04  0.00000000000E+00 0. -1.
          2   -1    0    0  502    0 -0.00000000000E+00 -0.00000000000E+00 -0.16652710700E+04  0.16652710700E+04  0.00000000000E+00 0. -1.
         24    2    1    2    0    0 -0.95646231100E+01 -0.68403672115E+02 -0.45529688602E+03  0.46728849598E+03  0.79326790439E+02 0.  0.
         25    2    1    2    0    0  0.14980935788E+03 -0.93306070196E+02  0.30567324618E+03  0.37444704605E+03  0.12500236166E+03 0.  0.
         24    2    1    2    0    0 -0.12794754522E+03  0.74473483463E+02  0.18227993016E+03  0.24869306102E+03  0.81886455511E+02 0.  0.
        -11    1    3    3    0    0  0.80022324527E+01  0.16553516037E+02 -0.74747038381E+02  0.76975154200E+02  0.00000000000E+00 0.  1.
         12    1    3    3    0    0 -0.17566855563E+02 -0.84957188152E+02 -0.38054984764E+03  0.39031334178E+03  0.00000000000E+00 0. -1.
        -13    1    5    5    0    0 -0.24139538862E+02  0.35077978405E+02  0.10010759836E+02  0.43742396116E+02  0.00000000000E+00 0.  1.
         14    1    5    5    0    0 -0.10380800636E+03  0.39395505057E+02  0.17226917032E+03  0.20495066491E+03  0.00000000000E+00 0. -1.
          5    1    4    4  501    0  0.73788120576E+02 -0.10550502421E+03  0.24307274577E+03  0.27510442855E+03  0.47000000000E+01 0.  1.
         -5    1    4    4    0  501  0.76021237305E+02  0.12198954011E+02  0.62600500407E+02  0.99342617499E+02  0.47000000000E+01 0.  1.
          1    1    1    2  502    0  0.26578023215E+02  0.13632796380E+03 -0.11313077659E+04  0.11398021610E+04  0.00000000000E+00 0. -1.
          1    1    1    2  503    0 -0.38875212764E+02 -0.49091704951E+02  0.11803485674E+04  0.11820084679E+04  0.00000000000E+00 0. -1.
<mgrwt>
<rscale>  0 0.74177880E+02</rscale>
<asrwt>0</asrwt>
<pdfrwt beam="1">  1        2 0.25690708E+00 0.62620106E+02</pdfrwt>
<pdfrwt beam="2">  1        2 0.24489280E+00 0.87868869E+02</pdfrwt>
<totfact> 0.26520590E+01</totfact>
</mgrwt>
</event>
<event>
13    1  0.2038932E-008  0.2440872E+03  0.7546771E-02  0.1240736E+00
          2   -1    0    0  503    0  0.00000000000E+00  0.00000000000E+00  0.10601508671E+04  0.10601508671E+04  0.00000000000E+00 0. -1.
          2   -1    0    0  502    0 -0.00000000000E+00 -0.00000000000E+00 -0.32845933213E+04  0.32845933213E+04  0.00000000000E+00 0. -1.
         24    2    1    2    0    0  0.82139113361E+02 -0.90372789240E+02 -0.45705238428E+03  0.48022669871E+03  0.82502879939E+02 0.  0.
         25    2    1    2    0    0 -0.41019639706E+03  0.25819042807E+03 -0.45685497614E+03  0.67769060162E+03  0.12499880399E+03 0.  0.
         24    2    1    2    0    0  0.40785799089E+02  0.10281811193E+02 -0.20478879015E+02  0.91017588306E+02  0.78074450665E+02 0.  0.
        -11    1    5    5    0    0  0.28052286337E+02  0.12986354197E+01  0.28264719537E+02  0.39843589110E+02  0.00000000000E+00 0.  1.
         12    1    5    5    0    0  0.12733512752E+02  0.89831757736E+01 -0.48743598551E+02  0.51173999196E+02  0.00000000000E+00 0. -1.
        -11    1    3    3    0    0  0.98257986514E+02 -0.86147233877E+02 -0.40166653693E+03  0.42238842871E+03  0.00000000000E+00 0.  1.
         12    1    3    3    0    0 -0.16118873153E+02 -0.42255553622E+01 -0.55385847352E+02  0.57838270001E+02  0.00000000000E+00 0. -1.
          5    1    4    4  501    0 -0.30312826318E+03  0.17642117238E+03 -0.39826464368E+03  0.53070518220E+03  0.47000000000E+01 0. -1.
         -5    1    4    4    0  501 -0.10706813387E+03  0.81769255686E+02 -0.58590332465E+02  0.14698541943E+03  0.47000000000E+01 0. -1.
          1    1    1    2  502    0  0.24141510564E+03 -0.13875380307E+03 -0.21830686752E+04  0.22007550322E+04  0.00000000000E+00 0. -1.
          1    1    1    2  503    0  0.45856378969E+02 -0.39345646950E+02  0.89301246040E+03  0.89505426754E+03  0.00000000000E+00 0. -1.
<mgrwt>
<rscale>  0 0.12144290E+03</rscale>
<asrwt>0</asrwt>
<pdfrwt beam="1">  1        2 0.15590454E+00 0.60422574E+02</pdfrwt>
<pdfrwt beam="2">  1        2 0.48302844E+00 0.24408723E+03</pdfrwt>
<totfact> 0.76127935E+00</totfact>
</mgrwt>
</event>
<event>
13    1  0.2038932E-008  0.1204336E+03  0.7546771E-02  0.1252904E+00
          2   -1    0    0  503    0  0.00000000000E+00  0.00000000000E+00  0.16097164335E+04  0.16097164335E+04  0.00000000000E+00 0. -1.
          2   -1    0    0  502    0 -0.00000000000E+00 -0.00000000000E+00 -0.12843693502E+04  0.12843693502E+04  0.00000000000E+00 0. -1.
         24    2    1    2    0    0  0.18032843955E+02 -0.80614566722E+01 -0.20577762491E+03  0.22386612184E+03  0.85915301611E+02 0.  0.
         25    2    1    2    0    0 -0.21343738720E+03 -0.15371768878E+03  0.37754838206E+03  0.47681522787E+03  0.12500133854E+03 0.  0.
         24    2    1    2    0    0  0.70315906338E+02 -0.15994968288E+02 -0.30139599089E+03  0.32047499364E+03  0.81636465692E+02 0.  0.
        -13    1    5    5    0    0  0.14435336965E+02 -0.81404874982E+01 -0.30643916144E+01  0.16853396867E+02  0.00000000000E+00 0.  1.
         14    1    5    5    0    0  0.55880569374E+02 -0.78544807894E+01 -0.29833159927E+03  0.30362159677E+03  0.00000000000E+00 0. -1.
        -13    1    3    3    0    0 -0.31422184719E+02 -0.15382776819E+02 -0.56658409782E+02  0.66589480507E+02  0.00000000000E+00 0.  1.
         14    1    3    3    0    0  0.49455028674E+02  0.73213201469E+01 -0.14911921513E+03  0.15727664134E+03  0.00000000000E+00 0. -1.
          5    1    4    4  501    0 -0.74793451952E+02 -0.46124482887E+02  0.23413688813E+03  0.25012736907E+03  0.47000000000E+01 0. -1.
         -5    1    4    4    0  501 -0.13864393525E+03 -0.10759320590E+03  0.14341149393E+03  0.22668785880E+03  0.47000000000E+01 0. -1.
          1    1    1    2  502    0  0.10610799905E+03  0.59098218774E+02 -0.70063751698E+03  0.71108680000E+03  0.00000000000E+00 0. -1.
          1    1    1    2  503    0  0.18980637858E+02  0.11867589497E+03  0.11556098339E+04  0.11618426403E+04  0.00000000000E+00 0. -1.
<mgrwt>
<rscale>  0 0.11424570E+03</rscale>
<asrwt>0</asrwt>
<pdfrwt beam="1">  1        2 0.23672301E+00 0.12043361E+03</pdfrwt>
<pdfrwt beam="2">  1        2 0.18887784E+00 0.10837573E+03</pdfrwt>
<totfact> 0.44417890E+01</totfact>
</mgrwt>
</event>
<event>
13    1  0.2038932E-008  0.6272696E+02  0.7546771E-02  0.1496467E+00
          2   -1    0    0  502    0  0.00000000000E+00  0.00000000000E+00  0.21123228486E+04  0.21123228486E+04  0.00000000000E+00 0. -1.
          2   -1    0    0  503    0 -0.00000000000E+00 -0.00000000000E+00 -0.11421002229E+04  0.11421002229E+04  0.00000000000E+00 0. -1.
         24    2    1    2    0    0  0.10545484711E+03 -0.73299396323E+02 -0.22281349617E+03  0.27000740447E+03  0.82247298523E+02 0.  0.
         25    2    1    2    0    0 -0.11807554292E+03  0.18657929215E+03 -0.21863142035E+03  0.33493200527E+03  0.12500433630E+03 0.  0.
         24    2    1    2    0    0 -0.31855018635E+02 -0.68199175345E+02 -0.35552814544E+03  0.37221829119E+03  0.80500461880E+02 0.  0.
        -13    1    3    3    0    0  0.19394012194E+02 -0.57694386960E+02 -0.61616459397E+02  0.86610380812E+02  0.00000000000E+00 0.  1.
         14    1    3    3    0    0  0.86060834911E+02 -0.15605009364E+02 -0.16119703678E+03  0.18339702366E+03  0.00000000000E+00 0. -1.
        -13    1    5    5    0    0 -0.43832096013E+01  0.19599329698E+01 -0.19316278334E+03  0.19322244883E+03  0.00000000000E+00 0.  1.
         14    1    5    5    0    0 -0.27471809033E+02 -0.70159108315E+02 -0.16236536210E+03  0.17899584236E+03  0.00000000000E+00 0. -1.
          5    1    4    4  501    0 -0.75263922406E+02  0.48893128795E+02 -0.24662998048E+02  0.93196295700E+02  0.47000000000E+01 0.  1.
         -5    1    4    4    0  501 -0.42811620514E+02  0.13768616336E+03 -0.19396842230E+03  0.24173570957E+03  0.47000000000E+01 0.  1.
          1    1    1    2  502    0  0.20715703925E+02 -0.59210712028E+02  0.20209933343E+04  0.20219666432E+04  0.00000000000E+00 0. -1.
          1    1    1    2  503    0  0.23760010525E+02  0.14129991544E+02 -0.25379764661E+03  0.25529872735E+03  0.00000000000E+00 0. -1.
<mgrwt>
<rscale>  0 0.41641669E+02</rscale>
<asrwt>0</asrwt>
<pdfrwt beam="1">  1        2 0.31063572E+00 0.62726958E+02</pdfrwt>
<pdfrwt beam="2">  1        2 0.16795591E+00 0.27644073E+02</pdfrwt>
<totfact> 0.35067307E+01</totfact>
</mgrwt>
</event>
<event>
13    1  0.2038932E-008  0.4151013E+02  0.7546771E-02  0.1535521E+00
          2   -1    0    0  502    0  0.00000000000E+00  0.00000000000E+00  0.10347974178E+04  0.10347974178E+04  0.00000000000E+00 0. -1.
          4   -1    0    0  503    0 -0.00000000000E+00 -0.00000000000E+00 -0.29848092592E+03  0.29848092592E+03  0.00000000000E+00 0. -1.
         24    2    1    2    0    0 -0.85095104582E+02 -0.13158494929E+03 -0.46401571333E+02  0.18212284101E+03  0.80373177688E+02 0.  0.
         25    2    1    2    0    0  0.82830050571E+02  0.18485898766E+03  0.76104576094E+02  0.24990137290E+03  0.12500050832E+03 0.  0.
         24    2    1    2    0    0  0.62684115103E+02 -0.60391356558E+02  0.85034325375E+02  0.14158903695E+03  0.72389257897E+02 0.  0.
        -13    1    3    3    0    0 -0.54710679524E+01 -0.82869740341E+01  0.18999361628E+02  0.21437869890E+02  0.00000000000E+00 0.  1.
         14    1    3    3    0    0 -0.79624036630E+02 -0.12329797525E+03 -0.65400932960E+02  0.16068497112E+03  0.00000000000E+00 0. -1.
        -13    1    5    5    0    0  0.22971160942E+01  0.15104565150E+02  0.19596922965E+02  0.24848823320E+02  0.00000000000E+00 0.  1.
         14    1    5    5    0    0  0.60386999009E+02 -0.75495921708E+02  0.65437402410E+02  0.11674021363E+03  0.00000000000E+00 0. -1.
          5    1    4    4  501    0  0.88194225765E+02  0.12921249024E+03  0.10332715503E+03  0.18754380837E+03  0.47000000000E+01 0.  1.
         -5    1    4    4    0  501 -0.53641751945E+01  0.55646497415E+02 -0.27222578935E+02  0.62357564529E+02  0.47000000000E+01 0.  1.
          1    1    1    2  502    0 -0.33433946751E+02  0.24549389736E+02  0.68622462342E+03  0.68747707971E+03  0.00000000000E+00 0. -1.
          3    1    1    2  503    0 -0.26985114341E+02 -0.17432071546E+02 -0.64645461726E+02  0.72188013106E+02  0.00000000000E+00 0. -1.
<mgrwt>
<rscale>  0 0.36517808E+02</rscale>
<asrwt>0</asrwt>
<pdfrwt beam="1">  1        2 0.15217609E+00 0.41510130E+02</pdfrwt>
<pdfrwt beam="2">  1        4 0.43894254E-01 0.32125901E+02</pdfrwt>
<totfact> 0.65458756E+01</totfact>
</mgrwt>
</event>
<event>
13    1  0.2038932E-008  0.4013296E+03  0.7546771E-02  0.1215584E+00
          2   -1    0    0  502    0  0.00000000000E+00  0.00000000000E+00  0.11461776833E+04  0.11461776833E+04  0.00000000000E+00 0. -1.
          2   -1    0    0  503    0 -0.00000000000E+00 -0.00000000000E+00 -0.17878867914E+04  0.17878867914E+04  0.00000000000E+00 0. -1.
         24    2    1    2    0    0  0.10894391070E+03  0.43158123556E+02 -0.68631750152E+02  0.15824350213E+03  0.81236011287E+02 0.  0.
         25    2    1    2    0    0 -0.44643351976E+03  0.30014051231E+02 -0.14378867178E+03  0.48631640741E+03  0.12499894057E+03 0.  0.
         24    2    1    2    0    0 -0.43910020104E+02 -0.24548008955E+02  0.66893159243E+03  0.67554813309E+03  0.79781640540E+02 0.  0.
        -11    1    3    3    0    0  0.36408788082E+02  0.57994560917E+02 -0.30452659159E+02  0.74942200364E+02  0.00000000000E+00 0.  1.
         12    1    3    3    0    0  0.72535122616E+02 -0.14836437362E+02 -0.38179090994E+02  0.83301301765E+02  0.00000000000E+00 0. -1.
        -11    1    5    5    0    0  0.23526692941E+02 -0.44889170643E+01  0.16570802757E+03  0.16743000346E+03  0.00000000000E+00 0.  1.
         12    1    5    5    0    0 -0.67436713045E+02 -0.20059091891E+02  0.50322356485E+03  0.50811812963E+03  0.00000000000E+00 0. -1.
          5    1    4    4  501    0 -0.27375628439E+03  0.42332183146E+01 -0.14868715961E+03  0.31159330034E+03  0.47000000000E+01 0.  1.
         -5    1    4    4    0  501 -0.17267723537E+03  0.25780832916E+02  0.48984878365E+01  0.17472310707E+03  0.47000000000E+01 0.  1.
          1    1    1    2  502    0 -0.12718601037E+01  0.47667479790E+02  0.22662868606E+03  0.23159094888E+03  0.00000000000E+00 0. -1.
          1    1    1    2  503    0  0.38267148927E+03 -0.96291645621E+02 -0.13248489647E+04  0.13823654832E+04  0.00000000000E+00 0. -1.
<mgrwt>
<rscale>  0 0.13833720E+03</rscale>
<asrwt>0</asrwt>
<pdfrwt beam="1">  1        2 0.16855554E+00 0.47684445E+02</pdfrwt>
<pdfrwt beam="2">  1        2 0.26292453E+00 0.40132962E+03</pdfrwt>
<totfact> 0.40694764E+01</totfact>
</mgrwt>
</event>
<event>
13    1  0.2038932E-008  0.9836916E+02  0.7546771E-02  0.1293945E+00
          2   -1    0    0  502    0  0.00000000000E+00  0.00000000000E+00  0.24846296566E+04  0.24846296566E+04  0.00000000000E+00 0. -1.
          4   -1    0    0  503    0 -0.00000000000E+00 -0.00000000000E+00 -0.96887650707E+03  0.96887650707E+03  0.00000000000E+00 0. -1.
         24    2    1    2    0    0 -0.82598855289E+02 -0.15571515214E+03 -0.23380749680E+03  0.30391747942E+03  0.81425482716E+02 0.  0.
         25    2    1    2    0    0 -0.19127374071E+02 -0.40818712250E+02  0.72783911206E+03  0.73986926157E+03  0.12499890983E+03 0.  0.
         24    2    1    2    0    0  0.30840059707E+02  0.11133519822E+03 -0.10405672351E+03  0.17595488640E+03  0.82375267488E+02 0.  0.
        -11    1    3    3    0    0 -0.72238717875E+02 -0.14676664479E+03 -0.23870607540E+03  0.28937773034E+03  0.00000000000E+00 0.  1.
         12    1    3    3    0    0 -0.10360137414E+02 -0.89485073532E+01  0.48985785998E+01  0.14539749083E+02  0.00000000000E+00 0. -1.
        -11    1    5    5    0    0  0.49405789167E+02  0.28831906939E+02 -0.38472052817E+02  0.68936998113E+02  0.00000000000E+00 0.  1.
         12    1    5    5    0    0 -0.18565729460E+02  0.82503291283E+02 -0.65584670691E+02  0.10701788828E+03  0.00000000000E+00 0. -1.
          5    1    4    4  501    0 -0.24825598463E+02 -0.80348250727E+02  0.59920695571E+03  0.60509769253E+03  0.47000000000E+01 0.  1.
         -5    1    4    4    0  501  0.56982243919E+01  0.39529538477E+02  0.12863215635E+03  0.13477156904E+03  0.47000000000E+01 0.  1.
          1    1    1    2  502    0 -0.17758286290E+02  0.96849426890E+02  0.16747086577E+04  0.16776007441E+04  0.00000000000E+00 0. -1.
          3    1    1    2  503    0  0.88644455943E+02 -0.11650760718E+02 -0.54893039995E+03  0.55616379223E+03  0.00000000000E+00 0. -1.
<mgrwt>
<rscale>  0 0.93780988E+02</rscale>
<asrwt>0</asrwt>
<pdfrwt beam="1">  1        2 0.36538671E+00 0.98369157E+02</pdfrwt>
<pdfrwt beam="2">  1        4 0.14248184E+00 0.89406822E+02</pdfrwt>
<totfact> 0.10050423E+00</totfact>
</mgrwt>
</event>
<event>
13    1  0.2038932E-008  0.4199840E+03  0.7546771E-02  0.1266002E+00
          2   -1    0    0  502    0  0.00000000000E+00  0.00000000000E+00  0.48680538373E+03  0.48680538373E+03  0.00000000000E+00 0. -1.
          2   -1    0    0  503    0 -0.00000000000E+00 -0.00000000000E+00 -0.21192860612E+04  0.21192860612E+04  0.00000000000E+00 0. -1.
         24    2    1    2    0    0 -0.28683592684E+02  0.97987152145E+01  0.63880359750E+02  0.10704533031E+03  0.80369391372E+02 0.  0.
         25    2    1    2    0    0 -0.98940030979E+02  0.33857798283E+03  0.13650596184E+03  0.39834824616E+03  0.12499306945E+03 0.  0.
         24    2    1    2    0    0  0.11564155964E+03  0.81986995743E+02 -0.15551106517E+03  0.22569521703E+03  0.81607608785E+02 0.  0.
        -11    1    3    3    0    0 -0.35330230077E+02  0.40626408568E+02  0.45858966883E+02  0.70723228674E+02  0.00000000000E+00 0.  1.
         12    1    3    3    0    0  0.66466373937E+01 -0.30827693353E+02  0.18021392867E+02  0.36322101632E+02  0.00000000000E+00 0. -1.
        -13    1    5    5    0    0  0.11886189634E+03  0.47196267897E+02 -0.13056291959E+03  0.18276299975E+03  0.00000000000E+00 0.  1.
         14    1    5    5    0    0 -0.32203367016E+01  0.34790727845E+02 -0.24948145579E+02  0.42932217277E+02  0.00000000000E+00 0. -1.
          5    1    4    4  501    0 -0.11069834107E+03  0.16059863980E+03  0.59218345590E+02  0.20389935820E+03  0.47000000000E+01 0.  1.
         -5    1    4    4    0  501  0.11758310088E+02  0.17797934303E+03  0.77287616251E+02  0.19444888795E+03  0.47000000000E+01 0.  1.
          1    1    1    2  502    0  0.27201408969E+02 -0.25516148813E+01  0.70436270229E+02  0.75549292201E+02  0.00000000000E+00 0. -1.
          1    1    1    2  503    0 -0.15219344950E+02 -0.42781207890E+03 -0.17477922041E+04  0.17994533592E+04  0.00000000000E+00 0. -1.
<mgrwt>
<rscale>  0 0.10711819E+03</rscale>
<asrwt>0</asrwt>
<pdfrwt beam="1">  1        2 0.71589027E-01 0.27320823E+02</pdfrwt>
<pdfrwt beam="2">  1        2 0.31165972E+00 0.41998395E+03</pdfrwt>
<totfact> 0.74380449E+01</totfact>
</mgrwt>
</event>
<event>
13    1  0.2038932E-008  0.1253925E+03  0.7546771E-02  0.1268442E+00
         -1   -1    0    0    0  501 -0.00000000000E+00  0.00000000000E+00  0.86458424713E+03  0.86458424713E+03  0.00000000000E+00 0.  1.
          2   -1    0    0  503    0  0.00000000000E+00 -0.00000000000E+00 -0.22755805373E+04  0.22755805373E+04  0.00000000000E+00 0. -1.
         24    2    1    2    0    0 -0.28306037595E+03  0.14675300567E+03  0.27198453206E+03  0.42709367899E+03  0.82303121718E+02 0.  0.
         25    2    1    2    0    0  0.38747586797E+03 -0.21256780963E+03  0.69487053270E+02  0.46451744387E+03  0.12500153255E+03 0.  0.
         24    2    1    2    0    0 -0.58067256797E+02  0.78643334072E+02  0.10649074274E+03  0.16467468408E+03  0.78872637726E+02 0.  0.
        -11    1    3    3    0    0 -0.19729866501E+03  0.13817787783E+03  0.22134310736E+03  0.32712789596E+03  0.00000000000E+00 0.  1.
         12    1    3    3    0    0 -0.85761710945E+02  0.85751278328E+01  0.50641424700E+02  0.99965783032E+02  0.00000000000E+00 0. -1.
        -11    1    5    5    0    0  0.19887844339E+02  0.18064677934E+02  0.21736334890E+02  0.34559039277E+02  0.00000000000E+00 0.  1.
         12    1    5    5    0    0 -0.77955101136E+02  0.60578656137E+02  0.84754407854E+02  0.13011564481E+03  0.00000000000E+00 0. -1.
          5    1    4    4  502    0 -0.16311973045E+01 -0.15534704027E+01 -0.13202677598E+02  0.14194180874E+02  0.47000000000E+01 0. -1.
         -5    1    4    4    0  502  0.38910706527E+03 -0.21101433923E+03  0.82689730868E+02  0.45032326300E+03  0.47000000000E+01 0. -1.
          1    1    1    2  503    0  0.84839514274E+02 -0.28071786259E+02 -0.19312510355E+04  0.19333174417E+04  0.00000000000E+00 0. -1.
         -2    1    1    2    0  501 -0.13118774949E+03  0.15243256157E+02  0.72292417219E+02  0.15056153580E+03  0.00000000000E+00 0.  1.
<mgrwt>
<rscale>  0 0.10585588E+03</rscale>
<asrwt>0</asrwt>
<pdfrwt beam="2">  1        2 0.33464419E+00 0.89363126E+02</pdfrwt>
<pdfrwt beam="1">  1       -1 0.12714474E+00 0.12539252E+03</pdfrwt>
<totfact> 0.47328981E+00</totfact>
</mgrwt>
</event>
<event>
13    1  0.2038932E-008  0.1281577E+03  0.7546771E-02  0.1410364E+00
          2   -1    0    0  503    0  0.00000000000E+00  0.00000000000E+00  0.17107817825E+04  0.17107817825E+04  0.00000000000E+00 0. -1.
          2   -1    0    0  502    0 -0.00000000000E+00 -0.00000000000E+00 -0.15985289192E+04  0.15985289192E+04  0.00000000000E+00 0. -1.
         24    2    1    2    0    0  0.15959979796E+03 -0.40423863742E+02 -0.40738266094E+03  0.44630063941E+03  0.78214091046E+02 0.  0.
         25    2    1    2    0    0 -0.18106489994E+03  0.24398630368E+01  0.28316678242E+03  0.35860508132E+03  0.12499490695E+03 0.  0.
         24    2    1    2    0    0  0.12473115364E+03  0.35393829121E+02 -0.55623335034E+02  0.16259104733E+03  0.80816517145E+02 0.  0.
        -13    1    3    3    0    0  0.64635310933E+02 -0.44267623607E+02 -0.11738762060E+03  0.14112830825E+03  0.00000000000E+00 0.  1.
         14    1    3    3    0    0  0.94964487026E+02  0.38437598656E+01 -0.28999504034E+03  0.30517233117E+03  0.00000000000E+00 0. -1.
        -13    1    5    5    0    0  0.42785945118E+02 -0.25478167236E+02 -0.26642208745E+02  0.56476379064E+02  0.00000000000E+00 0.  1.
         14    1    5    5    0    0  0.81945208518E+02  0.60871996358E+02 -0.28981126288E+02  0.10611466826E+03  0.00000000000E+00 0. -1.
          5    1    4    4  501    0 -0.87013072038E+01 -0.17139511234E+02  0.11591179494E+03  0.11758873160E+03  0.47000000000E+01 0. -1.
         -5    1    4    4    0  501 -0.17236359274E+03  0.19579374271E+02  0.16725498748E+03  0.24101634972E+03  0.47000000000E+01 0. -1.
          1    1    1    2  502    0 -0.12817367601E+03  0.78257116680E+01 -0.10207146621E+04  0.10287604942E+04  0.00000000000E+00 0. -1.
          1    1    1    2  503    0  0.24907624357E+02 -0.52355400844E+01  0.13128067390E+04  0.13130534393E+04  0.00000000000E+00 0. -1.
<mgrwt>
<rscale>  0 0.57112711E+02</rscale>
<asrwt>0</asrwt>
<pdfrwt beam="1">  1        2 0.25158556E+00 0.25451928E+02</pdfrwt>
<pdfrwt beam="2">  1        2 0.23507778E+00 0.12815775E+03</pdfrwt>
<totfact> 0.31481560E+01</totfact>
</mgrwt>
</event>
<event>
13    1  0.2038932E-008  0.2554238E+03  0.7546771E-02  0.1194983E+00
          2   -1    0    0  502    0  0.00000000000E+00  0.00000000000E+00  0.16214674789E+04  0.16214674789E+04  0.00000000000E+00 0. -1.
          2   -1    0    0  503    0 -0.00000000000E+00 -0.00000000000E+00 -0.65899286773E+03  0.65899286773E+03  0.00000000000E+00 0. -1.
         24    2    1    2    0    0  0.15031677251E+01 -0.21213007556E+03 -0.42056055526E+03  0.47700933488E+03  0.75268163612E+02 0.  0.
         25    2    1    2    0    0  0.41782578878E+02  0.16223586116E+02  0.85733324489E+02  0.15806828796E+03  0.12500556822E+03 0.  0.
         24    2    1    2    0    0  0.20207890014E+03 -0.47807694655E+01  0.63864356833E+03  0.67468778818E+03  0.80493891153E+02 0.  0.
        -11    1    5    5    0    0  0.12608492364E+03 -0.28163405184E+02  0.48209108396E+03  0.49910159146E+03  0.00000000000E+00 0.  1.
         12    1    5    5    0    0  0.75993976506E+02  0.23382635719E+02  0.15655248437E+03  0.17558619673E+03  0.00000000000E+00 0. -1.
        -13    1    3    3    0    0 -0.31571465553E+01 -0.42475605639E+02 -0.16364477514E+03  0.16909688666E+03  0.00000000000E+00 0.  1.
         14    1    3    3    0    0  0.46603142804E+01 -0.16965446992E+03 -0.25691578013E+03  0.30791244822E+03  0.00000000000E+00 0. -1.
          5    1    4    4  501    0  0.11293780548E+02 -0.33189961323E+02 -0.17552385519E+02  0.39487963345E+02  0.47000000000E+01 0.  1.
         -5    1    4    4    0  501  0.30488798330E+02  0.49413547440E+02  0.10328571001E+03  0.11858032462E+03  0.47000000000E+01 0.  1.
          1    1    1    2  502    0 -0.30644289568E+03  0.12986532965E+03  0.76188175841E+03  0.83140607765E+03  0.00000000000E+00 0. -1.
          1    1    1    2  503    0  0.61078248935E+02  0.70821929259E+02 -0.10322348476E+03  0.13928885800E+03  0.00000000000E+00 0. -1.
<mgrwt>
<rscale>  0 0.15455632E+03</rscale>
<asrwt>0</asrwt>
<pdfrwt beam="1">  1        2 0.23845110E+00 0.25542383E+03</pdfrwt>
<pdfrwt beam="2">  1        2 0.96910716E-01 0.93521645E+02</pdfrwt>
<totfact> 0.98636944E+01</totfact>
</mgrwt>
</event>
<event>
13    1  0.2038932E-008  0.1410903E+03  0.7546771E-02  0.1309528E+00
          4   -1    0    0  503    0  0.00000000000E+00  0.00000000000E+00  0.10388019476E+04  0.10388019476E+04  0.00000000000E+00 0. -1.
         -1   -1    0    0    0  501 -0.00000000000E+00 -0.00000000000E+00 -0.44867046791E+03  0.44867046791E+03  0.00000000000E+00 0.  1.
         24    2    1    2    0    0  0.88043995738E+01  0.19180120905E+01  0.77772692989E+02  0.11219942684E+03  0.80367427392E+02 0.  0.
         25    2    1    2    0    0  0.19357277030E+02  0.16402960696E+03 -0.14571898603E+02  0.20764926265E+03  0.12500183965E+03 0.  0.
         24    2    1    2    0    0 -0.40617028659E+02 -0.18928699455E+02 -0.15239864805E+01  0.92002366874E+02  0.80337253472E+02 0.  0.
        -13    1    3    3    0    0  0.23753559062E+01  0.34274065441E+02  0.83783928368E+01  0.35363135383E+02  0.00000000000E+00 0.  1.
         14    1    3    3    0    0  0.64290436676E+01 -0.32356053351E+02  0.69394300152E+02  0.76836291455E+02  0.00000000000E+00 0. -1.
        -13    1    5    5    0    0 -0.19868200997E+01 -0.44578817549E+02 -0.74980579441E+01  0.45248638665E+02  0.00000000000E+00 0.  1.
         14    1    5    5    0    0 -0.38630208559E+02  0.25650118094E+02  0.59740714636E+01  0.46753728209E+02  0.00000000000E+00 0. -1.
          5    1    4    4  502    0 -0.24365905192E+02 -0.10631396306E+02 -0.30699484974E+01  0.27170544842E+02  0.47000000000E+01 0. -1.
         -5    1    4    4    0  502  0.43723182222E+02  0.17466100327E+03 -0.11501950106E+02  0.18047871781E+03  0.47000000000E+01 0. -1.
          3    1    1    2  503    0 -0.39981650522E+02 -0.13405545467E+03  0.79319011131E+03  0.80543153029E+03  0.00000000000E+00 0. -1.
         -2    1    1    2    0  501  0.52437002577E+02 -0.12963464924E+02 -0.26473543954E+03  0.27018982884E+03  0.00000000000E+00 0.  1.
<mgrwt>
<rscale>  0 0.87298837E+02</rscale>
<asrwt>0</asrwt>
<pdfrwt beam="1">  1        4 0.15276499E+00 0.14109034E+03</pdfrwt>
<pdfrwt beam="2">  1       -1 0.65980951E-01 0.54015652E+02</pdfrwt>
<totfact> 0.29318860E+00</totfact>
</mgrwt>
</event>
<event>
13    1  0.2038932E-008  0.1192739E+03  0.7546771E-02  0.1384401E+00
          2   -1    0    0  503    0  0.00000000000E+00  0.00000000000E+00  0.10580008313E+04  0.10580008313E+04  0.00000000000E+00 0. -1.
          2   -1    0    0  502    0 -0.00000000000E+00 -0.00000000000E+00 -0.12970011550E+04  0.12970011550E+04  0.00000000000E+00 0. -1.
         24    2    1    2    0    0 -0.79845413632E+02 -0.14422189830E+03 -0.59903676128E+03  0.62852501480E+03  0.94991614529E+02 0.  0.
         25    2    1    2    0    0  0.88495647173E+02 -0.93274300233E+02  0.24592079201E+03  0.30435705039E+03  0.12499841412E+03 0.  0.
         24    2    1    2    0    0 -0.14958886565E+03  0.26778718772E+03 -0.19359807731E+02  0.31882716388E+03  0.84788865055E+02 0.  0.
        -13    1    3    3    0    0 -0.91024881460E+02 -0.14891527432E+03 -0.58205619860E+03  0.60766002526E+03  0.00000000000E+00 0.  1.
         14    1    3    3    0    0  0.11179467828E+02  0.46933760187E+01 -0.16980562682E+02  0.20864989537E+02  0.00000000000E+00 0. -1.
        -13    1    5    5    0    0 -0.59134871038E+02  0.40463963437E+02 -0.19149791151E+02  0.74168590460E+02  0.00000000000E+00 0.  1.
         14    1    5    5    0    0 -0.90453994616E+02  0.22732322428E+03 -0.21001657955E+00  0.24465857342E+03  0.00000000000E+00 0. -1.
          5    1    4    4  501    0  0.41511719543E+02  0.27226839847E+02  0.65791241574E+02  0.82553625816E+02  0.47000000000E+01 0. -1.
         -5    1    4    4    0  501  0.46983927630E+02 -0.12050114008E+03  0.18012955043E+03  0.22180342458E+03  0.47000000000E+01 0. -1.
          1    1    1    2  502    0  0.11035533703E+03 -0.44245126034E+02 -0.47715144954E+03  0.49174123010E+03  0.00000000000E+00 0. -1.
          1    1    1    2  503    0  0.30583295080E+02  0.13954136841E+02  0.61062690287E+03  0.61155152717E+03  0.00000000000E+00 0. -1.
<mgrwt>
<rscale>  0 0.63320983E+02</rscale>
<asrwt>0</asrwt>
<pdfrwt beam="1">  1        2 0.15558836E+00 0.33616304E+02</pdfrwt>
<pdfrwt beam="2">  1        2 0.19073546E+00 0.11927388E+03</pdfrwt>
<totfact> 0.90065676E+01</totfact>
</mgrwt>
</event>
<event>
13    1  0.2038932E-008  0.2193190E+03  0.7546771E-02  0.1310427E+00
          2   -1    0    0  502    0  0.00000000000E+00  0.00000000000E+00  0.23022933028E+04  0.23022933028E+04  0.00000000000E+00 0. -1.
          2   -1    0    0  503    0 -0.00000000000E+00 -0.00000000000E+00 -0.15342517518E+04  0.15342517518E+04  0.00000000000E+00 0. -1.
         24    2    1    2    0    0 -0.22233824260E+02 -0.21373028708E+01 -0.12160639983E+03  0.14755969544E+03  0.80540897889E+02 0.  0.
         25    2    1    2    0    0 -0.14075966650E+03  0.43569183358E+03  0.48082896468E+03  0.67561864972E+03  0.12499363588E+03 0.  0.
         24    2    1    2    0    0 -0.11834474165E+03  0.57513730054E+02 -0.33524657603E+02  0.15778586906E+03  0.80368966561E+02 0.  0.
        -11    1    3    3    0    0  0.31317095083E+01  0.35372156880E+02 -0.35160966875E+02  0.49972899439E+02  0.00000000000E+00 0.  1.
         12    1    3    3    0    0 -0.25365533768E+02 -0.37509459751E+02 -0.86445432956E+02  0.97586795998E+02  0.00000000000E+00 0. -1.
        -13    1    5    5    0    0 -0.67651995476E+02  0.56137013782E+02 -0.53917847918E+02  0.10312754788E+03  0.00000000000E+00 0.  1.
         14    1    5    5    0    0 -0.50692746177E+02  0.13767162716E+01  0.20393190315E+02  0.54658321177E+02  0.00000000000E+00 0. -1.
          5    1    4    4  501    0 -0.14854666272E+03  0.43131330125E+03  0.48392653401E+03  0.66505958767E+03  0.47000000000E+01 0.  1.
         -5    1    4    4    0  501  0.77869962226E+01  0.43785323333E+01 -0.30975693278E+01  0.10559062047E+02  0.47000000000E+01 0.  1.
          1    1    1    2  502    0 -0.15679571551E+02  0.30693429845E+02  0.15740790703E+04  0.15744563682E+04  0.00000000000E+00 0. -1.
          1    1    1    2  503    0  0.29701780396E+03 -0.52176169061E+03 -0.11317354265E+04  0.12811244722E+04  0.00000000000E+00 0. -1.
<mgrwt>
<rscale>  0 0.86943356E+02</rscale>
<asrwt>0</asrwt>
<pdfrwt beam="1">  1        2 0.33857255E+00 0.34466442E+02</pdfrwt>
<pdfrwt beam="2">  1        2 0.22562526E+00 0.21931905E+03</pdfrwt>
<totfact> 0.16935662E+01</totfact>
</mgrwt>
</event>
<event>
13    1  0.2038932E-008  0.8097564E+02  0.7546771E-02  0.1342227E+00
          2   -1    0    0  503    0  0.00000000000E+00  0.00000000000E+00  0.17061370517E+04  0.17061370517E+04  0.00000000000E+00 0. -1.
          2   -1    0    0  502    0 -0.00000000000E+00 -0.00000000000E+00 -0.14243464987E+04  0.14243464987E+04  0.00000000000E+00 0. -1.
         24    2    1    2    0    0  0.89971948738E+02  0.38037630000E+02 -0.54737616502E+03  0.56129619677E+03  0.76752469803E+02 0.  0.
         25    2    1    2    0    0 -0.13473367358E+03 -0.17590643476E+03  0.52712647654E+03  0.58530810727E+03  0.12500808606E+03 0.  0.
         24    2    1    2    0    0 -0.17494308509E+02  0.11097060626E+02 -0.29684435382E+03  0.30803546226E+03  0.79624619491E+02 0.  0.
        -11    1    5    5    0    0 -0.38089668526E+02 -0.19027208742E+02 -0.11651253914E+03  0.12404849575E+03  0.00000000000E+00 0.  1.
         12    1    5    5    0    0  0.20595360017E+02  0.30124269368E+02 -0.18033181468E+03  0.18398696650E+03  0.00000000000E+00 0. -1.
        -11    1    3    3    0    0  0.24960569944E+02  0.37441920961E+02 -0.36329796214E+03  0.36607422306E+03  0.00000000000E+00 0.  1.
         12    1    3    3    0    0  0.65011378794E+02  0.59570903876E+00 -0.18407820288E+03  0.19522197370E+03  0.00000000000E+00 0. -1.
          5    1    4    4  501    0 -0.15461519178E+03 -0.16797238199E+03  0.44319431952E+03  0.49856180509E+03  0.47000000000E+01 0. -1.
         -5    1    4    4    0  501  0.19881518204E+02 -0.79340527714E+01  0.83932157028E+02  0.86746302186E+02  0.47000000000E+01 0. -1.
          1    1    1    2  502    0  0.94356123765E+01  0.80143650056E+02 -0.53435602329E+03  0.54041502112E+03  0.00000000000E+00 0. -1.
          1    1    1    2  503    0  0.52820420975E+02  0.46628094075E+02  0.11332406187E+04  0.11354287630E+04  0.00000000000E+00 0. -1.
<mgrwt>
<rscale>  0 0.75533390E+02</rscale>
<asrwt>0</asrwt>
<pdfrwt beam="1">  1        2 0.25090251E+00 0.70456909E+02</pdfrwt>
<pdfrwt beam="2">  1        2 0.20946272E+00 0.80975637E+02</pdfrwt>
<totfact> 0.36206602E+01</totfact>
</mgrwt>
</event>
<event>
13    1  0.2038932E-008  0.1606846E+03  0.7546771E-02  0.1406508E+00
          2   -1    0    0  503    0  0.00000000000E+00  0.00000000000E+00  0.25655233683E+04  0.25655233683E+04  0.00000000000E+00 0. -1.
          2   -1    0    0  502    0 -0.00000000000E+00 -0.00000000000E+00 -0.15221272989E+04  0.15221272989E+04  0.00000000000E+00 0. -1.
         24    2    1    2    0    0 -0.12399770642E+04 -0.19245665930E+03  0.41400003331E+03  0.13237262321E+04  0.79198640747E+02 0.  0.
         25    2    1    2    0    0  0.85686851252E+03  0.30052305025E+03  0.68366851007E+02  0.91914892706E+03  0.12499188901E+03 0.  0.
         24    2    1    2    0    0  0.51437475603E+03 -0.15650693259E+03  0.44630320933E+03  0.70232051761E+03  0.70652283822E+02 0.  0.
        -11    1    3    3    0    0 -0.10033628187E+04 -0.18560153705E+03  0.32626287740E+03  0.10712760343E+04  0.00000000000E+00 0.  1.
         12    1    3    3    0    0 -0.23661424546E+03 -0.68551222576E+01  0.87737155906E+02  0.25245019783E+03  0.00000000000E+00 0. -1.
        -11    1    5    5    0    0  0.28875683944E+03 -0.79501779741E+02  0.20382805566E+03  0.36228017000E+03  0.00000000000E+00 0.  1.
         12    1    5    5    0    0  0.22561791659E+03 -0.77005152844E+02  0.24247515368E+03  0.34004034761E+03  0.00000000000E+00 0. -1.
          5    1    4    4  501    0  0.72175078268E+03  0.20997172064E+03  0.80441153009E+02  0.75597961934E+03  0.47000000000E+01 0. -1.
         -5    1    4    4    0  501  0.13511772984E+03  0.90551329610E+02 -0.12074302002E+02  0.16316930772E+03  0.47000000000E+01 0. -1.
          1    1    1    2  502    0 -0.15121559266E+03  0.54742759473E+02 -0.50109996023E+03  0.52627378361E+03  0.00000000000E+00 0. -1.
          1    1    1    2  503    0  0.19949388285E+02 -0.63022178351E+01  0.61582593602E+03  0.61618120672E+03  0.00000000000E+00 0. -1.
<mgrwt>
<rscale>  0 0.57980273E+02</rscale>
<asrwt>0</asrwt>
<pdfrwt beam="1">  1        2 0.37728285E+00 0.20921186E+02</pdfrwt>
<pdfrwt beam="2">  1        2 0.22384225E+00 0.16068458E+03</pdfrwt>
<totfact> 0.14325094E+01</totfact>
</mgrwt>
</event>
<event>
13    1  0.2038932E-008  0.8372063E+02  0.7546771E-02  0.1323225E+00
         -3   -1    0    0    0  501 -0.00000000000E+00  0.00000000000E+00  0.70680854644E+03  0.70680854644E+03  0.00000000000E+00 0.  1.
          2   -1    0    0  503    0  0.00000000000E+00 -0.00000000000E+00 -0.39795676013E+04  0.39795676013E+04  0.00000000000E+00 0. -1.
         24    2    1    2    0    0  0.21646141982E+03  0.37942239378E+03  0.25084545231E+03  0.51481769458E+03  0.10628696315E+03 0.  0.
         25    2    1    2    0    0 -0.24967264014E+03 -0.39198624949E+03 -0.26601199325E+04  0.27033042092E+04  0.12500377978E+03 0.  0.
         24    2    1    2    0    0 -0.96534903762E+02  0.51617651882E+02 -0.18040141456E+03  0.22522988171E+03  0.78742997231E+02 0.  0.
        -11    1    3    3    0    0  0.12004933515E+03  0.18937493863E+03  0.18809270404E+03  0.29266632120E+03  0.00000000000E+00 0.  1.
         12    1    3    3    0    0  0.96412084671E+02  0.19004745514E+03  0.62752748267E+02  0.22215137337E+03  0.00000000000E+00 0. -1.
        -13    1    5    5    0    0 -0.51089833091E+01  0.29839967320E+01  0.81744022381E+01  0.10090926563E+02  0.00000000000E+00 0.  1.
         14    1    5    5    0    0 -0.91425920453E+02  0.48633655150E+02 -0.18857581680E+03  0.21513895515E+03  0.00000000000E+00 0. -1.
          5    1    4    4  502    0 -0.16596188943E+03 -0.16880766497E+03 -0.11113616323E+04  0.11363037200E+04  0.47000000000E+01 0. -1.
         -5    1    4    4    0  502 -0.83710750714E+02 -0.22317858452E+03 -0.15487583002E+04  0.15670004891E+04  0.47000000000E+01 0. -1.
          1    1    1    2  503    0  0.76384273491E+02  0.25378139462E+02 -0.95507317348E+03  0.95845885352E+03  0.00000000000E+00 0. -1.
         -4    1    1    2    0  501  0.53361850589E+02 -0.64431935624E+02  0.27199001335E+03  0.28456550878E+03  0.00000000000E+00 0.  1.
<mgrwt>
<rscale>  0 0.82089320E+02</rscale>
<asrwt>0</asrwt>
<pdfrwt beam="2">  1        2 0.58523052E+00 0.80489796E+02</pdfrwt>
<pdfrwt beam="1">  1       -3 0.10394243E+00 0.83720630E+02</pdfrwt>
<totfact> 0.40397440E-01</totfact>
</mgrwt>
</event>
<event>
13    1  0.2038932E-008  0.1098890E+03  0.7546771E-02  0.1267285E+00
          2   -1    0    0  502    0  0.00000000000E+00  0.00000000000E+00  0.21813298311E+04  0.21813298311E+04  0.00000000000E+00 0. -1.
          2   -1    0    0  503    0 -0.00000000000E+00 -0.00000000000E+00 -0.14464280520E+04  0.14464280520E+04  0.00000000000E+00 0. -1.
         24    2    1    2    0    0  0.63560529710E+02  0.48146642567E+02 -0.51572991788E+03  0.52779140888E+03  0.78920104906E+02 0.  0.
         25    2    1    2    0    0 -0.43253058474E+02  0.81556725294E+02  0.76287449754E+03  0.77854260753E+03  0.12501506399E+03 0.  0.
         24    2    1    2    0    0 -0.17045841216E+01 -0.13807549665E+02 -0.29106424086E+02  0.86570883966E+02  0.80335421781E+02 0.  0.
        -11    1    5    5    0    0 -0.14238816394E+02  0.30628666302E+02 -0.20777259726E+02  0.39655436115E+02  0.00000000000E+00 0.  1.
         12    1    5    5    0    0  0.12534232273E+02 -0.44436215967E+02 -0.83291643598E+01  0.46915447851E+02  0.00000000000E+00 0. -1.
        -13    1    3    3    0    0  0.56520290952E+02  0.66740184160E+02 -0.34520339272E+03  0.35610978338E+03  0.00000000000E+00 0.  1.
         14    1    3    3    0    0  0.70402387585E+01 -0.18593541593E+02 -0.17052652516E+03  0.17168162550E+03  0.00000000000E+00 0. -1.
          5    1    4    4  501    0 -0.55566176843E+02  0.14771220702E+02  0.13263271492E+03  0.14463511343E+03  0.47000000000E+01 0.  1.
         -5    1    4    4    0  501  0.12313118369E+02  0.66785504592E+02  0.63024178263E+03  0.63390749410E+03  0.47000000000E+01 0.  1.
          1    1    1    2  502    0 -0.16622990154E+03 -0.10823819126E+03  0.13622616202E+04  0.13766279846E+04  0.00000000000E+00 0. -1.
          1    1    1    2  503    0  0.14762701442E+03 -0.76576269347E+01 -0.84539799662E+03  0.85822499808E+03  0.00000000000E+00 0. -1.
<mgrwt>
<rscale>  0 0.10645217E+03</rscale>
<asrwt>0</asrwt>
<pdfrwt beam="1">  1        2 0.32078380E+00 0.10312282E+03</pdfrwt>
<pdfrwt beam="2">  1        2 0.21271001E+00 0.10988901E+03</pdfrwt>
<totfact> 0.19657093E+01</totfact>
</mgrwt>
</event>
<event>
13    1  0.2038932E-008  0.1247373E+03  0.7546771E-02  0.1245034E+00
          2   -1    0    0  503    0  0.00000000000E+00  0.00000000000E+00  0.15642687033E+04  0.15642687033E+04  0.00000000000E+00 0. -1.
          2   -1    0    0  502    0 -0.00000000000E+00 -0.00000000000E+00 -0.94773040456E+03  0.94773040456E+03  0.00000000000E+00 0. -1.
         24    2    1    2    0    0 -0.75672109740E+02  0.44951363946E+02 -0.28547000370E+02  0.12299604932E+03  0.81032114660E+02 0.  0.
         25    2    1    2    0    0  0.10211585821E+03 -0.48033627392E+02 -0.72056471994E+02  0.18316917817E+03  0.12499573920E+03 0.  0.
         24    2    1    2    0    0  0.37542551269E+02  0.16208132494E+02  0.77284523942E+03  0.77818718557E+03  0.81322721124E+02 0.  0.
        -11    1    3    3    0    0  0.13467540501E+02 -0.70249526399E+01 -0.99199802965E+01  0.18141957331E+02  0.00000000000E+00 0.  1.
         12    1    3    3    0    0 -0.89139650240E+02  0.51976316586E+02 -0.18627020073E+02  0.10485409199E+03  0.00000000000E+00 0. -1.
        -11    1    5    5    0    0 -0.77920905783E+01  0.36607227808E+02  0.22506467555E+03  0.22815546012E+03  0.00000000000E+00 0.  1.
         12    1    5    5    0    0  0.45334641847E+02 -0.20399095314E+02  0.54778056387E+03  0.55003172545E+03  0.00000000000E+00 0. -1.
          5    1    4    4  501    0  0.24423270677E+00 -0.64866622295E+02 -0.27236325054E+02  0.70509898171E+02  0.47000000000E+01 0.  1.
         -5    1    4    4    0  501  0.10187162550E+03  0.16832994903E+02 -0.44820146940E+02  0.11265928000E+03  0.47000000000E+01 0.  1.
          1    1    1    2  502    0 -0.14899312889E+02 -0.14550256197E+03 -0.72704942744E+03  0.74161570575E+03  0.00000000000E+00 0. -1.
          1    1    1    2  503    0 -0.49086986846E+02  0.13237669293E+03  0.67134595915E+03  0.68603098908E+03  0.00000000000E+00 0. -1.
<mgrwt>
<rscale>  0 0.11883367E+03</rscale>
<asrwt>0</asrwt>
<pdfrwt beam="1">  1        2 0.23003951E+00 0.11320941E+03</pdfrwt>
<pdfrwt beam="2">  1        2 0.13937212E+00 0.12473734E+03</pdfrwt>
<totfact> 0.71620824E+01</totfact>
</mgrwt>
</event>
<event>
13    1  0.2038932E-008  0.9698416E+02  0.7546771E-02  0.1391287E+00
          2   -1    0    0  503    0  0.00000000000E+00  0.00000000000E+00  0.16565544729E+04  0.16565544729E+04  0.00000000000E+00 0. -1.
          2   -1    0    0  502    0 -0.00000000000E+00 -0.00000000000E+00 -0.82739353116E+03  0.82739353116E+03  0.00000000000E+00 0. -1.
         24    2    1    2    0    0  0.52217878851E+02 -0.86791099942E+02  0.10794844333E+03  0.16872735636E+03  0.80973158923E+02 0.  0.
         25    2    1    2    0    0 -0.14358089152E+02  0.86633822544E+01  0.16614887201E+03  0.20859475874E+03  0.12500046714E+03 0.  0.
         24    2    1    2    0    0  0.23056790961E+02 -0.37158739837E+02  0.70448943257E+03  0.71062410944E+03  0.82273183697E+02 0.  0.
        -11    1    3    3    0    0  0.52041808413E+02 -0.45176904423E+02  0.20528324143E+02  0.71907681149E+02  0.00000000000E+00 0.  1.
         12    1    3    3    0    0  0.17607043802E+00 -0.41614195519E+02  0.87420119182E+02  0.96819675207E+02  0.00000000000E+00 0. -1.
        -13    1    5    5    0    0  0.13125109796E+02  0.25972074499E+02  0.24055000032E+03  0.24230377590E+03  0.00000000000E+00 0.  1.
         14    1    5    5    0    0  0.99316811643E+01 -0.63130814336E+02  0.46393943225E+03  0.46832033354E+03  0.00000000000E+00 0. -1.
          5    1    4    4  501    0 -0.64871360532E+02 -0.10441265210E+02  0.58645599927E+02  0.88196994434E+02  0.47000000000E+01 0. -1.
         -5    1    4    4    0  501  0.50513271380E+02  0.19104647464E+02  0.10750327208E+03  0.12039776430E+03  0.47000000000E+01 0. -1.
          1    1    1    2  502    0 -0.29024446130E+02  0.92648264251E+02 -0.76904513952E+03  0.77514937010E+03  0.00000000000E+00 0. -1.
          1    1    1    2  503    0 -0.31892134529E+02  0.22638193273E+02  0.61961933339E+03  0.62085240947E+03  0.00000000000E+00 0. -1.
<mgrwt>
<rscale>  0 0.61587785E+02</rscale>
<asrwt>0</asrwt>
<pdfrwt beam="1">  1        2 0.24361095E+00 0.39110050E+02</pdfrwt>
<pdfrwt beam="2">  1        2 0.12167552E+00 0.96984158E+02</pdfrwt>
<totfact> 0.85083970E+01</totfact>
</mgrwt>
</event>
<event>
13    1  0.2038932E-008  0.6890344E+02  0.7546771E-02  0.1365501E+00
          2   -1    0    0  502    0  0.00000000000E+00  0.00000000000E+00  0.99756866754E+03  0.99756866754E+03  0.00000000000E+00 0. -1.
          2   -1    0    0  503    0 -0.00000000000E+00 -0.00000000000E+00 -0.91511413496E+03  0.91511413496E+03  0.00000000000E+00 0. -1.
         24    2    1    2    0    0  0.30566242729E+02 -0.73866830723E+02 -0.37761103184E+02  0.11954231382E+03  0.80460300799E+02 0.  0.
         25    2    1    2    0    0 -0.48322167166E+02  0.62864851019E+02  0.35183134469E+03  0.38170089372E+03  0.12499302312E+03 0.  0.
         24    2    1    2    0    0  0.86101462538E+01  0.35671089289E+02 -0.43009886211E+01  0.89153795114E+02  0.81137780660E+02 0.  0.
        -13    1    3    3    0    0  0.25416012264E+02 -0.21805222825E+02  0.22037933895E+02  0.40088800833E+02  0.00000000000E+00 0.  1.
         14    1    3    3    0    0  0.51502304652E+01 -0.52061607899E+02 -0.59799037079E+02  0.79453512990E+02  0.00000000000E+00 0. -1.
        -13    1    5    5    0    0 -0.34560586815E+02  0.29165383073E+02 -0.49371865147E+01  0.45490983079E+02  0.00000000000E+00 0.  1.
         14    1    5    5    0    0  0.43170733068E+02  0.65057062160E+01  0.63619789360E+00  0.43662812035E+02  0.00000000000E+00 0. -1.
          5    1    4    4  501    0  0.32244373074E+02  0.55298177426E+02  0.11967147102E+03  0.13579741896E+03  0.47000000000E+01 0.  1.
         -5    1    4    4    0  501 -0.80566540239E+02  0.75666735926E+01  0.23215987367E+03  0.24590347476E+03  0.47000000000E+01 0.  1.
          1    1    1    2  502    0  0.66544147913E+02  0.13838678501E+02  0.54382436853E+03  0.54805526770E+03  0.00000000000E+00 0. -1.
          1    1    1    2  503    0 -0.57398369731E+02 -0.38507788086E+02 -0.77113908883E+03  0.77423053215E+03  0.00000000000E+00 0. -1.
<mgrwt>
<rscale>  0 0.68434061E+02</rscale>
<asrwt>0</asrwt>
<pdfrwt beam="1">  1        2 0.14670128E+00 0.67967880E+02</pdfrwt>
<pdfrwt beam="2">  1        2 0.13457561E+00 0.68903439E+02</pdfrwt>
<totfact> 0.15650881E+02</totfact>
</mgrwt>
</event>
<event>
13    1  0.2038932E-008  0.9167424E+02  0.7546771E-02  0.1328391E+00
          2   -1    0    0  503    0  0.00000000000E+00  0.00000000000E+00  0.17165222336E+04  0.17165222336E+04  0.00000000000E+00 0. -1.
          2   -1    0    0  502    0 -0.00000000000E+00 -0.00000000000E+00 -0.10107150906E+04  0.10107150906E+04  0.00000000000E+00 0. -1.
         24    2    1    2    0    0  0.13582048370E+03 -0.23673019049E+03  0.16236810280E+03  0.32691182489E+03  0.77585781963E+02 0.  0.
         25    2    1    2    0    0  0.17806495078E+03  0.19501881784E+03  0.39213267953E+03  0.48901114862E+03  0.12499759644E+03 0.  0.
         24    2    1    2    0    0 -0.33630062005E+03  0.17142043248E+03  0.18647032653E+03  0.42789965606E+03  0.76445152015E+02 0.  0.
        -11    1    5    5    0    0 -0.60403926460E+02  0.65230654292E+02  0.53364921559E+02  0.10368937961E+03  0.00000000000E+00 0.  1.
         12    1    5    5    0    0 -0.27589669359E+03  0.10618977819E+03  0.13310540497E+03  0.32421027645E+03  0.00000000000E+00 0. -1.
        -13    1    3    3    0    0  0.27831138307E+02 -0.59580055204E+02  0.39559276176E+01  0.65878711287E+02  0.00000000000E+00 0.  1.
         14    1    3    3    0    0  0.10798934539E+03 -0.17715013529E+03  0.15841217518E+03  0.26103311360E+03  0.00000000000E+00 0. -1.
          5    1    4    4  501    0  0.12194291141E+03  0.12289879382E+03  0.34511123239E+03  0.38613215339E+03  0.47000000000E+01 0.  1.
         -5    1    4    4    0  501  0.56122039369E+02  0.72120024022E+02  0.47021447141E+02  0.10287899523E+03  0.47000000000E+01 0.  1.
          1    1    1    2  502    0 -0.32320788858E+02 -0.85722535550E+02 -0.75481078192E+03  0.76035011869E+03  0.00000000000E+00 0. -1.
          1    1    1    2  503    0  0.54735974432E+02 -0.43986524277E+02  0.71964681599E+03  0.72306457594E+03  0.00000000000E+00 0. -1.
<mgrwt>
<rscale>  0 0.80233162E+02</rscale>
<asrwt>0</asrwt>
<pdfrwt beam="1">  1        2 0.25242974E+00 0.70219949E+02</pdfrwt>
<pdfrwt beam="2">  1        2 0.14863457E+00 0.91674237E+02</pdfrwt>
<totfact> 0.58682286E+01</totfact>
</mgrwt>
</event>
<event>
13    1  0.2038932E-008  0.1025239E+03  0.7546771E-02  0.1349866E+00
         -1   -1    0    0    0  501 -0.00000000000E+00  0.00000000000E+00  0.11881988174E+04  0.11881988174E+04  0.00000000000E+00 0.  1.
          2   -1    0    0  503    0  0.00000000000E+00 -0.00000000000E+00 -0.15181457943E+04  0.15181457943E+04  0.00000000000E+00 0. -1.
         24    2    1    2    0    0  0.98886856272E+02 -0.30236334209E+02  0.25933869590E+03  0.29000569914E+03  0.78446797863E+02 0.  0.
         25    2    1    2    0    0 -0.25901074217E+03  0.21260674326E+01 -0.39841962519E+03  0.49137859628E+03  0.12499456956E+03 0.  0.
         24    2    1    2    0    0 -0.14778115133E+02  0.39944279928E+02  0.33079953065E+03  0.34294766309E+03  0.79817491527E+02 0.  0.
        -11    1    5    5    0    0 -0.47846875184E+02  0.23297995221E+02  0.20695237311E+03  0.21368529379E+03  0.00000000000E+00 0.  1.
         12    1    5    5    0    0  0.33068760051E+02  0.16646284707E+02  0.12384715753E+03  0.12926236929E+03  0.00000000000E+00 0. -1.
        -13    1    3    3    0    0  0.21750713651E+02  0.18730017631E+02  0.23530189264E+02  0.37115723239E+02  0.00000000000E+00 0.  1.
         14    1    3    3    0    0  0.77136142622E+02 -0.48966351840E+02  0.23580850664E+03  0.25288997590E+03  0.00000000000E+00 0. -1.
          5    1    4    4  502    0 -0.18022359348E+03 -0.10964472826E+00 -0.36203399389E+03  0.40443943724E+03  0.47000000000E+01 0. -1.
         -5    1    4    4    0  502 -0.78787148692E+02  0.22357121608E+01 -0.36385631301E+02  0.86939159031E+02  0.47000000000E+01 0. -1.
          1    1    1    2  503    0  0.50597715423E+02  0.12491722441E+02 -0.10436144504E+04  0.10449149693E+04  0.00000000000E+00 0. -1.
         -2    1    1    2    0  501  0.12430428561E+03 -0.24325735593E+02  0.52194887223E+03  0.53709768390E+03  0.00000000000E+00 0.  1.
<mgrwt>
<rscale>  0 0.73097401E+02</rscale>
<asrwt>0</asrwt>
<pdfrwt beam="2">  1        2 0.22325673E+00 0.52116906E+02</pdfrwt>
<pdfrwt beam="1">  1       -1 0.17473512E+00 0.10252393E+03</pdfrwt>
<totfact> 0.51175165E+00</totfact>
</mgrwt>
</event>
<event>
13    1  0.2038932E-008  0.3538481E+02  0.7546771E-02  0.1571721E+00
          2   -1    0    0  502    0  0.00000000000E+00  0.00000000000E+00  0.84025130638E+03  0.84025130638E+03  0.00000000000E+00 0. -1.
          2   -1    0    0  503    0 -0.00000000000E+00 -0.00000000000E+00 -0.13140289229E+04  0.13140289229E+04  0.00000000000E+00 0. -1.
         24    2    1    2    0    0  0.37358597844E+02  0.32662139288E+03 -0.47990154223E+03  0.58704865885E+03  0.79015432059E+02 0.  0.
         25    2    1    2    0    0 -0.49921513932E+02 -0.16339844947E+03  0.39321754584E+03  0.44658306595E+03  0.12500074237E+03 0.  0.
         24    2    1    2    0    0 -0.36242476080E+02 -0.17505676509E+03 -0.86298686315E+02  0.21446522460E+03  0.81175619661E+02 0.  0.
        -11    1    5    5    0    0  0.10570973209E+02 -0.58979666815E+02 -0.63384508466E+02  0.87223520255E+02  0.00000000000E+00 0.  1.
         12    1    5    5    0    0 -0.46813449289E+02 -0.11607709828E+03 -0.22914177849E+02  0.12724170435E+03  0.00000000000E+00 0. -1.
        -11    1    3    3    0    0  0.31196736897E+02  0.10377287948E+03 -0.21546327821E+03  0.24117726088E+03  0.00000000000E+00 0.  1.
         12    1    3    3    0    0  0.61618609470E+01  0.22284851340E+03 -0.26443826401E+03  0.34587139796E+03  0.00000000000E+00 0. -1.
          5    1    4    4  501    0 -0.28758089354E+02 -0.83886602947E+02  0.70147680072E+02  0.11316703087E+03  0.47000000000E+01 0.  1.
         -5    1    4    4    0  501 -0.21163424578E+02 -0.79511846521E+02  0.32306986577E+03  0.33341603508E+03  0.47000000000E+01 0.  1.
          1    1    1    2  502    0  0.32745803136E+02 -0.13388356465E+02  0.30128822992E+03  0.30335809400E+03  0.00000000000E+00 0. -1.
          1    1    1    2  503    0  0.16059589032E+02  0.25222178145E+02 -0.60208316372E+03  0.60282518586E+03  0.00000000000E+00 0. -1.
<mgrwt>
<rscale>  0 0.32527537E+02</rscale>
<asrwt>0</asrwt>
<pdfrwt beam="1">  1        2 0.12356637E+00 0.35384814E+02</pdfrwt>
<pdfrwt beam="2">  1        2 0.19323955E+00 0.29900981E+02</pdfrwt>
<totfact> 0.12849437E+02</totfact>
</mgrwt>
</event>
<event>
13    1  0.2038932E-008  0.1080521E+03  0.7546771E-02  0.1276613E+00
          2   -1    0    0  502    0  0.00000000000E+00  0.00000000000E+00  0.10261281644E+04  0.10261281644E+04  0.00000000000E+00 0. -1.
          2   -1    0    0  503    0 -0.00000000000E+00 -0.00000000000E+00 -0.21118806804E+04  0.21118806804E+04  0.00000000000E+00 0. -1.
         24    2    1    2    0    0  0.12714682687E+03 -0.72642463630E+02  0.46561518393E+01  0.16778169959E+03  0.81766593799E+02 0.  0.
         25    2    1    2    0    0 -0.10389823995E+03  0.48385153256E+02 -0.11071162866E+04  0.11200299051E+04  0.12499819525E+03 0.  0.
         24    2    1    2    0    0 -0.30278026839E+02  0.54102461706E+02  0.10806951029E+03  0.14835052697E+03  0.80529649996E+02 0.  0.
        -13    1    5    5    0    0 -0.15934226129E+02  0.64557698161E+02  0.39111417430E+02  0.77144662341E+02  0.00000000000E+00 0.  1.
         14    1    5    5    0    0 -0.14343800710E+02 -0.10455236456E+02  0.68958092855E+02  0.71205864634E+02  0.00000000000E+00 0. -1.
        -13    1    3    3    0    0  0.11862891650E+03 -0.32700818123E+02  0.18967911896E+02  0.12450680712E+03  0.00000000000E+00 0.  1.
         14    1    3    3    0    0  0.85179103717E+01 -0.39941645507E+02 -0.14311760057E+02  0.43274892476E+02  0.00000000000E+00 0. -1.
          5    1    4    4  501    0 -0.59677148499E+02  0.39453508764E+02 -0.10132064181E+04  0.10157397684E+04  0.47000000000E+01 0. -1.
         -5    1    4    4    0  501 -0.44221091454E+02  0.89316444923E+01 -0.93909868542E+02  0.10429013670E+03  0.47000000000E+01 0. -1.
          1    1    1    2  502    0  0.11731295465E+03 -0.43393036380E+02  0.79690285581E+03  0.80665943652E+03  0.00000000000E+00 0. -1.
          1    1    1    2  503    0 -0.11028351474E+03  0.13547885048E+02 -0.88826474736E+03  0.89518727662E+03  0.00000000000E+00 0. -1.
<mgrwt>
<rscale>  0 0.10177189E+03</rscale>
<asrwt>0</asrwt>
<pdfrwt beam="1">  1        2 0.15090120E+00 0.95856707E+02</pdfrwt>
<pdfrwt beam="2">  1        2 0.31057069E+00 0.10805209E+03</pdfrwt>
<totfact> 0.35529593E+01</totfact>
</mgrwt>
</event>
<event>
13    1  0.2038932E-008  0.7122944E+02  0.7546771E-02  0.1374551E+00
          2   -1    0    0  503    0  0.00000000000E+00  0.00000000000E+00  0.83193302757E+03  0.83193302757E+03  0.00000000000E+00 0. -1.
          2   -1    0    0  502    0 -0.00000000000E+00 -0.00000000000E+00 -0.21421831453E+04  0.21421831453E+04  0.00000000000E+00 0. -1.
         24    2    1    2    0    0 -0.63851140901E+01 -0.35577351041E+02 -0.12415149583E+04  0.12445421011E+04  0.78861474211E+02 0.  0.
         25    2    1    2    0    0 -0.11317824116E+02 -0.80785926229E+01  0.57087769268E+02  0.13812440047E+03  0.12500391916E+03 0.  0.
         24    2    1    2    0    0  0.83775600617E+01  0.49378670779E+02  0.60649734186E+03  0.61432604079E+03  0.83958454463E+02 0.  0.
        -11    1    3    3    0    0 -0.30213343374E+02 -0.45032500132E+02 -0.10385109694E+04  0.10399258655E+04  0.00000000000E+00 0.  1.
         12    1    3    3    0    0  0.23828229283E+02  0.94551490902E+01 -0.20300398891E+03  0.20461623559E+03  0.00000000000E+00 0. -1.
        -13    1    5    5    0    0 -0.34495702512E+02  0.25496562023E+02  0.18127806713E+03  0.18628409967E+03  0.00000000000E+00 0.  1.
         14    1    5    5    0    0  0.42873262573E+02  0.23882108756E+02  0.42521927473E+03  0.42804194113E+03  0.00000000000E+00 0. -1.
          5    1    4    4  501    0  0.53497040625E+02 -0.95354823843E+01  0.47680740907E+02  0.72445854494E+02  0.47000000000E+01 0. -1.
         -5    1    4    4    0  501 -0.64814864741E+02  0.14568897614E+01  0.94070283609E+01  0.65678545978E+02  0.47000000000E+01 0. -1.
          1    1    1    2  502    0 -0.43933481979E+02  0.42322313002E+02 -0.84301624742E+03  0.84522051705E+03  0.00000000000E+00 0. -1.
          1    1    1    2  503    0  0.53258860123E+02 -0.48045040117E+02  0.11069597684E+03  0.13190311350E+03  0.00000000000E+00 0. -1.
<mgrwt>
<rscale>  0 0.65918038E+02</rscale>
<asrwt>0</asrwt>
<pdfrwt beam="1">  1        2 0.12234309E+00 0.71229438E+02</pdfrwt>
<pdfrwt beam="2">  1        2 0.31502693E+00 0.61002697E+02</pdfrwt>
<totfact> 0.48458094E+01</totfact>
</mgrwt>
</event>
<event>
13    1  0.2038932E-008  0.9263837E+02  0.7546771E-02  0.1329368E+00
          2   -1    0    0  503    0  0.00000000000E+00  0.00000000000E+00  0.27172439439E+04  0.27172439439E+04  0.00000000000E+00 0. -1.
          2   -1    0    0  502    0 -0.00000000000E+00 -0.00000000000E+00 -0.10579951044E+04  0.10579951044E+04  0.00000000000E+00 0. -1.
         24    2    1    2    0    0  0.37035059626E+02  0.32772224554E+02  0.62727327617E+02  0.11628693843E+03  0.84512248085E+02 0.  0.
         25    2    1    2    0    0 -0.84983263084E+00  0.14430814786E+02  0.34768733869E+03  0.36975935557E+03  0.12500609951E+03 0.  0.
         24    2    1    2    0    0  0.44014490472E+02  0.70325513473E+02 -0.34194155394E+02  0.12052725059E+03  0.80465052386E+02 0.  0.
        -11    1    3    3    0    0 -0.16394373737E+01 -0.11787189890E+02 -0.14717509461E+02  0.18926982991E+02  0.00000000000E+00 0.  1.
         12    1    3    3    0    0  0.38674497000E+02  0.44559414444E+02  0.77444837077E+02  0.97359955442E+02  0.00000000000E+00 0. -1.
        -13    1    5    5    0    0  0.21002905716E+02 -0.11203617047E+02 -0.26258076914E+02  0.35441919907E+02  0.00000000000E+00 0.  1.
         14    1    5    5    0    0  0.23011584756E+02  0.81529130519E+02 -0.79360784797E+01  0.85085330685E+02  0.00000000000E+00 0. -1.
          5    1    4    4  501    0 -0.44637323265E+02  0.47164384040E+02  0.13175374643E+03  0.14696295264E+03  0.47000000000E+01 0. -1.
         -5    1    4    4    0  501  0.43787490634E+02 -0.32733569255E+02  0.21593359227E+03  0.22279640294E+03  0.47000000000E+01 0. -1.
          1    1    1    2  502    0 -0.16554130816E+02 -0.91155991463E+02 -0.94000765761E+03  0.94456225332E+03  0.00000000000E+00 0. -1.
          1    1    1    2  503    0 -0.63645586651E+02 -0.26372561349E+02  0.22230359862E+04  0.22241032504E+04  0.00000000000E+00 0. -1.
<mgrwt>
<rscale>  0 0.79888383E+02</rscale>
<asrwt>0</asrwt>
<pdfrwt beam="1">  1        2 0.39959470E+00 0.68893198E+02</pdfrwt>
<pdfrwt beam="2">  1        2 0.15558752E+00 0.92638372E+02</pdfrwt>
<totfact> 0.18244479E+01</totfact>
</mgrwt>
</event>
<event>
13    1  0.2038932E-008  0.1192709E+03  0.7546771E-02  0.1258698E+00
          2   -1    0    0  502    0  0.00000000000E+00  0.00000000000E+00  0.29827497721E+04  0.29827497721E+04  0.00000000000E+00 0. -1.
          2   -1    0    0  503    0 -0.00000000000E+00 -0.00000000000E+00 -0.24043777659E+04  0.24043777659E+04  0.00000000000E+00 0. -1.
         24    2    1    2    0    0  0.21638803960E+02 -0.90043379260E+02 -0.10108037546E+04  0.10182584329E+04  0.80931809879E+02 0.  0.
         25    2    1    2    0    0  0.52352051021E+02  0.18100343659E+03  0.12260751305E+03  0.25721626334E+03  0.12499849026E+03 0.  0.
         24    2    1    2    0    0  0.77386715290E+02  0.53679122088E+02 -0.23297840049E+03  0.26528558480E+03  0.85013849182E+02 0.  0.
        -11    1    3    3    0    0 -0.23911094142E+02 -0.42097030303E+02 -0.62100697644E+03  0.62289129483E+03  0.00000000000E+00 0.  1.
         12    1    3    3    0    0  0.45549898103E+02 -0.47946348957E+02 -0.38979677812E+03  0.39536713802E+03  0.00000000000E+00 0. -1.
        -11    1    5    5    0    0 -0.34626921234E+01  0.33638530759E+02 -0.27570116173E+02  0.43630864008E+02  0.00000000000E+00 0.  1.
         12    1    5    5    0    0  0.80849407413E+02  0.20040591330E+02 -0.20540828432E+03  0.22165472079E+03  0.00000000000E+00 0. -1.
          5    1    4    4  501    0  0.79822585583E+02  0.17365591730E+03  0.12480269955E+03  0.22831081139E+03  0.47000000000E+01 0. -1.
         -5    1    4    4    0  501 -0.27470534563E+02  0.73475192899E+01 -0.21951864971E+01  0.28905451953E+02  0.47000000000E+01 0. -1.
          1    1    1    2  502    0 -0.10787924484E+03 -0.50906268404E+02  0.27691830258E+04  0.27717510729E+04  0.00000000000E+00 0. -1.
          1    1    1    2  503    0 -0.43498325434E+02 -0.93732911019E+02 -0.10696363776E+04  0.10746161841E+04  0.00000000000E+00 0. -1.
<mgrwt>
<rscale>  0 0.11101697E+03</rscale>
<asrwt>0</asrwt>
<pdfrwt beam="1">  1        2 0.43863967E+00 0.11927091E+03</pdfrwt>
<pdfrwt beam="2">  1        2 0.35358496E+00 0.10333423E+03</pdfrwt>
<totfact> 0.26016600E+00</totfact>
</mgrwt>
</event>
<event>
13    1  0.2038932E-008  0.1614546E+03  0.7546771E-02  0.1299265E+00
          2   -1    0    0  503    0  0.00000000000E+00  0.00000000000E+00  0.17709510430E+04  0.17709510430E+04  0.00000000000E+00 0. -1.
          2   -1    0    0  502    0 -0.00000000000E+00 -0.00000000000E+00 -0.25698893024E+04  0.25698893024E+04  0.00000000000E+00 0. -1.
         24    2    1    2    0    0 -0.17367489540E+03  0.86635551667E+02 -0.33097847237E+03  0.39317608798E+03  0.85860345239E+02 0.  0.
         25    2    1    2    0    0  0.81390474237E+02 -0.24603527959E+03  0.16584831618E+03  0.33209673953E+03  0.12499924931E+03 0.  0.
         24    2    1    2    0    0  0.92187574824E+02 -0.11307394126E+03 -0.60777526715E+03  0.63014834197E+03  0.80074292948E+02 0.  0.
        -11    1    3    3    0    0  0.78976328414E+00  0.25106382299E+02 -0.60257867008E+02  0.65283724576E+02  0.00000000000E+00 0.  1.
         12    1    3    3    0    0 -0.17446465869E+03  0.61529169368E+02 -0.27072060536E+03  0.32789236340E+03  0.00000000000E+00 0. -1.
        -13    1    5    5    0    0 -0.10553581848E+02  0.98116938505E+00 -0.19725561816E+02  0.22392824122E+02  0.00000000000E+00 0.  1.
         14    1    5    5    0    0  0.10274115667E+03 -0.11405511065E+03 -0.58804970533E+03  0.60775551785E+03  0.00000000000E+00 0. -1.
          5    1    4    4  501    0 -0.10696219859E+01 -0.11522693958E+03  0.12906065859E+03  0.17308129677E+03  0.47000000000E+01 0.  1.
         -5    1    4    4    0  501  0.82460096223E+02 -0.13080834002E+03  0.36787657595E+02  0.15901544277E+03  0.47000000000E+01 0.  1.
          1    1    1    2  502    0 -0.39098306826E+02  0.23852652894E+03 -0.14955655649E+04  0.15149719277E+04  0.00000000000E+00 0. -1.
          1    1    1    2  503    0  0.39195153167E+02  0.33947140244E+02  0.14695327289E+04  0.14704472482E+04  0.00000000000E+00 0. -1.
<mgrwt>
<rscale>  0 0.91497554E+02</rscale>
<asrwt>0</asrwt>
<pdfrwt beam="1">  1        2 0.26043398E+00 0.51852371E+02</pdfrwt>
<pdfrwt beam="2">  1        2 0.37792490E+00 0.16145457E+03</pdfrwt>
<totfact> 0.88793651E+00</totfact>
</mgrwt>
</event>
<event>
13    1  0.2038932E-008  0.8162341E+02  0.7546771E-02  0.1382549E+00
          2   -1    0    0  502    0  0.00000000000E+00  0.00000000000E+00  0.22902117977E+04  0.22902117977E+04  0.00000000000E+00 0. -1.
          2   -1    0    0  503    0 -0.00000000000E+00 -0.00000000000E+00 -0.57436321486E+03  0.57436321486E+03  0.00000000000E+00 0. -1.
         24    2    1    2    0    0  0.24692608424E+02  0.11486890939E+03 -0.10791016925E+03  0.17890832037E+03  0.80987599143E+02 0.  0.
         25    2    1    2    0    0 -0.62466201930E+02 -0.13828197372E+03  0.62931788112E+03  0.65931016025E+03  0.12499984505E+03 0.  0.
         24    2    1    2    0    0 -0.15111601661E+01  0.40484063626E+02  0.67381063112E+02  0.11128424270E+03  0.78757425009E+02 0.  0.
        -11    1    3    3    0    0  0.35561335842E+02  0.31845652860E+02 -0.77533385375E+01  0.48361849338E+02  0.00000000000E+00 0.  1.
         12    1    3    3    0    0 -0.10868727417E+02  0.83023256535E+02 -0.10015683071E+03  0.13054647104E+03  0.00000000000E+00 0. -1.
        -13    1    5    5    0    0 -0.13642528728E+02  0.38205234163E+02 -0.21896414856E+01  0.40626998872E+02  0.00000000000E+00 0.  1.
         14    1    5    5    0    0  0.12131368562E+02  0.22788294637E+01  0.69570704598E+02  0.70657243826E+02  0.00000000000E+00 0. -1.
          5    1    4    4  501    0  0.46870110981E+01  0.19451109991E+02  0.33502240455E+02  0.39303993034E+02  0.47000000000E+01 0. -1.
         -5    1    4    4    0  501 -0.67153213028E+02 -0.15773308371E+03  0.59581564067E+03  0.62000616721E+03  0.47000000000E+01 0. -1.
          1    1    1    2  502    0  0.81311842920E+02  0.97685308683E+01  0.15183803208E+04  0.15205873334E+04  0.00000000000E+00 0. -1.
          1    1    1    2  503    0 -0.42027089249E+02 -0.26839530169E+02 -0.39132051288E+03  0.39448495587E+03  0.00000000000E+00 0. -1.
<mgrwt>
<rscale>  0 0.63798495E+02</rscale>
<asrwt>0</asrwt>
<pdfrwt beam="1">  1        2 0.33679585E+00 0.81623405E+02</pdfrwt>
<pdfrwt beam="2">  1        2 0.84465180E-01 0.49866187E+02</pdfrwt>
<totfact> 0.60988703E+01</totfact>
</mgrwt>
</event>
<event>
13    1  0.2038932E-008  0.6812427E+02  0.7546771E-02  0.1403250E+00
          2   -1    0    0  503    0  0.00000000000E+00  0.00000000000E+00  0.20008139318E+04  0.20008139318E+04  0.00000000000E+00 0. -1.
          2   -1    0    0  502    0 -0.00000000000E+00 -0.00000000000E+00 -0.21885786979E+04  0.21885786979E+04  0.00000000000E+00 0. -1.
         24    2    1    2    0    0  0.74518755692E+02  0.73276336801E+02 -0.88070099990E+03  0.89046354443E+03  0.79803547772E+02 0.  0.
         25    2    1    2    0    0 -0.85636084979E+01 -0.72659544902E+02  0.49173032175E+03  0.51262213389E+03  0.12501999025E+03 0.  0.
         24    2    1    2    0    0 -0.12266470634E+03 -0.61574390011E+02 -0.76824551527E+03  0.78475250406E+03  0.82445650011E+02 0.  0.
        -13    1    3    3    0    0  0.80432022090E+02  0.77954619980E+02 -0.64581254217E+03  0.65545409647E+03  0.00000000000E+00 0.  1.
         14    1    3    3    0    0 -0.59132663979E+01 -0.46782831790E+01 -0.23488845774E+03  0.23500944796E+03  0.00000000000E+00 0. -1.
        -13    1    5    5    0    0 -0.11566743097E+03 -0.29308062093E+02 -0.68284415428E+03  0.69319121180E+03  0.00000000000E+00 0.  1.
         14    1    5    5    0    0 -0.69972753726E+01 -0.32266327918E+02 -0.85401360990E+02  0.91561292252E+02  0.00000000000E+00 0. -1.
          5    1    4    4  501    0  0.43881993537E+02 -0.72154644273E+02  0.37719286697E+03  0.38655978961E+03  0.47000000000E+01 0. -1.
         -5    1    4    4    0  501 -0.52445602034E+02 -0.50490062945E+00  0.11453745478E+03  0.12606234428E+03  0.47000000000E+01 0. -1.
          1    1    1    2  502    0  0.65491363646E+01  0.67817148672E+02 -0.51336878136E+03  0.51787021783E+03  0.00000000000E+00 0. -1.
          1    1    1    2  503    0  0.50160422783E+02 -0.68595505597E+01  0.14828202087E+04  0.14836842295E+04  0.00000000000E+00 0. -1.
<mgrwt>
<rscale>  0 0.58727733E+02</rscale>
<asrwt>0</asrwt>
<pdfrwt beam="1">  1        2 0.29423734E+00 0.50627280E+02</pdfrwt>
<pdfrwt beam="2">  1        2 0.32184981E+00 0.68124272E+02</pdfrwt>
<totfact> 0.11921242E+01</totfact>
</mgrwt>
</event>
<event>
13    1  0.2038932E-008  0.6817815E+02  0.7546771E-02  0.1486737E+00
          2   -1    0    0  503    0  0.00000000000E+00  0.00000000000E+00  0.66926443746E+03  0.66926443746E+03  0.00000000000E+00 0. -1.
          2   -1    0    0  502    0 -0.00000000000E+00 -0.00000000000E+00 -0.22322568621E+04  0.22322568621E+04  0.00000000000E+00 0. -1.
         24    2    1    2    0    0  0.12349700630E+03 -0.35110866222E+02 -0.76308249537E+03  0.77817837356E+03  0.82355344967E+02 0.  0.
         25    2    1    2    0    0 -0.15072595712E+03  0.18090076329E+03 -0.18040186319E+03  0.32188950921E+03  0.12499849435E+03 0.  0.
         24    2    1    2    0    0  0.38691893551E+02 -0.53202147197E+02 -0.42129127944E+02  0.10970258640E+03  0.77021185063E+02 0.  0.
        -11    1    5    5    0    0  0.18031704613E+02 -0.51225140308E+02  0.85159682677E+01  0.54969801586E+02  0.00000000000E+00 0.  1.
         12    1    5    5    0    0  0.20660188938E+02 -0.19770068887E+01 -0.50645096211E+02  0.54732784814E+02  0.00000000000E+00 0. -1.
        -13    1    3    3    0    0  0.20269219242E+02  0.11127382763E+02 -0.39195280302E+02  0.45507470747E+02  0.00000000000E+00 0.  1.
         14    1    3    3    0    0  0.10322778706E+03 -0.46238248985E+02 -0.72388721507E+03  0.73267090281E+03  0.00000000000E+00 0. -1.
          5    1    4    4  501    0 -0.11923453667E+03  0.18401648805E+03 -0.18815692872E+03  0.28897069477E+03  0.47000000000E+01 0.  1.
         -5    1    4    4    0  501 -0.31491420444E+02 -0.31157247672E+01  0.77550655354E+01  0.32918814435E+02  0.47000000000E+01 0.  1.
          1    1    1    2  502    0 -0.11933456389E+02 -0.24457407366E+02 -0.11323180167E+04  0.11326449855E+04  0.00000000000E+00 0. -1.
          1    1    1    2  503    0  0.47051365782E+00 -0.68130342501E+02  0.55493907854E+03  0.55910584494E+03  0.00000000000E+00 0. -1.
<mgrwt>
<rscale>  0 0.43073924E+02</rscale>
<asrwt>0</asrwt>
<pdfrwt beam="1">  1        2 0.98421243E-01 0.68178145E+02</pdfrwt>
<pdfrwt beam="2">  1        2 0.32827306E+00 0.27213455E+02</pdfrwt>
<totfact> 0.62887588E+01</totfact>
</mgrwt>
</event>
<event>
13    1  0.2038932E-008  0.9270961E+02  0.7546771E-02  0.1405403E+00
          2   -1    0    0  502    0  0.00000000000E+00  0.00000000000E+00  0.44253137792E+04  0.44253137792E+04  0.00000000000E+00 0. -1.
          2   -1    0    0  503    0 -0.00000000000E+00 -0.00000000000E+00 -0.87572219923E+02  0.87572219923E+02  0.00000000000E+00 0. -1.
         24    2    1    2    0    0  0.61756351674E+02  0.10421861044E+03  0.31711477202E+03  0.34880939919E+03  0.80192596898E+02 0.  0.
         25    2    1    2    0    0 -0.13802399002E+01 -0.18091366259E+03  0.18318078087E+03  0.28619280178E+03  0.12497784980E+03 0.  0.
         24    2    1    2    0    0  0.16343426939E+02  0.30399905148E+01  0.40677405185E+03  0.41507634261E+03  0.80912865415E+02 0.  0.
        -11    1    3    3    0    0  0.73978760989E+02  0.93008025153E+02  0.30743720880E+03  0.32960732269E+03  0.00000000000E+00 0.  1.
         12    1    3    3    0    0 -0.12222409315E+02  0.11210585284E+02  0.96775632231E+01  0.19202076497E+02  0.00000000000E+00 0. -1.
        -13    1    5    5    0    0  0.34840983939E+02 -0.29157853470E+02  0.21756502587E+03  0.22225799212E+03  0.00000000000E+00 0.  1.
         14    1    5    5    0    0 -0.18497557000E+02  0.32197843985E+02  0.18920902598E+03  0.19281835049E+03  0.00000000000E+00 0. -1.
          5    1    4    4  501    0  0.23169509090E+02 -0.18918840355E+03  0.17452573285E+03  0.25847707755E+03  0.47000000000E+01 0. -1.
         -5    1    4    4    0  501 -0.24549748990E+02  0.82747409682E+01  0.86550480146E+01  0.27715724232E+02  0.47000000000E+01 0. -1.
          1    1    1    2  502    0 -0.10422398062E+03  0.49543517479E+02  0.34236110194E+04  0.34255553725E+04  0.00000000000E+00 0. -1.
          1    1    1    2  503    0  0.27504441904E+02  0.24111544155E+02  0.70609352075E+01  0.37252083056E+02  0.00000000000E+00 0. -1.
<mgrwt>
<rscale>  0 0.58232457E+02</rscale>
<asrwt>0</asrwt>
<pdfrwt beam="1">  1        2 0.65078129E+00 0.92709609E+02</pdfrwt>
<pdfrwt beam="2">  1        2 0.12878271E-01 0.36576781E+02</pdfrwt>
<totfact> 0.24108079E+01</totfact>
</mgrwt>
</event>
<event>
13    1  0.2038932E-008  0.6782262E+02  0.7546771E-02  0.1408753E+00
          4   -1    0    0  503    0 -0.00000000000E+00  0.00000000000E+00  0.38108894942E+03  0.38108894942E+03  0.00000000000E+00 0. -1.
          2   -1    0    0  502    0  0.00000000000E+00 -0.00000000000E+00 -0.16665430889E+04  0.16665430889E+04  0.00000000000E+00 0. -1.
         24    2    1    2    0    0  0.72103235088E+02  0.64857489898E+02  0.21662555421E+03  0.25061706883E+03  0.80479276489E+02 0.  0.
         25    2    1    2    0    0 -0.13719796135E+03 -0.14477650348E+02 -0.44216912694E+03  0.47976208226E+03  0.12500094318E+03 0.  0.
         24    2    1    2    0    0  0.15065463577E+02 -0.62257709760E+02 -0.45656915738E+03  0.46776506337E+03  0.79030174121E+02 0.  0.
        -11    1    5    5    0    0  0.21636013701E+01  0.19148317502E+02 -0.91538038690E+02  0.93544383911E+02  0.00000000000E+00 0.  1.
         12    1    5    5    0    0  0.12901862207E+02 -0.81406027261E+02 -0.36503111869E+03  0.37422067946E+03  0.00000000000E+00 0. -1.
        -11    1    3    3    0    0  0.13932238572E+02  0.63502216879E+02  0.87700635494E+02  0.10916977735E+03  0.00000000000E+00 0.  1.
         12    1    3    3    0    0  0.58170996516E+02  0.13552730199E+01  0.12892491872E+03  0.14144729148E+03  0.00000000000E+00 0. -1.
          5    1    4    4  501    0 -0.18429983233E+02  0.43220482424E+02 -0.18120980580E+03  0.18726120288E+03  0.47000000000E+01 0. -1.
         -5    1    4    4    0  501 -0.11876797812E+03 -0.57698132772E+02 -0.26095932114E+03  0.29250087938E+03  0.47000000000E+01 0. -1.
          1    1    1    2  502    0  0.57562771859E+02 -0.36238558471E+02 -0.71992978992E+03  0.72313595418E+03  0.00000000000E+00 0. -1.
          3    1    1    2  503    0 -0.75335091709E+01  0.48116428680E+02  0.11658838059E+03  0.12635186962E+03  0.00000000000E+00 0. -1.
<mgrwt>
<rscale>  0 0.57472939E+02</rscale>
<asrwt>0</asrwt>
<pdfrwt beam="2">  1        2 0.24507986E+00 0.67822617E+02</pdfrwt>
<pdfrwt beam="1">  1        4 0.56042493E-01 0.48702613E+02</pdfrwt>
<totfact> 0.19919307E+01</totfact>
</mgrwt>
</event>
<event>
13    1  0.2038932E-008  0.1418934E+03  0.7546771E-02  0.1340607E+00
          2   -1    0    0  502    0  0.00000000000E+00  0.00000000000E+00  0.23923280938E+04  0.23923280938E+04  0.00000000000E+00 0. -1.
          2   -1    0    0  503    0 -0.00000000000E+00 -0.00000000000E+00 -0.10012180909E+04  0.10012180909E+04  0.00000000000E+00 0. -1.
         24    2    1    2    0    0 -0.82790976008E+02 -0.45729644019E+02  0.78537539627E+02  0.14744244279E+03  0.81397682743E+02 0.  0.
         25    2    1    2    0    0  0.12980812292E+03  0.25627079586E+03 -0.22628204877E+03  0.38646103638E+03  0.12499478969E+03 0.  0.
         24    2    1    2    0    0 -0.79862275905E+02 -0.58921175540E+02  0.84746737699E+02  0.15326899682E+03  0.80372182971E+02 0.  0.
        -13    1    5    5    0    0 -0.78074056119E+02 -0.11375410526E+02  0.42376822058E+02  0.89558658159E+02  0.00000000000E+00 0.  1.
         14    1    5    5    0    0 -0.17882197862E+01 -0.47545765014E+02  0.42369915641E+02  0.63710338660E+02  0.00000000000E+00 0. -1.
        -13    1    3    3    0    0  0.16199659498E+01 -0.30457389766E+02  0.47036609943E+02  0.56059963932E+02  0.00000000000E+00 0.  1.
         14    1    3    3    0    0 -0.84410941957E+02 -0.15272254253E+02  0.31500929684E+02  0.91382478862E+02  0.00000000000E+00 0. -1.
          5    1    4    4  501    0  0.59262689129E+02  0.17685408225E+03 -0.20650493939E+03  0.27830884414E+03  0.47000000000E+01 0. -1.
         -5    1    4    4    0  501  0.70545433796E+02  0.79416713612E+02 -0.19777109380E+02  0.10815219224E+03  0.47000000000E+01 0. -1.
          1    1    1    2  502    0 -0.64700826493E+01 -0.14080579977E+03  0.20771858641E+04  0.20819628357E+04  0.00000000000E+00 0. -1.
          1    1    1    2  503    0  0.39315211637E+02 -0.10814176534E+02 -0.62307808975E+03  0.62441087291E+03  0.00000000000E+00 0. -1.
<mgrwt>
<rscale>  0 0.76064164E+02</rscale>
<asrwt>0</asrwt>
<pdfrwt beam="1">  1        2 0.35181296E+00 0.14189337E+03</pdfrwt>
<pdfrwt beam="2">  1        2 0.14723795E+00 0.40775388E+02</pdfrwt>
<totfact> 0.27028161E+01</totfact>
</mgrwt>
</event>
<event>
13    1  0.2038932E-008  0.8735968E+02  0.7546771E-02  0.1367925E+00
          2   -1    0    0  502    0  0.00000000000E+00  0.00000000000E+00  0.22987562535E+04  0.22987562535E+04  0.00000000000E+00 0. -1.
          2   -1    0    0  503    0 -0.00000000000E+00 -0.00000000000E+00 -0.28939174020E+04  0.28939174020E+04  0.00000000000E+00 0. -1.
         24    2    1    2    0    0 -0.10687808119E+03 -0.10723740243E+02 -0.70396652762E+03  0.71712210970E+03  0.84600977364E+02 0.  0.
         25    2    1    2    0    0  0.63570770484E+02  0.13117271137E+03  0.10811017930E+04  0.10980234780E+04  0.12500779381E+03 0.  0.
         24    2    1    2    0    0  0.81381466731E+02  0.14059340281E+02 -0.82071498253E+02  0.14194504155E+03  0.81191476273E+02 0.  0.
        -11    1    3    3    0    0 -0.61948685997E+02  0.32490761322E+02 -0.28045793266E+03  0.28905006704E+03  0.00000000000E+00 0.  1.
         12    1    3    3    0    0 -0.44929395192E+02 -0.43214501565E+02 -0.42350859496E+03  0.42807204266E+03  0.00000000000E+00 0. -1.
        -13    1    5    5    0    0  0.33407881728E+02  0.19063697592E+02  0.84437835905E+01  0.39380307373E+02  0.00000000000E+00 0.  1.
         14    1    5    5    0    0  0.47973585003E+02 -0.50043573117E+01 -0.90515281843E+02  0.10256473418E+03  0.00000000000E+00 0. -1.
          5    1    4    4  501    0  0.22646143312E+01  0.17667610336E+02  0.13989442353E+02  0.23131524602E+02  0.47000000000E+01 0. -1.
         -5    1    4    4    0  501  0.61306156153E+02  0.11350510104E+03  0.10671123506E+04  0.10748919534E+04  0.47000000000E+01 0. -1.
          1    1    1    2  502    0 -0.23414680304E+02 -0.84056999572E+02  0.11707206506E+04  0.11739679161E+04  0.00000000000E+00 0. -1.
          1    1    1    2  503    0 -0.14659475721E+02 -0.50451311839E+02 -0.20609455662E+04  0.20616151100E+04  0.00000000000E+00 0. -1.
<mgrwt>
<rscale>  0 0.67747309E+02</rscale>
<asrwt>0</asrwt>
<pdfrwt beam="1">  1        2 0.33805239E+00 0.87359685E+02</pdfrwt>
<pdfrwt beam="2">  1        2 0.42557609E+00 0.52537940E+02</pdfrwt>
<totfact> 0.37822279E+00</totfact>
</mgrwt>
</event>
<event>
13    1  0.2038932E-008  0.1370022E+03  0.7546771E-02  0.1288251E+00
          2   -1    0    0  502    0  0.00000000000E+00  0.00000000000E+00  0.21563350656E+04  0.21563350656E+04  0.00000000000E+00 0. -1.
          2   -1    0    0  503    0 -0.00000000000E+00 -0.00000000000E+00 -0.67232090728E+03  0.67232090728E+03  0.00000000000E+00 0. -1.
         24    2    1    2    0    0  0.30168953585E+03  0.38355104412E+01 -0.25914762815E+03  0.40605319452E+03  0.81794965742E+02 0.  0.
         25    2    1    2    0    0 -0.85251431534E+02 -0.10092420173E+03  0.26992229607E+03  0.32547905159E+03  0.12500026412E+03 0.  0.
         24    2    1    2    0    0 -0.46940405136E+02 -0.83073473757E+00  0.38323703054E+02  0.10428446634E+03  0.84867260768E+02 0.  0.
        -11    1    3    3    0    0  0.67681571779E+02  0.11120728773E+02 -0.20145106774E+02  0.71486300043E+02  0.00000000000E+00 0.  1.
         12    1    3    3    0    0  0.23400796407E+03 -0.72852183317E+01 -0.23900252137E+03  0.33456689447E+03  0.00000000000E+00 0. -1.
        -13    1    5    5    0    0 -0.30822546712E+02  0.37758273245E+02  0.39055303891E+02  0.62458252828E+02  0.00000000000E+00 0.  1.
         14    1    5    5    0    0 -0.16117858424E+02 -0.38589007983E+02 -0.73160083681E+00  0.41826213516E+02  0.00000000000E+00 0. -1.
          5    1    4    4  501    0 -0.28641047635E+02 -0.92278082475E+02  0.75403718440E+02  0.12265139571E+03  0.47000000000E+01 0. -1.
         -5    1    4    4    0  501 -0.56610383900E+02 -0.86461192584E+01  0.19451857763E+03  0.20282765588E+03  0.47000000000E+01 0. -1.
          1    1    1    2  502    0 -0.66228476734E+02  0.14062663705E+02  0.16973049021E+04  0.16986547325E+04  0.00000000000E+00 0. -1.
          1    1    1    2  503    0 -0.10326922245E+03  0.83856762324E+02 -0.26238911479E+03  0.29418452789E+03  0.00000000000E+00 0. -1.
<mgrwt>
<rscale>  0 0.96310611E+02</rscale>
<asrwt>0</asrwt>
<pdfrwt beam="1">  1        2 0.31710810E+00 0.67705019E+02</pdfrwt>
<pdfrwt beam="2">  1        2 0.98870722E-01 0.13700216E+03</pdfrwt>
<totfact> 0.59373263E+01</totfact>
</mgrwt>
</event>
<event>
13    1  0.2038932E-008  0.8102666E+02  0.7546771E-02  0.1424559E+00
          2   -1    0    0  503    0  0.00000000000E+00  0.00000000000E+00  0.12854496226E+04  0.12854496226E+04  0.00000000000E+00 0. -1.
          2   -1    0    0  502    0 -0.00000000000E+00 -0.00000000000E+00 -0.27153359601E+04  0.27153359601E+04  0.00000000000E+00 0. -1.
         24    2    1    2    0    0 -0.10921605393E+02  0.38894451323E+01 -0.19669140764E+03  0.21243698556E+03  0.79420109202E+02 0.  0.
         25    2    1    2    0    0  0.10356263521E+03  0.43926712501E+01  0.66801736161E+03  0.68747125433E+03  0.12500006055E+03 0.  0.
         24    2    1    2    0    0 -0.14757272774E+03  0.64755337590E+01 -0.99414374341E+02  0.19719428840E+03  0.84750970741E+02 0.  0.
        -13    1    3    3    0    0 -0.36187824232E+01  0.28233276993E+02 -0.17952408092E+03  0.18176663376E+03  0.00000000000E+00 0.  1.
         14    1    3    3    0    0 -0.73028229699E+01 -0.24343831861E+02 -0.17167326718E+02  0.30670351802E+02  0.00000000000E+00 0. -1.
        -13    1    5    5    0    0 -0.42936001461E+02  0.33269615301E+02 -0.63058644098E+02  0.83227159745E+02  0.00000000000E+00 0.  1.
         14    1    5    5    0    0 -0.10463672628E+03 -0.26794081542E+02 -0.36355730243E+02  0.11396712866E+03  0.00000000000E+00 0. -1.
          5    1    4    4  501    0  0.54344647458E+02  0.50892051372E+02  0.51093636520E+03  0.51635394923E+03  0.47000000000E+01 0. -1.
         -5    1    4    4    0  501  0.49217987751E+02 -0.46499380122E+02  0.15708099641E+03  0.17111730509E+03  0.47000000000E+01 0. -1.
          1    1    1    2  502    0  0.89852228020E+02 -0.23825669748E+02 -0.23512304179E+04  0.23530672671E+04  0.00000000000E+00 0. -1.
          1    1    1    2  503    0 -0.34920530094E+02  0.90680196062E+01  0.54943250071E+03  0.55061578731E+03  0.00000000000E+00 0. -1.
<mgrwt>
<rscale>  0 0.54067887E+02</rscale>
<asrwt>0</asrwt>
<pdfrwt beam="1">  1        2 0.18903671E+00 0.36078697E+02</pdfrwt>
<pdfrwt beam="2">  1        2 0.39931410E+00 0.81026660E+02</pdfrwt>
<totfact> 0.14395605E+01</totfact>
</mgrwt>
</event>
<event>
13    1  0.2038932E-008  0.1085228E+03  0.7546771E-02  0.1306529E+00
          2   -1    0    0  503    0  0.00000000000E+00  0.00000000000E+00  0.15950466990E+04  0.15950466990E+04  0.00000000000E+00 0. -1.
          2   -1    0    0  502    0 -0.00000000000E+00 -0.00000000000E+00 -0.13051406773E+04  0.13051406773E+04  0.00000000000E+00 0. -1.
         24    2    1    2    0    0  0.17422799824E+03 -0.97177634522E+02 -0.61538601989E+02  0.22382518902E+03  0.80695896345E+02 0.  0.
         25    2    1    2    0    0 -0.34689375393E+03 -0.41017566568E+02  0.54327373224E+03  0.65786727482E+03  0.12500114343E+03 0.  0.
         24    2    1    2    0    0  0.38630471590E+02  0.27172861899E+02 -0.73348641267E+02  0.11922257040E+03  0.81260816862E+02 0.  0.
        -11    1    3    3    0    0  0.10097442288E+02 -0.38505344402E+02 -0.28558132397E+01  0.39909592300E+02  0.00000000000E+00 0.  1.
         12    1    3    3    0    0  0.16413055595E+03 -0.58672290121E+02 -0.58682788750E+02  0.18391559673E+03  0.00000000000E+00 0. -1.
        -11    1    5    5    0    0  0.44250431688E+01 -0.37561666532E+00  0.17639023142E+02  0.18189481365E+02  0.00000000000E+00 0.  1.
         12    1    5    5    0    0  0.34205428421E+02  0.27548478565E+02 -0.90987664409E+02  0.10103308903E+03  0.00000000000E+00 0. -1.
          5    1    4    4  501    0 -0.54766073770E+02 -0.49557271533E+02  0.15606191272E+03  0.17272132642E+03  0.47000000000E+01 0.  1.
         -5    1    4    4    0  501 -0.29212768016E+03  0.85397049655E+01  0.38721181951E+03  0.48514594840E+03  0.47000000000E+01 0.  1.
          1    1    1    2  502    0  0.40326478610E+02  0.59851410169E+02 -0.10043762137E+04  0.10069657367E+04  0.00000000000E+00 0. -1.
          1    1    1    2  503    0  0.93708805495E+02  0.51170929021E+02  0.88589574655E+03  0.89230660535E+03  0.00000000000E+00 0. -1.
<mgrwt>
<rscale>  0 0.88498703E+02</rscale>
<asrwt>0</asrwt>
<pdfrwt beam="1">  1        2 0.23456569E+00 0.10852279E+03</pdfrwt>
<pdfrwt beam="2">  1        2 0.19193245E+00 0.72169358E+02</pdfrwt>
<totfact> 0.45656856E+01</totfact>
</mgrwt>
</event>
<event>
13    1  0.2038932E-008  0.2213866E+03  0.7546771E-02  0.1321771E+00
          2   -1    0    0  502    0  0.00000000000E+00  0.00000000000E+00  0.21867061578E+04  0.21867061578E+04  0.00000000000E+00 0. -1.
          2   -1    0    0  503    0 -0.00000000000E+00 -0.00000000000E+00 -0.16002779201E+04  0.16002779201E+04  0.00000000000E+00 0. -1.
         24    2    1    2    0    0 -0.20514332067E+02  0.60317620255E+02 -0.12840869395E+04  0.12878159517E+04  0.74374753339E+02 0.  0.
         25    2    1    2    0    0  0.18384000645E+03 -0.20216902542E+02 -0.36914232653E+02  0.22626166436E+03  0.12500323622E+03 0.  0.
         24    2    1    2    0    0  0.37946773983E+02 -0.30590757234E+02 -0.70030776282E+02  0.11690434770E+03  0.79915985892E+02 0.  0.
        -13    1    5    5    0    0  0.26664616982E+02 -0.34032016426E+02  0.26094511942E+01  0.43312690707E+02  0.00000000000E+00 0.  1.
         14    1    5    5    0    0  0.11282157001E+02  0.34412591914E+01 -0.72640227476E+02  0.73591656994E+02  0.00000000000E+00 0. -1.
        -13    1    3    3    0    0 -0.36375571056E+02  0.14062057220E+01 -0.54571229066E+03  0.54692509886E+03  0.00000000000E+00 0.  1.
         14    1    3    3    0    0  0.15861238989E+02  0.58911414533E+02 -0.73837464888E+03  0.74089085281E+03  0.00000000000E+00 0. -1.
          5    1    4    4  501    0  0.12189028649E+02  0.39073353579E+02 -0.11906491777E+02  0.42885357941E+02  0.47000000000E+01 0. -1.
         -5    1    4    4    0  501  0.17165097780E+03 -0.59290256120E+02 -0.25007740877E+02  0.18337630642E+03  0.47000000000E+01 0. -1.
          1    1    1    2  502    0 -0.22082960635E+03 -0.33349034554E+02  0.20578334552E+04  0.20699170037E+04  0.00000000000E+00 0. -1.
          1    1    1    2  503    0  0.19557157978E+02  0.23839074076E+02 -0.80373268926E+02  0.86085110436E+02  0.00000000000E+00 0. -1.
<mgrwt>
<rscale>  0 0.82622082E+02</rscale>
<asrwt>0</asrwt>
<pdfrwt beam="1">  1        2 0.32157444E+00 0.22138662E+03</pdfrwt>
<pdfrwt beam="2">  1        2 0.23533499E+00 0.30834784E+02</pdfrwt>
<totfact> 0.16867528E+01</totfact>
</mgrwt>
</event>
<event>
13    1  0.2038932E-008  0.7811013E+02  0.7546771E-02  0.1376951E+00
         -3   -1    0    0    0  501 -0.00000000000E+00  0.00000000000E+00  0.44588398885E+03  0.44588398885E+03  0.00000000000E+00 0.  1.
          2   -1    0    0  503    0  0.00000000000E+00 -0.00000000000E+00 -0.16661847734E+04  0.16661847734E+04  0.00000000000E+00 0. -1.
         24    2    1    2    0    0 -0.23210221547E+02  0.82208621788E+01  0.98977636525E+02  0.12952408041E+03  0.79834941691E+02 0.  0.
         25    2    1    2    0    0  0.14855434443E+02  0.21400625962E+01 -0.88222593456E+02  0.15373439538E+03  0.12500309807E+03 0.  0.
         24    2    1    2    0    0 -0.15957526183E+02  0.18148310300E+02 -0.48701528438E+03  0.49398478103E+03  0.79076373592E+02 0.  0.
        -11    1    5    5    0    0  0.16298779638E+02 -0.10489188436E+02 -0.35779897617E+02  0.40692436216E+02  0.00000000000E+00 0.  1.
         12    1    5    5    0    0 -0.32256305821E+02  0.28637498736E+02 -0.45123538676E+03  0.45329234481E+03  0.00000000000E+00 0. -1.
        -11    1    3    3    0    0 -0.11321890915E+02 -0.14033141425E+02  0.10247786758E+03  0.10405204282E+03  0.00000000000E+00 0.  1.
         12    1    3    3    0    0 -0.11888330632E+02  0.22254003604E+02 -0.35002310503E+01  0.25472037591E+02  0.00000000000E+00 0. -1.
          5    1    4    4  502    0  0.11125030285E+02 -0.45664570859E+02 -0.94009036712E+02  0.10520840420E+03  0.47000000000E+01 0. -1.
         -5    1    4    4    0  502  0.37304041583E+01  0.47804633455E+02  0.57864432567E+01  0.48525991185E+02  0.47000000000E+01 0. -1.
          1    1    1    2  503    0 -0.32991115761E+02  0.43435283616E+02 -0.10315352904E+04  0.10329763273E+04  0.00000000000E+00 0. -1.
         -4    1    1    2    0  501  0.57303429048E+02 -0.71944518691E+02  0.28749474706E+03  0.30184917813E+03  0.00000000000E+00 0.  1.
<mgrwt>
<rscale>  0 0.65271981E+02</rscale>
<asrwt>0</asrwt>
<pdfrwt beam="2">  1        2 0.24502717E+00 0.54543905E+02</pdfrwt>
<pdfrwt beam="1">  1       -3 0.65571175E-01 0.78110130E+02</pdfrwt>
<totfact> 0.19158042E+01</totfact>
</mgrwt>
</event>
<event>
13    1  0.2038932E-008  0.8252773E+02  0.7546771E-02  0.1372989E+00
          2   -1    0    0  503    0  0.00000000000E+00  0.00000000000E+00  0.86364092482E+03  0.86364092482E+03  0.00000000000E+00 0. -1.
         -1   -1    0    0    0  501 -0.00000000000E+00 -0.00000000000E+00 -0.10617678045E+04  0.10617678045E+04  0.00000000000E+00 0.  1.
         24    2    1    2    0    0 -0.33522703912E+02 -0.11858013818E+02 -0.21986013140E+03  0.23679747219E+03  0.80437437111E+02 0.  0.
         25    2    1    2    0    0  0.14324994480E+02 -0.10577802189E+03 -0.18721601065E+03  0.24912768951E+03  0.12498230136E+03 0.  0.
         24    2    1    2    0    0  0.28464408546E+02 -0.10633490414E+02  0.47330214802E+02  0.98199824459E+02  0.80496972728E+02 0.  0.
        -13    1    5    5    0    0  0.44189938685E+02 -0.32961719972E+02  0.44298662329E+02  0.70721970763E+02  0.00000000000E+00 0.  1.
         14    1    5    5    0    0 -0.15725530139E+02  0.22328229557E+02  0.30315524730E+01  0.27477853696E+02  0.00000000000E+00 0. -1.
        -13    1    3    3    0    0 -0.25450410020E+02  0.26790851320E+02 -0.48643199916E+02  0.61087101607E+02  0.00000000000E+00 0.  1.
         14    1    3    3    0    0 -0.80722938920E+01 -0.38648865138E+02 -0.17121693148E+03  0.17571037058E+03  0.00000000000E+00 0. -1.
          5    1    4    4  502    0 -0.13863551216E+02 -0.12581791494E+03 -0.16394605160E+03  0.20717804808E+03  0.47000000000E+01 0.  1.
         -5    1    4    4    0  502  0.28188545696E+02  0.20039893046E+02 -0.23269959057E+02  0.41949641431E+02  0.47000000000E+01 0.  1.
          1    1    1    2  503    0  0.15245357514E+02  0.80903629503E+02  0.74798263112E+03  0.75249972402E+03  0.00000000000E+00 0. -1.
         -2    1    1    2    0  501 -0.24512056628E+02  0.47365896623E+02 -0.58636358354E+03  0.58878401913E+03  0.00000000000E+00 0.  1.
<mgrwt>
<rscale>  0 0.66343204E+02</rscale>
<asrwt>0</asrwt>
<pdfrwt beam="1">  1        2 0.12700602E+00 0.82527733E+02</pdfrwt>
<pdfrwt beam="2">  1       -1 0.15614232E+00 0.53332627E+02</pdfrwt>
<totfact> 0.15666719E+01</totfact>
</mgrwt>
</event>
<event>
13    1  0.2038932E-008  0.4290718E+03  0.7546771E-02  0.1177664E+00
         -1   -1    0    0    0  501 -0.00000000000E+00  0.00000000000E+00  0.14958049590E+04  0.14958049590E+04  0.00000000000E+00 0.  1.
          2   -1    0    0  503    0  0.00000000000E+00 -0.00000000000E+00 -0.30201526813E+04  0.30201526813E+04  0.00000000000E+00 0. -1.
         24    2    1    2    0    0  0.22830312471E+03 -0.85922991407E+02  0.18557359671E+03  0.31675393349E+03  0.79940086187E+02 0.  0.
         25    2    1    2    0    0 -0.26070203354E+03  0.16216251621E+03  0.65580038754E+03  0.73482508169E+03  0.12502607901E+03 0.  0.
         24    2    1    2    0    0  0.23962693802E+03  0.24255564120E+03 -0.21561718605E+03  0.41017904191E+03  0.74173897036E+02 0.  0.
        -13    1    3    3    0    0  0.13164126186E+02 -0.27826428997E+00 -0.75957984955E+01  0.15200914579E+02  0.00000000000E+00 0.  1.
         14    1    3    3    0    0  0.21513899852E+03 -0.85644727117E+02  0.19316939521E+03  0.30155301891E+03  0.00000000000E+00 0. -1.
        -13    1    5    5    0    0  0.18569853030E+03  0.22597659239E+03 -0.17882296946E+03  0.34282213882E+03  0.00000000000E+00 0.  1.
         14    1    5    5    0    0  0.53928407723E+02  0.16579048809E+02 -0.36794216592E+02  0.67356903087E+02  0.00000000000E+00 0. -1.
          5    1    4    4  502    0 -0.14210284401E+03  0.91894530542E+02  0.21925216853E+03  0.27700437979E+03  0.47000000000E+01 0.  1.
         -5    1    4    4    0  502 -0.11859918952E+03  0.70267985666E+02  0.43654821901E+03  0.45782070190E+03  0.47000000000E+01 0.  1.
          1    1    1    2  503    0 -0.24459579453E+03 -0.37500159244E+03 -0.25802425372E+04  0.26187983595E+04  0.00000000000E+00 0. -1.
         -2    1    1    2    0  501  0.37367765329E+02  0.56206426446E+02  0.43013801661E+03  0.43540122370E+03  0.00000000000E+00 0.  1.
<mgrwt>
<rscale>  0 0.17017638E+03</rscale>
<asrwt>0</asrwt>
<pdfrwt beam="2">  1        2 0.44414010E+00 0.42907178E+03</pdfrwt>
<pdfrwt beam="1">  1       -1 0.21997132E+00 0.67494535E+02</pdfrwt>
<totfact> 0.37210690E-01</totfact>
</mgrwt>
</event>
<event>
13    1  0.2038932E-008  0.7535927E+02  0.7546771E-02  0.1350778E+00
          2   -1    0    0  502    0  0.00000000000E+00  0.00000000000E+00  0.44317925298E+04  0.44317925298E+04  0.00000000000E+00 0. -1.
          2   -1    0    0  503    0 -0.00000000000E+00 -0.00000000000E+00 -0.41149728104E+04  0.41149728104E+04  0.00000000000E+00 0. -1.
         24    2    1    2    0    0  0.94695833451E+03 -0.80864365084E+03  0.92852230745E+03  0.15542283245E+04  0.53266948483E+02 0.  0.
         25    2    1    2    0    0 -0.43441570882E+03  0.73560949368E+03  0.45756631967E+03  0.97715388525E+03  0.12499777322E+03 0.  0.
         24    2    1    2    0    0 -0.64226172141E+03  0.11911615773E+03 -0.18569159795E+04  0.19699719696E+04  0.77225826348E+02 0.  0.
        -11    1    3    3    0    0  0.46248616098E+03 -0.38898885535E+03  0.41791309023E+03  0.73474970546E+03  0.00000000000E+00 0.  1.
         12    1    3    3    0    0  0.48447217353E+03 -0.41965479548E+03  0.51060921723E+03  0.81947861901E+03  0.00000000000E+00 0. -1.
        -13    1    5    5    0    0 -0.51090240750E+03  0.92427982179E+02 -0.15618689224E+04  0.16459036219E+04  0.00000000000E+00 0.  1.
         14    1    5    5    0    0 -0.13135931391E+03  0.26688175549E+02 -0.29504705710E+03  0.32406834768E+03  0.00000000000E+00 0. -1.
          5    1    4    4  501    0 -0.27393551249E+03  0.34226186259E+03  0.24110773195E+03  0.50033876123E+03  0.47000000000E+01 0. -1.
         -5    1    4    4    0  501 -0.16048019633E+03  0.39334763109E+03  0.21645858772E+03  0.47681512402E+03  0.47000000000E+01 0. -1.
          1    1    1    2  502    0  0.59365409339E+02 -0.46398290918E+02  0.24151816588E+04  0.24163566580E+04  0.00000000000E+00 0. -1.
          1    1    1    2  503    0  0.70353686374E+02  0.31629034781E+00 -0.16275345871E+04  0.16290545029E+04  0.00000000000E+00 0. -1.
<mgrwt>
<rscale>  0 0.72813847E+02</rscale>
<asrwt>0</asrwt>
<pdfrwt beam="1">  1        2 0.65173420E+00 0.75359273E+02</pdfrwt>
<pdfrwt beam="2">  1        2 0.60514306E+00 0.70354397E+02</pdfrwt>
<totfact> 0.40082725E-02</totfact>
</mgrwt>
</event>
<event>
13    1  0.2038932E-008  0.1331918E+03  0.7546771E-02  0.1223629E+00
          2   -1    0    0  502    0  0.00000000000E+00  0.00000000000E+00  0.76362856707E+03  0.76362856707E+03  0.00000000000E+00 0. -1.
          2   -1    0    0  503    0 -0.00000000000E+00 -0.00000000000E+00 -0.24325453628E+04  0.24325453628E+04  0.00000000000E+00 0. -1.
         24    2    1    2    0    0 -0.12475598213E+03  0.10483684137E+03 -0.33401382642E+03  0.38011036791E+03  0.79773662108E+02 0.  0.
         25    2    1    2    0    0  0.37211128391E+02 -0.13405310532E+03  0.77936817647E+02  0.20259300687E+03  0.12495949650E+03 0.  0.
         24    2    1    2    0    0  0.11309611770E+03  0.88538781507E+02  0.80605226181E+02  0.18332626002E+03  0.80507561478E+02 0.  0.
        -11    1    5    5    0    0  0.98298285032E+02  0.97046919709E+02  0.88982136854E+02  0.16431213633E+03  0.00000000000E+00 0.  1.
         12    1    5    5    0    0  0.14797832671E+02 -0.85081382016E+01 -0.83769106728E+01  0.19014123693E+02  0.00000000000E+00 0. -1.
        -13    1    3    3    0    0 -0.21866727798E+02  0.58599562533E+02 -0.16920836755E+03  0.18039826541E+03  0.00000000000E+00 0.  1.
         14    1    3    3    0    0 -0.10288925433E+03  0.46237278839E+02 -0.16480545887E+03  0.19971210250E+03  0.00000000000E+00 0. -1.
          5    1    4    4  501    0  0.65407270772E+02 -0.53028417085E+02  0.80567751434E+02  0.11663351431E+03  0.47000000000E+01 0. -1.
         -5    1    4    4    0  501 -0.28196142381E+02 -0.81024688234E+02 -0.26309337874E+01  0.85959492560E+02  0.47000000000E+01 0. -1.
          1    1    1    2  502    0  0.10739580703E+03 -0.76810185995E+02  0.45669542698E+03  0.47539917655E+03  0.00000000000E+00 0. -1.
          1    1    1    2  503    0 -0.13294707100E+03  0.17487668435E+02 -0.19501404401E+04  0.19547451185E+04  0.00000000000E+00 0. -1.
<mgrwt>
<rscale>  0 0.13261297E+03</rscale>
<asrwt>0</asrwt>
<pdfrwt beam="1">  1        2 0.11229832E+00 0.13203660E+03</pdfrwt>
<pdfrwt beam="2">  1        2 0.35772727E+00 0.13319185E+03</pdfrwt>
<totfact> 0.34600980E+01</totfact>
</mgrwt>
</event>
<event>
13    1  0.2038932E-008  0.1096937E+03  0.7546771E-02  0.1279013E+00
          2   -1    0    0  503    0  0.00000000000E+00  0.00000000000E+00  0.27855135879E+04  0.27855135879E+04  0.00000000000E+00 0. -1.
          2   -1    0    0  502    0 -0.00000000000E+00 -0.00000000000E+00 -0.15491484463E+04  0.15491484463E+04  0.00000000000E+00 0. -1.
         24    2    1    2    0    0 -0.16893810452E+02 -0.17841472964E+02 -0.24742149392E+03  0.26143840450E+03  0.80801761780E+02 0.  0.
         25    2    1    2    0    0 -0.10864749911E+03  0.19250203591E+03  0.43763836025E+03  0.50597862272E+03  0.12500287755E+03 0.  0.
         24    2    1    2    0    0  0.99248316559E+02 -0.80087037031E+02 -0.13806604401E+03  0.20335082465E+03  0.77621926906E+02 0.  0.
        -11    1    5    5    0    0  0.58736810756E+02 -0.17452633412E+01 -0.73203801563E+02  0.93871483664E+02  0.00000000000E+00 0.  1.
         12    1    5    5    0    0  0.40511505802E+02 -0.78341773689E+02 -0.64862242444E+02  0.10947934098E+03  0.00000000000E+00 0. -1.
        -11    1    3    3    0    0  0.20912429923E+02  0.13432606529E+02 -0.15324079967E+03  0.15524338094E+03  0.00000000000E+00 0.  1.
         12    1    3    3    0    0 -0.37806240375E+02 -0.31274079493E+02 -0.94180694253E+02  0.10619502356E+03  0.00000000000E+00 0. -1.
          5    1    4    4  501    0  0.15047553652E+02 -0.72937665696E+01  0.46723212980E+02  0.49847532867E+02  0.47000000000E+01 0.  1.
         -5    1    4    4    0  501 -0.12369505277E+03  0.19979580248E+03  0.39091514726E+03  0.45613108985E+03  0.47000000000E+01 0.  1.
          1    1    1    2  502    0 -0.65459218005E+02 -0.10458170581E+03 -0.10854071268E+04  0.10923968479E+04  0.00000000000E+00 0. -1.
          1    1    1    2  503    0  0.91752211013E+02  0.10008179894E+02  0.22696214461E+04  0.22714973345E+04  0.00000000000E+00 0. -1.
<mgrwt>
<rscale>  0 0.10061235E+03</rscale>
<asrwt>0</asrwt>
<pdfrwt beam="1">  1        2 0.40963435E+00 0.92282868E+02</pdfrwt>
<pdfrwt beam="2">  1        2 0.22781595E+00 0.10969366E+03</pdfrwt>
<totfact> 0.88777343E+00</totfact>
</mgrwt>
</event>
<event>
13    1  0.2038932E-008  0.1862594E+03  0.7546771E-02  0.1179877E+00
          2   -1    0    0  502    0  0.00000000000E+00  0.00000000000E+00  0.25893667545E+04  0.25893667545E+04  0.00000000000E+00 0. -1.
          2   -1    0    0  503    0 -0.00000000000E+00 -0.00000000000E+00 -0.11340381038E+04  0.11340381038E+04  0.00000000000E+00 0. -1.
         24    2    1    2    0    0 -0.21329910175E+02 -0.24025084998E+03  0.14824174170E+02  0.25330098339E+03  0.75935473036E+02 0.  0.
         25    2    1    2    0    0 -0.72840862894E+02  0.20059251184E+02  0.21098143282E+03  0.25660058703E+03  0.12499012523E+03 0.  0.
         24    2    1    2    0    0 -0.12419552274E+03  0.18105343920E+03 -0.10648080176E+03  0.25687760508E+03  0.80268718271E+02 0.  0.
        -11    1    3    3    0    0  0.13769163483E+02 -0.10886003602E+02  0.11975368820E+02  0.21248632799E+02  0.00000000000E+00 0.  1.
         12    1    3    3    0    0 -0.35099073658E+02 -0.22936484638E+03  0.28488053501E+01  0.23205235059E+03  0.00000000000E+00 0. -1.
        -13    1    5    5    0    0 -0.59978348068E+02  0.26362704890E+02 -0.20766865573E+02  0.68728866946E+02  0.00000000000E+00 0.  1.
         14    1    5    5    0    0 -0.64217174675E+02  0.15469073431E+03 -0.85713936184E+02  0.18814873813E+03  0.00000000000E+00 0. -1.
          5    1    4    4  501    0  0.11950229411E+02 -0.36114072101E+02  0.94001566071E+02  0.10151560772E+03  0.47000000000E+01 0. -1.
         -5    1    4    4    0  501 -0.84791092305E+02  0.56173323285E+02  0.11697986675E+03  0.15508497931E+03  0.47000000000E+01 0. -1.
          1    1    1    2  502    0  0.10351619272E+03 -0.11083076275E+03  0.21325768034E+04  0.21379623202E+04  0.00000000000E+00 0. -1.
          1    1    1    2  503    0  0.11485010309E+03  0.14996892234E+03 -0.79657295801E+03  0.81866336261E+03  0.00000000000E+00 0. -1.
<mgrwt>
<rscale>  0 0.16806863E+03</rscale>
<asrwt>0</asrwt>
<pdfrwt beam="1">  1        2 0.38078923E+00 0.15165441E+03</pdfrwt>
<pdfrwt beam="2">  1        2 0.16677031E+00 0.18625944E+03</pdfrwt>
<totfact> 0.16619787E+01</totfact>
</mgrwt>
</event>
<event>
13    1  0.2038932E-008  0.9471579E+02  0.7546771E-02  0.1418476E+00
          2   -1    0    0  502    0  0.00000000000E+00  0.00000000000E+00  0.24257759999E+04  0.24257759999E+04  0.00000000000E+00 0. -1.
          2   -1    0    0  503    0 -0.00000000000E+00 -0.00000000000E+00 -0.50262725498E+03  0.50262725498E+03  0.00000000000E+00 0. -1.
         24    2    1    2    0    0 -0.15783351129E+02 -0.79987265603E+02 -0.19113197838E+01  0.10519625061E+03  0.66449388015E+02 0.  0.
         25    2    1    2    0    0  0.43820093730E+00 -0.20866322482E+02  0.96354784752E+03  0.97184633001E+03  0.12500095710E+03 0.  0.
         24    2    1    2    0    0  0.98931491953E+01 -0.30469306958E+02  0.15074582902E+03  0.17399769683E+03  0.80775246616E+02 0.  0.
        -11    1    5    5    0    0  0.24567403798E+02 -0.38422280585E+02  0.15054986547E+03  0.15730572453E+03  0.00000000000E+00 0.  1.
         12    1    5    5    0    0 -0.14674254603E+02  0.79529736271E+01  0.19596355230E+00  0.16691972303E+02  0.00000000000E+00 0. -1.
        -13    1    3    3    0    0  0.34815190052E+01 -0.61474017582E+02  0.25748268754E+02  0.66739412315E+02  0.00000000000E+00 0.  1.
         14    1    3    3    0    0 -0.19264870135E+02 -0.18513248020E+02 -0.27659588538E+02  0.38456838295E+02  0.00000000000E+00 0. -1.
          5    1    4    4  501    0  0.16498848923E+02 -0.66266776283E+02  0.36624779778E+03  0.37258963624E+03  0.47000000000E+01 0. -1.
         -5    1    4    4    0  501 -0.16060647986E+02  0.45400453802E+02  0.59730004974E+03  0.59925669378E+03  0.47000000000E+01 0. -1.
          1    1    1    2  502    0  0.96972095410E+01 -0.30851035761E+02  0.12286595389E+04  0.12290850601E+04  0.00000000000E+00 0. -1.
          1    1    1    2  503    0 -0.42452085442E+01  0.16217393080E+03 -0.41789315083E+03  0.44827791730E+03  0.00000000000E+00 0. -1.
<mgrwt>
<rscale>  0 0.55344652E+02</rscale>
<asrwt>0</asrwt>
<pdfrwt beam="1">  1        2 0.35673176E+00 0.32339176E+02</pdfrwt>
<pdfrwt beam="2">  1        2 0.73915774E-01 0.94715788E+02</pdfrwt>
<totfact> 0.68017444E+01</totfact>
</mgrwt>
</event>
<event>
13    1  0.2038932E-008  0.1316975E+03  0.7546771E-02  0.1256052E+00
         -3   -1    0    0    0  501 -0.00000000000E+00  0.00000000000E+00  0.10568819671E+04  0.10568819671E+04  0.00000000000E+00 0.  1.
          2   -1    0    0  503    0  0.00000000000E+00 -0.00000000000E+00 -0.77097259263E+03  0.77097259263E+03  0.00000000000E+00 0. -1.
         24    2    1    2    0    0 -0.71808294924E+02  0.25297991833E+02 -0.33013090216E+02  0.11591436440E+03  0.80931181497E+02 0.  0.
         25    2    1    2    0    0 -0.18217261960E+03 -0.41120090861E+02 -0.14536273466E+03  0.26764457228E+03  0.12500226894E+03 0.  0.
         24    2    1    2    0    0  0.58726377719E+02  0.27730461077E+02  0.89584136136E+02  0.13716869659E+03  0.81068908756E+02 0.  0.
        -11    1    5    5    0    0  0.73580882484E+02  0.28309543922E+02  0.46359499999E+02  0.91459170039E+02  0.00000000000E+00 0.  1.
         12    1    5    5    0    0 -0.14854504765E+02 -0.57908284544E+00  0.43224636137E+02  0.45709526555E+02  0.00000000000E+00 0. -1.
        -11    1    3    3    0    0 -0.66330485163E+02  0.45355916467E+02 -0.44814002419E+02  0.92006452129E+02  0.00000000000E+00 0.  1.
         12    1    3    3    0    0 -0.54778097607E+01 -0.20057924635E+02  0.11800912203E+02  0.23907912273E+02  0.00000000000E+00 0. -1.
          5    1    4    4  502    0 -0.11236960840E+03 -0.18310448206E+02 -0.11034619585E+02  0.11448167642E+03  0.47000000000E+01 0.  1.
         -5    1    4    4    0  502 -0.69803011201E+02 -0.22809642654E+02 -0.13432811507E+03  0.15316289586E+03  0.47000000000E+01 0.  1.
          1    1    1    2  503    0  0.10652140778E+03 -0.75888342340E+02 -0.45337155485E+03  0.47185974354E+03  0.00000000000E+00 0. -1.
         -4    1    1    2    0  501  0.88733129026E+02  0.63979980291E+02  0.82807261805E+03  0.83526718290E+03  0.00000000000E+00 0.  1.
<mgrwt>
<rscale>  0 0.11247614E+03</rscale>
<asrwt>0</asrwt>
<pdfrwt beam="2">  1        2 0.11337832E+00 0.96060171E+02</pdfrwt>
<pdfrwt beam="1">  1       -3 0.15542382E+00 0.13169747E+03</pdfrwt>
<totfact> 0.79315045E+00</totfact>
</mgrwt>
</event>
<event>
13    1  0.2038932E-008  0.9965722E+02  0.7546771E-02  0.1471258E+00
          2   -1    0    0  503    0  0.00000000000E+00  0.00000000000E+00  0.86593164989E+03  0.86593164989E+03  0.00000000000E+00 0. -1.
          2   -1    0    0  502    0 -0.00000000000E+00 -0.00000000000E+00 -0.10711356767E+04  0.10711356767E+04  0.00000000000E+00 0. -1.
         24    2    1    2    0    0  0.54589505240E+02 -0.28126962111E+02 -0.30603579278E+03  0.32296198447E+03  0.82918012955E+02 0.  0.
         25    2    1    2    0    0  0.64164111676E+02 -0.77283003602E+02  0.16405427803E+03  0.22941651936E+03  0.12501374861E+03 0.  0.
         24    2    1    2    0    0  0.28460259976E+01  0.23012320982E+02 -0.13618985398E+02  0.82160960613E+02  0.77635558249E+02 0.  0.
        -11    1    3    3    0    0  0.67382226318E+02 -0.28285015850E+02 -0.15476176289E+03  0.17114791789E+03  0.00000000000E+00 0.  1.
         12    1    3    3    0    0 -0.12792721077E+02  0.15805373822E+00 -0.15127402989E+03  0.15181406658E+03  0.00000000000E+00 0. -1.
        -11    1    5    5    0    0 -0.34195398861E+02  0.15257550416E+02  0.84020280410E+01  0.38375932864E+02  0.00000000000E+00 0.  1.
         12    1    5    5    0    0  0.37041424859E+02  0.77547705665E+01 -0.22021013439E+02  0.43785027749E+02  0.00000000000E+00 0. -1.
          5    1    4    4  501    0 -0.79608946287E+01 -0.25979285904E+02 -0.13698831004E+02  0.30790373662E+02  0.47000000000E+01 0. -1.
         -5    1    4    4    0  501  0.72125006304E+02 -0.51303717698E+02  0.17775310903E+03  0.19862614570E+03  0.47000000000E+01 0. -1.
          1    1    1    2  502    0 -0.13558065211E+03  0.67035561036E+02 -0.66742977784E+03  0.68435253197E+03  0.00000000000E+00 0. -1.
          1    1    1    2  503    0  0.13981009194E+02  0.15362083695E+02  0.61782625116E+03  0.61817533019E+03  0.00000000000E+00 0. -1.
<mgrwt>
<rscale>  0 0.45497767E+02</rscale>
<asrwt>0</asrwt>
<pdfrwt beam="1">  1        2 0.12734289E+00 0.20771669E+02</pdfrwt>
<pdfrwt beam="2">  1        2 0.15751995E+00 0.99657220E+02</pdfrwt>
<totfact> 0.15685446E+02</totfact>
</mgrwt>
</event>
<event>
13    1  0.2038932E-008  0.6582666E+02  0.7546771E-02  0.1388143E+00
          2   -1    0    0  503    0  0.00000000000E+00  0.00000000000E+00  0.13499285974E+04  0.13499285974E+04  0.00000000000E+00 0. -1.
          2   -1    0    0  502    0 -0.00000000000E+00 -0.00000000000E+00 -0.40863358526E+04  0.40863358526E+04  0.00000000000E+00 0. -1.
         24    2    1    2    0    0  0.38481522257E+03  0.11507160033E+03 -0.31905374969E+03  0.52432807986E+03  0.10862969860E+03 0.  0.
         25    2    1    2    0    0  0.46528816293E+02  0.76688679488E+02  0.21223388531E+03  0.26214206440E+03  0.12501662109E+03 0.  0.
         24    2    1    2    0    0 -0.47095921702E+03 -0.13230949080E+03 -0.56834442371E+03  0.75452424472E+03  0.83564744063E+02 0.  0.
        -11    1    5    5    0    0 -0.26407942333E+03 -0.64002314470E+02 -0.37596008488E+03  0.46387522407E+03  0.00000000000E+00 0.  1.
         12    1    5    5    0    0 -0.20687979369E+03 -0.68307176326E+02 -0.19238433883E+03  0.29064902065E+03  0.00000000000E+00 0. -1.
        -13    1    3    3    0    0  0.16700587724E+03  0.35894052536E+02 -0.20246850487E+03  0.26490156947E+03  0.00000000000E+00 0.  1.
         14    1    3    3    0    0  0.21780934533E+03  0.79177547792E+02 -0.11658524481E+03  0.25942651039E+03  0.00000000000E+00 0. -1.
          5    1    4    4  501    0  0.81815196007E+02  0.18043402895E+02  0.99338596134E+02  0.13003667701E+03  0.47000000000E+01 0.  1.
         -5    1    4    4    0  501 -0.35286379714E+02  0.58645276593E+02  0.11289528917E+03  0.13210538739E+03  0.47000000000E+01 0.  1.
          1    1    1    2  502    0 -0.19379228150E+02 -0.62927588945E+02 -0.29769399754E+04  0.29776680562E+04  0.00000000000E+00 0. -1.
          1    1    1    2  503    0  0.58994406308E+02  0.34767999249E+01  0.91569700828E+03  0.91760200474E+03  0.00000000000E+00 0. -1.
<mgrwt>
<rscale>  0 0.62371012E+02</rscale>
<asrwt>0</asrwt>
<pdfrwt beam="1">  1        2 0.19851891E+00 0.59096769E+02</pdfrwt>
<pdfrwt beam="2">  1        2 0.60093174E+00 0.65826663E+02</pdfrwt>
<totfact> 0.21758377E+00</totfact>
</mgrwt>
</event>
<event>
13    1  0.2038932E-008  0.1412328E+03  0.7546771E-02  0.1239458E+00
         -1   -1    0    0    0  501 -0.00000000000E+00  0.00000000000E+00  0.16923196560E+04  0.16923196560E+04  0.00000000000E+00 0.  1.
          2   -1    0    0  503    0  0.00000000000E+00 -0.00000000000E+00 -0.28744781651E+04  0.28744781651E+04  0.00000000000E+00 0. -1.
         24    2    1    2    0    0  0.17057392458E+03  0.15382896284E+03  0.12694007981E+03  0.27545292057E+03  0.83676245317E+02 0.  0.
         25    2    1    2    0    0 -0.83628322218E+02 -0.14209862567E+03 -0.62662547685E+03  0.65990179718E+03  0.12500071196E+03 0.  0.
         24    2    1    2    0    0 -0.60540941762E+02 -0.33706774468E+02 -0.13930762273E+03  0.17289458736E+03  0.75396102768E+02 0.  0.
        -11    1    3    3    0    0  0.15523344284E+03  0.95732006875E+02  0.11015767015E+03  0.21306513373E+03  0.00000000000E+00 0.  1.
         12    1    3    3    0    0  0.15340481736E+02  0.58096955969E+02  0.16782409663E+02  0.62387786841E+02  0.00000000000E+00 0. -1.
        -13    1    5    5    0    0 -0.60547282001E+02 -0.42446628015E+02 -0.14478918169E+03  0.16257797121E+03  0.00000000000E+00 0.  1.
         14    1    5    5    0    0  0.63402397707E-02  0.87398535474E+01  0.54815589574E+01  0.10316616152E+02  0.00000000000E+00 0. -1.
          5    1    4    4  502    0 -0.17578046883E+02 -0.12805172907E+03 -0.49836721485E+03  0.51487688226E+03  0.47000000000E+01 0.  1.
         -5    1    4    4    0  502 -0.66050275335E+02 -0.14046896604E+02 -0.12825826200E+03  0.14502491492E+03  0.47000000000E+01 0.  1.
          1    1    1    2  503    0  0.70471630854E+02 -0.81388367351E+02 -0.19959609407E+04  0.19988622749E+04  0.00000000000E+00 0. -1.
         -2    1    1    2    0  501 -0.96876291451E+02  0.10336480465E+03  0.14527954514E+04  0.14596862410E+04  0.00000000000E+00 0.  1.
<mgrwt>
<rscale>  0 0.12223309E+03</rscale>
<asrwt>0</asrwt>
<pdfrwt beam="2">  1        2 0.42271738E+00 0.10578938E+03</pdfrwt>
<pdfrwt beam="1">  1       -1 0.24887054E+00 0.14123279E+03</pdfrwt>
<totfact> 0.33294152E-01</totfact>
</mgrwt>
</event>
<event>
13    1  0.2038932E-008  0.8152315E+02  0.7546771E-02  0.1325209E+00
          2   -1    0    0  502    0  0.00000000000E+00  0.00000000000E+00  0.27352302653E+03  0.27352302653E+03  0.00000000000E+00 0. -1.
          2   -1    0    0  503    0 -0.00000000000E+00 -0.00000000000E+00 -0.11438166863E+04  0.11438166863E+04  0.00000000000E+00 0. -1.
         24    2    1    2    0    0  0.11358399828E+03 -0.24929949811E+02 -0.59817067707E+03  0.61693868075E+03  0.96344952350E+02 0.  0.
         25    2    1    2    0    0  0.35822825520E+00 -0.70860161137E+02 -0.13364659944E+03  0.19623387088E+03  0.12500011110E+03 0.  0.
         24    2    1    2    0    0 -0.97078529541E+02  0.99197947218E+02 -0.14853394536E+03  0.21736474838E+03  0.76945612520E+02 0.  0.
        -11    1    3    3    0    0  0.81526263828E+01  0.15796779467E+02 -0.25533154741E+03  0.25594960961E+03  0.00000000000E+00 0.  1.
         12    1    3    3    0    0  0.10543137190E+03 -0.40726729278E+02 -0.34283912966E+03  0.36098907114E+03  0.00000000000E+00 0. -1.
        -13    1    5    5    0    0 -0.16757808904E+02  0.64721656748E+02 -0.90217186344E+02  0.11228917011E+03  0.00000000000E+00 0.  1.
         14    1    5    5    0    0 -0.80320720637E+02  0.34476290470E+02 -0.58316759016E+02  0.10507557828E+03  0.00000000000E+00 0. -1.
          5    1    4    4  501    0  0.51428432406E+01 -0.10427103436E+03 -0.12101054721E+03  0.15988914904E+03  0.47000000000E+01 0. -1.
         -5    1    4    4    0  501 -0.47846149854E+01  0.33410873223E+02 -0.12636052223E+02  0.36344721843E+02  0.47000000000E+01 0. -1.
          1    1    1    2  502    0  0.57641611199E+02 -0.57649532434E+02  0.17769476678E+03  0.19550307944E+03  0.00000000000E+00 0. -1.
          1    1    1    2  503    0 -0.74505308197E+02  0.54241696164E+02 -0.16763720471E+03  0.19129933339E+03  0.00000000000E+00 0. -1.
<mgrwt>
<rscale>  0 0.81369436E+02</rscale>
<asrwt>0</asrwt>
<pdfrwt beam="1">  1        2 0.40223974E-01 0.81523150E+02</pdfrwt>
<pdfrwt beam="2">  1        2 0.16820834E+00 0.81216013E+02</pdfrwt>
<totfact> 0.48045483E+02</totfact>
</mgrwt>
</event>
<event>
13    1  0.2038932E-008  0.6214585E+02  0.7546771E-02  0.1404097E+00
          4   -1    0    0  503    0 -0.00000000000E+00  0.00000000000E+00  0.42215590168E+03  0.42215590168E+03  0.00000000000E+00 0. -1.
          2   -1    0    0  502    0  0.00000000000E+00 -0.00000000000E+00 -0.14530173295E+04  0.14530173295E+04  0.00000000000E+00 0. -1.
         24    2    1    2    0    0  0.32760266501E+02 -0.26597349825E+02  0.14646982963E+03  0.17203497541E+03  0.79761943882E+02 0.  0.
         25    2    1    2    0    0 -0.97141624380E+02 -0.12057467641E+03 -0.51532389559E+03  0.55241202554E+03  0.12500232322E+03 0.  0.
         24    2    1    2    0    0 -0.33862358260E+02  0.10284917359E+03 -0.24387709153E+03  0.27895411344E+03  0.81331112221E+02 0.  0.
        -13    1    5    5    0    0 -0.28370086804E+02  0.28539101543E+02 -0.16744024876E+03  0.17220795292E+03  0.00000000000E+00 0.  1.
         14    1    5    5    0    0 -0.54922714559E+01  0.74310072047E+02 -0.76436842764E+02  0.10674616052E+03  0.00000000000E+00 0. -1.
        -13    1    3    3    0    0 -0.35235942068E+01 -0.44860712835E+02  0.49477319581E+02  0.66879775905E+02  0.00000000000E+00 0.  1.
         14    1    3    3    0    0  0.36283860708E+02  0.18263363010E+02  0.96992510049E+02  0.10515519950E+03  0.00000000000E+00 0. -1.
          5    1    4    4  501    0 -0.17088370875E+02  0.24143631287E+02 -0.12367547793E+03  0.12725030920E+03  0.47000000000E+01 0.  1.
         -5    1    4    4    0  501 -0.80053253505E+02 -0.14471830769E+03 -0.39164841767E+03  0.42516171634E+03  0.47000000000E+01 0.  1.
          1    1    1    2  502    0  0.36365904766E+02  0.41432967994E+02 -0.63951374173E+03  0.64188550048E+03  0.00000000000E+00 0. -1.
          3    1    1    2  503    0  0.61877811373E+02  0.28898846466E+01  0.22138347138E+03  0.22988661634E+03  0.00000000000E+00 0. -1.
<mgrwt>
<rscale>  0 0.58532195E+02</rscale>
<asrwt>0</asrwt>
<pdfrwt beam="2">  1        2 0.21367902E+00 0.55128666E+02</pdfrwt>
<pdfrwt beam="1">  1        4 0.62081751E-01 0.62145849E+02</pdfrwt>
<totfact> 0.21298921E+01</totfact>
</mgrwt>
</event>
<event>
13    1  0.2038932E-008  0.1110205E+03  0.7546771E-02  0.1461010E+00
          2   -1    0    0  502    0  0.00000000000E+00  0.00000000000E+00  0.18609210990E+04  0.18609210990E+04  0.00000000000E+00 0. -1.
          4   -1    0    0  503    0 -0.00000000000E+00 -0.00000000000E+00 -0.44906182511E+03  0.44906182511E+03  0.00000000000E+00 0. -1.
         24    2    1    2    0    0  0.51839727596E+02  0.14202890939E+02 -0.30456539411E+03  0.32004868211E+03  0.82352900143E+02 0.  0.
         25    2    1    2    0    0  0.85873610596E+02  0.86504646712E+02  0.16089879228E+04  0.16184329352E+04  0.12500279632E+03 0.  0.
         24    2    1    2    0    0 -0.46408076433E+02 -0.12051278994E+02 -0.49730916856E+02  0.10615204302E+03  0.80598692682E+02 0.  0.
        -11    1    3    3    0    0  0.57996046894E+02  0.36781526971E+02 -0.26780828882E+03  0.27647369086E+03  0.00000000000E+00 0.  1.
         12    1    3    3    0    0 -0.61563192979E+01 -0.22578636032E+02 -0.36757105294E+02  0.43574991245E+02  0.00000000000E+00 0. -1.
        -13    1    5    5    0    0 -0.66549242471E+02 -0.13901933220E+02 -0.21268375811E+02  0.71234887733E+02  0.00000000000E+00 0.  1.
         14    1    5    5    0    0  0.20141166038E+02  0.18506542256E+01 -0.28462541045E+02  0.34917155285E+02  0.00000000000E+00 0. -1.
          5    1    4    4  501    0  0.45883243015E+02  0.44582847090E+02  0.14012062350E+04  0.14026738414E+04  0.47000000000E+01 0. -1.
         -5    1    4    4    0  501  0.39990367580E+02  0.41921799622E+02  0.20778168779E+03  0.21575909382E+03  0.47000000000E+01 0. -1.
          1    1    1    2  502    0  0.11555917931E+02 -0.16413919704E+02  0.13649725762E+03  0.13796542080E+03  0.00000000000E+00 0. -1.
          3    1    1    2  503    0 -0.10286117969E+03 -0.72242338953E+02  0.20670404373E+02  0.12738384294E+03  0.00000000000E+00 0. -1.
<mgrwt>
<rscale>  0 0.47208053E+02</rscale>
<asrwt>0</asrwt>
<pdfrwt beam="1">  1        2 0.27366487E+00 0.20073764E+02</pdfrwt>
<pdfrwt beam="2">  1        4 0.66038504E-01 0.11102055E+03</pdfrwt>
<totfact> 0.13985548E+01</totfact>
</mgrwt>
</event>
<event>
13    1  0.2038932E-008  0.1271894E+03  0.7546771E-02  0.1331247E+00
          2   -1    0    0  503    0  0.00000000000E+00  0.00000000000E+00  0.10501606007E+04  0.10501606007E+04  0.00000000000E+00 0. -1.
         -1   -1    0    0    0  501 -0.00000000000E+00 -0.00000000000E+00 -0.63213162554E+03  0.63213162554E+03  0.00000000000E+00 0.  1.
         24    2    1    2    0    0  0.23617427105E+03 -0.15530030679E+03 -0.14654643670E+03  0.32950870575E+03  0.84874362781E+02 0.  0.
         25    2    1    2    0    0 -0.23330070817E+03 -0.73041643427E+02  0.24951192027E+03  0.37101509732E+03  0.12502680504E+03 0.  0.
         24    2    1    2    0    0  0.19360542056E+02  0.31339107110E+02 -0.87024796253E+02  0.12576459693E+03  0.82984627817E+02 0.  0.
        -13    1    5    5    0    0 -0.19498197369E+02 -0.18797400846E+02 -0.30645292510E+02  0.40898116487E+02  0.00000000000E+00 0.  1.
         14    1    5    5    0    0  0.38858739425E+02  0.50136507956E+02 -0.56379503743E+02  0.84866480439E+02  0.00000000000E+00 0. -1.
        -13    1    3    3    0    0  0.22711935641E+02 -0.21937438097E+02 -0.51606440516E+02  0.60500478622E+02  0.00000000000E+00 0.  1.
         14    1    3    3    0    0  0.21346233541E+03 -0.13336286869E+03 -0.94939996183E+02  0.26900822712E+03  0.00000000000E+00 0. -1.
          5    1    4    4  502    0 -0.14200747612E+03  0.20727108954E+02  0.12734926783E+03  0.19192618982E+03  0.47000000000E+01 0. -1.
         -5    1    4    4    0  502 -0.91293232043E+02 -0.93768752382E+02  0.12216265244E+03  0.17908890750E+03  0.47000000000E+01 0. -1.
          1    1    1    2  503    0 -0.32623963666E+02  0.37037054809E+02  0.59959910432E+03  0.60162708743E+03  0.00000000000E+00 0. -1.
         -2    1    1    2    0  501  0.10389858723E+02  0.15996578830E+03 -0.19751081651E+03  0.25437673877E+03  0.00000000000E+00 0.  1.
<mgrwt>
<rscale>  0 0.79231477E+02</rscale>
<asrwt>0</asrwt>
<pdfrwt beam="1">  1        2 0.15443538E+00 0.49356524E+02</pdfrwt>
<pdfrwt beam="2">  1       -1 0.92960533E-01 0.12718941E+03</pdfrwt>
<totfact> 0.40146114E+01</totfact>
</mgrwt>
</event>
<event>
13    1  0.2038932E-008  0.1655674E+03  0.7546771E-02  0.1232730E+00
          2   -1    0    0  503    0  0.00000000000E+00  0.00000000000E+00  0.22774008485E+04  0.22774008485E+04  0.00000000000E+00 0. -1.
          2   -1    0    0  502    0 -0.00000000000E+00 -0.00000000000E+00 -0.18802442500E+04  0.18802442500E+04  0.00000000000E+00 0. -1.
         24    2    1    2    0    0  0.58512523551E+02  0.42994751910E+02 -0.18284601115E+03  0.21235058359E+03  0.79923979206E+02 0.  0.
         25    2    1    2    0    0 -0.23663997137E+02 -0.16943266443E+03  0.91331325545E+03  0.93756818427E+03  0.12500234016E+03 0.  0.
         24    2    1    2    0    0 -0.30602322160E+01  0.29481884352E+02  0.12656377809E+03  0.15316136760E+03  0.81002889302E+02 0.  0.
        -11    1    5    5    0    0 -0.30624071682E+02 -0.55500829213E+01  0.90881608843E+02  0.96063021047E+02  0.00000000000E+00 0.  1.
         12    1    5    5    0    0  0.27563839466E+02  0.35031967273E+02  0.35682169247E+02  0.57098346555E+02  0.00000000000E+00 0. -1.
        -13    1    3    3    0    0 -0.53883484236E+01  0.43743752392E+02 -0.75320766457E+02  0.87268367876E+02  0.00000000000E+00 0.  1.
         14    1    3    3    0    0  0.63900871975E+02 -0.74900048207E+00 -0.10752524469E+03  0.12508221571E+03  0.00000000000E+00 0. -1.
          5    1    4    4  501    0 -0.51770074556E+02 -0.13815771323E+03  0.84042186177E+03  0.85328699163E+03  0.47000000000E+01 0. -1.
         -5    1    4    4    0  501  0.28106077420E+02 -0.31274951209E+02  0.72891393679E+02  0.84281192644E+02  0.47000000000E+01 0. -1.
          1    1    1    2  502    0 -0.75970274817E+02  0.21312322057E+03 -0.16462356035E+04  0.16617113625E+04  0.00000000000E+00 0. -1.
          1    1    1    2  503    0  0.44181980618E+02 -0.11616719240E+03  0.11863611796E+04  0.11928536006E+04  0.00000000000E+00 0. -1.
<mgrwt>
<rscale>  0 0.12650856E+03</rscale>
<asrwt>0</asrwt>
<pdfrwt beam="1">  1        2 0.33491189E+00 0.96664048E+02</pdfrwt>
<pdfrwt beam="2">  1        2 0.27650650E+00 0.16556740E+03</pdfrwt>
<totfact> 0.10490320E+01</totfact>
</mgrwt>
</event>
<event>
13    1  0.2038932E-008  0.1452566E+03  0.7546771E-02  0.1365979E+00
          2   -1    0    0  502    0  0.00000000000E+00  0.00000000000E+00  0.31219664872E+04  0.31219664872E+04  0.00000000000E+00 0. -1.
          2   -1    0    0  503    0 -0.00000000000E+00 -0.00000000000E+00 -0.25708152381E+04  0.25708152381E+04  0.00000000000E+00 0. -1.
         24    2    1    2    0    0  0.12583883223E+03 -0.32513108428E+03 -0.14432970480E+04  0.14874848439E+04  0.89214114556E+02 0.  0.
         25    2    1    2    0    0  0.20528276293E+02 -0.18891319326E+02  0.47795995474E+02  0.13670529478E+03  0.12500235344E+03 0.  0.
         24    2    1    2    0    0 -0.18027811146E+03  0.17071412178E+03  0.75645194535E+03  0.80033143843E+03  0.81653884583E+02 0.  0.
        -11    1    5    5    0    0 -0.94580862499E+02  0.36469994638E+02  0.26554408931E+03  0.28423452188E+03  0.00000000000E+00 0.  1.
         12    1    5    5    0    0 -0.85697248961E+02  0.13424412714E+03  0.49090785604E+03  0.51609691655E+03  0.00000000000E+00 0. -1.
        -13    1    3    3    0    0  0.21738284442E+02 -0.14667046555E+03 -0.72810817979E+03  0.74305201699E+03  0.00000000000E+00 0.  1.
         14    1    3    3    0    0  0.10410054778E+03 -0.17846061873E+03 -0.71518886826E+03  0.74443282690E+03  0.00000000000E+00 0. -1.
          5    1    4    4  501    0  0.18959394153E+02  0.40208068121E+02  0.61312369257E+02  0.75877822798E+02  0.47000000000E+01 0.  1.
         -5    1    4    4    0  501  0.15688821400E+01 -0.59099387446E+02 -0.13516373783E+02  0.60827471984E+02  0.47000000000E+01 0.  1.
          1    1    1    2  502    0  0.11887897358E+02  0.29831259793E+02  0.22240439801E+04  0.22242758038E+04  0.00000000000E+00 0. -1.
          1    1    1    2  503    0  0.22023105584E+02  0.14347702204E+03 -0.10338436237E+04  0.10439843444E+04  0.00000000000E+00 0. -1.
<mgrwt>
<rscale>  0 0.68297742E+02</rscale>
<asrwt>0</asrwt>
<pdfrwt beam="1">  1        2 0.45911272E+00 0.32112710E+02</pdfrwt>
<pdfrwt beam="2">  1        2 0.37806106E+00 0.14525655E+03</pdfrwt>
<totfact> 0.21666543E+00</totfact>
</mgrwt>
</event>
<event>
13    1  0.2038932E-008  0.6634353E+02  0.7546771E-02  0.1385564E+00
          2   -1    0    0  502    0  0.00000000000E+00  0.00000000000E+00  0.44633963239E+04  0.44633963239E+04  0.00000000000E+00 0. -1.
          2   -1    0    0  503    0 -0.00000000000E+00 -0.00000000000E+00 -0.20247088939E+04  0.20247088939E+04  0.00000000000E+00 0. -1.
         24    2    1    2    0    0  0.10575584653E+04 -0.22713063088E+03 -0.15252515775E+03  0.10953422779E+04  0.80576366834E+02 0.  0.
         25    2    1    2    0    0 -0.52825902387E+03  0.34461344250E+02  0.12569147795E+04  0.13695635588E+04  0.12499759210E+03 0.  0.
         24    2    1    2    0    0 -0.52621942183E+03  0.19844315824E+03 -0.52997393367E+03  0.78069635625E+03  0.11103091161E+03 0.  0.
        -11    1    3    3    0    0  0.88394037553E+02 -0.29516114383E+02 -0.33818402762E+02  0.99138243118E+02  0.00000000000E+00 0.  1.
         12    1    3    3    0    0  0.96916442775E+03 -0.19761451649E+03 -0.11870675499E+03  0.99620403474E+03  0.00000000000E+00 0. -1.
        -13    1    5    5    0    0 -0.13915891270E+03  0.90044751886E+02 -0.20621081366E+03  0.26456787409E+03  0.00000000000E+00 0.  1.
         14    1    5    5    0    0 -0.38706050913E+03  0.10839840636E+03 -0.32376312001E+03  0.51612848217E+03  0.00000000000E+00 0. -1.
          5    1    4    4  501    0 -0.49125025037E+02 -0.31064697663E+02  0.10222285525E+03  0.11768553718E+03  0.47000000000E+01 0. -1.
         -5    1    4    4    0  501 -0.47913399884E+03  0.65526041913E+02  0.11546919242E+04  0.12518780216E+04  0.47000000000E+01 0. -1.
          1    1    1    2  502    0  0.23742053289E+02  0.54960733013E+02  0.25514362126E+04  0.25521385374E+04  0.00000000000E+00 0. -1.
          1    1    1    2  503    0 -0.26822072886E+02 -0.60734604630E+02 -0.68716447065E+03  0.69036448744E+03  0.00000000000E+00 0. -1.
<mgrwt>
<rscale>  0 0.63023487E+02</rscale>
<asrwt>0</asrwt>
<pdfrwt beam="1">  1        2 0.65638181E+00 0.59869585E+02</pdfrwt>
<pdfrwt beam="2">  1        2 0.29775131E+00 0.66343534E+02</pdfrwt>
<totfact> 0.56163801E-01</totfact>
</mgrwt>
</event>
<event>
13    1  0.2038932E-008  0.3146774E+03  0.7546771E-02  0.1269466E+00
          2   -1    0    0  503    0  0.00000000000E+00  0.00000000000E+00  0.14535728523E+04  0.14535728523E+04  0.00000000000E+00 0. -1.
          2   -1    0    0  502    0 -0.00000000000E+00 -0.00000000000E+00 -0.24841780946E+04  0.24841780946E+04  0.00000000000E+00 0. -1.
         24    2    1    2    0    0 -0.29756204356E+03 -0.21273613306E+03 -0.77057925795E+03  0.85550001056E+03  0.65483152141E+02 0.  0.
         25    2    1    2    0    0  0.19229078647E+03 -0.18576041374E+03  0.78447311816E+03  0.83815761611E+03  0.12500975341E+03 0.  0.
         24    2    1    2    0    0  0.69665326242E+02  0.37400114447E+02  0.21583949557E+03  0.24413737595E+03  0.82245633604E+02 0.  0.
        -11    1    3    3    0    0 -0.81755851928E+02 -0.95932096526E+02 -0.24936339451E+03  0.27940846263E+03  0.00000000000E+00 0.  1.
         12    1    3    3    0    0 -0.21580619163E+03 -0.11680403653E+03 -0.52121586344E+03  0.57609154794E+03  0.00000000000E+00 0. -1.
        -13    1    5    5    0    0  0.12730197169E+02  0.52918475325E+02  0.11660015837E+03  0.12867796969E+03  0.00000000000E+00 0.  1.
         14    1    5    5    0    0  0.56935129073E+02 -0.15518360878E+02  0.99239337197E+02  0.11545940626E+03  0.00000000000E+00 0. -1.
          5    1    4    4  501    0  0.29391131317E+02 -0.11249183112E+03  0.32015716623E+03  0.34064784127E+03  0.47000000000E+01 0. -1.
         -5    1    4    4    0  501  0.16289965515E+03 -0.73268582623E+02  0.46431595193E+03  0.49750977484E+03  0.47000000000E+01 0. -1.
          1    1    1    2  502    0  0.39052263255E+02  0.32600723792E+03 -0.16127254677E+04  0.16458095979E+04  0.00000000000E+00 0. -1.
          1    1    1    2  503    0 -0.34463324086E+01  0.35089194433E+02  0.35238686964E+03  0.35414634640E+03  0.00000000000E+00 0. -1.
<mgrwt>
<rscale>  0 0.10533236E+03</rscale>
<asrwt>0</asrwt>
<pdfrwt beam="1">  1        2 0.21376072E+00 0.35258031E+02</pdfrwt>
<pdfrwt beam="2">  1        2 0.36532030E+00 0.31467741E+03</pdfrwt>
<totfact> 0.13236108E+01</totfact>
</mgrwt>
</event>
<event>
13    1  0.2038932E-008  0.9158380E+02  0.7546771E-02  0.1371585E+00
          2   -1    0    0  503    0  0.00000000000E+00  0.00000000000E+00  0.32742347911E+04  0.32742347911E+04  0.00000000000E+00 0. -1.
          2   -1    0    0  502    0 -0.00000000000E+00 -0.00000000000E+00 -0.15230943444E+04  0.15230943444E+04  0.00000000000E+00 0. -1.
         24    2    1    2    0    0 -0.13650983348E+03 -0.26137130665E+03  0.60221447682E+02  0.31096208599E+03  0.78236191022E+02 0.  0.
         25    2    1    2    0    0 -0.31958737074E+03  0.41982275168E+01  0.14863932769E+04  0.15254979671E+04  0.12500144564E+03 0.  0.
         24    2    1    2    0    0  0.36066705843E+03  0.35978103365E+03  0.39216680248E+03  0.65188888225E+03  0.10789436788E+03 0.  0.
        -13    1    5    5    0    0  0.12166994754E+03  0.82654510143E+02  0.16554870669E+03  0.22145364858E+03  0.00000000000E+00 0.  1.
         14    1    5    5    0    0  0.23899711089E+03  0.27712652351E+03  0.22661809579E+03  0.43043523367E+03  0.00000000000E+00 0. -1.
        -13    1    3    3    0    0 -0.90468639058E+02 -0.13440897886E+03  0.67942838265E+02  0.17568886568E+03  0.00000000000E+00 0.  1.
         14    1    3    3    0    0 -0.46041194421E+02 -0.12696232778E+03 -0.77213905824E+01  0.13527322031E+03  0.00000000000E+00 0. -1.
          5    1    4    4  501    0 -0.13391888494E+03  0.20603841396E+02  0.37903050947E+03  0.40254813766E+03  0.47000000000E+01 0.  1.
         -5    1    4    4    0  501 -0.18566848580E+03 -0.16405613880E+02  0.11073627674E+04  0.11229498294E+04  0.47000000000E+01 0.  1.
          1    1    1    2  502    0  0.63500036473E+02 -0.65943895439E+02 -0.12460734229E+04  0.12494318017E+04  0.00000000000E+00 0. -1.
          1    1    1    2  503    0  0.31930109320E+02 -0.36664059083E+02  0.10584323425E+04  0.10595483985E+04  0.00000000000E+00 0. -1.
<mgrwt>
<rscale>  0 0.66728495E+02</rscale>
<asrwt>0</asrwt>
<pdfrwt beam="1">  1        2 0.48150511E+00 0.48618773E+02</pdfrwt>
<pdfrwt beam="2">  1        2 0.22398446E+00 0.91583801E+02</pdfrwt>
<totfact> 0.56948169E+00</totfact>
</mgrwt>
</event>
<event>
13    1  0.2038932E-008  0.1637381E+03  0.7546771E-02  0.1274660E+00
          2   -1    0    0  502    0  0.00000000000E+00  0.00000000000E+00  0.47233205331E+03  0.47233205331E+03  0.00000000000E+00 0. -1.
          2   -1    0    0  503    0 -0.00000000000E+00 -0.00000000000E+00 -0.34223618162E+04  0.34223618162E+04  0.00000000000E+00 0. -1.
         24    2    1    2    0    0 -0.41650250678E+02  0.18739214292E+02  0.25050958752E+02  0.10034725223E+03  0.85767820083E+02 0.  0.
         25    2    1    2    0    0  0.21807223262E+03 -0.18301022983E+03  0.44400326091E+02  0.31407761421E+03  0.12500046370E+03 0.  0.
         24    2    1    2    0    0 -0.39735631645E+02 -0.34541960619E+02 -0.16869771201E+03  0.19385611693E+03  0.79681921231E+02 0.  0.
        -11    1    3    3    0    0 -0.59848407282E+02  0.29247576296E+02  0.36974030378E+02  0.76186163414E+02  0.00000000000E+00 0.  1.
         12    1    3    3    0    0  0.18198156604E+02 -0.10508362004E+02 -0.11923071626E+02  0.24161088816E+02  0.00000000000E+00 0. -1.
        -13    1    5    5    0    0  0.23553133115E+02 -0.19178994603E+02 -0.52771777579E+02  0.60888787328E+02  0.00000000000E+00 0.  1.
         14    1    5    5    0    0 -0.63288764760E+02 -0.15362966016E+02 -0.11592593443E+03  0.13296732961E+03  0.00000000000E+00 0. -1.
          5    1    4    4  501    0  0.22923586650E+03 -0.17658127479E+03  0.57563873513E+02  0.29506900656E+03  0.47000000000E+01 0.  1.
         -5    1    4    4    0  501 -0.11163633876E+02 -0.64289550473E+01 -0.13163547421E+02  0.19008607656E+02  0.47000000000E+01 0. -1.
          1    1    1    2  502    0 -0.17861517248E+02 -0.61927356194E+02  0.20619575786E+03  0.21603407556E+03  0.00000000000E+00 0. -1.
          1    1    1    2  503    0 -0.11882483305E+03  0.26074033235E+03 -0.30569790936E+04  0.30703788106E+04  0.00000000000E+00 0. -1.
<mgrwt>
<rscale>  0 0.10272882E+03</rscale>
<asrwt>0</asrwt>
<pdfrwt beam="1">  1        2 0.69460594E-01 0.64451775E+02</pdfrwt>
<pdfrwt beam="2">  1        2 0.50328852E+00 0.16373808E+03</pdfrwt>
<totfact> 0.17077198E+01</totfact>
</mgrwt>
</event>
<event>
13    1  0.2038932E-008  0.1457690E+03  0.7546771E-02  0.1368188E+00
          2   -1    0    0  502    0  0.00000000000E+00  0.00000000000E+00  0.27163866931E+04  0.27163866931E+04  0.00000000000E+00 0. -1.
          2   -1    0    0  503    0 -0.00000000000E+00 -0.00000000000E+00 -0.19009443486E+04  0.19009443486E+04  0.00000000000E+00 0. -1.
         24    2    1    2    0    0 -0.48557826817E+03  0.25433592145E+03 -0.53007197259E+00  0.55401120951E+03  0.80343785214E+02 0.  0.
         25    2    1    2    0    0  0.14342699657E+03 -0.31839117054E+03  0.57954354083E+03  0.68806855522E+03  0.12499352044E+03 0.  0.
         24    2    1    2    0    0  0.50702741269E+03  0.80658850783E+02  0.11102342412E+04  0.12256790452E+04  0.78015409213E+02 0.  0.
        -11    1    5    5    0    0  0.34538744747E+03  0.41374381944E+02  0.82747754342E+03  0.89762097414E+03  0.00000000000E+00 0.  1.
         12    1    5    5    0    0  0.16163996522E+03  0.39284468838E+02  0.28275669783E+03  0.32805807110E+03  0.00000000000E+00 0. -1.
        -13    1    3    3    0    0 -0.43217439283E+03  0.19854114370E+03  0.12099912692E+02  0.47575172038E+03  0.00000000000E+00 0.  1.
         14    1    3    3    0    0 -0.53403875346E+02  0.55794777746E+02 -0.12629984664E+02  0.78259489126E+02  0.00000000000E+00 0. -1.
          5    1    4    4  501    0  0.52794431729E+02 -0.25427604679E+03  0.40112539900E+03  0.47787784602E+03  0.47000000000E+01 0. -1.
         -5    1    4    4    0  501  0.90632564839E+02 -0.64115123749E+02  0.17841814183E+03  0.21019070921E+03  0.47000000000E+01 0. -1.
          1    1    1    2  502    0 -0.19364769560E+02 -0.24740047495E+02  0.63398094681E+03  0.63475893469E+03  0.00000000000E+00 0. -1.
          1    1    1    2  503    0 -0.14551137152E+03  0.81364458089E+01 -0.15077863124E+04  0.15148132970E+04  0.00000000000E+00 0. -1.
<mgrwt>
<rscale>  0 0.67673542E+02</rscale>
<asrwt>0</asrwt>
<pdfrwt beam="1">  1        2 0.39946863E+00 0.31417579E+02</pdfrwt>
<pdfrwt beam="2">  1        2 0.27955064E+00 0.14576898E+03</pdfrwt>
<totfact> 0.74443396E+00</totfact>
</mgrwt>
</event>
<event>
13    1  0.2038932E-008  0.1230517E+03  0.7546771E-02  0.1264283E+00
          2   -1    0    0  503    0  0.00000000000E+00  0.00000000000E+00  0.67921838982E+03  0.67921838982E+03  0.00000000000E+00 0. -1.
          2   -1    0    0  502    0 -0.00000000000E+00 -0.00000000000E+00 -0.64937655687E+03  0.64937655687E+03  0.00000000000E+00 0. -1.
         24    2    1    2    0    0  0.31711082049E+02  0.44772758429E+02 -0.22917770538E+03  0.24833192037E+03  0.78333450104E+02 0.  0.
         25    2    1    2    0    0  0.11853183701E+03 -0.59254441028E+02  0.39533521658E+03  0.43528736000E+03  0.12499706853E+03 0.  0.
         24    2    1    2    0    0  0.44347329828E+02 -0.34097076016E+02 -0.67161243858E+02  0.12094446631E+03  0.83592074970E+02 0.  0.
        -11    1    5    5    0    0  0.54759722134E+01 -0.53871233121E+02 -0.51145934182E+02  0.74484915339E+02  0.00000000000E+00 0.  1.
         12    1    5    5    0    0  0.38871357615E+02  0.19774157105E+02 -0.16015309676E+02  0.46459550967E+02  0.00000000000E+00 0. -1.
        -13    1    3    3    0    0 -0.20650343503E+02  0.34473390165E+02 -0.12469046972E+03  0.13100597145E+03  0.00000000000E+00 0.  1.
         14    1    3    3    0    0  0.52361425552E+02  0.10299368264E+02 -0.10448723567E+03  0.11732594892E+03  0.00000000000E+00 0. -1.
          5    1    4    4  501    0  0.26240272613E+02 -0.45477890416E+02  0.35583628683E+02  0.63600904504E+02  0.47000000000E+01 0.  1.
         -5    1    4    4    0  501  0.92291564393E+02 -0.13776550612E+02  0.35975158790E+03  0.37168645550E+03  0.47000000000E+01 0.  1.
          1    1    1    2  502    0 -0.11512406889E+03 -0.40350695645E+02 -0.26670066466E+03  0.29327627658E+03  0.00000000000E+00 0. -1.
          1    1    1    2  503    0 -0.79466179997E+02  0.88929454260E+02  0.19754623027E+03  0.23075492344E+03  0.00000000000E+00 0. -1.
<mgrwt>
<rscale>  0 0.10801892E+03</rscale>
<asrwt>0</asrwt>
<pdfrwt beam="1">  1        2 0.99885058E-01 0.12305168E+03</pdfrwt>
<pdfrwt beam="2">  1        2 0.95496552E-01 0.94822662E+02</pdfrwt>
<totfact> 0.36320127E+02</totfact>
</mgrwt>
</event>
<event>
13    1  0.2038932E-008  0.8276761E+02  0.7546771E-02  0.1390232E+00
          2   -1    0    0  502    0  0.00000000000E+00  0.00000000000E+00  0.24774343771E+04  0.24774343771E+04  0.00000000000E+00 0. -1.
          2   -1    0    0  503    0 -0.00000000000E+00 -0.00000000000E+00 -0.73739452367E+03  0.73739452367E+03  0.00000000000E+00 0. -1.
         24    2    1    2    0    0 -0.15498365243E+02  0.46821594558E+02 -0.34042532058E+03  0.35358032762E+03  0.81836349770E+02 0.  0.
         25    2    1    2    0    0  0.15683784032E+03 -0.55173251834E+02  0.75654518979E+01  0.20814642464E+03  0.12500200860E+03 0.  0.
         24    2    1    2    0    0 -0.41429699196E+02  0.34038753443E+02 -0.63773827175E+02  0.11524102059E+03  0.79613661408E+02 0.  0.
        -13    1    3    3    0    0 -0.90109473178E+01 -0.12574635080E+02 -0.20472141563E+03  0.20530508185E+03  0.00000000000E+00 0.  1.
         14    1    3    3    0    0 -0.64874179247E+01  0.59396229638E+02 -0.13570390496E+03  0.14827524577E+03  0.00000000000E+00 0. -1.
        -13    1    5    5    0    0 -0.57139038144E+02  0.36885920105E+01 -0.56213736095E+02  0.80240011944E+02  0.00000000000E+00 0.  1.
         14    1    5    5    0    0  0.15709338948E+02  0.30350161433E+02 -0.75600910799E+01  0.35001008647E+02  0.00000000000E+00 0. -1.
          5    1    4    4  501    0  0.50268602254E+02  0.21997522559E+02 -0.40099126529E+02  0.68123808758E+02  0.47000000000E+01 0. -1.
         -5    1    4    4    0  501  0.10656923807E+03 -0.77170774393E+02  0.47664578427E+02  0.14002261589E+03  0.47000000000E+01 0. -1.
          1    1    1    2  502    0 -0.37236109280E+02  0.27377573521E+02  0.23286235600E+04  0.23290821676E+04  0.00000000000E+00 0. -1.
          1    1    1    2  503    0 -0.62673666602E+02 -0.53064669687E+02 -0.19195001070E+03  0.20877896030E+03  0.00000000000E+00 0. -1.
<mgrwt>
<rscale>  0 0.61849122E+02</rscale>
<asrwt>0</asrwt>
<pdfrwt beam="1">  1        2 0.36432858E+00 0.46217522E+02</pdfrwt>
<pdfrwt beam="2">  1        2 0.10844037E+00 0.82767611E+02</pdfrwt>
<totfact> 0.39976122E+01</totfact>
</mgrwt>
</event>
<event>
13    1  0.2038932E-008  0.3769944E+02  0.7546771E-02  0.1600214E+00
         -1   -1    0    0    0  501  0.00000000000E+00  0.00000000000E+00  0.12599301643E+04  0.12599301643E+04  0.00000000000E+00 0.  1.
         -1   -1    0    0    0  502 -0.00000000000E+00 -0.00000000000E+00 -0.17507462899E+04  0.17507462899E+04  0.00000000000E+00 0.  1.
         24    2    1    2    0    0 -0.15145820091E+03  0.13424511430E+03 -0.66216714869E+03  0.69735780430E+03  0.82953222249E+02 0.  0.
         25    2    1    2    0    0  0.34017559646E+03 -0.14558466127E+03  0.59529278469E+03  0.71197778608E+03  0.12499815334E+03 0.  0.
         24    2    1    2    0    0 -0.16506316162E+03 -0.17915550046E+02 -0.24803949994E+03  0.30910887286E+03  0.80360982396E+02 0.  0.
        -11    1    3    3    0    0 -0.14272131449E+03  0.85749499749E+02 -0.55433336959E+03  0.57879861348E+03  0.00000000000E+00 0.  1.
         12    1    3    3    0    0 -0.87368864168E+01  0.48495614554E+02 -0.10783377910E+03  0.11855919083E+03  0.00000000000E+00 0. -1.
        -13    1    5    5    0    0 -0.32918742785E+02 -0.30922615532E+02 -0.31375118320E+02  0.54993179827E+02  0.00000000000E+00 0.  1.
         14    1    5    5    0    0 -0.13214441883E+03  0.13007065486E+02 -0.21666438162E+03  0.25411569303E+03  0.00000000000E+00 0. -1.
          5    1    4    4  503    0  0.17150289505E+03 -0.13857957733E+03  0.36378137444E+03  0.42541335270E+03  0.47000000000E+01 0. -1.
         -5    1    4    4    0  503  0.16867270140E+03 -0.70050839381E+01  0.23151141025E+03  0.28656443337E+03  0.47000000000E+01 0. -1.
         -2    1    1    2    0  502 -0.16378539781E+01  0.37668986767E+02 -0.73333376917E+03  0.73430242553E+03  0.00000000000E+00 0.  1.
         -2    1    1    2    0  501 -0.22016379951E+02 -0.84138897507E+01  0.55743150750E+03  0.55792956552E+03  0.00000000000E+00 0.  1.
<mgrwt>
<rscale>  0 0.29808582E+02</rscale>
<asrwt>0</asrwt>
<pdfrwt beam="1">  1       -1 0.18528385E+00 0.23569356E+02</pdfrwt>
<pdfrwt beam="2">  1       -1 0.25746269E+00 0.37699442E+02</pdfrwt>
<totfact> 0.19480298E-01</totfact>
</mgrwt>
</event>
<event>
13    1  0.2038932E-008  0.9645370E+02  0.7546771E-02  0.1393461E+00
          2   -1    0    0  503    0  0.00000000000E+00  0.00000000000E+00  0.28874510377E+04  0.28874510377E+04  0.00000000000E+00 0. -1.
         -1   -1    0    0    0  501 -0.00000000000E+00 -0.00000000000E+00 -0.24002809232E+03  0.24002809232E+03  0.00000000000E+00 0.  1.
         24    2    1    2    0    0 -0.23891178273E+02 -0.30161984251E+02 -0.21599001045E+02  0.89210043822E+02  0.77533098605E+02 0.  0.
         25    2    1    2    0    0 -0.74720131231E+02 -0.35296918489E+02  0.42621910967E+03  0.45179234699E+03  0.12499849951E+03 0.  0.
         24    2    1    2    0    0 -0.32111754832E+02 -0.36739117440E+02  0.15642585314E+03  0.18240448884E+03  0.80133778577E+02 0.  0.
        -11    1    3    3    0    0  0.51736628448E+00 -0.50754799380E+02 -0.18085047011E+00  0.50757758371E+02  0.00000000000E+00 0.  1.
         12    1    3    3    0    0 -0.24408544557E+02  0.20592815129E+02 -0.21418150575E+02  0.38452285451E+02  0.00000000000E+00 0. -1.
        -11    1    5    5    0    0 -0.50936261804E+02 -0.38609770829E+02  0.14891249775E+03  0.16204983541E+03  0.00000000000E+00 0.  1.
         12    1    5    5    0    0  0.18824506972E+02  0.18706533887E+01  0.75133553829E+01  0.20354653422E+02  0.00000000000E+00 0. -1.
          5    1    4    4  502    0 -0.79476176096E+02 -0.73986883530E+02  0.34233686663E+03  0.35917564193E+03  0.47000000000E+01 0. -1.
         -5    1    4    4    0  502  0.47560448657E+01  0.38689965042E+02  0.83882243043E+02  0.92616705057E+02  0.47000000000E+01 0. -1.
          1    1    1    2  503    0  0.58988978509E+01  0.38193710950E+02  0.22140537350E+04  0.22143909993E+04  0.00000000000E+00 0. -1.
         -2    1    1    2    0  501  0.12482416648E+03  0.64004309229E+02 -0.12767675140E+03  0.18968125101E+03  0.00000000000E+00 0.  1.
<mgrwt>
<rscale>  0 0.61054106E+02</rscale>
<asrwt>0</asrwt>
<pdfrwt beam="1">  1        2 0.42462513E+00 0.38646559E+02</pdfrwt>
<pdfrwt beam="2">  1       -1 0.35298251E-01 0.96453704E+02</pdfrwt>
<totfact> 0.33863098E+01</totfact>
</mgrwt>
</event>
<event>
13    1  0.2038932E-008  0.7803829E+02  0.7546771E-02  0.1457309E+00
          2   -1    0    0  503    0  0.00000000000E+00  0.00000000000E+00  0.41384679271E+04  0.41384679271E+04  0.00000000000E+00 0. -1.
         -1   -1    0    0    0  501 -0.00000000000E+00 -0.00000000000E+00 -0.24476592192E+03  0.24476592192E+03  0.00000000000E+00 0.  1.
         24    2    1    2    0    0  0.70266729419E+01 -0.49264157133E+02 -0.86917426829E+02  0.13223854646E+03  0.86348496067E+02 0.  0.
         25    2    1    2    0    0 -0.19619179606E+02 -0.48923693395E+01 -0.53010055073E+02  0.13728313166E+03  0.12501097877E+03 0.  0.
         24    2    1    2    0    0 -0.90850392481E+01  0.62886317230E+00  0.30022917440E+03  0.31039960728E+03  0.78277874491E+02 0.  0.
        -11    1    3    3    0    0  0.19191480280E+02  0.72317339173E+01  0.72495537928E+01  0.21752400350E+02  0.00000000000E+00 0.  1.
         12    1    3    3    0    0 -0.12164807338E+02 -0.56495891050E+02 -0.94166980622E+02  0.11048614611E+03  0.00000000000E+00 0. -1.
        -13    1    5    5    0    0  0.26427350876E+02 -0.15443660460E+01  0.23148805846E+03  0.23299680502E+03  0.00000000000E+00 0.  1.
         14    1    5    5    0    0 -0.35512390124E+02  0.21732292183E+01  0.68741115940E+02  0.77402802263E+02  0.00000000000E+00 0. -1.
          5    1    4    4  502    0 -0.59900981420E+01 -0.96216946745E+01 -0.93366222941E+02  0.94168996333E+02  0.47000000000E+01 0. -1.
         -5    1    4    4    0  502 -0.13629081464E+02  0.47293253349E+01  0.40356167867E+02  0.43114135323E+02  0.47000000000E+01 0. -1.
          1    1    1    2  503    0  0.50364478549E+02  0.59668856291E+02  0.37617238600E+04  0.37625341663E+04  0.00000000000E+00 0. -1.
         -2    1    1    2    0  501 -0.28686932636E+02 -0.61411929909E+01 -0.28323547365E+02  0.40778397354E+02  0.00000000000E+00 0.  1.
<mgrwt>
<rscale>  0 0.47847700E+02</rscale>
<asrwt>0</asrwt>
<pdfrwt beam="1">  1        2 0.60859818E+00 0.78038289E+02</pdfrwt>
<pdfrwt beam="2">  1       -1 0.35994991E-01 0.29336911E+02</pdfrwt>
<totfact> 0.52176465E+00</totfact>
</mgrwt>
</event>
<event>
13    1  0.2038932E-008  0.2681689E+03  0.7546771E-02  0.1194903E+00
          2   -1    0    0  503    0  0.00000000000E+00  0.00000000000E+00  0.75436961001E+03  0.75436961001E+03  0.00000000000E+00 0. -1.
          2   -1    0    0  502    0 -0.00000000000E+00 -0.00000000000E+00 -0.14572449594E+04  0.14572449594E+04  0.00000000000E+00 0. -1.
         24    2    1    2    0    0 -0.39179749215E+02 -0.23464504659E+02 -0.47184694455E+03  0.48016808066E+03  0.76395097142E+02 0.  0.
         25    2    1    2    0    0 -0.24998006252E+03  0.77869581983E+02  0.35819931899E+03  0.46096136881E+03  0.12499971183E+03 0.  0.
         24    2    1    2    0    0  0.55029235134E+00 -0.10675825809E+03 -0.34970554865E+03  0.37478444603E+03  0.82290836280E+02 0.  0.
        -13    1    5    5    0    0  0.10750772046E+02 -0.11292375560E+03 -0.25198872334E+03  0.27634339212E+03  0.00000000000E+00 0.  1.
         14    1    5    5    0    0 -0.10200479695E+02  0.61654975108E+01 -0.97716825307E+02  0.98441053903E+02  0.00000000000E+00 0. -1.
        -13    1    3    3    0    0  0.21020713599E+02 -0.12970510224E+02 -0.20106541702E+03  0.20257691492E+03  0.00000000000E+00 0.  1.
         14    1    3    3    0    0 -0.60200462815E+02 -0.10493994435E+02 -0.27078152754E+03  0.27759116574E+03  0.00000000000E+00 0. -1.
          5    1    4    4  501    0 -0.21518856961E+02 -0.28002587021E+02  0.67634303344E+02  0.76444064999E+02  0.47000000000E+01 0.  1.
         -5    1    4    4    0  501 -0.22846120556E+03  0.10587216900E+03  0.29056501565E+03  0.38451730381E+03  0.47000000000E+01 0.  1.
          1    1    1    2  502    0  0.16405182122E+02  0.10137771265E+03 -0.50319785859E+03  0.51357049712E+03  0.00000000000E+00 0. -1.
          1    1    1    2  503    0  0.27220433726E+03 -0.49024531883E+02  0.26367568344E+03  0.38213017676E+03  0.00000000000E+00 0. -1.
<mgrwt>
<rscale>  0 0.15462408E+03</rscale>
<asrwt>0</asrwt>
<pdfrwt beam="1">  1        2 0.11093671E+00 0.26816886E+03</pdfrwt>
<pdfrwt beam="2">  1        2 0.21430073E+00 0.89155036E+02</pdfrwt>
<totfact> 0.10692130E+02</totfact>
</mgrwt>
</event>
<event>
13    1  0.2038932E-008  0.5707522E+02  0.7546771E-02  0.1414788E+00
          2   -1    0    0  503    0  0.00000000000E+00  0.00000000000E+00  0.23119501749E+04  0.23119501749E+04  0.00000000000E+00 0. -1.
          2   -1    0    0  502    0 -0.00000000000E+00 -0.00000000000E+00 -0.66413725916E+03  0.66413725916E+03  0.00000000000E+00 0. -1.
         24    2    1    2    0    0  0.10233878826E+02  0.84093076274E+02 -0.90977050237E+02  0.14765271044E+03  0.79675099472E+02 0.  0.
         25    2    1    2    0    0 -0.19209639757E+01  0.20354696314E+02  0.36571859029E+03  0.38703054178E+03  0.12499819685E+03 0.  0.
         24    2    1    2    0    0 -0.64914182225E+01 -0.23752478174E+02 -0.28762281103E+02  0.89161648864E+02  0.80723057945E+02 0.  0.
        -11    1    5    5    0    0  0.34686518312E+02  0.37159738112E+01 -0.12607130635E+02  0.37093163209E+02  0.00000000000E+00 0.  1.
         12    1    5    5    0    0 -0.41177936535E+02 -0.27468451985E+02 -0.16155150467E+02  0.52068485655E+02  0.00000000000E+00 0. -1.
        -13    1    3    3    0    0  0.24887295538E+02  0.12100671130E+02 -0.63404742125E+02  0.69180669590E+02  0.00000000000E+00 0.  1.
         14    1    3    3    0    0 -0.14653416712E+02  0.71992405144E+02 -0.27572308112E+02  0.78472040845E+02  0.00000000000E+00 0. -1.
          5    1    4    4  501    0  0.57296622613E+02  0.20437805983E+02  0.12507606656E+03  0.13916436075E+03  0.47000000000E+01 0. -1.
         -5    1    4    4    0  501 -0.59217586589E+02 -0.83109669681E-01  0.24064252373E+03  0.24786618103E+03  0.47000000000E+01 0. -1.
          1    1    1    2  502    0  0.38129293729E+02 -0.39939676335E+02 -0.47316473581E+03  0.47637578444E+03  0.00000000000E+00 0. -1.
          1    1    1    2  503    0 -0.39950790356E+02 -0.40755618078E+02  0.18749983926E+04  0.18758667486E+04  0.00000000000E+00 0. -1.
<mgrwt>
<rscale>  0 0.56138901E+02</rscale>
<asrwt>0</asrwt>
<pdfrwt beam="1">  1        2 0.33999267E+00 0.57075224E+02</pdfrwt>
<pdfrwt beam="2">  1        2 0.97667245E-01 0.55217939E+02</pdfrwt>
<totfact> 0.53060786E+01</totfact>
</mgrwt>
</event>
<event>
13    1  0.2038932E-008  0.7353404E+02  0.7546771E-02  0.1380199E+00
          2   -1    0    0  502    0  0.00000000000E+00  0.00000000000E+00  0.17043567005E+04  0.17043567005E+04  0.00000000000E+00 0. -1.
          2   -1    0    0  503    0 -0.00000000000E+00 -0.00000000000E+00 -0.19639283873E+04  0.19639283873E+04  0.00000000000E+00 0. -1.
         24    2    1    2    0    0 -0.11581343983E+03  0.66093623637E+02 -0.92333935994E+03  0.93642641346E+03  0.80979838721E+02 0.  0.
         25    2    1    2    0    0  0.18075710849E+03 -0.21912021154E+03 -0.23022838523E+03  0.38641710493E+03  0.12500508086E+03 0.  0.
         24    2    1    2    0    0 -0.82767949487E+02  0.52142937918E+02 -0.74758223763E+02  0.14985793987E+03  0.85435301160E+02 0.  0.
        -11    1    5    5    0    0 -0.48483081938E+02 -0.15341901627E+02 -0.46965467665E+02  0.69222383177E+02  0.00000000000E+00 0.  1.
         12    1    5    5    0    0 -0.34284867549E+02  0.67484839545E+02 -0.27792756098E+02  0.80635556691E+02  0.00000000000E+00 0. -1.
        -13    1    3    3    0    0 -0.19384706193E+02  0.12599041337E+02 -0.44253345267E+03  0.44313695333E+03  0.00000000000E+00 0.  1.
         14    1    3    3    0    0 -0.96428733641E+02  0.53494582300E+02 -0.48080590727E+03  0.49328946013E+03  0.00000000000E+00 0. -1.
          5    1    4    4  501    0  0.59353735488E+02 -0.14389632789E+03 -0.67145998815E+02  0.16958683396E+03  0.47000000000E+01 0. -1.
         -5    1    4    4    0  501  0.12140337300E+03 -0.75223883650E+02 -0.16308238642E+03  0.21683027097E+03  0.47000000000E+01 0. -1.
          1    1    1    2  502    0  0.49608921727E+02  0.54267879939E+02  0.15800148624E+04  0.15817246958E+04  0.00000000000E+00 0. -1.
          1    1    1    2  503    0 -0.31784640897E+02  0.46615770049E+02 -0.61126058033E+03  0.61385893370E+03  0.00000000000E+00 0. -1.
<mgrwt>
<rscale>  0 0.64411495E+02</rscale>
<asrwt>0</asrwt>
<pdfrwt beam="1">  1        2 0.25064069E+00 0.73534039E+02</pdfrwt>
<pdfrwt beam="2">  1        2 0.28881300E+00 0.56420683E+02</pdfrwt>
<totfact> 0.20631133E+01</totfact>
</mgrwt>
</event>
<event>
13    1  0.2038932E-008  0.5422490E+02  0.7546771E-02  0.1475344E+00
          2   -1    0    0  502    0  0.00000000000E+00  0.00000000000E+00  0.47015028889E+03  0.47015028889E+03  0.00000000000E+00 0. -1.
          2   -1    0    0  503    0 -0.00000000000E+00 -0.00000000000E+00 -0.29293212286E+04  0.29293212286E+04  0.00000000000E+00 0. -1.
         24    2    1    2    0    0  0.32190215662E+01 -0.19079724168E+02 -0.10245450013E+04  0.10278444137E+04  0.79983005680E+02 0.  0.
         25    2    1    2    0    0  0.17715941847E+02 -0.53735617510E+02  0.11394098626E+03  0.17834028518E+03  0.12498535027E+03 0.  0.
         24    2    1    2    0    0  0.63914487321E+01 -0.12481611513E+02 -0.39070631015E+03  0.39957072306E+03  0.82514851359E+02 0.  0.
        -11    1    5    5    0    0  0.44566869201E+00  0.35415171657E+02 -0.16917715589E+03  0.17284485262E+03  0.00000000000E+00 0.  1.
         12    1    5    5    0    0  0.59457800401E+01 -0.47896783170E+02 -0.22152915426E+03  0.22672587044E+03  0.00000000000E+00 0. -1.
        -13    1    3    3    0    0 -0.23382894642E+02 -0.41279852934E+02 -0.62704738581E+03  0.62883957419E+03  0.00000000000E+00 0.  1.
         14    1    3    3    0    0  0.26601916208E+02  0.22200128767E+02 -0.39749761547E+03  0.39900483953E+03  0.00000000000E+00 0. -1.
          5    1    4    4  501    0  0.14008956144E+00  0.31685493031E+02  0.77214773722E+02  0.83595462644E+02  0.47000000000E+01 0. -1.
         -5    1    4    4    0  501  0.17575852286E+02 -0.85421110541E+02  0.36726212536E+02  0.94744822533E+02  0.47000000000E+01 0. -1.
          1    1    1    2  502    0 -0.81672880148E+01  0.53551301933E+02  0.31538529971E+03  0.32000364655E+03  0.00000000000E+00 0. -1.
          1    1    1    2  503    0 -0.19159124131E+02  0.31745651257E+02 -0.14732459142E+04  0.14737124490E+04  0.00000000000E+00 0. -1.
<mgrwt>
<rscale>  0 0.44839820E+02</rscale>
<asrwt>0</asrwt>
<pdfrwt beam="1">  1        2 0.69139749E-01 0.54224896E+02</pdfrwt>
<pdfrwt beam="2">  1        2 0.43078253E+00 0.37079083E+02</pdfrwt>
<totfact> 0.40999497E+01</totfact>
</mgrwt>
</event>
<event>
13    1  0.2038932E-008  0.2369182E+03  0.7546771E-02  0.1201800E+00
          2   -1    0    0  503    0  0.00000000000E+00  0.00000000000E+00  0.18322607785E+04  0.18322607785E+04  0.00000000000E+00 0. -1.
          2   -1    0    0  502    0 -0.00000000000E+00 -0.00000000000E+00 -0.17392322409E+04  0.17392322409E+04  0.00000000000E+00 0. -1.
         24    2    1    2    0    0 -0.12229704263E+02  0.26487814191E+02 -0.47284459741E+03  0.48049701924E+03  0.80275788603E+02 0.  0.
         25    2    1    2    0    0 -0.10910449005E+03  0.25308890301E+03  0.19285491383E+02  0.30324040669E+03  0.12500012599E+03 0.  0.
         24    2    1    2    0    0  0.40329992789E+02 -0.83390065475E+02 -0.34591317081E+03  0.36716305168E+03  0.81070176010E+02 0.  0.
        -11    1    3    3    0    0  0.31077334460E+02  0.10134223130E+02 -0.11129853976E+03  0.11599943167E+03  0.00000000000E+00 0.  1.
         12    1    3    3    0    0 -0.43307038722E+02  0.16353591062E+02 -0.36154605765E+03  0.36449758757E+03  0.00000000000E+00 0. -1.
        -13    1    5    5    0    0 -0.17113120585E+02 -0.31555997056E+02 -0.18700721691E+03  0.19042147731E+03  0.00000000000E+00 0.  1.
         14    1    5    5    0    0  0.57443113375E+02 -0.51834068418E+02 -0.15890595390E+03  0.17674157436E+03  0.00000000000E+00 0. -1.
          5    1    4    4  501    0  0.20031786607E+02  0.49610082810E+01  0.97881497607E+01  0.23319132779E+02  0.47000000000E+01 0.  1.
         -5    1    4    4    0  501 -0.12913627666E+03  0.24812789473E+03  0.94973416225E+01  0.27992127392E+03  0.47000000000E+01 0.  1.
          1    1    1    2  502    0 -0.93099996271E+02 -0.36903226729E+02 -0.75230718458E+03  0.75894371163E+03  0.00000000000E+00 0. -1.
          1    1    1    2  503    0  0.17410419779E+03 -0.15928342500E+03  0.16448079990E+04  0.16616488301E+04  0.00000000000E+00 0. -1.
<mgrwt>
<rscale>  0 0.14892549E+03</rscale>
<asrwt>0</asrwt>
<pdfrwt beam="1">  1        2 0.26945012E+00 0.23691815E+03</pdfrwt>
<pdfrwt beam="2">  1        2 0.25576945E+00 0.93613769E+02</pdfrwt>
<totfact> 0.19559489E+01</totfact>
</mgrwt>
</event>
<event>
13    1  0.2038932E-008  0.3809863E+02  0.7546771E-02  0.1571088E+00
          2   -1    0    0  503    0  0.00000000000E+00  0.00000000000E+00  0.45885486596E+04  0.45885486596E+04  0.00000000000E+00 0. -1.
          2   -1    0    0  502    0 -0.00000000000E+00 -0.00000000000E+00 -0.10910100334E+04  0.10910100334E+04  0.00000000000E+00 0. -1.
         24    2    1    2    0    0  0.96632672743E+03  0.31890477875E+03  0.57104107893E+02  0.10214364983E+04  0.67705530844E+02 0.  0.
         25    2    1    2    0    0 -0.28855222720E+03  0.37556416852E+03  0.39586326086E+03  0.62978341561E+03  0.12493436985E+03 0.  0.
         24    2    1    2    0    0 -0.68558487947E+03 -0.68786329868E+03  0.12317742494E+04  0.15696555107E+04  0.58035128469E+02 0.  0.
        -11    1    5    5    0    0 -0.18657258213E+03 -0.17517500123E+03  0.28652564936E+03  0.38417776771E+03  0.00000000000E+00 0.  1.
         12    1    5    5    0    0 -0.49901229733E+03 -0.51268829745E+03  0.94524860006E+03  0.11854777430E+04  0.00000000000E+00 0. -1.
        -13    1    3    3    0    0  0.72206047990E+03  0.24499902295E+03  0.71437221892E+02  0.76583231491E+03  0.00000000000E+00 0.  1.
         14    1    3    3    0    0  0.24426624753E+03  0.73905755796E+02 -0.14333113999E+02  0.25560418341E+03  0.00000000000E+00 0. -1.
          5    1    4    4  501    0 -0.24712236857E+03  0.27236282204E+03  0.24350524459E+03  0.44109847655E+03  0.47000000000E+01 0.  1.
         -5    1    4    4    0  501 -0.41429858634E+02  0.10320134648E+03  0.15235801627E+03  0.18868493905E+03  0.47000000000E+01 0.  1.
          1    1    1    2  502    0 -0.20592064080E+02  0.18796651836E+02 -0.32217103571E+03  0.32337520541E+03  0.00000000000E+00 0. -1.
          1    1    1    2  503    0  0.28402443315E+02 -0.25402300431E+02  0.21349680438E+04  0.21353080629E+04  0.00000000000E+00 0. -1.
<mgrwt>
<rscale>  0 0.32591807E+02</rscale>
<asrwt>0</asrwt>
<pdfrwt beam="1">  1        2 0.67478656E+00 0.38098629E+02</pdfrwt>
<pdfrwt beam="2">  1        2 0.16044265E+00 0.27880947E+02</pdfrwt>
<totfact> 0.15222416E+00</totfact>
</mgrwt>
</event>
<event>
13    1  0.2038932E-008  0.5436350E+02  0.7546771E-02  0.1441712E+00
          2   -1    0    0  503    0  0.00000000000E+00  0.00000000000E+00  0.30587083899E+04  0.30587083899E+04  0.00000000000E+00 0. -1.
          2   -1    0    0  502    0 -0.00000000000E+00 -0.00000000000E+00 -0.19321784226E+04  0.19321784226E+04  0.00000000000E+00 0. -1.
         24    2    1    2    0    0 -0.42826346923E+03  0.47915399860E+03  0.64014756671E+03  0.91107823373E+03  0.85302329103E+02 0.  0.
         25    2    1    2    0    0  0.62275840983E+03 -0.33518564660E+03 -0.78010247044E+03  0.10603586197E+04  0.12499233315E+03 0.  0.
         24    2    1    2    0    0 -0.11779583881E+03 -0.17920089808E+03  0.30548757149E+03  0.38190932196E+03  0.80890372446E+02 0.  0.
        -13    1    5    5    0    0 -0.31412406661E+02 -0.10546966600E+02  0.84733881477E+02  0.90982462414E+02  0.00000000000E+00 0.  1.
         14    1    5    5    0    0 -0.86383432152E+02 -0.16865393148E+03  0.22075369001E+03  0.29092685955E+03  0.00000000000E+00 0. -1.
        -13    1    3    3    0    0 -0.29054421983E+03  0.26256920299E+03  0.38956321898E+03  0.55237490133E+03  0.00000000000E+00 0.  1.
         14    1    3    3    0    0 -0.13771924940E+03  0.21658479562E+03  0.25058434773E+03  0.35870333240E+03  0.00000000000E+00 0. -1.
          5    1    4    4  501    0  0.16077139092E+03 -0.15043155871E+03 -0.22348964052E+03  0.31376233587E+03  0.47000000000E+01 0. -1.
         -5    1    4    4    0  501  0.46198701891E+03 -0.18475408789E+03 -0.55661282992E+03  0.74659628386E+03  0.47000000000E+01 0. -1.
          1    1    1    2  502    0 -0.53996274823E+02 -0.61997252094E+01 -0.83708006792E+03  0.83884269943E+03  0.00000000000E+00 0. -1.
          1    1    1    2  503    0 -0.22702826967E+02  0.41432271284E+02  0.17980773674E+04  0.17986979376E+04  0.00000000000E+00 0. -1.
<mgrwt>
<rscale>  0 0.50679202E+02</rscale>
<asrwt>0</asrwt>
<pdfrwt beam="1">  1        2 0.44981006E+00 0.47244592E+02</pdfrwt>
<pdfrwt beam="2">  1        2 0.28414388E+00 0.54363504E+02</pdfrwt>
<totfact> 0.49944494E+00</totfact>
</mgrwt>
</event>
<event>
13    1  0.2038932E-008  0.1052207E+03  0.7546771E-02  0.1295468E+00
          2   -1    0    0  503    0  0.00000000000E+00  0.00000000000E+00  0.45135070181E+03  0.45135070181E+03  0.00000000000E+00 0. -1.
          2   -1    0    0  502    0 -0.00000000000E+00 -0.00000000000E+00 -0.12289210450E+04  0.12289210450E+04  0.00000000000E+00 0. -1.
         24    2    1    2    0    0 -0.27423379188E+02 -0.10094488912E+03 -0.19208701712E+03  0.23064845586E+03  0.73207756971E+02 0.  0.
         25    2    1    2    0    0 -0.44997578079E+02  0.95407955513E+02 -0.24981587955E+03  0.29859661402E+03  0.12499801687E+03 0.  0.
         24    2    1    2    0    0  0.29013938179E+01  0.10141535720E+03  0.32942166435E+02  0.13336983579E+03  0.80055193498E+02 0.  0.
        -11    1    5    5    0    0  0.30493521580E+02  0.57592225651E+02 -0.10209412128E+02  0.65961742016E+02  0.00000000000E+00 0.  1.
         12    1    5    5    0    0 -0.27592127762E+02  0.43823131549E+02  0.43151578563E+02  0.67408093770E+02  0.00000000000E+00 0. -1.
        -13    1    3    3    0    0  0.19114423014E+02 -0.35272235642E+01 -0.24128502537E+02  0.30983658724E+02  0.00000000000E+00 0.  1.
         14    1    3    3    0    0 -0.46537802202E+02 -0.97417665556E+02 -0.16795851458E+03  0.19966479714E+03  0.00000000000E+00 0. -1.
          5    1    4    4  501    0  0.14684526241E+02  0.97863937385E+02 -0.18800710313E+03  0.21251293226E+03  0.47000000000E+01 0.  1.
         -5    1    4    4    0  501 -0.59682104320E+02 -0.24559818721E+01 -0.61808776425E+02  0.86083681764E+02  0.47000000000E+01 0.  1.
          1    1    1    2  502    0  0.98615104870E+02  0.36694147261E+02 -0.67468323639E+03  0.68283883078E+03  0.00000000000E+00 0. -1.
          1    1    1    2  503    0 -0.29095541421E+02 -0.13257257085E+03  0.30607362345E+03  0.33481801034E+03  0.00000000000E+00 0. -1.
<mgrwt>
<rscale>  0 0.93119651E+02</rscale>
<asrwt>0</asrwt>
<pdfrwt beam="1">  1        2 0.66375104E-01 0.82410286E+02</pdfrwt>
<pdfrwt beam="2">  1        2 0.18072368E+00 0.10522072E+03</pdfrwt>
<totfact> 0.25273725E+02</totfact>
</mgrwt>
</event>
<event>
13    1  0.2038932E-008  0.6983114E+02  0.7546771E-02  0.1391096E+00
         -1   -1    0    0    0  501 -0.00000000000E+00  0.00000000000E+00  0.20965307223E+04  0.20965307223E+04  0.00000000000E+00 0.  1.
          2   -1    0    0  503    0  0.00000000000E+00 -0.00000000000E+00 -0.15989742345E+04  0.15989742345E+04  0.00000000000E+00 0. -1.
         24    2    1    2    0    0 -0.11954531431E+03 -0.36923116441E+03  0.12162053067E+04  0.12791760590E+04  0.80705060997E+02 0.  0.
         25    2    1    2    0    0 -0.42455625519E+03 -0.39240708263E+01 -0.15164351274E+03  0.46785132208E+03  0.12500276981E+03 0.  0.
         24    2    1    2    0    0  0.48735358436E+03  0.38475323038E+03 -0.61568682144E+02  0.62932658566E+03  0.81930972967E+02 0.  0.
        -13    1    3    3    0    0 -0.56254987868E+02 -0.23421448378E+03  0.63511593610E+03  0.67925937635E+03  0.00000000000E+00 0.  1.
         14    1    3    3    0    0 -0.63290326446E+02 -0.13501668063E+03  0.58108937060E+03  0.59991668262E+03  0.00000000000E+00 0. -1.
        -13    1    5    5    0    0  0.18084824698E+03  0.19138228453E+03 -0.39399947183E+02  0.26624354096E+03  0.00000000000E+00 0.  1.
         14    1    5    5    0    0  0.30650533738E+03  0.19337094585E+03 -0.22168734961E+02  0.36308304471E+03  0.00000000000E+00 0. -1.
          5    1    4    4  502    0 -0.41070149152E+03 -0.30026367879E+02 -0.14842931496E+03  0.43775638139E+03  0.47000000000E+01 0.  1.
         -5    1    4    4    0  502 -0.13854763670E+02  0.26102297053E+02 -0.32141977839E+01  0.30094940691E+02  0.47000000000E+01 0.  1.
          1    1    1    2  503    0  0.22608965837E+02  0.49480065507E+02 -0.90846567245E+03  0.91009302835E+03  0.00000000000E+00 0. -1.
         -2    1    1    2    0  501  0.34139019313E+02 -0.61078060650E+02  0.40302904846E+03  0.40905796170E+03  0.00000000000E+00 0.  1.
<mgrwt>
<rscale>  0 0.61634947E+02</rscale>
<asrwt>0</asrwt>
<pdfrwt beam="2">  1        2 0.23514327E+00 0.54400756E+02</pdfrwt>
<pdfrwt beam="1">  1       -1 0.30831334E+00 0.69831138E+02</pdfrwt>
<totfact> 0.70905091E-01</totfact>
</mgrwt>
</event>
<event>
13    1  0.2038932E-008  0.1592242E+03  0.7546771E-02  0.1205853E+00
          2   -1    0    0  503    0  0.00000000000E+00  0.00000000000E+00  0.22343263887E+04  0.22343263887E+04  0.00000000000E+00 0. -1.
          2   -1    0    0  502    0 -0.00000000000E+00 -0.00000000000E+00 -0.21230961958E+04  0.21230961958E+04  0.00000000000E+00 0. -1.
         24    2    1    2    0    0 -0.43787381074E+02  0.14618958240E+03 -0.14801674600E+03  0.22689248500E+03  0.79262310774E+02 0.  0.
         25    2    1    2    0    0  0.14695755283E+03 -0.34257370829E+02  0.44786858320E+03  0.48885941909E+03  0.12500869582E+03 0.  0.
         24    2    1    2    0    0 -0.30402920997E+02 -0.10979919128E+02 -0.40321937829E+02  0.76240915251E+02  0.56052852371E+02 0.  0.
        -11    1    5    5    0    0 -0.40933892576E+02 -0.20013150005E+02 -0.42365311567E+02  0.62216793221E+02  0.00000000000E+00 0.  1.
         12    1    5    5    0    0  0.10530971579E+02  0.90332308772E+01  0.20433737387E+01  0.14024122030E+02  0.00000000000E+00 0. -1.
        -11    1    3    3    0    0  0.23110092061E+02  0.43581817734E+02 -0.38353944635E+02  0.62485808478E+02  0.00000000000E+00 0.  1.
         12    1    3    3    0    0 -0.66897473135E+02  0.10260776467E+03 -0.10966280136E+03  0.16440667652E+03  0.00000000000E+00 0. -1.
          5    1    4    4  501    0  0.35830128617E+02 -0.58652634769E+02  0.90183291228E+02  0.11348588326E+03  0.47000000000E+01 0. -1.
         -5    1    4    4    0  501  0.11112742422E+03  0.24395263940E+02  0.35768529197E+03  0.37537353584E+03  0.47000000000E+01 0. -1.
          1    1    1    2  502    0 -0.76338574372E+02 -0.26015750108E+03 -0.18432155704E+04  0.18630494202E+04  0.00000000000E+00 0. -1.
          1    1    1    2  503    0  0.35713236101E+01  0.15920520864E+03  0.16949158640E+04  0.17023803449E+04  0.00000000000E+00 0. -1.
<mgrwt>
<rscale>  0 0.14570429E+03</rscale>
<asrwt>0</asrwt>
<pdfrwt beam="1">  1        2 0.32857741E+00 0.15922420E+03</pdfrwt>
<pdfrwt beam="2">  1        2 0.31222003E+00 0.13333237E+03</pdfrwt>
<totfact> 0.80803592E+00</totfact>
</mgrwt>
</event>
<event>
13    1  0.2038932E-008  0.3823426E+02  0.7546771E-02  0.1548035E+00
          2   -1    0    0  502    0  0.00000000000E+00  0.00000000000E+00  0.17697329510E+04  0.17697329510E+04  0.00000000000E+00 0. -1.
          2   -1    0    0  503    0 -0.00000000000E+00 -0.00000000000E+00 -0.36359010919E+04  0.36359010919E+04  0.00000000000E+00 0. -1.
         24    2    1    2    0    0 -0.73974331690E+02  0.23558031745E+03 -0.32805905325E+04  0.32908977289E+04  0.82239480889E+02 0.  0.
         25    2    1    2    0    0  0.26873762586E+02 -0.15069945863E+03  0.87851723760E+03  0.90047262721E+03  0.12500355855E+03 0.  0.
         24    2    1    2    0    0  0.42151778326E+02 -0.11256924198E+03  0.79033140282E+02  0.16438273015E+03  0.79541423516E+02 0.  0.
        -11    1    3    3    0    0 -0.18687367691E+02  0.18260347571E+03 -0.22671884471E+04  0.22746069335E+04  0.00000000000E+00 0.  1.
         12    1    3    3    0    0 -0.55286963999E+02  0.52976841738E+02 -0.10134020854E+04  0.10162907954E+04  0.00000000000E+00 0. -1.
        -13    1    5    5    0    0 -0.86369990080E+01 -0.85937212639E+02  0.41316062664E+02  0.95743507885E+02  0.00000000000E+00 0.  1.
         14    1    5    5    0    0  0.50788777334E+02 -0.26632029336E+02  0.37717077618E+02  0.68639222269E+02  0.00000000000E+00 0. -1.
          5    1    4    4  501    0  0.10655888756E+02 -0.16086907866E+03  0.85358542448E+03  0.86869014920E+03  0.47000000000E+01 0. -1.
         -5    1    4    4    0  501  0.16217873830E+02  0.10169620026E+02  0.24931813116E+02  0.31782478007E+02  0.47000000000E+01 0. -1.
          1    1    1    2  502    0 -0.27197234387E+02  0.26877816917E+02  0.75201746179E+03  0.75298895705E+03  0.00000000000E+00 0. -1.
          1    1    1    2  503    0  0.32146025165E+02  0.81056623785E+00 -0.29514544806E+03  0.29689199966E+03  0.00000000000E+00 0. -1.
<mgrwt>
<rscale>  0 0.35063801E+02</rscale>
<asrwt>0</asrwt>
<pdfrwt beam="1">  1        2 0.26025485E+00 0.38234260E+02</pdfrwt>
<pdfrwt beam="2">  1        2 0.53469134E+00 0.32156243E+02</pdfrwt>
<totfact> 0.32094348E+00</totfact>
</mgrwt>
</event>
<event>
13    1  0.2038932E-008  0.1154365E+03  0.7546771E-02  0.1277389E+00
          2   -1    0    0  503    0  0.00000000000E+00  0.00000000000E+00  0.24160863701E+04  0.24160863701E+04  0.00000000000E+00 0. -1.
          2   -1    0    0  502    0 -0.00000000000E+00 -0.00000000000E+00 -0.26293679595E+04  0.26293679595E+04  0.00000000000E+00 0. -1.
         24    2    1    2    0    0 -0.74265189644E+02  0.51655712825E+02 -0.89284698277E+03  0.90103472755E+03  0.80648710765E+02 0.  0.
         25    2    1    2    0    0  0.85912238947E+02 -0.23486966110E+03  0.22887883276E+03  0.36132124293E+03  0.12499139973E+03 0.  0.
         24    2    1    2    0    0 -0.13195068722E+02  0.15522969122E+03  0.10783701469E+04  0.10924275650E+04  0.79028122423E+02 0.  0.
        -11    1    5    5    0    0 -0.10069615070E+02  0.12462150395E+02  0.26940088780E+02  0.31344389029E+02  0.00000000000E+00 0.  1.
         12    1    5    5    0    0 -0.31254536517E+01  0.14276754083E+03  0.10514300581E+04  0.10610831759E+04  0.00000000000E+00 0. -1.
        -13    1    3    3    0    0 -0.84029074119E+02  0.19565720064E+02 -0.57756459128E+03  0.58397308140E+03  0.00000000000E+00 0.  1.
         14    1    3    3    0    0  0.97638844757E+01  0.32089992761E+02 -0.31528239149E+03  0.31706164615E+03  0.00000000000E+00 0. -1.
          5    1    4    4  501    0  0.65582569987E+02 -0.21984775635E+03  0.24110805646E+03  0.33285025815E+03  0.47000000000E+01 0. -1.
         -5    1    4    4    0  501  0.20329668960E+02 -0.15021904745E+02 -0.12229223705E+02  0.28470984785E+02  0.47000000000E+01 0. -1.
          1    1    1    2  502    0  0.10078658234E+02 -0.88489556258E+02 -0.16546701672E+04  0.16570652803E+04  0.00000000000E+00 0. -1.
          1    1    1    2  503    0 -0.85306388156E+01  0.11647381331E+03  0.10269865809E+04  0.10336055139E+04  0.00000000000E+00 0. -1.
<mgrwt>
<rscale>  0 0.10139511E+03</rscale>
<asrwt>0</asrwt>
<pdfrwt beam="1">  1        2 0.35530682E+00 0.11543650E+03</pdfrwt>
<pdfrwt beam="2">  1        2 0.38667176E+00 0.89061669E+02</pdfrwt>
<totfact> 0.40251588E+00</totfact>
</mgrwt>
</event>
<event>
13    1  0.2038932E-008  0.1350428E+03  0.7546771E-02  0.1317850E+00
         -1   -1    0    0    0  501 -0.00000000000E+00  0.00000000000E+00  0.29222707229E+03  0.29222707229E+03  0.00000000000E+00 0.  1.
          2   -1    0    0  503    0  0.00000000000E+00 -0.00000000000E+00 -0.19388825156E+04  0.19388825156E+04  0.00000000000E+00 0. -1.
         24    2    1    2    0    0 -0.17776310897E+03  0.14191605914E+03 -0.43372447424E+03  0.49564794443E+03  0.76223844761E+02 0.  0.
         25    2    1    2    0    0  0.42514135170E+02  0.30505441951E+02 -0.23872974759E+03  0.27450719885E+03  0.12499710460E+03 0.  0.
         24    2    1    2    0    0  0.19414088795E+03 -0.79783147875E+02 -0.83901142506E+03  0.86830920070E+03  0.77231221540E+02 0.  0.
        -11    1    3    3    0    0 -0.12013709279E+03  0.12083742303E+03 -0.25506764028E+03  0.30674762425E+03  0.00000000000E+00 0.  1.
         12    1    3    3    0    0 -0.57626016183E+02  0.21078636107E+02 -0.17865683396E+03  0.18890032018E+03  0.00000000000E+00 0. -1.
        -11    1    5    5    0    0  0.12928742741E+03 -0.12073038476E+02 -0.47861266443E+03  0.49591438746E+03  0.00000000000E+00 0.  1.
         12    1    5    5    0    0  0.64853460535E+02 -0.67710109399E+02 -0.36039876063E+03  0.37239481324E+03  0.00000000000E+00 0. -1.
          5    1    4    4  502    0  0.79975491294E+02  0.43074218306E+02 -0.12947752684E+03  0.15823396426E+03  0.47000000000E+01 0.  1.
         -5    1    4    4    0  502 -0.37461356124E+02 -0.12568776355E+02 -0.10925222075E+03  0.11627323459E+03  0.47000000000E+01 0.  1.
          1    1    1    2  503    0 -0.33309314022E+02  0.40389178285E+02 -0.34168999703E+03  0.34567737877E+03  0.00000000000E+00 0. -1.
         -2    1    1    2    0  501 -0.25582600124E+02 -0.13302753150E+03  0.20650020061E+03  0.24696786515E+03  0.00000000000E+00 0.  1.
<mgrwt>
<rscale>  0 0.84082353E+02</rscale>
<asrwt>0</asrwt>
<pdfrwt beam="2">  1        2 0.28512979E+00 0.52352613E+02</pdfrwt>
<pdfrwt beam="1">  1       -1 0.42974569E-01 0.13504277E+03</pdfrwt>
<totfact> 0.65511219E+01</totfact>
</mgrwt>
</event>
<event>
13    1  0.2038932E-008  0.1083509E+03  0.7546771E-02  0.1363105E+00
          2   -1    0    0  502    0  0.00000000000E+00  0.00000000000E+00  0.30663766874E+04  0.30663766874E+04  0.00000000000E+00 0. -1.
          2   -1    0    0  503    0 -0.00000000000E+00 -0.00000000000E+00 -0.12982096595E+04  0.12982096595E+04  0.00000000000E+00 0. -1.
         24    2    1    2    0    0  0.26301570298E+02 -0.17528364936E+02 -0.59798122538E+02  0.12857002094E+03  0.10934083706E+03 0.  0.
         25    2    1    2    0    0  0.64147389887E+02  0.83291152169E+02  0.11860350756E+04  0.11972287893E+04  0.12500107943E+03 0.  0.
         24    2    1    2    0    0  0.58087782687E+01 -0.97719109364E+02  0.49327159628E+03  0.50822511367E+03  0.73437948147E+02 0.  0.
        -11    1    5    5    0    0  0.38261505626E+02 -0.59708289243E+02  0.32714456989E+03  0.33474257606E+03  0.00000000000E+00 0.  1.
         12    1    5    5    0    0 -0.32452727357E+02 -0.38010820121E+02  0.16612702639E+03  0.17348253762E+03  0.00000000000E+00 0. -1.
        -11    1    3    3    0    0  0.19524099049E+02  0.25863255761E+02 -0.75315928353E+02  0.81991386779E+02  0.00000000000E+00 0.  1.
         12    1    3    3    0    0  0.67774712493E+01 -0.43391620698E+02  0.15517805815E+02  0.46578634164E+02  0.00000000000E+00 0. -1.
          5    1    4    4  501    0 -0.10280156588E+02  0.21864949508E+02  0.38906821897E+02  0.46038988115E+02  0.47000000000E+01 0. -1.
         -5    1    4    4    0  501  0.74427546475E+02  0.61426202661E+02  0.11471282537E+04  0.11511898012E+04  0.47000000000E+01 0. -1.
          1    1    1    2  502    0  0.17679312978E+02 -0.40396789944E+02  0.13354214022E+04  0.13361492358E+04  0.00000000000E+00 0. -1.
          1    1    1    2  503    0 -0.11393705143E+03  0.72353112075E+02 -0.11867629237E+04  0.11944131871E+04  0.00000000000E+00 0. -1.
<mgrwt>
<rscale>  0 0.69121937E+02</rscale>
<asrwt>0</asrwt>
<pdfrwt beam="1">  1        2 0.45093775E+00 0.44096017E+02</pdfrwt>
<pdfrwt beam="2">  1        2 0.19091318E+00 0.10835088E+03</pdfrwt>
<totfact> 0.95843414E+00</totfact>
</mgrwt>
</event>
<event>
13    1  0.2038932E-008  0.6050370E+02  0.7546771E-02  0.1425413E+00
          2   -1    0    0  503    0  0.00000000000E+00  0.00000000000E+00  0.42498246974E+03  0.42498246974E+03  0.00000000000E+00 0. -1.
          2   -1    0    0  502    0 -0.00000000000E+00 -0.00000000000E+00 -0.28451972545E+04  0.28451972545E+04  0.00000000000E+00 0. -1.
         24    2    1    2    0    0  0.77531009862E+02  0.61940880101E+02 -0.15764116949E+03  0.20343460642E+03  0.81775122455E+02 0.  0.
         25    2    1    2    0    0 -0.15151070816E+03 -0.20744911541E+03 -0.21910976323E+03  0.36002912763E+03  0.12498501602E+03 0.  0.
         24    2    1    2    0    0 -0.14617405451E+02  0.10021518370E+03 -0.10074419457E+04  0.10156513023E+04  0.79696564146E+02 0.  0.
        -11    1    3    3    0    0  0.61648706127E+02  0.76612216473E+02 -0.15209043479E+03  0.18111183019E+03  0.00000000000E+00 0.  1.
         12    1    3    3    0    0  0.15882303734E+02 -0.14671336371E+02 -0.55507346997E+01  0.22322776228E+02  0.00000000000E+00 0. -1.
        -11    1    5    5    0    0  0.12187499886E+02 -0.82985164451E+01 -0.19496327546E+03  0.19552002277E+03  0.00000000000E+00 0.  1.
         12    1    5    5    0    0 -0.26804905337E+02  0.10851370014E+03 -0.81247867026E+03  0.82013127955E+03  0.00000000000E+00 0. -1.
          5    1    4    4  501    0 -0.16429716687E+03 -0.18355980381E+03 -0.15715659410E+03  0.29224654948E+03  0.47000000000E+01 0.  1.
         -5    1    4    4    0  501  0.12786458713E+02 -0.23889311607E+02 -0.61953169133E+02  0.67782578153E+02  0.47000000000E+01 0.  1.
          1    1    1    2  502    0  0.59892933099E+02  0.68181294472E+01 -0.13611137767E+04  0.13624479305E+04  0.00000000000E+00 0. -1.
          1    1    1    2  503    0  0.28704170646E+02  0.38474922169E+02  0.32509187035E+03  0.32861675735E+03  0.00000000000E+00 0. -1.
<mgrwt>
<rscale>  0 0.53891877E+02</rscale>
<asrwt>0</asrwt>
<pdfrwt beam="1">  1        2 0.62497424E-01 0.48002594E+02</pdfrwt>
<pdfrwt beam="2">  1        2 0.41841135E+00 0.60503697E+02</pdfrwt>
<totfact> 0.46331082E+01</totfact>
</mgrwt>
</event>
<event>
13    1  0.2038932E-008  0.6454373E+02  0.7546771E-02  0.1472022E+00
          2   -1    0    0  503    0  0.00000000000E+00  0.00000000000E+00  0.47726476600E+04  0.47726476600E+04  0.00000000000E+00 0. -1.
          2   -1    0    0  502    0 -0.00000000000E+00 -0.00000000000E+00 -0.15457140437E+04  0.15457140437E+04  0.00000000000E+00 0. -1.
         24    2    1    2    0    0 -0.40633718341E+03  0.72802751302E+03  0.13352068198E+04  0.15769405615E+04  0.93969764732E+02 0.  0.
         25    2    1    2    0    0 -0.10902579182E+03 -0.11094232428E+04  0.35699508819E+03  0.11771899429E+04  0.12499645446E+03 0.  0.
         24    2    1    2    0    0  0.51826526088E+03  0.30243407327E+03  0.20147154476E+03  0.63850097992E+03  0.83829998816E+02 0.  0.
        -11    1    5    5    0    0  0.23473829248E+03  0.15629526477E+03  0.54207055876E+02  0.28717360717E+03  0.00000000000E+00 0.  1.
         12    1    5    5    0    0  0.28352696839E+03  0.14613880850E+03  0.14726448888E+03  0.35132737275E+03  0.00000000000E+00 0. -1.
        -13    1    3    3    0    0 -0.20713995588E+03  0.39245665581E+03  0.62400441854E+03  0.76570928059E+03  0.00000000000E+00 0.  1.
         14    1    3    3    0    0 -0.19919722753E+03  0.33557085721E+03  0.71120240122E+03  0.81123128094E+03  0.00000000000E+00 0. -1.
          5    1    4    4  501    0 -0.75722227231E+02 -0.24100264511E+03  0.77517023478E+02  0.26428603742E+03  0.47000000000E+01 0.  1.
         -5    1    4    4    0  501 -0.33303564591E+02 -0.86842059769E+03  0.27947806471E+03  0.91290390544E+03  0.47000000000E+01 0.  1.
          1    1    1    2  502    0 -0.27340443004E+02  0.58462536453E+02 -0.79480747983E+03  0.79742353740E+03  0.00000000000E+00 0. -1.
          1    1    1    2  503    0  0.24438157359E+02  0.20499120057E+02  0.21280676435E+04  0.21283066820E+04  0.00000000000E+00 0. -1.
<mgrwt>
<rscale>  0 0.45373675E+02</rscale>
<asrwt>0</asrwt>
<pdfrwt beam="1">  1        2 0.70185995E+00 0.31897295E+02</pdfrwt>
<pdfrwt beam="2">  1        2 0.22731089E+00 0.64543728E+02</pdfrwt>
<totfact> 0.63719761E-01</totfact>
</mgrwt>
</event>
<event>
13    1  0.2038932E-008  0.4813544E+02  0.7546771E-02  0.1456966E+00
          2   -1    0    0  502    0  0.00000000000E+00  0.00000000000E+00  0.28927797657E+04  0.28927797657E+04  0.00000000000E+00 0. -1.
          2   -1    0    0  503    0 -0.00000000000E+00 -0.00000000000E+00 -0.29936389343E+04  0.29936389343E+04  0.00000000000E+00 0. -1.
         24    2    1    2    0    0 -0.72197399037E+03 -0.15846893242E+04  0.25774637325E+03  0.17623117708E+04  0.82600771284E+02 0.  0.
         25    2    1    2    0    0  0.29103453177E+03  0.59053709556E+03 -0.98619421717E+03  0.11923254211E+04  0.12500286343E+03 0.  0.
         24    2    1    2    0    0  0.44710935381E+03  0.92041811998E+03  0.71497280721E+03  0.12528308211E+04  0.10640799507E+03 0.  0.
        -11    1    3    3    0    0 -0.29316743934E+03 -0.74243087703E+03  0.11469892339E+03  0.80641589623E+03  0.00000000000E+00 0.  1.
         12    1    3    3    0    0 -0.42880655103E+03 -0.84225844720E+03  0.14304744986E+03  0.95589587456E+03  0.00000000000E+00 0. -1.
        -13    1    5    5    0    0  0.32864550002E+03  0.55904193515E+03  0.45043286685E+03  0.78957299693E+03  0.00000000000E+00 0.  1.
         14    1    5    5    0    0  0.11846385379E+03  0.36137618484E+03  0.26453994036E+03  0.46325782418E+03  0.00000000000E+00 0. -1.
          5    1    4    4  501    0  0.83317146819E+02  0.28962142313E+03 -0.50247929201E+03  0.58594355069E+03  0.47000000000E+01 0. -1.
         -5    1    4    4    0  501  0.20771738495E+03  0.30091567243E+03 -0.48371492515E+03  0.60638187039E+03  0.47000000000E+01 0. -1.
          1    1    1    2  502    0 -0.36964266576E+02  0.30826622941E+02  0.79441081905E+03  0.79586756882E+03  0.00000000000E+00 0. -1.
          1    1    1    2  503    0  0.20794371363E+02  0.42907485741E+02 -0.88179495094E+03  0.88308311824E+03  0.00000000000E+00 0. -1.
<mgrwt>
<rscale>  0 0.47907576E+02</rscale>
<asrwt>0</asrwt>
<pdfrwt beam="1">  1        2 0.42540879E+00 0.48135437E+02</pdfrwt>
<pdfrwt beam="2">  1        2 0.44024102E+00 0.47680795E+02</pdfrwt>
<totfact> 0.18929797E+00</totfact>
</mgrwt>
</event>
<event>
13    1  0.2038932E-008  0.2432962E+03  0.7546771E-02  0.1187234E+00
          2   -1    0    0  502    0  0.00000000000E+00  0.00000000000E+00  0.98909063958E+03  0.98909063958E+03  0.00000000000E+00 0. -1.
          2   -1    0    0  503    0 -0.00000000000E+00 -0.00000000000E+00 -0.16294395314E+04  0.16294395314E+04  0.00000000000E+00 0. -1.
         24    2    1    2    0    0 -0.14903083119E+03 -0.19780985821E+00  0.31519922810E+03  0.35767482774E+03  0.79815419775E+02 0.  0.
         25    2    1    2    0    0 -0.29510335332E+03 -0.24842091541E+03 -0.26011045581E+03  0.48174732559E+03  0.12499638452E+03 0.  0.
         24    2    1    2    0    0  0.34718299699E+03 -0.25284365672E+02  0.13829849149E+03  0.38456627985E+03  0.87117267544E+02 0.  0.
        -13    1    5    5    0    0  0.25634908175E+03 -0.56574583615E+02  0.10753527405E+03  0.28368886195E+03  0.00000000000E+00 0.  1.
         14    1    5    5    0    0  0.90833915240E+02  0.31290217943E+02  0.30763217439E+02  0.10087741791E+03  0.00000000000E+00 0. -1.
        -13    1    3    3    0    0 -0.12830395564E+03  0.29238575692E+02  0.22657350866E+03  0.26201594258E+03  0.00000000000E+00 0.  1.
         14    1    3    3    0    0 -0.20726875553E+02 -0.29436385550E+02  0.88625719439E+02  0.95658885162E+02  0.00000000000E+00 0. -1.
          5    1    4    4  501    0 -0.21322834264E+03 -0.24239659820E+03 -0.19864878263E+03  0.37908556523E+03  0.47000000000E+01 0.  1.
         -5    1    4    4    0  501 -0.81875010675E+02 -0.60243172093E+01 -0.61461673185E+02  0.10266176037E+03  0.47000000000E+01 0.  1.
          1    1    1    2  502    0  0.61960628479E+02  0.37495873591E+03  0.14737592219E+03  0.40761849266E+03  0.00000000000E+00 0. -1.
          1    1    1    2  503    0  0.34990559038E+02 -0.10105564497E+03 -0.98111207780E+03  0.98692324515E+03  0.00000000000E+00 0. -1.
<mgrwt>
<rscale>  0 0.16130273E+03</rscale>
<asrwt>0</asrwt>
<pdfrwt beam="1">  1        2 0.14545451E+00 0.24329619E+03</pdfrwt>
<pdfrwt beam="2">  1        2 0.23962346E+00 0.10694196E+03</pdfrwt>
<totfact> 0.61276709E+01</totfact>
</mgrwt>
</event>
<event>
13    1  0.2038932E-008  0.7431624E+02  0.7546771E-02  0.1404712E+00
          2   -1    0    0  503    0  0.00000000000E+00  0.00000000000E+00  0.32988538660E+04  0.32988538660E+04  0.00000000000E+00 0. -1.
          2   -1    0    0  502    0 -0.00000000000E+00 -0.00000000000E+00 -0.31852998463E+04  0.31852998463E+04  0.00000000000E+00 0. -1.
         24    2    1    2    0    0  0.86193281711E+03 -0.73956363897E+03 -0.92045028948E+03  0.14627739632E+04  0.50954632960E+02 0.  0.
         25    2    1    2    0    0 -0.60776164309E+03  0.11450141946E+04  0.52981256007E+03  0.14059719142E+04  0.12499581629E+03 0.  0.
         24    2    1    2    0    0 -0.33313887515E+03 -0.42296628319E+03 -0.45729406000E+03  0.71086598923E+03  0.79565133585E+02 0.  0.
        -11    1    5    5    0    0 -0.20981866542E+03 -0.27068016437E+03 -0.33946693519E+03  0.48221304818E+03  0.00000000000E+00 0.  1.
         12    1    5    5    0    0 -0.12332020973E+03 -0.15228611881E+03 -0.11782712481E+03  0.22865294106E+03  0.00000000000E+00 0. -1.
        -13    1    3    3    0    0  0.26712632872E+03 -0.21728745350E+03 -0.30713863935E+03  0.46141570923E+03  0.00000000000E+00 0.  1.
         14    1    3    3    0    0  0.59480648839E+03 -0.52227618548E+03 -0.61331165013E+03  0.10013582539E+04  0.00000000000E+00 0. -1.
          5    1    4    4  501    0 -0.36408376083E+03  0.64716780699E+03  0.36665322338E+03  0.82815447322E+03  0.47000000000E+01 0.  1.
         -5    1    4    4    0  501 -0.24367788227E+03  0.49784638760E+03  0.16315933669E+03  0.57781744098E+03  0.47000000000E+01 0.  1.
          1    1    1    2  502    0  0.98424623008E+01  0.44809589963E+02 -0.97027147320E+03  0.97135549884E+03  0.00000000000E+00 0. -1.
          1    1    1    2  503    0  0.69125238838E+02 -0.27293862392E+02  0.19317572823E+04  0.19331863468E+04  0.00000000000E+00 0. -1.
<mgrwt>
<rscale>  0 0.58390636E+02</rscale>
<asrwt>0</asrwt>
<pdfrwt beam="1">  1        2 0.48512557E+00 0.74316240E+02</pdfrwt>
<pdfrwt beam="2">  1        2 0.46842644E+00 0.45877810E+02</pdfrwt>
<totfact> 0.85477864E-01</totfact>
</mgrwt>
</event>
<event>
13    1  0.2038932E-008  0.2707287E+03  0.7546771E-02  0.1160156E+00
          2   -1    0    0  502    0  0.00000000000E+00  0.00000000000E+00  0.28847701736E+04  0.28847701736E+04  0.00000000000E+00 0. -1.
          2   -1    0    0  503    0 -0.00000000000E+00 -0.00000000000E+00 -0.70493209406E+03  0.70493209406E+03  0.00000000000E+00 0. -1.
         24    2    1    2    0    0  0.66447882808E+02  0.85056164610E+02 -0.21744732786E+02  0.13550960524E+03  0.78994603875E+02 0.  0.
         25    2    1    2    0    0 -0.30716664806E+02 -0.16874491081E+03  0.97459573310E+03  0.99743809582E+03  0.12501021393E+03 0.  0.
         24    2    1    2    0    0 -0.15519936671E+03 -0.32030506663E+02 -0.15810780004E+03  0.24248782764E+03  0.93217344594E+02 0.  0.
        -13    1    3    3    0    0  0.20189838939E+01  0.66198705706E+02 -0.15984179305E+02  0.68131042272E+02  0.00000000000E+00 0.  1.
         14    1    3    3    0    0  0.64428898914E+02  0.18857458904E+02 -0.57605534811E+01  0.67378562971E+02  0.00000000000E+00 0. -1.
        -13    1    5    5    0    0 -0.32039366744E+02  0.62939999763E+01  0.65725211245E+01  0.33306658358E+02  0.00000000000E+00 0.  1.
         14    1    5    5    0    0 -0.12315999997E+03 -0.38324506639E+02 -0.16468032117E+03  0.20918116928E+03  0.00000000000E+00 0. -1.
          5    1    4    4  501    0  0.13237850844E+01 -0.82923017589E+02  0.75356382114E+03  0.75812828847E+03  0.47000000000E+01 0. -1.
         -5    1    4    4    0  501 -0.32040449891E+02 -0.85821893223E+02  0.22103191197E+03  0.23930980735E+03  0.47000000000E+01 0. -1.
          1    1    1    2  502    0  0.25016709738E+03  0.11887091921E+03  0.17783808689E+04  0.17998200984E+04  0.00000000000E+00 0. -1.
          1    1    1    2  503    0 -0.13069894867E+03 -0.31516663444E+01 -0.39328598961E+03  0.41444664049E+03  0.00000000000E+00 0. -1.
<mgrwt>
<rscale>  0 0.18813358E+03</rscale>
<asrwt>0</asrwt>
<pdfrwt beam="1">  1        2 0.42423091E+00 0.27072872E+03</pdfrwt>
<pdfrwt beam="2">  1        2 0.10366649E+00 0.13073694E+03</pdfrwt>
<totfact> 0.20228157E+01</totfact>
</mgrwt>
</event>
<event>
13    1  0.2038932E-008  0.8638001E+02  0.7546771E-02  0.1377018E+00
          2   -1    0    0  503    0  0.00000000000E+00  0.00000000000E+00  0.15144642711E+04  0.15144642711E+04  0.00000000000E+00 0. -1.
          2   -1    0    0  502    0 -0.00000000000E+00 -0.00000000000E+00 -0.25525230181E+04  0.25525230181E+04  0.00000000000E+00 0. -1.
         24    2    1    2    0    0 -0.15431134887E+02 -0.92660416179E+02 -0.55745103429E+03  0.57131685186E+03  0.82626974676E+02 0.  0.
         25    2    1    2    0    0 -0.78111936124E+02 -0.18053962968E+02  0.18999470236E+02  0.14970771240E+03  0.12499599649E+03 0.  0.
         24    2    1    2    0    0  0.10497604982E+02  0.17091948399E+02  0.10546810631E+03  0.13567576792E+03  0.82958171036E+02 0.  0.
        -11    1    3    3    0    0 -0.26220331268E+02 -0.60239308085E+02 -0.16830127064E+03  0.18066985833E+03  0.00000000000E+00 0.  1.
         12    1    3    3    0    0  0.10789196381E+02 -0.32421108094E+02 -0.38914976365E+03  0.39064699353E+03  0.00000000000E+00 0. -1.
        -13    1    5    5    0    0 -0.28894286454E+02  0.13480488124E+02  0.11800408001E+02  0.33997837854E+02  0.00000000000E+00 0.  1.
         14    1    5    5    0    0  0.39391891436E+02  0.36114602743E+01  0.93667698305E+02  0.10167793006E+03  0.00000000000E+00 0. -1.
          5    1    4    4  501    0  0.14746713203E+02  0.37058779434E+02  0.12872301735E+01  0.40181658066E+02  0.47000000000E+01 0.  1.
         -5    1    4    4    0  501 -0.92858649326E+02 -0.55112742402E+02  0.17712240063E+02  0.10952605433E+03  0.47000000000E+01 0.  1.
          1    1    1    2  502    0  0.73377140312E+02  0.45284723009E+02 -0.19062398218E+04  0.19081889763E+04  0.00000000000E+00 0. -1.
          1    1    1    2  503    0  0.96683257162E+01  0.48337707740E+02  0.13011645326E+04  0.13020979807E+04  0.00000000000E+00 0. -1.
<mgrwt>
<rscale>  0 0.65254228E+02</rscale>
<asrwt>0</asrwt>
<pdfrwt beam="1">  1        2 0.22271534E+00 0.49295137E+02</pdfrwt>
<pdfrwt beam="2">  1        2 0.37537103E+00 0.86380008E+02</pdfrwt>
<totfact> 0.13035911E+01</totfact>
</mgrwt>
</event>
<event>
13    1  0.2038932E-008  0.2596254E+03  0.7546771E-02  0.1317366E+00
          2   -1    0    0  503    0  0.00000000000E+00  0.00000000000E+00  0.13973350888E+04  0.13973350888E+04  0.00000000000E+00 0. -1.
         -3   -1    0    0    0  501 -0.00000000000E+00 -0.00000000000E+00 -0.79963107037E+03  0.79963107037E+03  0.00000000000E+00 0.  1.
         24    2    1    2    0    0  0.65874374018E+02 -0.69937885781E+02  0.18478089495E+02  0.12760552314E+03  0.81920624543E+02 0.  0.
         25    2    1    2    0    0  0.16075737315E+03 -0.15125414971E+03 -0.24169039226E+03  0.35037089643E+03  0.12499907413E+03 0.  0.
         24    2    1    2    0    0 -0.56254047126E+02  0.18469827528E+02 -0.10265263554E+03  0.14331457414E+03  0.80596843810E+02 0.  0.
        -13    1    3    3    0    0  0.36250190110E+02 -0.76212781671E+02  0.36956117701E+02  0.92131531023E+02  0.00000000000E+00 0.  1.
         14    1    3    3    0    0  0.29624183908E+02  0.62748958899E+01 -0.18478028205E+02  0.35473992121E+02  0.00000000000E+00 0. -1.
        -13    1    5    5    0    0 -0.61922817674E+02  0.26693201529E+02 -0.11128023432E+03  0.13011630531E+03  0.00000000000E+00 0.  1.
         14    1    5    5    0    0  0.56687705478E+01 -0.82233740012E+01  0.86275987832E+01  0.13198268835E+02  0.00000000000E+00 0. -1.
          5    1    4    4  502    0  0.86602100834E+01 -0.87510276975E+02 -0.72632380417E+02  0.11415165570E+03  0.47000000000E+01 0.  1.
         -5    1    4    4    0  502  0.15209716307E+03 -0.63743872730E+02 -0.16905801184E+03  0.23621924073E+03  0.47000000000E+01 0.  1.
          1    1    1    2  503    0 -0.14680986977E+03  0.21659807565E+03  0.12353191058E+04  0.12627276655E+04  0.00000000000E+00 0. -1.
         -4    1    1    2    0  501 -0.23567830268E+02 -0.13875867693E+02 -0.31175014899E+03  0.31294749995E+03  0.00000000000E+00 0.  1.
<mgrwt>
<rscale>  0 0.84264849E+02</rscale>
<asrwt>0</asrwt>
<pdfrwt beam="1">  1        2 0.20549046E+00 0.25962543E+03</pdfrwt>
<pdfrwt beam="2">  1       -3 0.11759280E+00 0.27349266E+02</pdfrwt>
<totfact> 0.62645084E+00</totfact>
</mgrwt>
</event>
<event>
13    1  0.2038932E-008  0.6012577E+02  0.7546771E-02  0.1531432E+00
          2   -1    0    0  502    0  0.00000000000E+00  0.00000000000E+00  0.11133909230E+03  0.11133909230E+03  0.00000000000E+00 0. -1.
          2   -1    0    0  503    0 -0.00000000000E+00 -0.00000000000E+00 -0.41805931998E+04  0.41805931998E+04  0.00000000000E+00 0. -1.
         24    2    1    2    0    0  0.11868255773E+03 -0.49307037086E+02 -0.32456593380E+04  0.32492580152E+04  0.82803248316E+02 0.  0.
         25    2    1    2    0    0 -0.15397396991E+02  0.95393444050E+02 -0.18290442941E+03  0.24168942615E+03  0.12499103732E+03 0.  0.
         24    2    1    2    0    0 -0.13482409248E+03 -0.86514562199E+02 -0.44944560186E+03  0.48410771573E+03  0.81832915224E+02 0.  0.
        -13    1    5    5    0    0 -0.26714512976E+02  0.13433574653E+02 -0.11235979543E+03  0.11627058854E+03  0.00000000000E+00 0.  1.
         14    1    5    5    0    0 -0.10810957950E+03 -0.99948136851E+02 -0.33708580643E+03  0.36783712719E+03  0.00000000000E+00 0. -1.
        -13    1    3    3    0    0  0.34157419099E+02  0.12301870852E+02 -0.39065745694E+03  0.39234081354E+03  0.00000000000E+00 0.  1.
         14    1    3    3    0    0  0.84525138632E+02 -0.61608907937E+02 -0.28550018810E+04  0.28569172017E+04  0.00000000000E+00 0. -1.
          5    1    4    4  501    0 -0.64326559621E+02  0.85651015759E+02 -0.13463157186E+03  0.17210971186E+03  0.47000000000E+01 0.  1.
         -5    1    4    4    0  501  0.48929162629E+02  0.97424282913E+01 -0.48272857552E+02  0.69579714291E+02  0.47000000000E+01 0.  1.
          1    1    1    2  502    0  0.51964971400E+02  0.30336686077E+02  0.47739291560E+02  0.76809587510E+02  0.00000000000E+00 0. -1.
          1    1    1    2  503    0 -0.20426039664E+02  0.10091469158E+02 -0.23898402977E+03  0.24006754744E+03  0.00000000000E+00 0. -1.
<mgrwt>
<rscale>  0 0.37011348E+02</rscale>
<asrwt>0</asrwt>
<pdfrwt beam="1">  1        2 0.16373395E-01 0.60125773E+02</pdfrwt>
<pdfrwt beam="2">  1        2 0.61479316E+00 0.22782907E+02</pdfrwt>
<totfact> 0.40368234E+01</totfact>
</mgrwt>
</event>
<event>
13    1  0.2079955E-008  0.3879505E+02  0.7546771E-02  0.1518493E+00
          2   -1    0    0  502    0  0.00000000000E+00  0.00000000000E+00  0.16389568844E+04  0.16389568844E+04  0.00000000000E+00 0. -1.
          2   -1    0    0  503    0 -0.00000000000E+00 -0.00000000000E+00 -0.33695656897E+04  0.33695656897E+04  0.00000000000E+00 0. -1.
         24    2    1    2    0    0  0.13221269249E+03 -0.85603526354E+03 -0.16335394898E+04  0.18502411895E+04  0.68298068272E+02 0.  0.
         25    2    1    2    0    0  0.48146333978E+03  0.23132912754E+02 -0.24038394102E+03  0.55294738849E+03  0.12499718450E+03 0.  0.
         24    2    1    2    0    0 -0.60481304354E+03  0.79783733981E+03  0.98418078744E+03  0.14062080026E+04  0.80410731976E+02 0.  0.
        -11    1    3    3    0    0  0.10454292432E+03 -0.45828426114E+03 -0.89810259280E+03  0.10136774409E+04  0.00000000000E+00 0.  1.
         12    1    3    3    0    0  0.27669768167E+02 -0.39775100240E+03 -0.73543689700E+03  0.83656374859E+03  0.00000000000E+00 0. -1.
        -13    1    5    5    0    0 -0.17120704978E+03  0.26128382750E+03  0.26486519655E+03  0.40955422688E+03  0.00000000000E+00 0.  1.
         14    1    5    5    0    0 -0.43360599377E+03  0.53655351231E+03  0.71931559089E+03  0.99665377574E+03  0.00000000000E+00 0. -1.
          5    1    4    4  501    0  0.16096188921E+03  0.52481873193E+01 -0.17362512540E+02  0.16204882008E+03  0.47000000000E+01 0.  1.
         -5    1    4    4    0  501  0.32050145057E+03  0.17884725435E+02 -0.22302142848E+03  0.39089856841E+03  0.47000000000E+01 0.  1.
          1    1    1    2  502    0  0.28756846980E+02  0.25566115219E+02  0.17668954639E+03  0.18083080019E+03  0.00000000000E+00 0. -1.
          1    1    1    2  503    0 -0.37619835706E+02  0.94988957547E+01 -0.10175557083E+04  0.10182951933E+04  0.00000000000E+00 0. -1.
<mgrwt>
<rscale>  0 0.38636372E+02</rscale>
<asrwt>0</asrwt>
<pdfrwt beam="1">  1        2 0.24102307E+00 0.38478338E+02</pdfrwt>
<pdfrwt beam="2">  1        2 0.49552436E+00 0.38795055E+02</pdfrwt>
<totfact> 0.50056762E+00</totfact>
</mgrwt>
</event>
<event>
13    1  0.2038932E-008  0.2195619E+03  0.7546771E-02  0.1353533E+00
          4   -1    0    0  503    0 -0.00000000000E+00  0.00000000000E+00  0.91784998616E+03  0.91784998616E+03  0.00000000000E+00 0. -1.
          2   -1    0    0  502    0  0.00000000000E+00 -0.00000000000E+00 -0.20110321783E+04  0.20110321783E+04  0.00000000000E+00 0. -1.
         24    2    1    2    0    0  0.91638755152E+02 -0.11350776661E+02  0.30907553181E+03  0.33223162842E+03  0.79521500122E+02 0.  0.
         25    2    1    2    0    0  0.17631305101E+03 -0.67764604262E+02 -0.32945684574E+03  0.39980587750E+03  0.12499837169E+03 0.  0.
         24    2    1    2    0    0 -0.62494443566E+02  0.76124314015E+02  0.15502236965E+03  0.20040728436E+03  0.80191507484E+02 0.  0.
        -11    1    5    5    0    0 -0.65389951154E+02  0.80176421886E+02  0.95884463131E+02  0.14106003902E+03  0.00000000000E+00 0.  1.
         12    1    5    5    0    0  0.28955075880E+01 -0.40521078703E+01  0.59137906516E+02  0.59347245340E+02  0.00000000000E+00 0. -1.
        -11    1    3    3    0    0  0.65829706504E+02  0.29522769272E+02  0.15998671945E+03  0.17550183635E+03  0.00000000000E+00 0.  1.
         12    1    3    3    0    0  0.25809048648E+02 -0.40873545933E+02  0.14908881236E+03  0.15672979206E+03  0.00000000000E+00 0. -1.
          5    1    4    4  501    0 -0.54085117639E+01 -0.42251593001E+02 -0.66663688968E+02  0.79250151655E+02  0.47000000000E+01 0.  1.
         -5    1    4    4    0  501  0.18172156278E+03 -0.25513011261E+02 -0.26279315678E+03  0.32055572584E+03  0.47000000000E+01 0.  1.
          1    1    1    2  502    0 -0.22848907531E+03  0.80851297882E+01 -0.16036525524E+04  0.16198685551E+04  0.00000000000E+00 0. -1.
          3    1    1    2  503    0  0.23031712711E+02 -0.50940628809E+01  0.37582930462E+03  0.37656881905E+03  0.00000000000E+00 0. -1.
<mgrwt>
<rscale>  0 0.71965948E+02</rscale>
<asrwt>0</asrwt>
<pdfrwt beam="2">  1        2 0.29574002E+00 0.21956187E+03</pdfrwt>
<pdfrwt beam="1">  1        4 0.13497794E+00 0.23588329E+02</pdfrwt>
<totfact> 0.16759558E+00</totfact>
</mgrwt>
</event>
<event>
13    1  0.2038932E-008  0.3038565E+03  0.7546771E-02  0.1231266E+00
          2   -1    0    0  502    0  0.00000000000E+00  0.00000000000E+00  0.21480398469E+04  0.21480398469E+04  0.00000000000E+00 0. -1.
          2   -1    0    0  503    0 -0.00000000000E+00 -0.00000000000E+00 -0.35660941318E+04  0.35660941318E+04  0.00000000000E+00 0. -1.
         24    2    1    2    0    0 -0.27617221233E+02 -0.22063900022E+03 -0.98718552002E+03  0.10151194914E+04  0.80548442443E+02 0.  0.
         25    2    1    2    0    0  0.29787938162E+03  0.31125808031E+03  0.19458515361E+02  0.44901776480E+03  0.12499840291E+03 0.  0.
         24    2    1    2    0    0  0.37358854339E+02 -0.58490000913E+02  0.14896825760E+03  0.18287409859E+03  0.80216145249E+02 0.  0.
        -11    1    5    5    0    0  0.38275880635E+02 -0.76429134450E+02  0.10510349268E+03  0.13547398202E+03  0.00000000000E+00 0.  1.
         12    1    5    5    0    0 -0.91702629595E+00  0.17939133537E+02  0.43864764921E+02  0.47400116570E+02  0.00000000000E+00 0. -1.
        -11    1    3    3    0    0  0.20019539245E+02 -0.54585678708E+02 -0.35617642325E+03  0.36089059665E+03  0.00000000000E+00 0.  1.
         12    1    3    3    0    0 -0.47636760479E+02 -0.16605332151E+03 -0.63100909678E+03  0.65422889477E+03  0.00000000000E+00 0. -1.
          5    1    4    4  501    0  0.21155179210E+03  0.29062132247E+03  0.10037518459E+02  0.35963558722E+03  0.47000000000E+01 0. -1.
         -5    1    4    4    0  501  0.86327589521E+02  0.20636757838E+02  0.94209969021E+01  0.89382177581E+02  0.47000000000E+01 0. -1.
          1    1    1    2  502    0 -0.47994839778E+02  0.23571641338E+02  0.17259432964E+04  0.17267713773E+04  0.00000000000E+00 0. -1.
          1    1    1    2  503    0 -0.25962617495E+03 -0.55700720516E+02 -0.23252388343E+04  0.23403512466E+04  0.00000000000E+00 0. -1.
<mgrwt>
<rscale>  0 0.12746549E+03</rscale>
<asrwt>0</asrwt>
<pdfrwt beam="1">  1        2 0.31588821E+00 0.53470804E+02</pdfrwt>
<pdfrwt beam="2">  1        2 0.52442561E+00 0.30385649E+03</pdfrwt>
<totfact> 0.14950058E+00</totfact>
</mgrwt>
</event>
<event>
13    1  0.2038932E-008  0.1147907E+03  0.7546771E-02  0.1300048E+00
          2   -1    0    0  502    0  0.00000000000E+00  0.00000000000E+00  0.26809540539E+04  0.26809540539E+04  0.00000000000E+00 0. -1.
          2   -1    0    0  503    0 -0.00000000000E+00 -0.00000000000E+00 -0.51035168115E+03  0.51035168115E+03  0.00000000000E+00 0. -1.
         24    2    1    2    0    0 -0.77136192331E+02 -0.18582118490E+02 -0.31805805151E+03  0.33741662897E+03  0.79961053527E+02 0.  0.
         25    2    1    2    0    0  0.11181891404E+03  0.16606260789E+03  0.94603426949E+02  0.25427917719E+03  0.12501132863E+03 0.  0.
         24    2    1    2    0    0 -0.94096485639E+01  0.15795969995E+02  0.47362889914E+03  0.48071234427E+03  0.80137192852E+02 0.  0.
        -11    1    3    3    0    0 -0.57620479731E+02  0.25868647463E+02 -0.20103891424E+03  0.21072719721E+03  0.00000000000E+00 0.  1.
         12    1    3    3    0    0 -0.19515712600E+02 -0.44450765953E+02 -0.11701913727E+03  0.12668943176E+03  0.00000000000E+00 0. -1.
        -13    1    5    5    0    0  0.16658248327E+02 -0.19327530927E+02  0.31892021352E+03  0.31993929624E+03  0.00000000000E+00 0.  1.
         14    1    5    5    0    0 -0.26067896891E+02  0.35123500921E+02  0.15470868562E+03  0.16077304802E+03  0.00000000000E+00 0. -1.
          5    1    4    4  501    0  0.90979290104E+02  0.13604205330E+03  0.12400963126E+02  0.16419666678E+03  0.47000000000E+01 0. -1.
         -5    1    4    4    0  501  0.20839623931E+02  0.30020554591E+02  0.82202463823E+02  0.90082510412E+02  0.47000000000E+01 0. -1.
          1    1    1    2  502    0  0.46673653466E+02 -0.17142003829E+03  0.20019761817E+04  0.20098437480E+04  0.00000000000E+00 0. -1.
          1    1    1    2  503    0 -0.71946726606E+02  0.81435788964E+01 -0.81548083528E+02  0.10905383658E+03  0.00000000000E+00 0. -1.
<mgrwt>
<rscale>  0 0.91167722E+02</rscale>
<asrwt>0</asrwt>
<pdfrwt beam="1">  1        2 0.39425794E+00 0.11479073E+03</pdfrwt>
<pdfrwt beam="2">  1        2 0.75051719E-01 0.72406142E+02</pdfrwt>
<totfact> 0.42140476E+01</totfact>
</mgrwt>
</event>
<event>
13    1  0.2038932E-008  0.3993363E+03  0.7546771E-02  0.1238598E+00
          2   -1    0    0  503    0  0.00000000000E+00  0.00000000000E+00  0.16384744867E+04  0.16384744867E+04  0.00000000000E+00 0. -1.
          2   -1    0    0  502    0 -0.00000000000E+00 -0.00000000000E+00 -0.89193666940E+03  0.89193666940E+03  0.00000000000E+00 0. -1.
         24    2    1    2    0    0 -0.26438412200E+03  0.73045077481E+02 -0.15875251944E+03  0.32738147968E+03  0.82107999020E+02 0.  0.
         25    2    1    2    0    0  0.49101257630E+03 -0.21364267671E+03  0.88613848543E+03  0.10428821825E+04  0.12500115149E+03 0.  0.
         24    2    1    2    0    0  0.74553035048E+02 -0.34252503329E+02  0.22709306643E+03  0.25447952640E+03  0.80356577335E+02 0.  0.
        -11    1    5    5    0    0  0.38930706258E+01 -0.42473062736E+02  0.10230125970E+03  0.11083620705E+03  0.00000000000E+00 0.  1.
         12    1    5    5    0    0  0.70659964422E+02  0.82205594067E+01  0.12479180672E+03  0.14364331935E+03  0.00000000000E+00 0. -1.
        -13    1    3    3    0    0 -0.68339584515E+02 -0.67193534862E+01 -0.11696397753E+02  0.69658124030E+02  0.00000000000E+00 0.  1.
         14    1    3    3    0    0 -0.19604453748E+03  0.79764430967E+02 -0.14705612168E+03  0.25772335565E+03  0.00000000000E+00 0. -1.
          5    1    4    4  501    0  0.16034994654E+03 -0.28225437189E+02  0.35209594514E+03  0.38794642059E+03  0.47000000000E+01 0.  1.
         -5    1    4    4    0  501  0.33066262976E+03 -0.18541723952E+03  0.53404254029E+03  0.65493576194E+03  0.47000000000E+01 0.  1.
          1    1    1    2  502    0 -0.29389943748E+03  0.21188397520E+03 -0.49650554102E+03  0.61464579276E+03  0.00000000000E+00 0. -1.
          1    1    1    2  503    0 -0.72820518744E+01 -0.37033872634E+02  0.28856432591E+03  0.29102217474E+03  0.00000000000E+00 0. -1.
<mgrwt>
<rscale>  0 0.12276873E+03</rscale>
<asrwt>0</asrwt>
<pdfrwt beam="1">  1        2 0.24095213E+00 0.37743026E+02</pdfrwt>
<pdfrwt beam="2">  1        2 0.13116716E+00 0.39933630E+03</pdfrwt>
<totfact> 0.74954789E+01</totfact>
</mgrwt>
</event>
<event>
13    1  0.2038932E-008  0.1303714E+03  0.7546771E-02  0.1380673E+00
          2   -1    0    0  502    0  0.00000000000E+00  0.00000000000E+00  0.13047054017E+04  0.13047054017E+04  0.00000000000E+00 0. -1.
          2   -1    0    0  503    0 -0.00000000000E+00 -0.00000000000E+00 -0.17473298291E+04  0.17473298291E+04  0.00000000000E+00 0. -1.
         24    2    1    2    0    0  0.81841652107E+02 -0.65022945619E+02 -0.62734445152E+03  0.63876616783E+03  0.59456848551E+02 0.  0.
         25    2    1    2    0    0 -0.64651152228E+01  0.31747001866E+02  0.49489811406E+03  0.51146643529E+03  0.12499640511E+03 0.  0.
         24    2    1    2    0    0  0.38808223177E+02  0.13478513171E+03 -0.32729342681E+03  0.36456166607E+03  0.78173596679E+02 0.  0.
        -11    1    5    5    0    0 -0.17142039060E+02  0.18726577977E+02 -0.10118491830E+03  0.10432124384E+03  0.00000000000E+00 0.  1.
         12    1    5    5    0    0  0.55950262238E+02  0.11605855373E+03 -0.22610850851E+03  0.26024042222E+03  0.00000000000E+00 0. -1.
        -13    1    3    3    0    0  0.22593990290E+02 -0.47469329160E+02 -0.38922978599E+03  0.39276411739E+03  0.00000000000E+00 0.  1.
         14    1    3    3    0    0  0.59247661817E+02 -0.17553616458E+02 -0.23811466553E+03  0.24600205044E+03  0.00000000000E+00 0. -1.
          5    1    4    4  501    0  0.59096862347E+02  0.17885909000E+02  0.23203458165E+03  0.24015512062E+03  0.47000000000E+01 0.  1.
         -5    1    4    4    0  501 -0.65561977570E+02  0.13861092866E+02  0.26286353241E+03  0.27131131467E+03  0.47000000000E+01 0.  1.
          1    1    1    2  502    0 -0.31558576454E+02  0.29967000725E+01  0.77101207650E+03  0.77166349277E+03  0.00000000000E+00 0. -1.
          1    1    1    2  503    0 -0.82626183607E+02 -0.10450588803E+03 -0.75389673963E+03  0.76557746889E+03  0.00000000000E+00 0. -1.
<mgrwt>
<rscale>  0 0.64287186E+02</rscale>
<asrwt>0</asrwt>
<pdfrwt beam="1">  1        2 0.19186844E+00 0.31700536E+02</pdfrwt>
<pdfrwt beam="2">  1        2 0.25696027E+00 0.13037137E+03</pdfrwt>
<totfact> 0.40141893E+01</totfact>
</mgrwt>
</event>
<event>
13    1  0.2038932E-008  0.7705499E+02  0.7546771E-02  0.1342708E+00
          2   -1    0    0  502    0  0.00000000000E+00  0.00000000000E+00  0.54393375799E+03  0.54393375799E+03  0.00000000000E+00 0. -1.
          2   -1    0    0  503    0 -0.00000000000E+00 -0.00000000000E+00 -0.75924791300E+03  0.75924791300E+03  0.00000000000E+00 0. -1.
         24    2    1    2    0    0  0.29106747277E+02  0.19751797369E+02 -0.31269064315E+03  0.32330775496E+03  0.74263920382E+02 0.  0.
         25    2    1    2    0    0 -0.15684937037E+03 -0.14599439232E+03  0.32836124270E+03  0.41155067015E+03  0.12504703445E+03 0.  0.
         24    2    1    2    0    0  0.35221187057E+02  0.16015461182E+02 -0.36197393930E+02  0.97863427673E+02  0.82279840386E+02 0.  0.
        -11    1    5    5    0    0 -0.15322298954E+02  0.25135624238E+02  0.75579052274E+01  0.30392340853E+02  0.00000000000E+00 0.  1.
         12    1    5    5    0    0  0.50543486011E+02 -0.91201630567E+01 -0.43755299157E+02  0.67471086820E+02  0.00000000000E+00 0. -1.
        -13    1    3    3    0    0 -0.72860216242E+01 -0.94076771952E+01 -0.21209554191E+03  0.21242906911E+03  0.00000000000E+00 0.  1.
         14    1    3    3    0    0  0.36392768901E+02  0.29159474564E+02 -0.10059510123E+03  0.11087868586E+03  0.00000000000E+00 0. -1.
          5    1    4    4  501    0 -0.95771631174E+02 -0.63666490966E+02  0.72884011018E+02  0.13623434395E+03  0.47000000000E+01 0. -1.
         -5    1    4    4    0  501 -0.61077739193E+02 -0.82327901349E+02  0.25547723168E+03  0.27531632620E+03  0.47000000000E+01 0. -1.
          1    1    1    2  502    0  0.29030568260E+02  0.67780175250E+02  0.12311789748E+03  0.14350938203E+03  0.00000000000E+00 0. -1.
          1    1    1    2  503    0  0.63490867772E+02  0.42446958514E+02 -0.31790525812E+03  0.32695043618E+03  0.00000000000E+00 0. -1.
<mgrwt>
<rscale>  0 0.75376983E+02</rscale>
<asrwt>0</asrwt>
<pdfrwt beam="1">  1        2 0.79990259E-01 0.73735514E+02</pdfrwt>
<pdfrwt beam="2">  1        2 0.11165410E+00 0.77054993E+02</pdfrwt>
<totfact> 0.39513366E+02</totfact>
</mgrwt>
</event>
<event>
13    1  0.2038932E-008  0.1032845E+03  0.7546771E-02  0.1359431E+00
          2   -1    0    0  502    0  0.00000000000E+00  0.00000000000E+00  0.16831617626E+04  0.16831617626E+04  0.00000000000E+00 0. -1.
          2   -1    0    0  503    0 -0.00000000000E+00 -0.00000000000E+00 -0.37100866795E+04  0.37100866795E+04  0.00000000000E+00 0. -1.
         24    2    1    2    0    0  0.99234633605E+02 -0.65522352118E+02 -0.12561374158E+03  0.19087450423E+03  0.80706710743E+02 0.  0.
         25    2    1    2    0    0 -0.11858479716E+03  0.14497743127E+03  0.22660083606E+03  0.31945249364E+03  0.12498458741E+03 0.  0.
         24    2    1    2    0    0  0.72944268189E+02  0.47918588623E+02  0.63990139949E+03  0.65089937223E+03  0.81111862895E+02 0.  0.
        -13    1    3    3    0    0  0.46091312151E+01  0.13744464333E+02  0.36366190014E+00  0.14501263405E+02  0.00000000000E+00 0.  1.
         14    1    3    3    0    0  0.94625502390E+02 -0.79266816452E+02 -0.12597740348E+03  0.17637324083E+03  0.00000000000E+00 0. -1.
        -13    1    5    5    0    0  0.36049148780E+02  0.52931754882E+02  0.21409371835E+03  0.22346684774E+03  0.00000000000E+00 0.  1.
         14    1    5    5    0    0  0.36895119409E+02 -0.50131662597E+01  0.42580768114E+03  0.42743252449E+03  0.00000000000E+00 0. -1.
          5    1    4    4  501    0 -0.23502680516E+02  0.60769869762E+02  0.16651041823E+03  0.17886632563E+03  0.47000000000E+01 0. -1.
         -5    1    4    4    0  501 -0.95082116645E+02  0.84207561510E+02  0.60090417827E+02  0.14058616801E+03  0.47000000000E+01 0. -1.
          1    1    1    2  502    0 -0.98072116098E+02 -0.11012202243E+03  0.72451425044E+03  0.73936858120E+03  0.00000000000E+00 0. -1.
          1    1    1    2  503    0  0.44478011465E+02 -0.17251645341E+02 -0.34923276614E+04  0.34926534908E+04  0.00000000000E+00 0. -1.
<mgrwt>
<rscale>  0 0.70195036E+02</rscale>
<asrwt>0</asrwt>
<pdfrwt beam="1">  1        2 0.24752379E+00 0.10328446E+03</pdfrwt>
<pdfrwt beam="2">  1        2 0.54560097E+00 0.47706528E+02</pdfrwt>
<totfact> 0.26653470E+00</totfact>
</mgrwt>
</event>
<event>
13    1  0.2038932E-008  0.1031689E+03  0.7546771E-02  0.1310688E+00
          2   -1    0    0  502    0  0.00000000000E+00  0.00000000000E+00  0.35497632363E+04  0.35497632363E+04  0.00000000000E+00 0. -1.
          2   -1    0    0  503    0 -0.00000000000E+00 -0.00000000000E+00 -0.14686396307E+04  0.14686396307E+04  0.00000000000E+00 0. -1.
         24    2    1    2    0    0  0.32733796321E+02  0.76409286502E+01 -0.62971460231E+03  0.63588568232E+03  0.81732707079E+02 0.  0.
         25    2    1    2    0    0  0.44502474018E+02 -0.13647764821E+03 -0.41367175537E+02  0.19481022295E+03  0.12503264013E+03 0.  0.
         24    2    1    2    0    0 -0.52275603400E+02 -0.21089647289E+02 -0.12782370540E+03  0.16015963686E+03  0.78324310930E+02 0.  0.
        -13    1    5    5    0    0 -0.55205286848E+02 -0.41800277178E+02 -0.11852283649E+03  0.13726816687E+03  0.00000000000E+00 0.  1.
         14    1    5    5    0    0  0.29296834472E+01  0.20710629889E+02 -0.93008689152E+01  0.22891469985E+02  0.00000000000E+00 0. -1.
        -13    1    3    3    0    0  0.14320684666E+02 -0.24536016147E+02 -0.50447261194E+03  0.50527192114E+03  0.00000000000E+00 0.  1.
         14    1    3    3    0    0  0.18413111655E+02  0.32176944798E+02 -0.12524199036E+03  0.13061376117E+03  0.00000000000E+00 0. -1.
          5    1    4    4  501    0  0.36636810556E+02 -0.68212736511E+02  0.40756427067E+02  0.87626535121E+02  0.47000000000E+01 0. -1.
         -5    1    4    4    0  501  0.78656634620E+01 -0.68264911702E+02 -0.82123602604E+02  0.10718368783E+03  0.47000000000E+01 0. -1.
          1    1    1    2  502    0  0.77194636948E+02  0.66980692111E+02  0.34454756438E+04  0.34469911281E+04  0.00000000000E+00 0. -1.
          1    1    1    2  503    0 -0.10215530389E+03  0.82945674741E+02 -0.56544655497E+03  0.58055619676E+03  0.00000000000E+00 0. -1.
<mgrwt>
<rscale>  0 0.86840539E+02</rscale>
<asrwt>0</asrwt>
<pdfrwt beam="1">  1        2 0.52202400E+00 0.73096462E+02</pdfrwt>
<pdfrwt beam="2">  1        2 0.21597642E+00 0.10316887E+03</pdfrwt>
<totfact> 0.38837684E+00</totfact>
</mgrwt>
</event>
<event>
13    1  0.2038932E-008  0.1231856E+03  0.7546771E-02  0.1343624E+00
          4   -1    0    0  503    0 -0.00000000000E+00  0.00000000000E+00  0.10225198861E+04  0.10225198861E+04  0.00000000000E+00 0. -1.
          2   -1    0    0  502    0  0.00000000000E+00 -0.00000000000E+00 -0.97408236467E+03  0.97408236467E+03  0.00000000000E+00 0. -1.
         24    2    1    2    0    0  0.48750882244E+02  0.45395388991E+02  0.13561349214E+03  0.17101491355E+03  0.80110495843E+02 0.  0.
         25    2    1    2    0    0 -0.54002185022E+02 -0.15592108058E+03  0.29293741353E+03  0.35869809697E+03  0.12499750865E+03 0.  0.
         24    2    1    2    0    0  0.22922129786E+02 -0.54787965285E+02 -0.21887971495E+03  0.24093348706E+03  0.81323246359E+02 0.  0.
        -11    1    3    3    0    0  0.15245802462E+02 -0.18475178944E+02  0.68222016347E+02  0.72304980770E+02  0.00000000000E+00 0.  1.
         12    1    3    3    0    0  0.33505079782E+02  0.63870567935E+02  0.67391475798E+02  0.98709932782E+02  0.00000000000E+00 0. -1.
        -11    1    5    5    0    0  0.47520642308E+02 -0.52040245016E+02 -0.12151263210E+03  0.14046963482E+03  0.00000000000E+00 0.  1.
         12    1    5    5    0    0 -0.24598512523E+02 -0.27477202695E+01 -0.97367082849E+02  0.10046385224E+03  0.00000000000E+00 0. -1.
          5    1    4    4  501    0  0.36801663449E+02 -0.38001056022E+02  0.11503525319E+03  0.12670296827E+03  0.47000000000E+01 0. -1.
         -5    1    4    4    0  501 -0.90803848471E+02 -0.11792002456E+03  0.17790216034E+03  0.23199512870E+03  0.47000000000E+01 0. -1.
          1    1    1    2  502    0 -0.49277671105E+02  0.19840442199E+03 -0.67749690040E+03  0.70766846305E+03  0.00000000000E+00 0. -1.
          3    1    1    2  503    0  0.31606844097E+02 -0.33090765113E+02  0.51626323114E+03  0.51828729017E+03  0.00000000000E+00 0. -1.
<mgrwt>
<rscale>  0 0.75079913E+02</rscale>
<asrwt>0</asrwt>
<pdfrwt beam="2">  1        2 0.14324741E+00 0.12318564E+03</pdfrwt>
<pdfrwt beam="1">  1        4 0.15037057E+00 0.45760150E+02</pdfrwt>
<totfact> 0.48700626E+00</totfact>
</mgrwt>
</event>
<event>
13    1  0.2038932E-008  0.7222771E+02  0.7546771E-02  0.1421242E+00
          2   -1    0    0  503    0  0.00000000000E+00  0.00000000000E+00  0.77253661131E+03  0.77253661131E+03  0.00000000000E+00 0. -1.
         -3   -1    0    0    0  501 -0.00000000000E+00 -0.00000000000E+00 -0.13185938817E+04  0.13185938817E+04  0.00000000000E+00 0.  1.
         24    2    1    2    0    0 -0.11686121328E+03  0.16864187551E+02 -0.17836937737E+03  0.22856293052E+03  0.80525986092E+02 0.  0.
         25    2    1    2    0    0  0.26713182797E+03  0.18431187273E+03  0.28492465831E+03  0.44959546750E+03  0.12499497409E+03 0.  0.
         24    2    1    2    0    0 -0.79042237964E+02 -0.11345344477E+03 -0.72301426741E+02  0.17656065129E+03  0.82624498559E+02 0.  0.
        -11    1    5    5    0    0  0.86054243096E+01 -0.45715100844E+02 -0.39520525531E+02  0.61039296449E+02  0.00000000000E+00 0.  1.
         12    1    5    5    0    0 -0.87647662273E+02 -0.67738343921E+02 -0.32780901210E+02  0.11552135484E+03  0.00000000000E+00 0. -1.
        -11    1    3    3    0    0  0.47690271032E+00 -0.86736015054E+01 -0.57604016485E+02  0.58255313187E+02  0.00000000000E+00 0.  1.
         12    1    3    3    0    0 -0.11733811599E+03  0.25537789056E+02 -0.12076536088E+03  0.17030761734E+03  0.00000000000E+00 0. -1.
          5    1    4    4  502    0  0.25934734848E+03  0.18105192943E+03  0.29715573029E+03  0.43400975376E+03  0.47000000000E+01 0.  1.
         -5    1    4    4    0  502  0.77844794817E+01  0.32599433040E+01 -0.12231071981E+02  0.15585713745E+02  0.47000000000E+01 0.  1.
          1    1    1    2  503    0 -0.30329958379E+02 -0.28347891387E+02  0.32529825918E+03  0.32793668101E+03  0.00000000000E+00 0. -1.
         -4    1    1    2    0  501 -0.40898418345E+02 -0.59374724129E+02 -0.90560938379E+03  0.90847476272E+03  0.00000000000E+00 0.  1.
<mgrwt>
<rscale>  0 0.54758979E+02</rscale>
<asrwt>0</asrwt>
<pdfrwt beam="1">  1        2 0.11360833E+00 0.41515170E+02</pdfrwt>
<pdfrwt beam="2">  1       -3 0.19391086E+00 0.72227714E+02</pdfrwt>
<totfact> 0.46513985E+00</totfact>
</mgrwt>
</event>
<event>
13    1  0.2038932E-008  0.1242488E+03  0.7546771E-02  0.1248070E+00
          2   -1    0    0  503    0  0.00000000000E+00  0.00000000000E+00  0.10231057355E+04  0.10231057355E+04  0.00000000000E+00 0. -1.
          2   -1    0    0  502    0 -0.00000000000E+00 -0.00000000000E+00 -0.15394771141E+04  0.15394771141E+04  0.00000000000E+00 0. -1.
         24    2    1    2    0    0 -0.11221720795E+03  0.16400509946E+02 -0.31857493281E+03  0.34834392481E+03  0.83617125322E+02 0.  0.
         25    2    1    2    0    0  0.22505619566E+02  0.49402442597E+02  0.30090879809E+02  0.13956469517E+03  0.12500295534E+03 0.  0.
         24    2    1    2    0    0 -0.32837573310E+02 -0.28907097163E+02 -0.32109842499E+03  0.33383755234E+03  0.80183454230E+02 0.  0.
        -11    1    3    3    0    0 -0.93660721975E+02  0.43777273615E+02 -0.27387228547E+03  0.29273675765E+03  0.00000000000E+00 0.  1.
         12    1    3    3    0    0 -0.18556485975E+02 -0.27376763668E+02 -0.44702647337E+02  0.55607167160E+02  0.00000000000E+00 0. -1.
        -13    1    5    5    0    0 -0.51511418774E+02 -0.29123623529E+01 -0.25774372731E+03  0.26285687567E+03  0.00000000000E+00 0.  1.
         14    1    5    5    0    0  0.18673845463E+02 -0.25994734810E+02 -0.63354697678E+02  0.70980676667E+02  0.00000000000E+00 0. -1.
          5    1    4    4  501    0 -0.29463118803E+02  0.50939667821E+02  0.55925533478E+02  0.81318389200E+02  0.47000000000E+01 0. -1.
         -5    1    4    4    0  501  0.51968738368E+02 -0.15372252241E+01 -0.25834653669E+02  0.58246305970E+02  0.47000000000E+01 0. -1.
          1    1    1    2  502    0  0.23038012126E+03 -0.14490562845E+02 -0.80420984440E+03  0.83668300480E+03  0.00000000000E+00 0. -1.
          1    1    1    2  503    0 -0.10783095956E+03 -0.22405292537E+02  0.89742094388E+03  0.90415367249E+03  0.00000000000E+00 0. -1.
<mgrwt>
<rscale>  0 0.11703486E+03</rscale>
<asrwt>0</asrwt>
<pdfrwt beam="1">  1        2 0.15045673E+00 0.11023972E+03</pdfrwt>
<pdfrwt beam="2">  1        2 0.22639369E+00 0.12424885E+03</pdfrwt>
<totfact> 0.66463959E+01</totfact>
</mgrwt>
</event>
<event>
13    1  0.2187393E-008  0.9857645E+02  0.7546771E-02  0.1325192E+00
         -3   -1    0    0    0  501 -0.00000000000E+00  0.00000000000E+00  0.13122373038E+04  0.13122373038E+04  0.00000000000E+00 0.  1.
          2   -1    0    0  503    0  0.00000000000E+00 -0.00000000000E+00 -0.13393635464E+04  0.13393635464E+04  0.00000000000E+00 0. -1.
         24    2    1    2    0    0 -0.10020696546E+03 -0.16630022824E+02  0.37564773168E+03  0.39739872744E+03  0.80601095941E+02 0.  0.
         25    2    1    2    0    0 -0.80825818718E+01 -0.28467544343E+02  0.58524119929E+03  0.59917584000E+03  0.12501478586E+03 0.  0.
         24    2    1    2    0    0 -0.95883982500E+01 -0.83554126562E+01 -0.11718124374E+04  0.11746577149E+04  0.80713123691E+02 0.  0.
        -11    1    3    3    0    0  0.96301163446E+01  0.24455729622E+01  0.93483203660E+02  0.94009729999E+02  0.00000000000E+00 0.  1.
         12    1    3    3    0    0 -0.10983708181E+03 -0.19075595786E+02  0.28216452802E+03  0.30338899744E+03  0.00000000000E+00 0. -1.
        -13    1    5    5    0    0  0.11730608138E+02  0.31374772700E+02 -0.34672593638E+03  0.34834014768E+03  0.00000000000E+00 0.  1.
         14    1    5    5    0    0 -0.21319006388E+02 -0.39730185356E+02 -0.82508650102E+03  0.82631756718E+03  0.00000000000E+00 0. -1.
          5    1    4    4  502    0  0.57952799325E+02 -0.55814473494E+01  0.26195092788E+03  0.26838416145E+03  0.47000000000E+01 0. -1.
         -5    1    4    4    0  502 -0.66035381197E+02 -0.22886096993E+02  0.32329027141E+03  0.33079167855E+03  0.47000000000E+01 0. -1.
          1    1    1    2  503    0  0.12600595309E+03 -0.13229986299E+02 -0.11682107082E+03  0.17233599548E+03  0.00000000000E+00 0. -1.
         -4    1    1    2    0  501 -0.81280075047E+01  0.66682966122E+02  0.30061833466E+03  0.30803257232E+03  0.00000000000E+00 0.  1.
<mgrwt>
<rscale>  0 0.81375800E+02</rscale>
<asrwt>0</asrwt>
<pdfrwt beam="2">  1        2 0.19696523E+00 0.98576446E+02</pdfrwt>
<pdfrwt beam="1">  1       -3 0.19297608E+00 0.67176502E+02</pdfrwt>
<totfact> 0.21809586E+00</totfact>
</mgrwt>
</event>
<event>
13    1  0.2038932E-008  0.1736704E+03  0.7546771E-02  0.1215868E+00
          2   -1    0    0  503    0  0.00000000000E+00  0.00000000000E+00  0.22997284824E+04  0.22997284824E+04  0.00000000000E+00 0. -1.
          2   -1    0    0  502    0 -0.00000000000E+00 -0.00000000000E+00 -0.22128309530E+04  0.22128309530E+04  0.00000000000E+00 0. -1.
         24    2    1    2    0    0 -0.24744514955E+03  0.53407430592E+02 -0.39336626159E+03  0.47456632955E+03  0.79967053901E+02 0.  0.
         25    2    1    2    0    0  0.39904143603E+03  0.14380319033E+03  0.41669406063E+03  0.60759447029E+03  0.12499469966E+03 0.  0.
         24    2    1    2    0    0  0.98767739612E+02  0.10055579889E+03 -0.38398254965E+03  0.41704986092E+03  0.81372310874E+02 0.  0.
        -11    1    5    5    0    0  0.25781048938E+02 -0.72339672870E+01 -0.31758719148E+02  0.41540450274E+02  0.00000000000E+00 0.  1.
         12    1    5    5    0    0  0.72986690674E+02  0.10778976618E+03 -0.35222383050E+03  0.37550941065E+03  0.00000000000E+00 0. -1.
        -11    1    3    3    0    0 -0.23037260352E+03  0.66150506789E+02 -0.33103561263E+03  0.40869548912E+03  0.00000000000E+00 0.  1.
         12    1    3    3    0    0 -0.17072546027E+02 -0.12743076197E+02 -0.62330648957E+02  0.65870840425E+02  0.00000000000E+00 0. -1.
          5    1    4    4  501    0  0.30093735268E+02  0.24827286718E+02  0.98502530828E+02  0.10605124067E+03  0.47000000000E+01 0.  1.
         -5    1    4    4    0  501  0.36894770077E+03  0.11897590361E+03  0.31819152980E+03  0.50154322962E+03  0.47000000000E+01 0.  1.
          1    1    1    2  502    0 -0.20370578760E+03 -0.19830431330E+03 -0.12653672312E+04  0.12969097418E+04  0.00000000000E+00 0. -1.
          1    1    1    2  503    0 -0.46658238492E+02 -0.99462106513E+02  0.17129195112E+04  0.17164390329E+04  0.00000000000E+00 0. -1.
<mgrwt>
<rscale>  0 0.13812967E+03</rscale>
<asrwt>0</asrwt>
<pdfrwt beam="1">  1        2 0.33819537E+00 0.10986219E+03</pdfrwt>
<pdfrwt beam="2">  1        2 0.32541632E+00 0.17367035E+03</pdfrwt>
<totfact> 0.68701672E+00</totfact>
</mgrwt>
</event>
<event>
13    1  0.6791829E-008  0.1310307E+03  0.7546771E-02  0.1282370E+00
          2   -1    0    0  502    0  0.00000000000E+00  0.00000000000E+00  0.28176314527E+04  0.28176314527E+04  0.00000000000E+00 0. -1.
          2   -1    0    0  503    0 -0.00000000000E+00 -0.00000000000E+00 -0.42546416383E+04  0.42546416383E+04  0.00000000000E+00 0. -1.
         24    2    1    2    0    0 -0.30019107621E+02  0.44004345037E+02 -0.43332716018E+02  0.10505846387E+03  0.79511177506E+02 0.  0.
         25    2    1    2    0    0 -0.99576641046E+02  0.94756450079E+02 -0.29937917972E+03  0.35234465899E+03  0.12499829278E+03 0.  0.
         24    2    1    2    0    0  0.26882220484E+02 -0.17216037171E+02  0.84172919528E+03  0.84623492505E+03  0.81157035909E+02 0.  0.
        -13    1    3    3    0    0 -0.49183268491E+02  0.21905137353E+02 -0.13091287322E+01  0.53856687235E+02  0.00000000000E+00 0.  1.
         14    1    3    3    0    0  0.19164160870E+02  0.22099207683E+02 -0.42023587286E+02  0.51201776634E+02  0.00000000000E+00 0. -1.
        -13    1    5    5    0    0 -0.23875547189E+02  0.13725892464E+02  0.29551639223E+03  0.29679686649E+03  0.00000000000E+00 0.  1.
         14    1    5    5    0    0  0.50757767673E+02 -0.30941929635E+02  0.54621280304E+03  0.54943805856E+03  0.00000000000E+00 0. -1.
          5    1    4    4  501    0 -0.32551778103E+01 -0.15980437022E+02  0.20056536525E+01  0.17090441673E+02  0.47000000000E+01 0. -1.
         -5    1    4    4    0  501 -0.96321463236E+02  0.11073688710E+03 -0.30138483337E+03  0.33525421732E+03  0.47000000000E+01 0. -1.
          1    1    1    2  502    0 -0.18882892317E+02 -0.72408081841E+02  0.19144564204E+04  0.19159182862E+04  0.00000000000E+00 0. -1.
          1    1    1    2  503    0  0.12159642050E+03 -0.49136676103E+02 -0.38504839055E+04  0.38527167569E+04  0.00000000000E+00 0. -1.
<mgrwt>
<rscale>  0 0.99020168E+02</rscale>
<asrwt>0</asrwt>
<pdfrwt beam="1">  1        2 0.41435757E+00 0.74829766E+02</pdfrwt>
<pdfrwt beam="2">  1        2 0.62568259E+00 0.13103066E+03</pdfrwt>
<totfact> 0.27136577E-01</totfact>
</mgrwt>
</event>
<event>
13    1  0.2038932E-008  0.4280725E+02  0.7546771E-02  0.1492009E+00
          2   -1    0    0  503    0  0.00000000000E+00  0.00000000000E+00  0.26579947709E+04  0.26579947709E+04  0.00000000000E+00 0. -1.
          2   -1    0    0  502    0 -0.00000000000E+00 -0.00000000000E+00 -0.71614215725E+03  0.71614215725E+03  0.00000000000E+00 0. -1.
         24    2    1    2    0    0 -0.96628260478E+02 -0.16789676059E+03  0.23008090420E+03  0.31723444910E+03  0.10086689385E+03 0.  0.
         25    2    1    2    0    0  0.81758907646E+03  0.34556866038E+03  0.40274746466E+03  0.98269999829E+03  0.12499667738E+03 0.  0.
         24    2    1    2    0    0 -0.69431392463E+03 -0.10500088956E+03  0.67376444724E+03  0.97667062585E+03  0.82643622216E+02 0.  0.
        -11    1    5    5    0    0 -0.21202787378E+03 -0.70409684865E+02  0.22123939149E+03  0.31442043720E+03  0.00000000000E+00 0.  1.
         12    1    5    5    0    0 -0.48228605085E+03 -0.34591204692E+02  0.45252505575E+03  0.66225018865E+03  0.00000000000E+00 0. -1.
        -13    1    3    3    0    0 -0.22740183202E+02 -0.12955869521E+03  0.16811707405E+03  0.21346175776E+03  0.00000000000E+00 0.  1.
         14    1    3    3    0    0 -0.73888077276E+02 -0.38338065378E+02  0.61963830149E+02  0.10377269134E+03  0.00000000000E+00 0. -1.
          5    1    4    4  501    0  0.16557678358E+03  0.25278278527E+02  0.10405443702E+03  0.19724116834E+03  0.47000000000E+01 0.  1.
         -5    1    4    4    0  501  0.65201229288E+03  0.32029038185E+03  0.29869302764E+03  0.78545882995E+03  0.47000000000E+01 0.  1.
          1    1    1    2  502    0  0.24639994586E+01 -0.42704978581E+02 -0.22864777807E+03  0.23261468764E+03  0.00000000000E+00 0. -1.
          1    1    1    2  503    0 -0.29110890815E+02 -0.29966031653E+02  0.86390757567E+03  0.86491716731E+03  0.00000000000E+00 0. -1.
<mgrwt>
<rscale>  0 0.42289527E+02</rscale>
<asrwt>0</asrwt>
<pdfrwt beam="1">  1        2 0.39088158E+00 0.41778069E+02</pdfrwt>
<pdfrwt beam="2">  1        2 0.10531502E+00 0.42807246E+02</pdfrwt>
<totfact> 0.35008815E+01</totfact>
</mgrwt>
</event>
<event>
13    1  0.2038932E-008  0.3092315E+02  0.7546771E-02  0.1614462E+00
          2   -1    0    0  503    0  0.00000000000E+00  0.00000000000E+00  0.11890065018E+03  0.11890065018E+03  0.00000000000E+00 0. -1.
          2   -1    0    0  502    0 -0.00000000000E+00 -0.00000000000E+00 -0.38001425626E+04  0.38001425626E+04  0.00000000000E+00 0. -1.
         24    2    1    2    0    0  0.13342879157E+03 -0.17947695901E+03 -0.20296778272E+04  0.20436633742E+04  0.83382754085E+02 0.  0.
         25    2    1    2    0    0 -0.17994741916E+03  0.15785145448E+03 -0.23218489031E+03  0.35613621284E+03  0.12500009385E+03 0.  0.
         24    2    1    2    0    0  0.75835389538E+02  0.19994853853E+02 -0.46146893747E+03  0.47525936325E+03  0.82262273354E+02 0.  0.
        -11    1    5    5    0    0 -0.99328591662E+01 -0.16917182685E+02 -0.10141169794E+03  0.10329174817E+03  0.00000000000E+00 0.  1.
         12    1    5    5    0    0  0.85768248704E+02  0.36912036539E+02 -0.36005723953E+03  0.37196761508E+03  0.00000000000E+00 0. -1.
        -11    1    3    3    0    0 -0.55672043071E+01 -0.20984657356E+02 -0.90818855344E+02  0.93377803006E+02  0.00000000000E+00 0.  1.
         12    1    3    3    0    0  0.13899599588E+03 -0.15849230165E+03 -0.19388589718E+04  0.19502855712E+04  0.00000000000E+00 0. -1.
          5    1    4    4  501    0 -0.51548084939E+02  0.26892679421E+02 -0.13818901309E+03  0.14999571530E+03  0.47000000000E+01 0. -1.
         -5    1    4    4    0  501 -0.12839933422E+03  0.13095877506E+03 -0.93995877211E+02  0.20614049754E+03  0.47000000000E+01 0. -1.
          1    1    1    2  502    0 -0.17762308640E+02  0.25362199230E+02 -0.99663703620E+03  0.99711790812E+03  0.00000000000E+00 0. -1.
          1    1    1    2  503    0 -0.11554453311E+02 -0.23731548557E+02  0.38726778692E+02  0.46866354414E+02  0.00000000000E+00 0. -1.
<mgrwt>
<rscale>  0 0.28569462E+02</rscale>
<asrwt>0</asrwt>
<pdfrwt beam="1">  1        2 0.17485389E-01 0.26394920E+02</pdfrwt>
<pdfrwt beam="2">  1        2 0.55884452E+00 0.30923154E+02</pdfrwt>
<totfact> 0.57726004E+01</totfact>
</mgrwt>
</event>
<event>
13    1  0.2038932E-008  0.2311787E+03  0.7546771E-02  0.1140206E+00
          2   -1    0    0  503    0  0.00000000000E+00  0.00000000000E+00  0.90668442437E+03  0.90668442437E+03  0.00000000000E+00 0. -1.
          2   -1    0    0  502    0 -0.00000000000E+00 -0.00000000000E+00 -0.33695539177E+04  0.33695539177E+04  0.00000000000E+00 0. -1.
         24    2    1    2    0    0 -0.42177542876E+03  0.71668392320E+01 -0.14426353471E+04  0.15053304004E+04  0.82927642076E+02 0.  0.
         25    2    1    2    0    0  0.32276247123E+03 -0.38251121791E+03 -0.63512751126E+02  0.51975846785E+03  0.12499820273E+03 0.  0.
         24    2    1    2    0    0  0.77370848792E+02  0.75531231333E+02 -0.26597912101E+03  0.29786126233E+03  0.79279402330E+02 0.  0.
        -13    1    5    5    0    0  0.52779399472E+01  0.59104865051E+02 -0.13469717897E+03  0.14718889817E+03  0.00000000000E+00 0.  1.
         14    1    5    5    0    0  0.72092908844E+02  0.16426366283E+02 -0.13128194204E+03  0.15067236415E+03  0.00000000000E+00 0. -1.
        -13    1    3    3    0    0 -0.11202323856E+03  0.38577233997E+02 -0.41156266519E+03  0.42827705558E+03  0.00000000000E+00 0.  1.
         14    1    3    3    0    0 -0.30975219020E+03 -0.31410394765E+02 -0.10310726819E+04  0.10770533449E+04  0.00000000000E+00 0. -1.
          5    1    4    4  501    0  0.98528994161E+02 -0.20760486363E+03 -0.80981855705E+01  0.22999002740E+03  0.47000000000E+01 0. -1.
         -5    1    4    4    0  501  0.22423347707E+03 -0.17490635428E+03 -0.55414565556E+02  0.28976844045E+03  0.47000000000E+01 0. -1.
          1    1    1    2  502    0  0.19044538508E+03  0.14181256528E+03 -0.12896360013E+04  0.13113128019E+04  0.00000000000E+00 0. -1.
          1    1    1    2  503    0 -0.16880327634E+03  0.15800058207E+03  0.59889372724E+03  0.64197540963E+03  0.00000000000E+00 0. -1.
<mgrwt>
<rscale>  0 0.21172623E+03</rscale>
<asrwt>0</asrwt>
<pdfrwt beam="1">  1        2 0.13333594E+00 0.23117868E+03</pdfrwt>
<pdfrwt beam="2">  1        2 0.49552264E+00 0.19391060E+03</pdfrwt>
<totfact> 0.81329404E+00</totfact>
</mgrwt>
</event>
<event>
13    1  0.2038932E-008  0.1294861E+03  0.7546771E-02  0.1399039E+00
          2   -1    0    0  502    0  0.00000000000E+00  0.00000000000E+00  0.12953418290E+04  0.12953418290E+04  0.00000000000E+00 0. -1.
          2   -1    0    0  503    0 -0.00000000000E+00 -0.00000000000E+00 -0.32354731956E+04  0.32354731956E+04  0.00000000000E+00 0. -1.
         24    2    1    2    0    0 -0.47740820868E+03 -0.24099035827E+03 -0.64890459923E+03  0.84453690137E+03  0.78552201628E+02 0.  0.
         25    2    1    2    0    0  0.91922183697E+03 -0.16860019484E+03 -0.44547226731E+03  0.10428158640E+04  0.12499829589E+03 0.  0.
         24    2    1    2    0    0 -0.56292233978E+03  0.35977544868E+03 -0.51083322061E+03  0.84602441479E+03  0.92123813583E+02 0.  0.
        -11    1    3    3    0    0 -0.21974374744E+03 -0.10290459692E+03 -0.35500689608E+03  0.43000763583E+03  0.00000000000E+00 0.  1.
         12    1    3    3    0    0 -0.25766446124E+03 -0.13808576135E+03 -0.29389770314E+03  0.41452926554E+03  0.00000000000E+00 0. -1.
        -13    1    5    5    0    0 -0.41976630412E+03  0.28947159713E+03 -0.34318677487E+03  0.61463380810E+03  0.00000000000E+00 0.  1.
         14    1    5    5    0    0 -0.14315603566E+03  0.70303851559E+02 -0.16764644575E+03  0.23139060669E+03  0.00000000000E+00 0. -1.
          5    1    4    4  501    0  0.78079487830E+03 -0.18294786994E+03 -0.35691248032E+03  0.87779221556E+03  0.47000000000E+01 0. -1.
         -5    1    4    4    0  501  0.13842695867E+03  0.14347675095E+02 -0.88559786994E+02  0.16502364843E+03  0.47000000000E+01 0. -1.
          1    1    1    2  502    0  0.10674126589E+03  0.73307112441E+02  0.72534565375E+03  0.73681337393E+03  0.00000000000E+00 0. -1.
          1    1    1    2  503    0  0.14367445596E+02 -0.23492008011E+02 -0.10602669332E+04  0.10606244706E+04  0.00000000000E+00 0. -1.
<mgrwt>
<rscale>  0 0.59713357E+02</rscale>
<asrwt>0</asrwt>
<pdfrwt beam="1">  1        2 0.19049145E+00 0.12948607E+03</pdfrwt>
<pdfrwt beam="2">  1        2 0.47580487E+00 0.27537210E+02</pdfrwt>
<totfact> 0.84783446E+00</totfact>
</mgrwt>
</event>
<event>
13    1  0.2038932E-008  0.1491342E+03  0.7546771E-02  0.1230162E+00
          2   -1    0    0  502    0  0.00000000000E+00  0.00000000000E+00  0.11162893387E+04  0.11162893387E+04  0.00000000000E+00 0. -1.
          4   -1    0    0  503    0 -0.00000000000E+00 -0.00000000000E+00 -0.34395270869E+04  0.34395270869E+04  0.00000000000E+00 0. -1.
         24    2    1    2    0    0 -0.14304858071E+03 -0.98047396483E+01 -0.13041395964E+04  0.13144842965E+04  0.80807484118E+02 0.  0.
         25    2    1    2    0    0  0.21298165115E+03  0.16837215480E+03 -0.18846007199E+03  0.35334437713E+03  0.12499873551E+03 0.  0.
         24    2    1    2    0    0 -0.74259061015E+02 -0.11120637896E+03  0.19104308846E+03  0.24811215095E+03  0.84740255695E+02 0.  0.
        -11    1    5    5    0    0 -0.13530833224E+02 -0.77152187561E+02  0.56365332585E+02  0.96501783458E+02  0.00000000000E+00 0.  1.
         12    1    5    5    0    0 -0.60728227792E+02 -0.34054191396E+02  0.13467775588E+03  0.15161036749E+03  0.00000000000E+00 0. -1.
        -13    1    3    3    0    0 -0.50609314885E+02  0.27541020983E+02 -0.67949013417E+03  0.68192862752E+03  0.00000000000E+00 0.  1.
         14    1    3    3    0    0 -0.92439265824E+02 -0.37345760631E+02 -0.62464946218E+03  0.63255566894E+03  0.00000000000E+00 0. -1.
          5    1    4    4  501    0  0.20703555174E+03  0.18669663582E+03 -0.17933554689E+03  0.33151573399E+03  0.47000000000E+01 0. -1.
         -5    1    4    4    0  501  0.59460994137E+01 -0.18324481020E+02 -0.91245251019E+01  0.21828643138E+02  0.47000000000E+01 0. -1.
          1    1    1    2  502    0 -0.76692091520E+02  0.79124930912E+02  0.80224363233E+03  0.80977606609E+03  0.00000000000E+00 0. -1.
          3    1    1    2  503    0  0.81018082094E+02 -0.12648596710E+03 -0.18239248006E+04  0.18300995349E+04  0.00000000000E+00 0. -1.
<mgrwt>
<rscale>  0 0.12819322E+03</rscale>
<asrwt>0</asrwt>
<pdfrwt beam="1">  1        2 0.16416020E+00 0.11019270E+03</pdfrwt>
<pdfrwt beam="2">  1        4 0.50581281E+00 0.14913421E+03</pdfrwt>
<totfact> 0.21003237E-02</totfact>
</mgrwt>
</event>
<event>
13    1  0.2038932E-008  0.1218627E+03  0.7546771E-02  0.1339393E+00
          2   -1    0    0  503    0  0.00000000000E+00  0.00000000000E+00  0.36210218562E+04  0.36210218562E+04  0.00000000000E+00 0. -1.
          2   -1    0    0  502    0 -0.00000000000E+00 -0.00000000000E+00 -0.60055496949E+03  0.60055496949E+03  0.00000000000E+00 0. -1.
         24    2    1    2    0    0  0.27995401846E+03  0.13189842382E+03  0.98586014684E+02  0.33447933747E+03  0.79911064611E+02 0.  0.
         25    2    1    2    0    0 -0.87353416912E+02  0.52195018199E+02  0.45527855992E+02  0.16749067691E+03  0.12500160723E+03 0.  0.
         24    2    1    2    0    0 -0.80917510157E+02 -0.81339775995E+02  0.11599859633E+04  0.11683464984E+04  0.79387043080E+02 0.  0.
        -11    1    3    3    0    0 -0.42400330872E+01  0.30548724370E+01 -0.33581490583E+01  0.62118669726E+01  0.00000000000E+00 0.  1.
         12    1    3    3    0    0  0.28419405155E+03  0.12884355138E+03  0.10194416374E+03  0.32826747050E+03  0.00000000000E+00 0. -1.
        -11    1    5    5    0    0 -0.77330447476E+02 -0.22756917538E+02  0.70327154097E+03  0.70787621499E+03  0.00000000000E+00 0.  1.
         12    1    5    5    0    0 -0.35870626815E+01 -0.58582858458E+02  0.45671442236E+03  0.46047028342E+03  0.00000000000E+00 0. -1.
          5    1    4    4  501    0 -0.60324650334E+02  0.47838977367E+02  0.87824374032E+02  0.11688815966E+03  0.47000000000E+01 0. -1.
         -5    1    4    4    0  501 -0.27028766578E+02  0.43560408319E+01 -0.42296518040E+02  0.50602517257E+02  0.47000000000E+01 0. -1.
          1    1    1    2  502    0 -0.10864906564E+03 -0.54870008639E+02 -0.40829743854E+03  0.42605414636E+03  0.00000000000E+00 0. -1.
          1    1    1    2  503    0 -0.30340257568E+01 -0.47883657385E+02  0.21246644912E+04  0.21252061665E+04  0.00000000000E+00 0. -1.
<mgrwt>
<rscale>  0 0.76465241E+02</rscale>
<asrwt>0</asrwt>
<pdfrwt beam="1">  1        2 0.53250320E+00 0.47979683E+02</pdfrwt>
<pdfrwt beam="2">  1        2 0.88316909E-01 0.12186269E+03</pdfrwt>
<totfact> 0.12496738E+01</totfact>
</mgrwt>
</event>
<event>
13    1  0.2038932E-008  0.8053702E+02  0.7546771E-02  0.1339770E+00
         -1   -1    0    0    0  501 -0.00000000000E+00  0.00000000000E+00  0.79199769319E+03  0.79199769319E+03  0.00000000000E+00 0.  1.
          2   -1    0    0  503    0  0.00000000000E+00 -0.00000000000E+00 -0.64818122999E+03  0.64818122999E+03  0.00000000000E+00 0. -1.
         24    2    1    2    0    0 -0.27135712177E+02  0.39884516798E+02  0.17812036642E+03  0.20155564856E+03  0.81059811115E+02 0.  0.
         25    2    1    2    0    0 -0.67694269708E+02 -0.11770149958E+03  0.13499053350E+03  0.22865521166E+03  0.12499841810E+03 0.  0.
         24    2    1    2    0    0  0.27068325110E+02  0.95794981692E+02  0.84833548157E+02  0.15081167057E+03  0.75086991864E+02 0.  0.
        -11    1    3    3    0    0 -0.31458526276E+02  0.56292342966E+02  0.17170602110E+03  0.18341598740E+03  0.00000000000E+00 0.  1.
         12    1    3    3    0    0  0.43228140996E+01 -0.16407826168E+02  0.64143453268E+01  0.18139661168E+02  0.00000000000E+00 0. -1.
        -13    1    5    5    0    0 -0.12059931193E+02  0.81569572886E+02  0.49260624167E+02  0.96050227769E+02  0.00000000000E+00 0.  1.
         14    1    5    5    0    0  0.39128256303E+02  0.14225408806E+02  0.35572923990E+02  0.54761442806E+02  0.00000000000E+00 0. -1.
          5    1    4    4  502    0 -0.86199721459E+02 -0.10805745017E+03  0.14883405160E+03  0.20317595683E+03  0.47000000000E+01 0. -1.
         -5    1    4    4    0  502  0.18505451751E+02 -0.96440494089E+01 -0.13843518094E+02  0.25479254831E+02  0.47000000000E+01 0. -1.
          1    1    1    2  503    0  0.60111699149E+02  0.53978692197E+02 -0.54931753570E+03  0.55522686410E+03  0.00000000000E+00 0. -1.
         -2    1    1    2    0  501  0.76499576261E+01 -0.71956691103E+02  0.29518955082E+03  0.30392952828E+03  0.00000000000E+00 0.  1.
<mgrwt>
<rscale>  0 0.76340264E+02</rscale>
<asrwt>0</asrwt>
<pdfrwt beam="2">  1        2 0.95320768E-01 0.80537024E+02</pdfrwt>
<pdfrwt beam="1">  1       -1 0.11647025E+00 0.72362195E+02</pdfrwt>
<totfact> 0.43818477E+01</totfact>
</mgrwt>
</event>
<event>
13    1  0.2038932E-008  0.1614307E+03  0.7546771E-02  0.1281603E+00
         -1   -1    0    0    0  501 -0.00000000000E+00  0.00000000000E+00  0.27456835073E+03  0.27456835073E+03  0.00000000000E+00 0.  1.
          2   -1    0    0  503    0  0.00000000000E+00 -0.00000000000E+00 -0.36202068911E+04  0.36202068911E+04  0.00000000000E+00 0. -1.
         24    2    1    2    0    0 -0.13302647986E+03  0.78066658383E+02 -0.13062213755E+04  0.13177112905E+04  0.79739048693E+02 0.  0.
         25    2    1    2    0    0 -0.23261466059E+03 -0.11701367889E+02 -0.12989490842E+04  0.13255717798E+04  0.12500127073E+03 0.  0.
         24    2    1    2    0    0  0.90045356560E+01 -0.24957759512E+02 -0.85513064652E+01  0.85236766941E+02  0.80549426901E+02 0.  0.
        -11    1    3    3    0    0  0.41944266353E+01 -0.70283535698E+01 -0.15572551300E+03  0.15594045776E+03  0.00000000000E+00 0.  1.
         12    1    3    3    0    0 -0.13722090650E+03  0.85095011953E+02 -0.11504958625E+04  0.11617708327E+04  0.00000000000E+00 0. -1.
        -11    1    5    5    0    0  0.29803197510E+02 -0.46036873570E+02 -0.92467147965E+01  0.55615879427E+02  0.00000000000E+00 0.  1.
         12    1    5    5    0    0 -0.20798661854E+02  0.21079114058E+02  0.69540833129E+00  0.29620887514E+02  0.00000000000E+00 0. -1.
          5    1    4    4  502    0 -0.12652042394E+03  0.53193982063E+02 -0.58910831927E+03  0.60490306598E+03  0.47000000000E+01 0.  1.
         -5    1    4    4    0  502 -0.10609423665E+03 -0.64895349952E+02 -0.70984076492E+03  0.72066871379E+03  0.47000000000E+01 0.  1.
          1    1    1    2  503    0  0.58311652971E+02  0.18518327872E+02 -0.84084026573E+03  0.84306318258E+03  0.00000000000E+00 0. -1.
         -2    1    1    2    0  501  0.29832495182E+03 -0.59925858855E+02  0.10892349143E+03  0.32319222210E+03  0.00000000000E+00 0.  1.
<mgrwt>
<rscale>  0 0.99380956E+02</rscale>
<asrwt>0</asrwt>
<pdfrwt beam="2">  1        2 0.53238329E+00 0.61181511E+02</pdfrwt>
<pdfrwt beam="1">  1       -1 0.40377705E-01 0.16143070E+03</pdfrwt>
<totfact> 0.98754405E+00</totfact>
</mgrwt>
</event>
<event>
13    1  0.2038932E-008  0.4706080E+02  0.7546771E-02  0.1465715E+00
          2   -1    0    0  502    0  0.00000000000E+00  0.00000000000E+00  0.13383989605E+04  0.13383989605E+04  0.00000000000E+00 0. -1.
          2   -1    0    0  503    0 -0.00000000000E+00 -0.00000000000E+00 -0.80908834848E+03  0.80908834848E+03  0.00000000000E+00 0. -1.
         24    2    1    2    0    0  0.34551443603E+02  0.12343249177E+03 -0.29921162044E+00  0.15349834425E+03  0.84452767145E+02 0.  0.
         25    2    1    2    0    0 -0.31889061608E+01 -0.69937840734E+02 -0.11561076794E+03  0.18409124537E+03  0.12498906460E+03 0.  0.
         24    2    1    2    0    0 -0.59335307874E+02 -0.25062304578E+02  0.67890123454E+03  0.68668520880E+03  0.80503986551E+02 0.  0.
        -11    1    3    3    0    0  0.28111699736E+02  0.27137503925E+02 -0.33468320276E+02  0.51447451282E+02  0.00000000000E+00 0.  1.
         12    1    3    3    0    0  0.64397438674E+01  0.96294987850E+02  0.33169108656E+02  0.10205089297E+03  0.00000000000E+00 0. -1.
        -13    1    5    5    0    0  0.14967276440E+02  0.10417542838E+02  0.74409134868E+02  0.76611121351E+02  0.00000000000E+00 0.  1.
         14    1    5    5    0    0 -0.74302584314E+02 -0.35479847416E+02  0.60449209968E+03  0.61007408745E+03  0.00000000000E+00 0. -1.
          5    1    4    4  501    0 -0.24973603907E+02  0.25842803049E+02 -0.62699197567E+02  0.72421065562E+02  0.47000000000E+01 0. -1.
         -5    1    4    4    0  501  0.21784697746E+02 -0.95780643783E+02 -0.52911570368E+02  0.11167017981E+03  0.47000000000E+01 0. -1.
          1    1    1    2  502    0  0.42781027793E+02  0.16274712179E+02  0.54284257299E+03  0.54476888829E+03  0.00000000000E+00 0. -1.
          1    1    1    2  503    0 -0.14808257362E+02 -0.44707058642E+02 -0.57652321597E+03  0.57844362226E+03  0.00000000000E+00 0. -1.
<mgrwt>
<rscale>  0 0.46411964E+02</rscale>
<asrwt>0</asrwt>
<pdfrwt beam="1">  1        2 0.19682338E+00 0.45772072E+02</pdfrwt>
<pdfrwt beam="2">  1        2 0.11898358E+00 0.47060802E+02</pdfrwt>
<totfact> 0.12530624E+02</totfact>
</mgrwt>
</event>
<event>
13    1  0.2506928E-008  0.8386386E+02  0.7546771E-02  0.1447439E+00
          2   -1    0    0  503    0  0.00000000000E+00  0.00000000000E+00  0.18151530556E+04  0.18151530556E+04  0.00000000000E+00 0. -1.
          2   -1    0    0  502    0 -0.00000000000E+00 -0.00000000000E+00 -0.35623267382E+04  0.35623267382E+04  0.00000000000E+00 0. -1.
         24    2    1    2    0    0  0.52266857696E+02 -0.89369141185E+02 -0.29042102992E+04  0.29071621463E+04  0.80222288002E+02 0.  0.
         25    2    1    2    0    0 -0.98222234248E+02  0.71508444692E+02  0.79775473723E+03  0.81657699894E+03  0.12499723782E+03 0.  0.
         24    2    1    2    0    0 -0.20549699570E+02 -0.36701040373E+02 -0.21172658433E+02  0.90731180160E+02  0.77553910741E+02 0.  0.
        -11    1    5    5    0    0 -0.47455977521E+02 -0.38241096165E+02 -0.11035104739E+02  0.61937264833E+02  0.00000000000E+00 0.  1.
         12    1    5    5    0    0  0.26906277950E+02  0.15400557924E+01 -0.10137553694E+02  0.28793915327E+02  0.00000000000E+00 0. -1.
        -11    1    3    3    0    0  0.66186916252E+01 -0.59117216554E+01 -0.27859549634E+02  0.29238844669E+02  0.00000000000E+00 0.  1.
         12    1    3    3    0    0  0.45648166071E+02 -0.83457419529E+02 -0.28763507495E+04  0.28779233017E+04  0.00000000000E+00 0. -1.
          5    1    4    4  501    0 -0.54645936494E+02  0.10340888586E+03  0.46922846527E+03  0.48360833189E+03  0.47000000000E+01 0. -1.
         -5    1    4    4    0  501 -0.43576297754E+02 -0.31900441167E+02  0.32852627196E+03  0.33296866705E+03  0.47000000000E+01 0. -1.
          1    1    1    2  502    0  0.65881782171E+01 -0.28601799801E+02 -0.58820757465E+03  0.58893940089E+03  0.00000000000E+00 0. -1.
          1    1    1    2  503    0  0.59916897905E+02  0.83163536667E+02  0.96866211239E+03  0.97407006754E+03  0.00000000000E+00 0. -1.
<mgrwt>
<rscale>  0 0.49613184E+02</rscale>
<asrwt>0</asrwt>
<pdfrwt beam="1">  1        2 0.26693427E+00 0.83863864E+02</pdfrwt>
<pdfrwt beam="2">  1        2 0.52387158E+00 0.29350759E+02</pdfrwt>
<totfact> 0.31772494E+00</totfact>
</mgrwt>
</event>
<event>
13    1  0.2038932E-008  0.1136200E+03  0.7546771E-02  0.1325251E+00
          2   -1    0    0  502    0  0.00000000000E+00  0.00000000000E+00  0.42514899975E+03  0.42514899975E+03  0.00000000000E+00 0. -1.
          2   -1    0    0  503    0 -0.00000000000E+00 -0.00000000000E+00 -0.25279390955E+04  0.25279390955E+04  0.00000000000E+00 0. -1.
         24    2    1    2    0    0 -0.17614255378E+03 -0.14311663732E+02 -0.74425484795E+02  0.20748729792E+03  0.79251517592E+02 0.  0.
         25    2    1    2    0    0  0.64970353422E+02  0.17622349515E+03 -0.59779362217E+03  0.63895292379E+03  0.12501102774E+03 0.  0.
         24    2    1    2    0    0  0.10508446953E+02 -0.23933597110E+02  0.16966200094E+02  0.85566894461E+02  0.79690632788E+02 0.  0.
        -11    1    5    5    0    0  0.25656983154E+02 -0.36462063409E+02 -0.15846061434E+02  0.47316598732E+02  0.00000000000E+00 0.  1.
         12    1    5    5    0    0 -0.15148536201E+02  0.12528466299E+02  0.32812261528E+02  0.38250295729E+02  0.00000000000E+00 0. -1.
        -13    1    3    3    0    0 -0.86722587114E+01 -0.11818403262E+02 -0.31258708137E+02  0.34525201827E+02  0.00000000000E+00 0.  1.
         14    1    3    3    0    0 -0.16747029507E+03 -0.24932604702E+01 -0.43166776658E+02  0.17296209609E+03  0.00000000000E+00 0. -1.
          5    1    4    4  501    0  0.12846270484E+01  0.15608481292E+03 -0.45931044783E+03  0.48513121584E+03  0.47000000000E+01 0. -1.
         -5    1    4    4    0  501  0.63685726373E+02  0.20138682227E+02 -0.13848317433E+03  0.15382170796E+03  0.47000000000E+01 0. -1.
          1    1    1    2  502    0  0.44276246833E+02 -0.12335949165E+03  0.27127740685E+03  0.30127957395E+03  0.00000000000E+00 0. -1.
          1    1    1    2  503    0  0.56387506570E+02 -0.14618742651E+02 -0.17188145957E+04  0.17198014051E+04  0.00000000000E+00 0. -1.
<mgrwt>
<rscale>  0 0.81354526E+02</rscale>
<asrwt>0</asrwt>
<pdfrwt beam="1">  1        2 0.62521911E-01 0.11362005E+03</pdfrwt>
<pdfrwt beam="2">  1        2 0.37175575E+00 0.58251683E+02</pdfrwt>
<totfact> 0.66740326E+01</totfact>
</mgrwt>
</event>
<event>
13    1  0.2038932E-008  0.8280753E+02  0.7546771E-02  0.1475540E+00
          2   -1    0    0  502    0  0.00000000000E+00  0.00000000000E+00  0.88151961795E+03  0.88151961795E+03  0.00000000000E+00 0. -1.
          2   -1    0    0  503    0 -0.00000000000E+00 -0.00000000000E+00 -0.22323672759E+04  0.22323672759E+04  0.00000000000E+00 0. -1.
         24    2    1    2    0    0 -0.18713916219E+02  0.25920754972E+02 -0.49112397244E+03  0.49877748019E+03  0.80957533586E+02 0.  0.
         25    2    1    2    0    0  0.14098590883E+03  0.13780644689E+03  0.40781858746E+03  0.46989994921E+03  0.12498927433E+03 0.  0.
         24    2    1    2    0    0 -0.85677653192E+02 -0.97111724716E+02 -0.55436819100E+01  0.14854360997E+03  0.72547393614E+02 0.  0.
        -13    1    3    3    0    0 -0.22505074815E+02 -0.26148715951E+02 -0.17441421801E+03  0.17779356901E+03  0.00000000000E+00 0.  1.
         14    1    3    3    0    0  0.37911585959E+01  0.52069470923E+02 -0.31670975443E+03  0.32098391118E+03  0.00000000000E+00 0. -1.
        -13    1    5    5    0    0 -0.98385772691E+02 -0.90998209088E+02 -0.21269311145E+01  0.13403342181E+03  0.00000000000E+00 0.  1.
         14    1    5    5    0    0  0.12708119499E+02 -0.61135156286E+01 -0.34167507955E+01  0.14510188164E+02  0.00000000000E+00 0. -1.
          5    1    4    4  501    0  0.46498261934E+00  0.29189520551E+02  0.54709229432E+01  0.30071004584E+02  0.47000000000E+01 0. -1.
         -5    1    4    4    0  501  0.14052092622E+03  0.10861692634E+03  0.40234766451E+03  0.43982894463E+03  0.47000000000E+01 0. -1.
          1    1    1    2  502    0 -0.91707580942E+01  0.22445440656E+02  0.36559930038E+03  0.36640244138E+03  0.00000000000E+00 0. -1.
          1    1    1    2  503    0 -0.27423581330E+02 -0.89060917801E+02 -0.16275978914E+04  0.16302634131E+04  0.00000000000E+00 0. -1.
<mgrwt>
<rscale>  0 0.44808551E+02</rscale>
<asrwt>0</asrwt>
<pdfrwt beam="1">  1        2 0.12963524E+00 0.24246662E+02</pdfrwt>
<pdfrwt beam="2">  1        2 0.32828930E+00 0.82807532E+02</pdfrwt>
<totfact> 0.41253601E+01</totfact>
</mgrwt>
</event>
<event>
13    1  0.2038932E-008  0.8054508E+02  0.7546771E-02  0.1349528E+00
          2   -1    0    0  502    0  0.00000000000E+00  0.00000000000E+00  0.19198301844E+04  0.19198301844E+04  0.00000000000E+00 0. -1.
          2   -1    0    0  503    0 -0.00000000000E+00 -0.00000000000E+00 -0.22500824917E+04  0.22500824917E+04  0.00000000000E+00 0. -1.
         24    2    1    2    0    0  0.15109872510E+03 -0.94788013858E+02 -0.56857493215E+03  0.60125834893E+03  0.80115893514E+02 0.  0.
         25    2    1    2    0    0 -0.14634260643E+03 -0.47238439878E+02  0.41577625623E+02  0.20248687800E+03  0.12499843258E+03 0.  0.
         24    2    1    2    0    0 -0.12459397238E+03  0.74726037942E+02 -0.22432167499E+03  0.27904897040E+03  0.80252572014E+02 0.  0.
        -11    1    5    5    0    0 -0.36847337891E+01 -0.55043832472E+01 -0.57785040335E+02  0.58163445433E+02  0.00000000000E+00 0.  1.
         12    1    5    5    0    0 -0.12090923859E+03  0.80230421189E+02 -0.16653663465E+03  0.22088552497E+03  0.00000000000E+00 0. -1.
        -13    1    3    3    0    0  0.35692548410E+02  0.20974573896E+01 -0.19829613721E+03  0.20149371050E+03  0.00000000000E+00 0.  1.
         14    1    3    3    0    0  0.11540617669E+03 -0.96885471248E+02 -0.37027879494E+03  0.39976463843E+03  0.00000000000E+00 0. -1.
          5    1    4    4  501    0 -0.86361516045E+02 -0.24513689863E+02 -0.40178330060E+02  0.98466342730E+02  0.47000000000E+01 0.  1.
         -5    1    4    4    0  501 -0.59981090387E+02 -0.22724750015E+02  0.81755955683E+02  0.10402053527E+03  0.47000000000E+01 0.  1.
          1    1    1    2  502    0  0.79148223313E+02  0.14663850380E+02  0.17523379703E+04  0.17541858032E+04  0.00000000000E+00 0. -1.
          1    1    1    2  503    0  0.40689630397E+02  0.52636565414E+02 -0.13312712961E+04  0.13329326757E+04  0.00000000000E+00 0. -1.
<mgrwt>
<rscale>  0 0.73202954E+02</rscale>
<asrwt>0</asrwt>
<pdfrwt beam="1">  1        2 0.28232797E+00 0.80545084E+02</pdfrwt>
<pdfrwt beam="2">  1        2 0.33089448E+00 0.66530099E+02</pdfrwt>
<totfact> 0.11607811E+01</totfact>
</mgrwt>
</event>
<event>
13    1  0.2038932E-008  0.9708870E+02  0.7546771E-02  0.1376867E+00
         -3   -1    0    0    0  501 -0.00000000000E+00  0.00000000000E+00  0.40606494767E+03  0.40606494767E+03  0.00000000000E+00 0.  1.
          2   -1    0    0  503    0  0.00000000000E+00 -0.00000000000E+00 -0.32461782412E+04  0.32461782412E+04  0.00000000000E+00 0. -1.
         24    2    1    2    0    0  0.92280897287E+02 -0.74338484745E+02 -0.25084314675E+02  0.14528570016E+03  0.80229280872E+02 0.  0.
         25    2    1    2    0    0  0.15571581280E+03 -0.37173692083E+01 -0.14779583685E+04  0.14913863999E+04  0.12494487405E+03 0.  0.
         24    2    1    2    0    0 -0.55271096965E+02 -0.46621309441E+01 -0.25323442200E+03  0.27203526771E+03  0.82455350136E+02 0.  0.
        -11    1    3    3    0    0  0.10395898739E+03 -0.78296301340E+02 -0.26681616371E+02  0.13285213779E+03  0.00000000000E+00 0.  1.
         12    1    3    3    0    0 -0.11678090099E+02  0.39578165955E+01  0.15973016957E+01  0.12433562372E+02  0.00000000000E+00 0. -1.
        -13    1    5    5    0    0 -0.11734350232E+02 -0.30018965738E+02 -0.18171510965E+03  0.18455138676E+03  0.00000000000E+00 0.  1.
         14    1    5    5    0    0 -0.43536746733E+02  0.25356834794E+02 -0.71519312353E+02  0.87483880951E+02  0.00000000000E+00 0. -1.
          5    1    4    4  502    0  0.12962205256E+02 -0.25851209603E+02 -0.66736918610E+03  0.66801199417E+03  0.47000000000E+01 0. -1.
         -5    1    4    4    0  502  0.14275360755E+03  0.22133840394E+02 -0.81058918243E+03  0.82337440574E+03  0.47000000000E+01 0. -1.
          1    1    1    2  503    0 -0.43058591810E+02  0.86167090926E+01 -0.13921782792E+04  0.13928706513E+04  0.00000000000E+00 0. -1.
         -4    1    1    2    0  501 -0.14966702131E+03  0.74101275805E+02  0.30834209087E+03  0.35066516986E+03  0.00000000000E+00 0.  1.
<mgrwt>
<rscale>  0 0.65294625E+02</rscale>
<asrwt>0</asrwt>
<pdfrwt beam="2">  1        2 0.47737917E+00 0.43912299E+02</pdfrwt>
<pdfrwt beam="1">  1       -3 0.59715432E-01 0.97088699E+02</pdfrwt>
<totfact> 0.41082154E+00</totfact>
</mgrwt>
</event>
<event>
13    1  0.2038932E-008  0.1356850E+03  0.7546771E-02  0.1301115E+00
          2   -1    0    0  503    0  0.00000000000E+00  0.00000000000E+00  0.13453086778E+04  0.13453086778E+04  0.00000000000E+00 0. -1.
          2   -1    0    0  502    0 -0.00000000000E+00 -0.00000000000E+00 -0.33747793357E+03  0.33747793357E+03  0.00000000000E+00 0. -1.
         24    2    1    2    0    0 -0.52443104280E+02 -0.22882433579E+02  0.11772677896E+02  0.99989808947E+02  0.81150976553E+02 0.  0.
         25    2    1    2    0    0 -0.69047995049E+02  0.11240890621E+03  0.89061528580E+03  0.90896844502E+03  0.12499863566E+03 0.  0.
         24    2    1    2    0    0  0.90917261213E+02  0.32649314617E+02  0.42428051534E+02  0.13489530180E+03  0.84051631507E+02 0.  0.
        -13    1    3    3    0    0  0.16112649036E+02 -0.16920022201E+02 -0.13138187695E+02  0.26805159692E+02  0.00000000000E+00 0.  1.
         14    1    3    3    0    0 -0.68555753315E+02 -0.59624113780E+01  0.24910865591E+02  0.73184649255E+02  0.00000000000E+00 0. -1.
        -13    1    5    5    0    0  0.40703898337E+02  0.37006355470E+02  0.60108687762E+02  0.81482096374E+02  0.00000000000E+00 0.  1.
         14    1    5    5    0    0  0.50213362876E+02 -0.43570408532E+01 -0.17680636228E+02  0.53413205425E+02  0.00000000000E+00 0. -1.
          5    1    4    4  501    0 -0.94589804372E+02  0.54479537245E+02  0.41526734947E+03  0.42939994481E+03  0.47000000000E+01 0.  1.
         -5    1    4    4    0  501  0.25541809323E+02  0.57929368960E+02  0.47534793634E+03  0.47956850021E+03  0.47000000000E+01 0.  1.
          1    1    1    2  502    0  0.67257486583E+02 -0.17048315403E+03 -0.19868061662E+03  0.27029994955E+03  0.00000000000E+00 0. -1.
          1    1    1    2  503    0 -0.36683648468E+02  0.48307366786E+02  0.26169534557E+03  0.26863310601E+03  0.00000000000E+00 0. -1.
<mgrwt>
<rscale>  0 0.90720834E+02</rscale>
<asrwt>0</asrwt>
<pdfrwt beam="1">  1        2 0.19783951E+00 0.60657166E+02</pdfrwt>
<pdfrwt beam="2">  1        2 0.49629108E-01 0.13568504E+03</pdfrwt>
<totfact> 0.31038923E+02</totfact>
</mgrwt>
</event>
<event>
13    1  0.2038932E-008  0.1223928E+03  0.7546771E-02  0.1423178E+00
          2   -1    0    0  503    0  0.00000000000E+00  0.00000000000E+00  0.34946341640E+04  0.34946341640E+04  0.00000000000E+00 0. -1.
          2   -1    0    0  502    0 -0.00000000000E+00 -0.00000000000E+00 -0.25976621366E+04  0.25976621366E+04  0.00000000000E+00 0. -1.
         24    2    1    2    0    0 -0.14693399961E+04  0.36275069810E+03 -0.80501565572E+03  0.17153889965E+04  0.62937349781E+02 0.  0.
         25    2    1    2    0    0  0.99683048922E+03 -0.27339701151E+03 -0.42316226260E+03  0.11238805128E+04  0.12499662577E+03 0.  0.
         24    2    1    2    0    0  0.58765541873E+03 -0.40003328493E+01  0.12857826202E+04  0.14159799827E+04  0.80046682408E+02 0.  0.
        -13    1    3    3    0    0 -0.90037954225E+03  0.23357822978E+03 -0.46218416782E+03  0.10386800829E+04  0.00000000000E+00 0.  1.
         14    1    3    3    0    0 -0.56896045388E+03  0.12917246832E+03 -0.34283148790E+03  0.67670891360E+03  0.00000000000E+00 0. -1.
        -13    1    5    5    0    0  0.45257012856E+03  0.11196339699E+02  0.91050147620E+03  0.10168372620E+04  0.00000000000E+00 0.  1.
         14    1    5    5    0    0  0.13508529016E+03 -0.15196672549E+02  0.37528114398E+03  0.39914272072E+03  0.00000000000E+00 0. -1.
          5    1    4    4  501    0  0.16832136529E+03 -0.16303479510E+01 -0.85182097755E+02  0.18871359205E+03  0.47000000000E+01 0.  1.
         -5    1    4    4    0  501  0.82850912393E+03 -0.27176666356E+03 -0.33798016484E+03  0.93516692076E+03  0.47000000000E+01 0.  1.
          1    1    1    2  502    0 -0.10668015202E+02 -0.21653119848E+02 -0.49574819243E+03  0.49633550593E+03  0.00000000000E+00 0. -1.
          1    1    1    2  503    0 -0.10447789661E+03 -0.63700233892E+02  0.13351155180E+04  0.13407113027E+04  0.00000000000E+00 0. -1.
<mgrwt>
<rscale>  0 0.54354120E+02</rscale>
<asrwt>0</asrwt>
<pdfrwt beam="1">  1        2 0.51391679E+00 0.12239278E+03</pdfrwt>
<pdfrwt beam="2">  1        2 0.38200914E+00 0.24138437E+02</pdfrwt>
<totfact> 0.13262523E+00</totfact>
</mgrwt>
</event>
<event>
13    1  0.2038932E-008  0.2512094E+02  0.7546771E-02  0.1664814E+00
          2   -1    0    0  503    0  0.00000000000E+00  0.00000000000E+00  0.88567656057E+03  0.88567656057E+03  0.00000000000E+00 0. -1.
          2   -1    0    0  502    0 -0.00000000000E+00 -0.00000000000E+00 -0.14228821892E+04  0.14228821892E+04  0.00000000000E+00 0. -1.
         24    2    1    2    0    0  0.15115233129E+03 -0.39999115644E+02 -0.73673674754E+03  0.75740826158E+03  0.80245143315E+02 0.  0.
         25    2    1    2    0    0 -0.10226682304E+03  0.24629514829E+01 -0.74726760231E+01  0.16169610096E+03  0.12500087581E+03 0.  0.
         24    2    1    2    0    0 -0.49076654370E+02  0.54380586546E+02 -0.21746004749E+03  0.24369248596E+03  0.82045044118E+02 0.  0.
        -13    1    3    3    0    0 -0.91268386786E+01 -0.39768231910E+01 -0.71403895114E+02  0.72094594419E+02  0.00000000000E+00 0.  1.
         14    1    3    3    0    0  0.16027916997E+03 -0.36022292453E+02 -0.66533285243E+03  0.68531366716E+03  0.00000000000E+00 0. -1.
        -13    1    5    5    0    0 -0.19584846196E+02  0.72492475898E+02 -0.14047659763E+03  0.15928716127E+03  0.00000000000E+00 0.  1.
         14    1    5    5    0    0 -0.29491808175E+02 -0.18111889352E+02 -0.76983449859E+02  0.84405324698E+02  0.00000000000E+00 0. -1.
          5    1    4    4  501    0  0.57407095376E+01 -0.71086786375E+01 -0.45537154004E+02  0.46682024943E+02  0.47000000000E+01 0. -1.
         -5    1    4    4    0  501 -0.10800753258E+03  0.95716301204E+01  0.38064477981E+02  0.11501407601E+03  0.47000000000E+01 0. -1.
          1    1    1    2  502    0  0.23320738692E+02 -0.70331216686E+01 -0.36003640422E+03  0.36085943804E+03  0.00000000000E+00 0. -1.
          1    1    1    2  503    0 -0.23129592568E+02 -0.98113007164E+01  0.78450024669E+03  0.78490246320E+03  0.00000000000E+00 0. -1.
<mgrwt>
<rscale>  0 0.24736628E+02</rscale>
<asrwt>0</asrwt>
<pdfrwt beam="1">  1        2 0.13024655E+00 0.25120940E+02</pdfrwt>
<pdfrwt beam="2">  1        2 0.20924738E+00 0.24358195E+02</pdfrwt>
<totfact> 0.11066891E+02</totfact>
</mgrwt>
</event>
<event>
13    1  0.2038932E-008  0.2487092E+03  0.7546771E-02  0.1333734E+00
          2   -1    0    0  502    0  0.00000000000E+00  0.00000000000E+00  0.14027538936E+04  0.14027538936E+04  0.00000000000E+00 0. -1.
          2   -1    0    0  503    0 -0.00000000000E+00 -0.00000000000E+00 -0.10798087014E+04  0.10798087014E+04  0.00000000000E+00 0. -1.
         24    2    1    2    0    0 -0.22532612615E+03 -0.26668972646E+03  0.74793295527E+02  0.36590084334E+03  0.79963221427E+02 0.  0.
         25    2    1    2    0    0 -0.12855501430E+03 -0.13285108491E+03 -0.62032666313E+03  0.65924661834E+03  0.12500052933E+03 0.  0.
         24    2    1    2    0    0  0.78782203683E+02  0.86994880541E+02  0.16070537309E+03  0.21533194150E+03  0.82261067537E+02 0.  0.
        -11    1    5    5    0    0  0.52398639709E+02  0.16310764804E+02  0.11420372837E+03  0.12670497254E+03  0.00000000000E+00 0.  1.
         12    1    5    5    0    0  0.26383563974E+02  0.70684115737E+02  0.46501644713E+02  0.88626968957E+02  0.00000000000E+00 0. -1.
        -13    1    3    3    0    0 -0.32952772069E+02 -0.32503679330E+02  0.39377798196E+02  0.60769937863E+02  0.00000000000E+00 0.  1.
         14    1    3    3    0    0 -0.19237335408E+03 -0.23418604713E+03  0.35415497331E+02  0.30513090548E+03  0.00000000000E+00 0. -1.
          5    1    4    4  501    0 -0.87524765626E+02 -0.11817900340E+03 -0.58421523255E+03  0.60245862048E+03  0.47000000000E+01 0.  1.
         -5    1    4    4    0  501 -0.41030248675E+02 -0.14672081509E+02 -0.36111430577E+02  0.56787997856E+02  0.47000000000E+01 0.  1.
          1    1    1    2  502    0  0.25114796161E+03  0.30652317016E+03  0.93396075452E+03  0.10145513508E+04  0.00000000000E+00 0. -1.
          1    1    1    2  503    0  0.23950975149E+02  0.60227606722E+01 -0.22618756784E+03  0.22753184107E+03  0.00000000000E+00 0. -1.
<mgrwt>
<rscale>  0 0.78372666E+02</rscale>
<asrwt>0</asrwt>
<pdfrwt beam="1">  1        2 0.20628734E+00 0.24870916E+03</pdfrwt>
<pdfrwt beam="2">  1        2 0.15879540E+00 0.24696616E+02</pdfrwt>
<totfact> 0.74932815E+01</totfact>
</mgrwt>
</event>
<event>
13    1  0.2038932E-008  0.4808484E+02  0.7546771E-02  0.1514969E+00
          2   -1    0    0  503    0  0.00000000000E+00  0.00000000000E+00  0.29234395985E+04  0.29234395985E+04  0.00000000000E+00 0. -1.
         -1   -1    0    0    0  501 -0.00000000000E+00 -0.00000000000E+00 -0.26759021014E+04  0.26759021014E+04  0.00000000000E+00 0.  1.
         24    2    1    2    0    0 -0.78832263449E+03 -0.96430708801E+02 -0.18030992863E+04  0.19718978439E+04  0.80390377748E+02 0.  0.
         25    2    1    2    0    0  0.65163495379E+03  0.40859752561E+03  0.38304430681E+03  0.86829008617E+03  0.12499872731E+03 0.  0.
         24    2    1    2    0    0  0.16762107435E+03 -0.32575253174E+03  0.16470671505E+04  0.16898049423E+04  0.91646103231E+02 0.  0.
        -11    1    5    5    0    0  0.93543227775E+02 -0.11163170943E+03  0.51023659438E+03  0.53061601583E+03  0.00000000000E+00 0.  1.
         12    1    5    5    0    0  0.74077846574E+02 -0.21412082231E+03  0.11368305561E+04  0.11591889264E+04  0.00000000000E+00 0. -1.
        -11    1    3    3    0    0 -0.38263829493E+03 -0.63165321718E+02 -0.78912730454E+03  0.87927460180E+03  0.00000000000E+00 0.  1.
         12    1    3    3    0    0 -0.40568433956E+03 -0.33265387083E+02 -0.10139719818E+04  0.10926232421E+04  0.00000000000E+00 0. -1.
          5    1    4    4  502    0  0.26275936496E+03  0.98926712367E+02  0.16247584724E+03  0.32442174593E+03  0.47000000000E+01 0.  1.
         -5    1    4    4    0  502  0.38887558883E+03  0.30967081325E+03  0.22056845956E+03  0.54386834024E+03  0.47000000000E+01 0.  1.
          1    1    1    2  503    0 -0.10561704988E+02 -0.29982146302E+02  0.54336884015E+03  0.54429787356E+03  0.00000000000E+00 0. -1.
         -2    1    1    2    0  501 -0.20371688665E+02  0.43567861225E+02 -0.52284351395E+03  0.52505095401E+03  0.00000000000E+00 0.  1.
<mgrwt>
<rscale>  0 0.39096322E+02</rscale>
<asrwt>0</asrwt>
<pdfrwt beam="1">  1        2 0.42991759E+00 0.31788028E+02</pdfrwt>
<pdfrwt beam="2">  1       -1 0.39351501E+00 0.48084845E+02</pdfrwt>
<totfact> 0.56665408E-02</totfact>
</mgrwt>
</event>
<event>
13    1  0.2038932E-008  0.1241724E+03  0.7546771E-02  0.1258183E+00
          2   -1    0    0  502    0  0.00000000000E+00  0.00000000000E+00  0.17523064284E+04  0.17523064284E+04  0.00000000000E+00 0. -1.
          2   -1    0    0  503    0 -0.00000000000E+00 -0.00000000000E+00 -0.19980751148E+04  0.19980751148E+04  0.00000000000E+00 0. -1.
         24    2    1    2    0    0 -0.27200004105E+02 -0.12421401692E+03 -0.42460894703E+03  0.44996405395E+03  0.77497933676E+02 0.  0.
         25    2    1    2    0    0  0.19747565843E+03 -0.85228432334E+02  0.36311714247E+03  0.44014744990E+03  0.12496078244E+03 0.  0.
         24    2    1    2    0    0 -0.35183529111E+01 -0.25108176465E+02  0.63757384718E+02  0.10526990008E+03  0.79837011612E+02 0.  0.
        -13    1    3    3    0    0 -0.21121762584E+02 -0.10455133420E+03 -0.41253904697E+03  0.42610512273E+03  0.00000000000E+00 0.  1.
         14    1    3    3    0    0 -0.60782415202E+01 -0.19662682715E+02 -0.12069900059E+02  0.23858931220E+02  0.00000000000E+00 0. -1.
        -13    1    5    5    0    0 -0.83296099176E+01  0.96961214501E+01 -0.14594403962E+02  0.19400871103E+02  0.00000000000E+00 0.  1.
         14    1    5    5    0    0  0.48112570065E+01 -0.34804297915E+02  0.78351788680E+02  0.85869028972E+02  0.00000000000E+00 0. -1.
          5    1    4    4  501    0  0.79161340474E+02 -0.23307356096E+02  0.25562689197E+03  0.26865767916E+03  0.47000000000E+01 0.  1.
         -5    1    4    4    0  501  0.11831431795E+03 -0.61921076238E+02  0.10749025049E+03  0.17148977073E+03  0.47000000000E+01 0.  1.
          1    1    1    2  502    0 -0.86002288226E+02  0.17595713211E+03  0.12441566928E+04  0.12594773448E+04  0.00000000000E+00 0. -1.
          1    1    1    2  503    0 -0.80755013185E+02  0.58593493607E+02 -0.14921909593E+04  0.14955227945E+04  0.00000000000E+00 0. -1.
<mgrwt>
<rscale>  0 0.11129926E+03</rscale>
<asrwt>0</asrwt>
<pdfrwt beam="1">  1        2 0.25769213E+00 0.12417239E+03</pdfrwt>
<pdfrwt beam="2">  1        2 0.29383457E+00 0.99760708E+02</pdfrwt>
<totfact> 0.16918737E+01</totfact>
</mgrwt>
</event>
<event>
13    1  0.2038932E-008  0.1407679E+03  0.7546771E-02  0.1360993E+00
          2   -1    0    0  503    0  0.00000000000E+00  0.00000000000E+00  0.20568725571E+04  0.20568725571E+04  0.00000000000E+00 0. -1.
          2   -1    0    0  502    0 -0.00000000000E+00 -0.00000000000E+00 -0.74993529119E+03  0.74993529119E+03  0.00000000000E+00 0. -1.
         24    2    1    2    0    0  0.13258147137E+03  0.36113965669E+02 -0.12594007803E+02  0.16026973032E+03  0.81521238688E+02 0.  0.
         25    2    1    2    0    0  0.14421555181E+02  0.80889281422E+00  0.87323960080E+03  0.88225947115E+03  0.12500295383E+03 0.  0.
         24    2    1    2    0    0 -0.71260331887E+02  0.77142536423E+02  0.56363629444E+02  0.14417286708E+03  0.81116897455E+02 0.  0.
        -11    1    5    5    0    0 -0.19447592410E+02  0.73345385239E+02  0.52104442137E+02  0.92046875432E+02  0.00000000000E+00 0.  1.
         12    1    5    5    0    0 -0.51812739477E+02  0.37971511847E+01  0.42591873077E+01  0.52125991653E+02  0.00000000000E+00 0. -1.
        -13    1    3    3    0    0  0.31908715517E+02  0.23884561017E+02  0.30391772264E+02  0.50122831148E+02  0.00000000000E+00 0.  1.
         14    1    3    3    0    0  0.10067275585E+03  0.12229404652E+02 -0.42985780068E+02  0.11014689917E+03  0.00000000000E+00 0. -1.
          5    1    4    4  501    0  0.10269455332E+02  0.17232985765E+02  0.86001087353E+03  0.86025765333E+03  0.47000000000E+01 0. -1.
         -5    1    4    4    0  501  0.41520998489E+01 -0.16424092951E+02  0.13228727265E+02  0.22001817822E+02  0.47000000000E+01 0. -1.
          1    1    1    2  502    0 -0.51159769538E+02 -0.13833818673E+03 -0.60594291401E+03  0.62363578391E+03  0.00000000000E+00 0. -1.
          1    1    1    2  503    0 -0.24582925126E+02  0.24272791820E+02  0.99587095744E+03  0.99646999579E+03  0.00000000000E+00 0. -1.
<mgrwt>
<rscale>  0 0.69735902E+02</rscale>
<asrwt>0</asrwt>
<pdfrwt beam="1">  1        2 0.30248126E+00 0.34546905E+02</pdfrwt>
<pdfrwt beam="2">  1        2 0.11028460E+00 0.14076792E+03</pdfrwt>
<totfact> 0.62894394E+01</totfact>
</mgrwt>
</event>
<event>
13    1  0.2038932E-008  0.1166211E+03  0.7546771E-02  0.1274810E+00
          2   -1    0    0  502    0  0.00000000000E+00  0.00000000000E+00  0.15008922606E+04  0.15008922606E+04  0.00000000000E+00 0. -1.
          2   -1    0    0  503    0 -0.00000000000E+00 -0.00000000000E+00 -0.49240087057E+04  0.49240087057E+04  0.00000000000E+00 0. -1.
         24    2    1    2    0    0 -0.18071544368E+03 -0.27281443371E+03 -0.10133803154E+04  0.10676554737E+04  0.76568662971E+02 0.  0.
         25    2    1    2    0    0 -0.13169815133E+03 -0.15747923273E+03  0.34049869222E+03  0.41678428257E+03  0.12500266795E+03 0.  0.
         24    2    1    2    0    0  0.42212244578E+03  0.55569443521E+03 -0.98620456116E+03  0.12095334865E+04  0.58207850388E+02 0.  0.
        -13    1    5    5    0    0  0.14163825177E+03  0.22100891511E+03 -0.33798166879E+03  0.42794619213E+03  0.00000000000E+00 0.  1.
         14    1    5    5    0    0  0.28048419401E+03  0.33468552011E+03 -0.64822289236E+03  0.78158729432E+03  0.00000000000E+00 0. -1.
        -13    1    3    3    0    0 -0.14237965155E+03 -0.23154296440E+03 -0.73542201365E+03  0.78404696779E+03  0.00000000000E+00 0.  1.
         14    1    3    3    0    0 -0.38335792127E+02 -0.41271469303E+02 -0.27795830175E+03  0.28360850595E+03  0.00000000000E+00 0. -1.
          5    1    4    4  501    0  0.23586369261E+02 -0.24054774762E+02  0.66705074100E+02  0.74877272349E+02  0.47000000000E+01 0.  1.
         -5    1    4    4    0  501 -0.15528452059E+03 -0.13342445797E+03  0.27379361812E+03  0.34190701022E+03  0.47000000000E+01 0.  1.
          1    1    1    2  502    0 -0.19964654758E+02 -0.11485795781E+03  0.97924729268E+03  0.98616235891E+03  0.00000000000E+00 0. -1.
          1    1    1    2  503    0 -0.89744196011E+02 -0.10542810966E+02 -0.27432775534E+04  0.27447653646E+04  0.00000000000E+00 0. -1.
<mgrwt>
<rscale>  0 0.10265495E+03</rscale>
<asrwt>0</asrwt>
<pdfrwt beam="1">  1        2 0.22071945E+00 0.11662111E+03</pdfrwt>
<pdfrwt beam="2">  1        2 0.72411892E+00 0.90361339E+02</pdfrwt>
<totfact> 0.34790156E-01</totfact>
</mgrwt>
</event>
<event>
13    1  0.2038932E-008  0.7578836E+02  0.7546771E-02  0.1407173E+00
          2   -1    0    0  502    0  0.00000000000E+00  0.00000000000E+00  0.88722297137E+03  0.88722297137E+03  0.00000000000E+00 0. -1.
          2   -1    0    0  503    0 -0.00000000000E+00 -0.00000000000E+00 -0.23337358332E+04  0.23337358332E+04  0.00000000000E+00 0. -1.
         24    2    1    2    0    0  0.62207629486E+02  0.26085933727E+02 -0.13607169667E+04  0.13647234386E+04  0.79806861474E+02 0.  0.
         25    2    1    2    0    0 -0.84770419499E+02 -0.11626374408E+03  0.36820746417E+03  0.41461142466E+03  0.12499045794E+03 0.  0.
         24    2    1    2    0    0  0.34138419583E+02 -0.14111999379E+02 -0.21068318045E+02  0.92610134734E+02  0.82268966276E+02 0.  0.
        -11    1    5    5    0    0 -0.23088858646E+02  0.11907314999E+02 -0.13543084403E+02  0.29296666691E+02  0.00000000000E+00 0.  1.
         12    1    5    5    0    0  0.57227278229E+02 -0.26019314379E+02 -0.75252336415E+01  0.63313468043E+02  0.00000000000E+00 0. -1.
        -13    1    3    3    0    0  0.16307154357E+02 -0.21785670898E+02 -0.17030826933E+03  0.17246867931E+03  0.00000000000E+00 0.  1.
         14    1    3    3    0    0  0.45900475129E+02  0.47871604625E+02 -0.11904086974E+04  0.11922547593E+04  0.00000000000E+00 0. -1.
          5    1    4    4  501    0 -0.35193539564E+02 -0.79341382888E+02  0.74648782510E+02  0.11457823090E+03  0.47000000000E+01 0.  1.
         -5    1    4    4    0  501 -0.49576879935E+02 -0.36922361196E+02  0.29355868166E+03  0.30003319376E+03  0.47000000000E+01 0.  1.
          1    1    1    2  502    0 -0.35237799045E+02  0.67044399070E+02  0.45435626379E+03  0.46062595278E+03  0.00000000000E+00 0. -1.
          1    1    1    2  503    0  0.23662169476E+02  0.37245410666E+02 -0.88729130498E+03  0.88838785379E+03  0.00000000000E+00 0. -1.
<mgrwt>
<rscale>  0 0.57829491E+02</rscale>
<asrwt>0</asrwt>
<pdfrwt beam="1">  1        2 0.13047397E+00 0.75788360E+02</pdfrwt>
<pdfrwt beam="2">  1        2 0.34319645E+00 0.44126170E+02</pdfrwt>
<totfact> 0.37815720E+01</totfact>
</mgrwt>
</event>
<event>
13    1  0.2038932E-008  0.4664626E+02  0.7546771E-02  0.1467447E+00
         -1   -1    0    0    0  501 -0.00000000000E+00  0.00000000000E+00  0.25958907550E+04  0.25958907550E+04  0.00000000000E+00 0.  1.
          2   -1    0    0  503    0  0.00000000000E+00 -0.00000000000E+00 -0.78082649329E+03  0.78082649329E+03  0.00000000000E+00 0. -1.
         24    2    1    2    0    0  0.26650024833E+02 -0.55060733380E+02  0.63604961334E+03  0.64396171861E+03  0.79910426239E+02 0.  0.
         25    2    1    2    0    0 -0.39887971265E+01  0.47828391365E+02 -0.15534460396E+03  0.20509302580E+03  0.12501095044E+03 0.  0.
         24    2    1    2    0    0 -0.67605222399E+01  0.36086697398E+02  0.14769637051E+04  0.14793274667E+04  0.75100020480E+02 0.  0.
        -11    1    3    3    0    0  0.19021483494E+02 -0.68885923896E+02  0.33692313572E+03  0.34441876652E+03  0.00000000000E+00 0.  1.
         12    1    3    3    0    0  0.76285413391E+01  0.13825190516E+02  0.29912647762E+03  0.29954295209E+03  0.00000000000E+00 0. -1.
        -13    1    5    5    0    0 -0.15402199217E+01  0.45658731983E+02  0.45142032845E+03  0.45372613438E+03  0.00000000000E+00 0.  1.
         14    1    5    5    0    0 -0.52203023183E+01 -0.95720345848E+01  0.10255433767E+04  0.10256013323E+04  0.00000000000E+00 0. -1.
          5    1    4    4  502    0  0.40889141028E+02 -0.14319888334E+02 -0.10385772304E+03  0.11262991473E+03  0.47000000000E+01 0. -1.
         -5    1    4    4    0  502 -0.44877938155E+02  0.62148279699E+02 -0.51486880914E+02  0.92463111070E+02  0.47000000000E+01 0. -1.
          1    1    1    2  503    0  0.29059254212E+02 -0.36507373527E+02 -0.59340334241E+03  0.59523504211E+03  0.00000000000E+00 0. -1.
         -2    1    1    2    0  501 -0.44959959680E+02  0.76530181433E+01  0.45079888959E+03  0.45309999505E+03  0.00000000000E+00 0.  1.
<mgrwt>
<rscale>  0 0.46123529E+02</rscale>
<asrwt>0</asrwt>
<pdfrwt beam="2">  1        2 0.11482743E+00 0.46646265E+02</pdfrwt>
<pdfrwt beam="1">  1       -1 0.38174864E+00 0.45606652E+02</pdfrwt>
<totfact> 0.72935568E-01</totfact>
</mgrwt>
</event>
<event>
13    1  0.2038932E-008  0.6488385E+02  0.7546771E-02  0.1494809E+00
          2   -1    0    0  503    0  0.00000000000E+00  0.00000000000E+00  0.77203720470E+03  0.77203720470E+03  0.00000000000E+00 0. -1.
          2   -1    0    0  502    0 -0.00000000000E+00 -0.00000000000E+00 -0.16084871005E+04  0.16084871005E+04  0.00000000000E+00 0. -1.
         24    2    1    2    0    0  0.13380156894E+03  0.34439687600E+02 -0.25327996160E+02  0.16269708373E+03  0.82096782714E+02 0.  0.
         25    2    1    2    0    0 -0.14090145859E+03 -0.49560136441E+02  0.14800957816E+03  0.24462476652E+03  0.12500005204E+03 0.  0.
         24    2    1    2    0    0  0.20520521389E+01 -0.35130561214E+02  0.52862404306E+02  0.10662544777E+03  0.85651532817E+02 0.  0.
        -11    1    3    3    0    0  0.53479604736E+02 -0.14071864828E+02 -0.39279881274E+02  0.67830631541E+02  0.00000000000E+00 0.  1.
         12    1    3    3    0    0  0.80321964208E+02  0.48511552428E+02  0.13951885114E+02  0.94866452192E+02  0.00000000000E+00 0. -1.
        -11    1    5    5    0    0 -0.20867584295E+02  0.21507652840E+02  0.26786420548E+02  0.40193874294E+02  0.00000000000E+00 0.  1.
         12    1    5    5    0    0  0.22919636434E+02 -0.56638214054E+02  0.26075983758E+02  0.66431573476E+02  0.00000000000E+00 0. -1.
          5    1    4    4  501    0 -0.58251887105E+02  0.10627336683E+02 -0.60056658115E+01  0.59702434272E+02  0.47000000000E+01 0. -1.
         -5    1    4    4    0  501 -0.82649571485E+02 -0.60187473124E+02  0.15401524397E+03  0.18492233225E+03  0.47000000000E+01 0. -1.
          1    1    1    2  502    0  0.24214522154E+02 -0.12018479327E+02 -0.14366739702E+04  0.14369282806E+04  0.00000000000E+00 0. -1.
          1    1    1    2  503    0 -0.19166684648E+02  0.62269489383E+02  0.42468008805E+03  0.42964872663E+03  0.00000000000E+00 0. -1.
<mgrwt>
<rscale>  0 0.41880900E+02</rscale>
<asrwt>0</asrwt>
<pdfrwt beam="1">  1        2 0.11353488E+00 0.64883851E+02</pdfrwt>
<pdfrwt beam="2">  1        2 0.23654222E+00 0.27033071E+02</pdfrwt>
<totfact> 0.10213951E+02</totfact>
</mgrwt>
</event>
<event>
13    1  0.2038932E-008  0.3591435E+03  0.7546771E-02  0.1176703E+00
          2   -1    0    0  503    0  0.00000000000E+00  0.00000000000E+00  0.29429509392E+04  0.29429509392E+04  0.00000000000E+00 0. -1.
         -1   -1    0    0    0  501 -0.00000000000E+00 -0.00000000000E+00 -0.21720115739E+04  0.21720115739E+04  0.00000000000E+00 0.  1.
         24    2    1    2    0    0  0.31972751636E+03  0.11230448115E+03 -0.45330293726E+03  0.57160460092E+03  0.80064259612E+02 0.  0.
         25    2    1    2    0    0  0.51131564465E+01 -0.47558942824E+03  0.20099084333E+04  0.20691950172E+04  0.12499864236E+03 0.  0.
         24    2    1    2    0    0 -0.35270577168E+01 -0.22426124501E+03 -0.15700262516E+03  0.28575571474E+03  0.81859379714E+02 0.  0.
        -11    1    3    3    0    0  0.35548648745E+02 -0.62714577463E+01 -0.24234672634E+02  0.43478235562E+02  0.00000000000E+00 0.  1.
         12    1    3    3    0    0  0.28417886761E+03  0.11857593889E+03 -0.42906826463E+03  0.52812636536E+03  0.00000000000E+00 0. -1.
        -13    1    5    5    0    0 -0.16113373512E+02 -0.25228469325E+02 -0.52916777921E+02  0.60797219147E+02  0.00000000000E+00 0.  1.
         14    1    5    5    0    0  0.12586315795E+02 -0.19903277568E+03 -0.10408584724E+03  0.22495849559E+03  0.00000000000E+00 0. -1.
          5    1    4    4  502    0 -0.21877591272E+02 -0.41325602325E+03  0.15511793815E+04  0.16054403550E+04  0.47000000000E+01 0. -1.
         -5    1    4    4    0  502  0.26990747719E+02 -0.62333404988E+02  0.45872905176E+03  0.46375466226E+03  0.47000000000E+01 0. -1.
          1    1    1    2  503    0  0.71340943439E+02  0.39438029113E+02  0.69667239378E+03  0.70142520101E+03  0.00000000000E+00 0. -1.
         -2    1    1    2    0  501 -0.39265455853E+03  0.54810816299E+03 -0.13253358992E+04  0.14869819792E+04  0.00000000000E+00 0.  1.
<mgrwt>
<rscale>  0 0.17110232E+03</rscale>
<asrwt>0</asrwt>
<pdfrwt beam="1">  1        2 0.43278690E+00 0.81516185E+02</pdfrwt>
<pdfrwt beam="2">  1       -1 0.31941347E+00 0.35914347E+03</pdfrwt>
<totfact> 0.10438482E-01</totfact>
</mgrwt>
</event>
<event>
13    1  0.2038932E-008  0.3849549E+02  0.7546771E-02  0.1538385E+00
          2   -1    0    0  502    0  0.00000000000E+00  0.00000000000E+00  0.14423901775E+04  0.14423901775E+04  0.00000000000E+00 0. -1.
          2   -1    0    0  503    0 -0.00000000000E+00 -0.00000000000E+00 -0.43662372739E+03  0.43662372739E+03  0.00000000000E+00 0. -1.
         24    2    1    2    0    0 -0.24228559527E+02 -0.33881956911E+02 -0.95939497369E+02  0.13274027265E+03  0.81734831784E+02 0.  0.
         25    2    1    2    0    0 -0.80052741348E+02 -0.17224360060E+02  0.25394188278E+03  0.29464528825E+03  0.12499698428E+03 0.  0.
         24    2    1    2    0    0  0.93411813478E+02  0.74217732556E+01 -0.11136717729E+03  0.16405121035E+03  0.75692151660E+02 0.  0.
        -11    1    5    5    0    0  0.50265603486E+02  0.40764225477E+02 -0.48779080656E+02  0.81041666334E+02  0.00000000000E+00 0.  1.
         12    1    5    5    0    0  0.43146209992E+02 -0.33342452222E+02 -0.62588096634E+02  0.83009544012E+02  0.00000000000E+00 0. -1.
        -13    1    3    3    0    0 -0.52472094204E+02 -0.35450071739E+02 -0.63068906507E+02  0.89374018732E+02  0.00000000000E+00 0.  1.
         14    1    3    3    0    0  0.28243534677E+02  0.15681148281E+01 -0.32870590863E+02  0.43366253917E+02  0.00000000000E+00 0. -1.
          5    1    4    4  501    0 -0.20659315274E+02  0.11872314802E+02 -0.71088119616E+01  0.25305816996E+02  0.47000000000E+01 0.  1.
         -5    1    4    4    0  501 -0.59393426074E+02 -0.29096674862E+02  0.26105069474E+03  0.26933947125E+03  0.47000000000E+01 0.  1.
          1    1    1    2  502    0 -0.21128073614E+02  0.32190798833E+02  0.11212604350E+04  0.11219213904E+04  0.00000000000E+00 0. -1.
          1    1    1    2  503    0  0.31997561010E+02  0.11493744883E+02 -0.16212919298E+03  0.16565574333E+03  0.00000000000E+00 0. -1.
<mgrwt>
<rscale>  0 0.36177597E+02</rscale>
<asrwt>0</asrwt>
<pdfrwt beam="1">  1        2 0.21211620E+00 0.38495493E+02</pdfrwt>
<pdfrwt beam="2">  1        2 0.64209372E-01 0.33999266E+02</pdfrwt>
<totfact> 0.22051787E+02</totfact>
</mgrwt>
</event>
<event>
13    1  0.2038932E-008  0.6949894E+02  0.7546771E-02  0.1443758E+00
          2   -1    0    0  502    0  0.00000000000E+00  0.00000000000E+00  0.45286786915E+03  0.45286786915E+03  0.00000000000E+00 0. -1.
          2   -1    0    0  503    0 -0.00000000000E+00 -0.00000000000E+00 -0.14947201613E+04  0.14947201613E+04  0.00000000000E+00 0. -1.
         24    2    1    2    0    0 -0.39117694379E+02 -0.24032894086E+02 -0.76629592031E+03  0.77198734600E+03  0.81530674562E+02 0.  0.
         25    2    1    2    0    0  0.11704396449E+03  0.11032099076E+02  0.23735511563E+02  0.17323087574E+03  0.12499825986E+03 0.  0.
         24    2    1    2    0    0  0.19713031225E+02  0.52076978185E+02 -0.44289286570E+02  0.10724850954E+03  0.80250150385E+02 0.  0.
        -11    1    3    3    0    0 -0.11045648332E+02  0.35160495460E+01 -0.12063627774E+02  0.16730214181E+02  0.00000000000E+00 0.  1.
         12    1    3    3    0    0 -0.28072046047E+02 -0.27548943632E+02 -0.75423229254E+03  0.75525713182E+03  0.00000000000E+00 0. -1.
        -11    1    5    5    0    0  0.39490290075E+02  0.45697803939E+02 -0.23491809299E+01  0.60442459795E+02  0.00000000000E+00 0.  1.
         12    1    5    5    0    0 -0.19777258849E+02  0.63791742461E+01 -0.41940105640E+02  0.46806049746E+02  0.00000000000E+00 0. -1.
          5    1    4    4  501    0  0.37426891378E+02  0.42771327048E+02 -0.37087412320E+02  0.68027382489E+02  0.47000000000E+01 0.  1.
         -5    1    4    4    0  501  0.79617073112E+02 -0.31739227972E+02  0.60822923883E+02  0.10520349325E+03  0.47000000000E+01 0.  1.
          1    1    1    2  502    0 -0.66159768682E+02 -0.20805969002E+02  0.31571569967E+03  0.32324357125E+03  0.00000000000E+00 0. -1.
          1    1    1    2  503    0 -0.31479532654E+02 -0.18270214174E+02 -0.57071829646E+03  0.57187772786E+03  0.00000000000E+00 0. -1.
<mgrwt>
<rscale>  0 0.50294851E+02</rscale>
<asrwt>0</asrwt>
<pdfrwt beam="1">  1        2 0.66598216E-01 0.69498939E+02</pdfrwt>
<pdfrwt beam="2">  1        2 0.21981179E+00 0.36397276E+02</pdfrwt>
<totfact> 0.20104345E+02</totfact>
</mgrwt>
</event>
<event>
13    1  0.2038932E-008  0.2282723E+02  0.7546771E-02  0.1694604E+00
          2   -1    0    0  502    0  0.00000000000E+00  0.00000000000E+00  0.10798090414E+04  0.10798090414E+04  0.00000000000E+00 0. -1.
          2   -1    0    0  503    0 -0.00000000000E+00 -0.00000000000E+00 -0.66528726184E+03  0.66528726184E+03  0.00000000000E+00 0. -1.
         24    2    1    2    0    0 -0.68911620795E+03  0.11016414489E+03  0.34024881294E+03  0.77915988089E+03  0.65601664638E+02 0.  0.
         25    2    1    2    0    0  0.42784428421E+03  0.63103629606E+02  0.44270411484E+02  0.45234596459E+03  0.12499681094E+03 0.  0.
         24    2    1    2    0    0  0.22388235706E+03 -0.17350094263E+03 -0.12015745829E+02  0.29498814962E+03  0.81533694726E+02 0.  0.
        -13    1    5    5    0    0  0.17907468434E+03 -0.94689265515E+02  0.55468493942E+01  0.20264394171E+03  0.00000000000E+00 0.  1.
         14    1    5    5    0    0  0.44807672724E+02 -0.78811677112E+02 -0.17562595224E+02  0.92344207913E+02  0.00000000000E+00 0. -1.
        -13    1    3    3    0    0 -0.49479544574E+03  0.65750851428E+02  0.27214951148E+03  0.56851654698E+03  0.00000000000E+00 0.  1.
         14    1    3    3    0    0 -0.19432076221E+03  0.44413293460E+02  0.68099301451E+02  0.21064333391E+03  0.00000000000E+00 0. -1.
          5    1    4    4  501    0  0.24884127748E+03  0.12316052015E+02  0.82190318582E+02  0.26239475030E+03  0.47000000000E+01 0.  1.
         -5    1    4    4    0  501  0.17900300673E+03  0.50787577591E+02 -0.37919907098E+02  0.18995121429E+03  0.47000000000E+01 0.  1.
          1    1    1    2  502    0  0.18625659347E+02  0.13173465613E+02  0.12781218302E+03  0.12983223603E+03  0.00000000000E+00 0. -1.
          1    1    1    2  503    0  0.18763907338E+02 -0.12940297480E+02 -0.85793882019E+02  0.88770072149E+02  0.00000000000E+00 0. -1.
<mgrwt>
<rscale>  0 0.22810272E+02</rscale>
<asrwt>0</asrwt>
<pdfrwt beam="1">  1        2 0.15879545E+00 0.22827234E+02</pdfrwt>
<pdfrwt beam="2">  1        2 0.97836361E-01 0.22793322E+02</pdfrwt>
<totfact> 0.22400395E+02</totfact>
</mgrwt>
</event>
<event>
13    1  0.2038932E-008  0.8229649E+02  0.7546771E-02  0.1377809E+00
          2   -1    0    0  503    0  0.00000000000E+00  0.00000000000E+00  0.18159455204E+04  0.18159455204E+04  0.00000000000E+00 0. -1.
          2   -1    0    0  502    0 -0.00000000000E+00 -0.00000000000E+00 -0.48393789385E+03  0.48393789385E+03  0.00000000000E+00 0. -1.
         24    2    1    2    0    0 -0.80415425172E+02  0.74283863051E+02 -0.15699422521E+03  0.20705464963E+03  0.78991824077E+02 0.  0.
         25    2    1    2    0    0  0.15042469082E+03 -0.31494129234E+02 -0.22376655167E+01  0.19811415255E+03  0.12499897003E+03 0.  0.
         24    2    1    2    0    0  0.16126903761E+02 -0.60867556403E+02  0.18536308028E+02  0.10302305717E+03  0.79405410056E+02 0.  0.
        -11    1    3    3    0    0 -0.73870192992E+02  0.15088726104E+02 -0.85003556982E+02  0.11362253195E+03  0.00000000000E+00 0.  1.
         12    1    3    3    0    0 -0.65452321794E+01  0.59195136947E+02 -0.71990668226E+02  0.93432117679E+02  0.00000000000E+00 0. -1.
        -11    1    5    5    0    0 -0.21967345590E+02  0.72185422996E+01  0.15366685559E+01  0.23173971940E+02  0.00000000000E+00 0.  1.
         12    1    5    5    0    0  0.38094249351E+02 -0.68086098702E+02  0.16999639472E+02  0.79849085231E+02  0.00000000000E+00 0. -1.
          5    1    4    4  501    0  0.11465614233E+02 -0.96559599819E+01  0.46570064098E+02  0.49148334082E+02  0.47000000000E+01 0. -1.
         -5    1    4    4    0  501  0.13895907658E+03 -0.21838169252E+02 -0.48807729615E+02  0.14896581847E+03  0.47000000000E+01 0. -1.
          1    1    1    2  502    0 -0.56803286836E+02  0.60294755884E+02 -0.14830316702E+03  0.16987024557E+03  0.00000000000E+00 0. -1.
          1    1    1    2  503    0 -0.29332882571E+02 -0.42216933298E+02  0.16210063762E+04  0.16218213093E+04  0.00000000000E+00 0. -1.
<mgrwt>
<rscale>  0 0.65043229E+02</rscale>
<asrwt>0</asrwt>
<pdfrwt beam="1">  1        2 0.26705081E+00 0.51407076E+02</pdfrwt>
<pdfrwt beam="2">  1        2 0.71167338E-01 0.82296485E+02</pdfrwt>
<totfact> 0.12836244E+02</totfact>
</mgrwt>
</event>
<event>
13    1  0.2038932E-008  0.1170640E+03  0.7546771E-02  0.1341235E+00
          2   -1    0    0  503    0  0.00000000000E+00  0.00000000000E+00  0.15472722217E+04  0.15472722217E+04  0.00000000000E+00 0. -1.
         -1   -1    0    0    0  501 -0.00000000000E+00 -0.00000000000E+00 -0.28233275619E+03  0.28233275619E+03  0.00000000000E+00 0.  1.
         24    2    1    2    0    0  0.20304531399E+03 -0.45763667296E+02  0.20279892367E+03  0.30128665563E+03  0.79526930274E+02 0.  0.
         25    2    1    2    0    0 -0.30556389775E+03  0.26196879420E+03  0.33132832939E+03  0.53610163381E+03  0.12501821936E+03 0.  0.
         24    2    1    2    0    0  0.11989683490E+03 -0.93328542447E+02  0.49617909092E+03  0.52711993823E+03  0.92608159212E+02 0.  0.
        -11    1    5    5    0    0  0.10807494492E+03 -0.46772184060E+02  0.42671049350E+03  0.44266203382E+03  0.00000000000E+00 0.  1.
         12    1    5    5    0    0  0.11821889975E+02 -0.46556358387E+02  0.69468597420E+02  0.84457904404E+02  0.00000000000E+00 0. -1.
        -13    1    3    3    0    0  0.16108870637E+03 -0.11261450711E+02  0.11575947548E+03  0.19868731151E+03  0.00000000000E+00 0.  1.
         14    1    3    3    0    0  0.41956607628E+02 -0.34502216585E+02  0.87039448187E+02  0.10259934412E+03  0.00000000000E+00 0. -1.
          5    1    4    4  502    0 -0.67207182788E+02  0.12761285751E+03  0.14803591173E+03  0.20673308391E+03  0.47000000000E+01 0.  1.
         -5    1    4    4    0  502 -0.23835671496E+03  0.13435593669E+03  0.18329241766E+03  0.32936854990E+03  0.47000000000E+01 0.  1.
          1    1    1    2  503    0 -0.60949545541E+02 -0.10011979980E+03  0.33414451562E+03  0.35410645113E+03  0.00000000000E+00 0. -1.
         -2    1    1    2    0  501  0.43571294400E+02 -0.22756784660E+02 -0.99511394085E+02  0.11099029911E+03  0.00000000000E+00 0.  1.
<mgrwt>
<rscale>  0 0.75857867E+02</rscale>
<asrwt>0</asrwt>
<pdfrwt beam="1">  1        2 0.22754003E+00 0.11706396E+03</pdfrwt>
<pdfrwt beam="2">  1       -1 0.41519524E-01 0.49156169E+02</pdfrwt>
<totfact> 0.99024847E+01</totfact>
</mgrwt>
</event>
<event>
13    1  0.2038932E-008  0.7852971E+02  0.7546771E-02  0.1417295E+00
          2   -1    0    0  503    0  0.00000000000E+00  0.00000000000E+00  0.34375571500E+04  0.34375571500E+04  0.00000000000E+00 0. -1.
          2   -1    0    0  502    0 -0.00000000000E+00 -0.00000000000E+00 -0.14314891778E+04  0.14314891778E+04  0.00000000000E+00 0. -1.
         24    2    1    2    0    0 -0.95012284407E+01  0.15489407044E+02 -0.54203274411E+03  0.54811182589E+03  0.79352901124E+02 0.  0.
         25    2    1    2    0    0 -0.89673879134E+02 -0.22925515349E+01  0.27770428170E+03  0.31747108689E+03  0.12498624944E+03 0.  0.
         24    2    1    2    0    0  0.10884710202E+02 -0.15783402344E+02 -0.46912855701E+02  0.91550652536E+02  0.76243775117E+02 0.  0.
        -11    1    5    5    0    0  0.36345406528E+01  0.30523885494E+02 -0.25850964229E+02  0.40164534393E+02  0.00000000000E+00 0.  1.
         12    1    5    5    0    0  0.72501695491E+01 -0.46307287839E+02 -0.21061891471E+02  0.51386118143E+02  0.00000000000E+00 0. -1.
        -11    1    3    3    0    0 -0.33306898457E+02 -0.88771001536E+01 -0.12425308446E+03  0.12894565285E+03  0.00000000000E+00 0.  1.
         12    1    3    3    0    0  0.23805670016E+02  0.24366507197E+02 -0.41777965965E+03  0.41916617303E+03  0.00000000000E+00 0. -1.
          5    1    4    4  501    0 -0.96213790047E+02  0.44644502690E+02  0.19544437573E+03  0.22242036557E+03  0.47000000000E+01 0. -1.
         -5    1    4    4    0  501  0.65399109135E+01 -0.46937054225E+02  0.82259905973E+02  0.95050721327E+02  0.47000000000E+01 0. -1.
          1    1    1    2  502    0  0.19042727299E+02 -0.34448674815E+02 -0.79632055735E+03  0.79729277353E+03  0.00000000000E+00 0. -1.
          1    1    1    2  503    0  0.69247670073E+02  0.37035221651E+02  0.31136298477E+04  0.31146199890E+04  0.00000000000E+00 0. -1.
<mgrwt>
<rscale>  0 0.55597267E+02</rscale>
<asrwt>0</asrwt>
<pdfrwt beam="1">  1        2 0.50552311E+00 0.78529709E+02</pdfrwt>
<pdfrwt beam="2">  1        2 0.21051312E+00 0.39361614E+02</pdfrwt>
<totfact> 0.50046380E+00</totfact>
</mgrwt>
</event>
<event>
13    1  0.2038932E-008  0.1054456E+03  0.7546771E-02  0.1291162E+00
          2   -1    0    0  503    0  0.00000000000E+00  0.00000000000E+00  0.32158291901E+04  0.32158291901E+04  0.00000000000E+00 0. -1.
         -1   -1    0    0    0  501 -0.00000000000E+00 -0.00000000000E+00 -0.47057654951E+03  0.47057654951E+03  0.00000000000E+00 0.  1.
         24    2    1    2    0    0  0.94252049714E+02  0.25321803303E+03 -0.17146881674E+03  0.32700515953E+03  0.67290401368E+02 0.  0.
         25    2    1    2    0    0 -0.13084136934E+03  0.98399509183E+02  0.92502767637E+03  0.94768293994E+03  0.12499930106E+03 0.  0.
         24    2    1    2    0    0 -0.14864393353E+03 -0.31215362410E+03  0.23949529520E+03  0.42832365791E+03  0.81044774616E+02 0.  0.
        -11    1    5    5    0    0 -0.90612832585E+02 -0.25201868257E+03  0.20768137482E+03  0.33890360759E+03  0.00000000000E+00 0.  1.
         12    1    5    5    0    0 -0.58031100940E+02 -0.60134941530E+02  0.31813920382E+02  0.89420050320E+02  0.00000000000E+00 0. -1.
        -13    1    3    3    0    0  0.79945743975E+02  0.25157130138E+03 -0.16088403543E+03  0.30913284282E+03  0.00000000000E+00 0.  1.
         14    1    3    3    0    0  0.14306305739E+02  0.16467316564E+01 -0.10584781315E+02  0.17872316708E+02  0.00000000000E+00 0. -1.
          5    1    4    4  502    0 -0.34266459575E+01  0.69019538283E+02  0.43536925717E+03  0.44084455158E+03  0.47000000000E+01 0.  1.
         -5    1    4    4    0  502 -0.12741472338E+03  0.29379970900E+02  0.48965841920E+03  0.50683838837E+03  0.47000000000E+01 0.  1.
          1    1    1    2  503    0  0.82741298457E+02 -0.21938574056E+02  0.18432180320E+04  0.18452046328E+04  0.00000000000E+00 0. -1.
         -2    1    1    2    0  501  0.10249195470E+03 -0.17525344062E+02 -0.91019546297E+02  0.13818934934E+03  0.00000000000E+00 0.  1.
<mgrwt>
<rscale>  0 0.95006202E+02</rscale>
<asrwt>0</asrwt>
<pdfrwt beam="1">  1        2 0.47291605E+00 0.85600371E+02</pdfrwt>
<pdfrwt beam="2">  1       -1 0.69202435E-01 0.10544555E+03</pdfrwt>
<totfact> 0.58615578E+00</totfact>
</mgrwt>
</event>
<event>
13    1  0.2038932E-008  0.6073576E+02  0.7546771E-02  0.1435214E+00
          2   -1    0    0  503    0  0.00000000000E+00  0.00000000000E+00  0.20198470737E+04  0.20198470737E+04  0.00000000000E+00 0. -1.
          2   -1    0    0  502    0 -0.00000000000E+00 -0.00000000000E+00 -0.18737556666E+04  0.18737556666E+04  0.00000000000E+00 0. -1.
         24    2    1    2    0    0  0.25893978017E+01 -0.23685071170E+02 -0.24463158018E+03  0.25896475489E+03  0.81550270833E+02 0.  0.
         25    2    1    2    0    0 -0.30198879156E+02 -0.75286885272E+02  0.58869123796E+03  0.60725988228E+03  0.12500841402E+03 0.  0.
         24    2    1    2    0    0  0.54082001991E+02  0.40868471499E+02  0.45926836859E+03  0.47123396489E+03  0.80863591201E+02 0.  0.
        -13    1    3    3    0    0  0.40066632106E+02 -0.82170722858E+01 -0.15966787732E+03  0.16482319719E+03  0.00000000000E+00 0.  1.
         14    1    3    3    0    0 -0.37477234304E+02 -0.15467998884E+02 -0.84963702868E+02  0.94141557697E+02  0.00000000000E+00 0. -1.
        -13    1    5    5    0    0  0.61930430970E+02  0.44377734299E-01  0.22812079504E+03  0.23637782760E+03  0.00000000000E+00 0.  1.
         14    1    5    5    0    0 -0.78484289786E+01  0.40824093764E+02  0.23114757355E+03  0.23485613730E+03  0.00000000000E+00 0. -1.
          5    1    4    4  501    0 -0.45755478393E+02 -0.65433274808E+02  0.58144494746E+03  0.58692026220E+03  0.47000000000E+01 0. -1.
         -5    1    4    4    0  501  0.15556599237E+02 -0.98536104634E+01  0.72462905063E+01  0.20339620082E+02  0.47000000000E+01 0. -1.
          1    1    1    2  502    0 -0.44396737685E+02  0.23390943400E-01 -0.16054103651E+04  0.16060241316E+04  0.00000000000E+00 0. -1.
          1    1    1    2  503    0  0.17924217048E+02  0.58080093999E+02  0.94817374581E+03  0.95012000669E+03  0.00000000000E+00 0. -1.
<mgrwt>
<rscale>  0 0.51927545E+02</rscale>
<asrwt>0</asrwt>
<pdfrwt beam="1">  1        2 0.29703633E+00 0.60735760E+02</pdfrwt>
<pdfrwt beam="2">  1        2 0.27555230E+00 0.44396744E+02</pdfrwt>
<totfact> 0.16863623E+01</totfact>
</mgrwt>
</event>
<event>
13    1  0.2038932E-008  0.1470370E+03  0.7546771E-02  0.1206166E+00
          2   -1    0    0  503    0  0.00000000000E+00  0.00000000000E+00  0.50084336232E+04  0.50084336232E+04  0.00000000000E+00 0. -1.
          2   -1    0    0  502    0 -0.00000000000E+00 -0.00000000000E+00 -0.16610901349E+04  0.16610901349E+04  0.00000000000E+00 0. -1.
         24    2    1    2    0    0  0.57505754677E+02 -0.23556804013E+02 -0.25557242708E+03  0.27429978195E+03  0.77854158927E+02 0.  0.
         25    2    1    2    0    0 -0.43997477376E+03  0.42454293224E+02  0.68296921443E+03  0.82307382088E+03  0.12499359265E+03 0.  0.
         24    2    1    2    0    0  0.29670571635E+01 -0.30107223288E+02  0.10844969101E+04  0.10878365772E+04  0.79621745843E+02 0.  0.
        -11    1    5    5    0    0  0.33348715000E+01 -0.34602635123E+02  0.17987278386E+03  0.18320120660E+03  0.00000000000E+00 0.  1.
         12    1    5    5    0    0 -0.36781433649E+00  0.44954118355E+01  0.90462412624E+03  0.90463537063E+03  0.00000000000E+00 0. -1.
        -13    1    3    3    0    0  0.44329065877E+02 -0.51043095504E+02 -0.15247157203E+03  0.16678742146E+03  0.00000000000E+00 0.  1.
         14    1    3    3    0    0  0.13176688801E+02  0.27486291491E+02 -0.10310085505E+03  0.10751236049E+03  0.00000000000E+00 0. -1.
          5    1    4    4  501    0 -0.32884653611E+03  0.10738461059E+01  0.41135652434E+03  0.52666638166E+03  0.47000000000E+01 0. -1.
         -5    1    4    4    0  501 -0.11112823765E+03  0.41380447118E+02  0.27161269008E+03  0.29640743921E+03  0.47000000000E+01 0. -1.
          1    1    1    2  502    0  0.16152159655E+03  0.43844874917E+02 -0.13152790058E+04  0.13258847847E+04  0.00000000000E+00 0. -1.
          1    1    1    2  503    0  0.21798036537E+03 -0.32635140840E+02  0.31507287967E+04  0.31584287933E+04  0.00000000000E+00 0. -1.
<mgrwt>
<rscale>  0 0.14545926E+03</rscale>
<asrwt>0</asrwt>
<pdfrwt beam="1">  1        2 0.73653435E+00 0.14389844E+03</pdfrwt>
<pdfrwt beam="2">  1        2 0.24427796E+00 0.14703700E+03</pdfrwt>
<totfact> 0.20844037E-01</totfact>
</mgrwt>
</event>
<event>
13    1  0.2038932E-008  0.1236379E+03  0.7546771E-02  0.1311842E+00
          2   -1    0    0  503    0  0.00000000000E+00  0.00000000000E+00  0.30775591835E+04  0.30775591835E+04  0.00000000000E+00 0. -1.
          2   -1    0    0  502    0 -0.00000000000E+00 -0.00000000000E+00 -0.24113836316E+04  0.24113836316E+04  0.00000000000E+00 0. -1.
         24    2    1    2    0    0 -0.68373283055E+01 -0.28703708548E+03 -0.54075947536E+03  0.61772014989E+03  0.81977654768E+02 0.  0.
         25    2    1    2    0    0  0.35933122911E+03  0.62742401650E+03  0.12468208441E+03  0.74427845374E+03  0.12499986332E+03 0.  0.
         24    2    1    2    0    0 -0.17813122419E+03 -0.36477998695E+03  0.63526470076E+03  0.76069681288E+03  0.10150482348E+03 0.  0.
        -11    1    5    5    0    0 -0.35881116705E+02 -0.45764082267E+02  0.16467436837E+03  0.17464092693E+03  0.00000000000E+00 0.  1.
         12    1    5    5    0    0 -0.14225010749E+03 -0.31901590468E+03  0.47059033239E+03  0.58605588595E+03  0.00000000000E+00 0. -1.
        -13    1    3    3    0    0 -0.13122760053E+02 -0.13929105976E+03 -0.18111733047E+03  0.22886173458E+03  0.00000000000E+00 0.  1.
         14    1    3    3    0    0  0.62854317479E+01 -0.14774602573E+03 -0.35964214489E+03  0.38885841531E+03  0.00000000000E+00 0. -1.
          5    1    4    4  501    0  0.24725544907E+03  0.38644915806E+03  0.13506717801E+03  0.47827130527E+03  0.47000000000E+01 0.  1.
         -5    1    4    4    0  501  0.11207578004E+03  0.24097485844E+03 -0.10385093599E+02  0.26600714848E+03  0.47000000000E+01 0.  1.
          1    1    1    2  502    0 -0.57940826852E+02 -0.16921394260E+02 -0.14570029771E+04  0.14582527724E+04  0.00000000000E+00 0. -1.
          1    1    1    2  503    0 -0.11642184976E+03  0.41314450185E+02  0.19039912192E+04  0.19079946262E+04  0.00000000000E+00 0. -1.
<mgrwt>
<rscale>  0 0.86388250E+02</rscale>
<asrwt>0</asrwt>
<pdfrwt beam="1">  1        2 0.45258224E+00 0.12363789E+03</pdfrwt>
<pdfrwt beam="2">  1        2 0.35461524E+00 0.60361188E+02</pdfrwt>
<totfact> 0.24446982E+00</totfact>
</mgrwt>
</event>
<event>
13    1  0.2038932E-008  0.1250053E+03  0.7546771E-02  0.1240236E+00
          2   -1    0    0  503    0  0.00000000000E+00  0.00000000000E+00  0.55941942274E+03  0.55941942274E+03  0.00000000000E+00 0. -1.
          2   -1    0    0  502    0 -0.00000000000E+00 -0.00000000000E+00 -0.22964944334E+04  0.22964944334E+04  0.00000000000E+00 0. -1.
         24    2    1    2    0    0 -0.17582679246E+02 -0.48217922796E+02 -0.16337707406E+02  0.97168311680E+02  0.80874232134E+02 0.  0.
         25    2    1    2    0    0 -0.23759460176E+02 -0.14735007585E+03 -0.31590638072E+03  0.37107770992E+03  0.12500107446E+03 0.  0.
         24    2    1    2    0    0 -0.58633396496E+02  0.44344547675E+02  0.13203380339E+03  0.17185730828E+03  0.81839446952E+02 0.  0.
        -11    1    3    3    0    0 -0.31904960900E+02  0.11546837169E+02 -0.15939707398E+01  0.33967583390E+02  0.00000000000E+00 0.  1.
         12    1    3    3    0    0  0.14322281655E+02 -0.59764759965E+02 -0.14743736666E+02  0.63200728290E+02  0.00000000000E+00 0. -1.
        -13    1    5    5    0    0 -0.41766838717E+02  0.22550939183E+02  0.12356212694E+02  0.49047830396E+02  0.00000000000E+00 0.  1.
         14    1    5    5    0    0 -0.16866557779E+02  0.21793608492E+02  0.11967759070E+03  0.12280947788E+03  0.00000000000E+00 0. -1.
          5    1    4    4  501    0  0.34998464777E+02 -0.38294869436E+02 -0.17881978996E+03  0.18625250829E+03  0.47000000000E+01 0.  1.
         -5    1    4    4    0  501 -0.58757924953E+02 -0.10905520642E+03 -0.13708659076E+03  0.18482520163E+03  0.47000000000E+01 0.  1.
          1    1    1    2  502    0 -0.59741093267E+02  0.11797059038E+03 -0.18542457957E+04  0.18589549563E+04  0.00000000000E+00 0. -1.
          1    1    1    2  503    0  0.15971662918E+03  0.33252860596E+02  0.31738106980E+03  0.35685557001E+03  0.00000000000E+00 0. -1.
<mgrwt>
<rscale>  0 0.12175082E+03</rscale>
<asrwt>0</asrwt>
<pdfrwt beam="1">  1        2 0.82267561E-01 0.11858108E+03</pdfrwt>
<pdfrwt beam="2">  1        2 0.33771978E+00 0.12500529E+03</pdfrwt>
<totfact> 0.58377265E+01</totfact>
</mgrwt>
</event>
<event>
13    1  0.2038932E-008  0.7247329E+02  0.7546771E-02  0.1406576E+00
          2   -1    0    0  502    0  0.00000000000E+00  0.00000000000E+00  0.12798655858E+04  0.12798655858E+04  0.00000000000E+00 0. -1.
          2   -1    0    0  503    0 -0.00000000000E+00 -0.00000000000E+00 -0.10916324253E+04  0.10916324253E+04  0.00000000000E+00 0. -1.
         24    2    1    2    0    0  0.27354708970E+02  0.11553177375E+02 -0.46167057857E+03  0.46930282560E+03  0.78890195772E+02 0.  0.
         25    2    1    2    0    0 -0.12064710869E+03 -0.47377002576E+02  0.28626069841E+03  0.33819681248E+03  0.12502636246E+03 0.  0.
         24    2    1    2    0    0  0.81911169842E+02  0.59899018598E+02 -0.15015667369E+03  0.19932784765E+03  0.82989348843E+02 0.  0.
        -11    1    5    5    0    0  0.50140041130E+02  0.26871365649E+02 -0.18336996780E+02  0.59769051082E+02  0.00000000000E+00 0.  1.
         12    1    5    5    0    0  0.31771128713E+02  0.33027652950E+02 -0.13181967691E+03  0.13955879657E+03  0.00000000000E+00 0. -1.
        -13    1    3    3    0    0 -0.24613591865E+02  0.19083075608E+02 -0.14489369194E+03  0.14820315329E+03  0.00000000000E+00 0.  1.
         14    1    3    3    0    0  0.51968300834E+02 -0.75298982325E+01 -0.31677688663E+03  0.32109967231E+03  0.00000000000E+00 0. -1.
          5    1    4    4  501    0 -0.11421060522E+03 -0.68971642871E+02  0.28549275800E+03  0.31516559891E+03  0.47000000000E+01 0.  1.
         -5    1    4    4    0  501 -0.64365034672E+01  0.21594640295E+02  0.76794041767E+00  0.23031213577E+02  0.47000000000E+01 0.  1.
          1    1    1    2  502    0  0.21430876474E+02 -0.69333880732E+02  0.93656422135E+03  0.93937160389E+03  0.00000000000E+00 0. -1.
          1    1    1    2  503    0 -0.10049646596E+02  0.45258687334E+02 -0.42276450699E+03  0.42529892140E+03  0.00000000000E+00 0. -1.
<mgrwt>
<rscale>  0 0.57964951E+02</rscale>
<asrwt>0</asrwt>
<pdfrwt beam="1">  1        2 0.18821553E+00 0.72473289E+02</pdfrwt>
<pdfrwt beam="2">  1        2 0.16053418E+00 0.46361020E+02</pdfrwt>
<totfact> 0.89530285E+01</totfact>
</mgrwt>
</event>
<event>
13    1  0.2038932E-008  0.1197432E+03  0.7546771E-02  0.1318879E+00
          2   -1    0    0  503    0  0.00000000000E+00  0.00000000000E+00  0.47670669643E+03  0.47670669643E+03  0.00000000000E+00 0. -1.
         -1   -1    0    0    0  501 -0.00000000000E+00 -0.00000000000E+00 -0.12116317527E+04  0.12116317527E+04  0.00000000000E+00 0.  1.
         24    2    1    2    0    0  0.68278158547E+02 -0.56287784134E+01 -0.34142219295E+03  0.35773896398E+03  0.81941823434E+02 0.  0.
         25    2    1    2    0    0 -0.10407810090E+03 -0.11988664098E+03  0.80014630014E+02  0.21732983651E+03  0.12499943619E+03 0.  0.
         24    2    1    2    0    0  0.11688453677E+03  0.83133415494E+02 -0.23777630406E+03  0.28882861957E+03  0.79443319420E+02 0.  0.
        -11    1    5    5    0    0  0.95408317675E+02  0.98713046610E+02 -0.19459526894E+03  0.23814770909E+03  0.00000000000E+00 0.  1.
         12    1    5    5    0    0  0.21476219093E+02 -0.15579631116E+02 -0.43181035126E+02  0.50680910477E+02  0.00000000000E+00 0. -1.
        -13    1    3    3    0    0 -0.13760006641E+02 -0.19218400381E+02 -0.73035758165E+02  0.76765269925E+02  0.00000000000E+00 0.  1.
         14    1    3    3    0    0  0.82038165188E+02  0.13589621968E+02 -0.26838643479E+03  0.28097369405E+03  0.00000000000E+00 0. -1.
          5    1    4    4  502    0 -0.40641472214E+02  0.21584703368E+02  0.10953912978E+02  0.47536374417E+02  0.47000000000E+01 0.  1.
         -5    1    4    4    0  502 -0.63436628690E+02 -0.14147134435E+03  0.69060717035E+02  0.16979346209E+03  0.47000000000E+01 0.  1.
          1    1    1    2  503    0 -0.12044604338E+03 -0.89498592288E+00  0.28030562557E+03  0.30508899372E+03  0.00000000000E+00 0. -1.
         -2    1    1    2    0  501  0.39361448966E+02  0.43276989821E+02 -0.51604681488E+03  0.51935203538E+03  0.00000000000E+00 0.  1.
<mgrwt>
<rscale>  0 0.83695575E+02</rscale>
<asrwt>0</asrwt>
<pdfrwt beam="1">  1        2 0.70103927E-01 0.11974322E+03</pdfrwt>
<pdfrwt beam="2">  1       -1 0.17818114E+00 0.58499757E+02</pdfrwt>
<totfact> 0.21313192E+01</totfact>
</mgrwt>
</event>
<event>
13    1  0.2038932E-008  0.1842057E+03  0.7546771E-02  0.1245134E+00
          2   -1    0    0  503    0  0.00000000000E+00  0.00000000000E+00  0.46984332205E+04  0.46984332205E+04  0.00000000000E+00 0. -1.
          2   -1    0    0  502    0 -0.00000000000E+00 -0.00000000000E+00 -0.41209281813E+04  0.41209281813E+04  0.00000000000E+00 0. -1.
         24    2    1    2    0    0 -0.14762547475E+02  0.16005500339E+02 -0.23603419796E+03  0.25190581867E+03  0.85265995710E+02 0.  0.
         25    2    1    2    0    0  0.41741689394E+02 -0.37228689848E+03  0.10976164245E+04  0.11665022718E+04  0.12500332554E+03 0.  0.
         24    2    1    2    0    0 -0.12413953548E+01 -0.54005269366E+02 -0.92567866667E+02  0.13494771340E+03  0.81999787998E+02 0.  0.
        -11    1    3    3    0    0  0.13114895245E+02  0.20422706997E+02 -0.21584000831E+03  0.21720036056E+03  0.00000000000E+00 0.  1.
         12    1    3    3    0    0 -0.27877442719E+02 -0.44172066581E+01 -0.20194189646E+02  0.34705458111E+02  0.00000000000E+00 0. -1.
        -13    1    5    5    0    0 -0.28609196021E+02 -0.10187218418E+02 -0.74103117453E+02  0.80084564881E+02  0.00000000000E+00 0.  1.
         14    1    5    5    0    0  0.27367800666E+02 -0.43818050948E+02 -0.18464749214E+02  0.54863148521E+02  0.00000000000E+00 0. -1.
          5    1    4    4  501    0  0.39333606057E+02 -0.35201022023E+03  0.89111018555E+03  0.95893575411E+03  0.47000000000E+01 0.  1.
         -5    1    4    4    0  501  0.24080833370E+01 -0.20276678245E+02  0.20650623896E+03  0.20756651772E+03  0.47000000000E+01 0.  1.
          1    1    1    2  502    0  0.38828531869E+02  0.36910050468E+03 -0.37191056500E+04  0.37375780492E+04  0.00000000000E+00 0. -1.
          1    1    1    2  503    0 -0.64566278433E+02  0.41186162826E+02  0.35275963293E+04  0.35284275488E+04  0.00000000000E+00 0. -1.
<mgrwt>
<rscale>  0 0.11877375E+03</rscale>
<asrwt>0</asrwt>
<pdfrwt beam="1">  1        2 0.69094607E+00 0.76583969E+02</pdfrwt>
<pdfrwt beam="2">  1        2 0.60601885E+00 0.18420570E+03</pdfrwt>
<totfact> 0.19716711E-02</totfact>
</mgrwt>
</event>
<event>
13    1  0.2038932E-008  0.1007979E+03  0.7546771E-02  0.1306012E+00
          2   -1    0    0  503    0  0.00000000000E+00  0.00000000000E+00  0.17676268659E+04  0.17676268659E+04  0.00000000000E+00 0. -1.
          2   -1    0    0  502    0 -0.00000000000E+00 -0.00000000000E+00 -0.14537079732E+04  0.14537079732E+04  0.00000000000E+00 0. -1.
         24    2    1    2    0    0  0.91157519922E+02  0.52169132838E+02 -0.76140621079E+03  0.77287836845E+03  0.81057033773E+02 0.  0.
         25    2    1    2    0    0 -0.98988407440E+02 -0.10412671198E+02  0.17386354438E+03  0.23613681530E+03  0.12499973978E+03 0.  0.
         24    2    1    2    0    0  0.11548523030E+03  0.21626795926E+02 -0.59841958427E+02  0.15460868940E+03  0.80735556789E+02 0.  0.
        -13    1    3    3    0    0  0.22504653632E+02  0.29021324802E+02 -0.84883916639E+02  0.92487707466E+02  0.00000000000E+00 0.  1.
         14    1    3    3    0    0  0.68652866291E+02  0.23147808036E+02 -0.67652229415E+03  0.68039066098E+03  0.00000000000E+00 0. -1.
        -13    1    5    5    0    0 -0.95444918856E+01 -0.84422840073E+01  0.69651189324E-01  0.12742618879E+02  0.00000000000E+00 0.  1.
         14    1    5    5    0    0  0.12502972219E+03  0.30069079933E+02 -0.59911609616E+02  0.14186607052E+03  0.00000000000E+00 0. -1.
          5    1    4    4  501    0 -0.25939055252E+02  0.25127349533E+02 -0.76544991778E+01  0.37214239742E+02  0.47000000000E+01 0.  1.
         -5    1    4    4    0  501 -0.73049352189E+02 -0.35540020731E+02  0.18151804356E+03  0.19892257556E+03  0.47000000000E+01 0.  1.
          1    1    1    2  502    0 -0.78681089910E+01 -0.77669867695E+02 -0.54372982454E+03  0.54930559581E+03  0.00000000000E+00 0. -1.
          1    1    1    2  503    0 -0.99786233795E+02  0.14286610129E+02  0.15050333421E+04  0.15084053701E+04  0.00000000000E+00 0. -1.
<mgrwt>
<rscale>  0 0.88707536E+02</rscale>
<asrwt>0</asrwt>
<pdfrwt beam="1">  1        2 0.25994513E+00 0.10079789E+03</pdfrwt>
<pdfrwt beam="2">  1        2 0.21378058E+00 0.78067378E+02</pdfrwt>
<totfact> 0.31746935E+01</totfact>
</mgrwt>
</event>
<event>
13    1  0.2038932E-008  0.1336597E+03  0.7546771E-02  0.1276105E+00
          2   -1    0    0  502    0  0.00000000000E+00  0.00000000000E+00  0.11549129581E+04  0.11549129581E+04  0.00000000000E+00 0. -1.
          2   -1    0    0  503    0 -0.00000000000E+00 -0.00000000000E+00 -0.60302586551E+04  0.60302586551E+04  0.00000000000E+00 0. -1.
         24    2    1    2    0    0  0.30599634573E+02  0.33447640915E+03 -0.19016370147E+04  0.19327229773E+04  0.79899720320E+02 0.  0.
         25    2    1    2    0    0  0.12994491225E+03 -0.15319472316E+03  0.20612062991E+03  0.31379133345E+03  0.12499993380E+03 0.  0.
         24    2    1    2    0    0 -0.40114553716E+02  0.95855913803E+01 -0.93019740299E+03  0.93464886854E+03  0.81241848472E+02 0.  0.
        -11    1    3    3    0    0  0.38039976986E+01  0.84715951657E+02 -0.31015204401E+03  0.32153623943E+03  0.00000000000E+00 0.  1.
         12    1    3    3    0    0  0.26795636874E+02  0.24976045749E+03 -0.15914849707E+04  0.16111867379E+04  0.00000000000E+00 0. -1.
        -13    1    5    5    0    0 -0.39308106563E+02 -0.17319376330E+02 -0.82312225836E+03  0.82424228249E+03  0.00000000000E+00 0.  1.
         14    1    5    5    0    0 -0.80644715288E+00  0.26904967710E+02 -0.10707514463E+03  0.11040658605E+03  0.00000000000E+00 0. -1.
          5    1    4    4  501    0  0.63006678523E+02  0.51365604438E+01  0.41732280603E+02  0.75893998683E+02  0.47000000000E+01 0.  1.
         -5    1    4    4    0  501  0.66938233723E+02 -0.15833128360E+03  0.16438834931E+03  0.23789733477E+03  0.47000000000E+01 0.  1.
          1    1    1    2  502    0 -0.77846712050E+02 -0.18882550994E+01  0.87245214088E+03  0.87592032412E+03  0.00000000000E+00 0. -1.
          1    1    1    2  503    0 -0.42583281053E+02 -0.18897902227E+03 -0.31220840501E+04  0.31280881098E+04  0.00000000000E+00 0. -1.
<mgrwt>
<rscale>  0 0.10201976E+03</rscale>
<asrwt>0</asrwt>
<pdfrwt beam="1">  1        2 0.16984014E+00 0.77869610E+02</pdfrwt>
<pdfrwt beam="2">  1        2 0.88680277E+00 0.13365974E+03</pdfrwt>
<totfact> 0.13864915E-02</totfact>
</mgrwt>
</event>
<event>
13    1  0.2038932E-008  0.1907713E+03  0.7546771E-02  0.1245709E+00
          2   -1    0    0  503    0  0.00000000000E+00  0.00000000000E+00  0.77290260819E+03  0.77290260819E+03  0.00000000000E+00 0. -1.
          2   -1    0    0  502    0 -0.00000000000E+00 -0.00000000000E+00 -0.51987503295E+04  0.51987503295E+04  0.00000000000E+00 0. -1.
         24    2    1    2    0    0  0.14020129008E+03 -0.14469834995E+03 -0.47134358460E+03  0.51867028809E+03  0.79120659657E+02 0.  0.
         25    2    1    2    0    0  0.10620705358E+03  0.66422657762E+02  0.26757951013E+03  0.32080997871E+03  0.12501336130E+03 0.  0.
         24    2    1    2    0    0  0.38729878399E+02  0.82650739164E+02 -0.61436530907E+02  0.13636931252E+03  0.80566704673E+02 0.  0.
        -11    1    3    3    0    0  0.12284465161E+03 -0.14392463684E+03 -0.36719647481E+03  0.41308396317E+03  0.00000000000E+00 0.  1.
         12    1    3    3    0    0  0.17356638470E+02 -0.77371310282E+00 -0.10414710979E+03  0.10558632492E+03  0.00000000000E+00 0. -1.
        -13    1    5    5    0    0 -0.73218659852E+01  0.74615673597E+02 -0.39174862094E+02  0.84591833459E+02  0.00000000000E+00 0.  1.
         14    1    5    5    0    0  0.46051744384E+02  0.80350655667E+01 -0.22261668813E+02  0.51777479060E+02  0.00000000000E+00 0. -1.
          5    1    4    4  501    0 -0.35976687253E+00  0.44433364623E+02  0.16589499108E+03  0.17180713428E+03  0.47000000000E+01 0. -1.
         -5    1    4    4    0  501  0.10656682045E+03  0.21989293140E+02  0.10168451905E+03  0.14900284443E+03  0.47000000000E+01 0. -1.
          1    1    1    2  502    0 -0.21355776692E+03 -0.21157201348E+02 -0.45724527942E+04  0.45774861116E+04  0.00000000000E+00 0. -1.
          1    1    1    2  503    0 -0.71580455128E+02  0.16782154368E+02  0.41180567828E+03  0.41831724674E+03  0.00000000000E+00 0. -1.
<mgrwt>
<rscale>  0 0.11843050E+03</rscale>
<asrwt>0</asrwt>
<pdfrwt beam="1">  1        2 0.11366215E+00 0.73521441E+02</pdfrwt>
<pdfrwt beam="2">  1        2 0.76452212E+00 0.19077132E+03</pdfrwt>
<totfact> 0.38667505E-01</totfact>
</mgrwt>
</event>
<event>
13    1  0.2038932E-008  0.1202202E+03  0.7546771E-02  0.1353046E+00
          2   -1    0    0  503    0  0.00000000000E+00  0.00000000000E+00  0.22265956403E+04  0.22265956403E+04  0.00000000000E+00 0. -1.
          2   -1    0    0  502    0 -0.00000000000E+00 -0.00000000000E+00 -0.17310677055E+04  0.17310677055E+04  0.00000000000E+00 0. -1.
         24    2    1    2    0    0 -0.94296692235E+03 -0.28897100529E+02 -0.76388875644E+03  0.12160186098E+04  0.71788355927E+02 0.  0.
         25    2    1    2    0    0  0.98084148952E+03  0.71345274749E+02  0.75253113970E+03  0.12446165739E+04  0.12500849566E+03 0.  0.
         24    2    1    2    0    0 -0.21238893425E+02 -0.15430681430E+03  0.26112753584E+03  0.31269297095E+03  0.72990551273E+02 0.  0.
        -11    1    3    3    0    0 -0.23773677781E+03 -0.30018154874E+02 -0.22177828599E+03  0.32650493608E+03  0.00000000000E+00 0.  1.
         12    1    3    3    0    0 -0.70523014454E+03  0.11210543446E+01 -0.54211047044E+03  0.88951367370E+03  0.00000000000E+00 0. -1.
        -11    1    5    5    0    0  0.15208329590E+02 -0.79516825006E+02  0.17565552144E+03  0.19341427290E+03  0.00000000000E+00 0.  1.
         12    1    5    5    0    0 -0.36447223015E+02 -0.74789989291E+02  0.85472014403E+02  0.11927869806E+03  0.00000000000E+00 0. -1.
          5    1    4    4  501    0  0.50927235317E+03  0.82605687093E+02  0.33954689655E+03  0.61765379801E+03  0.47000000000E+01 0.  1.
         -5    1    4    4    0  501  0.47156913636E+03 -0.11260412343E+02  0.41298424315E+03  0.62696277588E+03  0.47000000000E+01 0.  1.
          1    1    1    2  502    0 -0.59292342370E+02  0.10466772470E+03 -0.46090734522E+03  0.47634703246E+03  0.00000000000E+00 0. -1.
          1    1    1    2  503    0  0.42656668617E+02  0.71909153724E+01  0.70666536093E+03  0.70798815878E+03  0.00000000000E+00 0. -1.
<mgrwt>
<rscale>  0 0.72114850E+02</rscale>
<asrwt>0</asrwt>
<pdfrwt beam="1">  1        2 0.32744054E+00 0.43258533E+02</pdfrwt>
<pdfrwt beam="2">  1        2 0.25456878E+00 0.12022025E+03</pdfrwt>
<totfact> 0.14917008E+01</totfact>
</mgrwt>
</event>
<event>
13    1  0.2038932E-008  0.1468769E+03  0.7546771E-02  0.1304339E+00
          2   -1    0    0  502    0  0.00000000000E+00  0.00000000000E+00  0.54133595619E+03  0.54133595619E+03  0.00000000000E+00 0. -1.
          2   -1    0    0  503    0 -0.00000000000E+00 -0.00000000000E+00 -0.13582894574E+04  0.13582894574E+04  0.00000000000E+00 0. -1.
         24    2    1    2    0    0  0.12038346616E+03  0.36069270965E+02 -0.33806565319E+03  0.36741950768E+03  0.70110894484E+02 0.  0.
         25    2    1    2    0    0 -0.30106069079E+03 -0.70584531232E+02  0.25549146319E+03  0.42013997290E+03  0.12498797332E+03 0.  0.
         24    2    1    2    0    0 -0.32169355869E+01 -0.62455640612E+01 -0.40758648922E+03  0.41536315908E+03  0.79689723179E+02 0.  0.
        -11    1    5    5    0    0 -0.13713963295E+02  0.33103841361E+02 -0.13171939729E+03  0.13650617834E+03  0.00000000000E+00 0.  1.
         12    1    5    5    0    0  0.10497027708E+02 -0.39349405422E+02 -0.27586709193E+03  0.27885698074E+03  0.00000000000E+00 0. -1.
        -13    1    3    3    0    0  0.14175853251E+02  0.81602115829E+01 -0.56020460201E+01  0.17289499359E+02  0.00000000000E+00 0.  1.
         14    1    3    3    0    0  0.10620761291E+03  0.27909059382E+02 -0.33246360717E+03  0.35013000832E+03  0.00000000000E+00 0. -1.
          5    1    4    4  501    0 -0.30792517968E+02  0.28644151827E+02  0.14751613239E+02  0.44814804360E+02  0.47000000000E+01 0. -1.
         -5    1    4    4    0  501 -0.27026817283E+03 -0.99228683059E+02  0.24073984995E+03  0.37532516854E+03  0.47000000000E+01 0. -1.
          1    1    1    2  502    0  0.13242822874E+03  0.58389644372E+02  0.15487431883E+03  0.21197320814E+03  0.00000000000E+00 0. -1.
          1    1    1    2  503    0  0.51465931479E+02 -0.17628820044E+02 -0.48166714078E+03  0.48472956575E+03  0.00000000000E+00 0. -1.
<mgrwt>
<rscale>  0 0.89388565E+02</rscale>
<asrwt>0</asrwt>
<pdfrwt beam="1">  1        2 0.79608230E-01 0.14687689E+03</pdfrwt>
<pdfrwt beam="2">  1        2 0.19974845E+00 0.54401447E+02</pdfrwt>
<totfact> 0.18525533E+02</totfact>
</mgrwt>
</event>
<event>
13    1  0.2038932E-008  0.8610038E+02  0.7546771E-02  0.1395494E+00
          2   -1    0    0  502    0  0.00000000000E+00  0.00000000000E+00  0.31805805307E+04  0.31805805307E+04  0.00000000000E+00 0. -1.
          2   -1    0    0  503    0 -0.00000000000E+00 -0.00000000000E+00 -0.11584953945E+04  0.11584953945E+04  0.00000000000E+00 0. -1.
         24    2    1    2    0    0  0.48279041226E+03 -0.47215685718E+02 -0.22750134644E+03  0.54685156416E+03  0.10942516823E+03 0.  0.
         25    2    1    2    0    0 -0.43450398825E+03  0.30954207069E+02  0.11478420435E+04  0.12340657568E+04  0.12500022612E+03 0.  0.
         24    2    1    2    0    0  0.17670778898E+02  0.41053719299E+02 -0.56231881957E+02  0.10743148142E+03  0.79886384046E+02 0.  0.
        -11    1    3    3    0    0  0.40506509108E+03 -0.25998201554E+01 -0.16399423890E+03  0.43701098095E+03  0.00000000000E+00 0.  1.
         12    1    3    3    0    0  0.77725321188E+02 -0.44615865562E+02 -0.63507107532E+02  0.10984058321E+03  0.00000000000E+00 0. -1.
        -13    1    5    5    0    0  0.32707129207E+02  0.54633483883E+02 -0.21473091290E+02  0.67198716593E+02  0.00000000000E+00 0.  1.
         14    1    5    5    0    0 -0.15036350308E+02 -0.13579764585E+02 -0.34758790667E+02  0.40232764824E+02  0.00000000000E+00 0. -1.
          5    1    4    4  501    0 -0.57861601564E+02  0.45100994514E+02  0.24225639852E+03  0.25316460508E+03  0.47000000000E+01 0.  1.
         -5    1    4    4    0  501 -0.37664238668E+03 -0.14146787445E+02  0.90558564494E+03  0.98090115168E+03  0.47000000000E+01 0.  1.
          1    1    1    2  502    0  0.19170212084E+02 -0.38039345779E+02  0.18012281122E+04  0.18017317228E+04  0.00000000000E+00 0. -1.
          1    1    1    2  503    0 -0.85127414999E+02  0.13247105130E+02 -0.64325179102E+03  0.64899540001E+03  0.00000000000E+00 0. -1.
<mgrwt>
<rscale>  0 0.60560731E+02</rscale>
<asrwt>0</asrwt>
<pdfrwt beam="1">  1        2 0.46773243E+00 0.42596817E+02</pdfrwt>
<pdfrwt beam="2">  1        2 0.17036697E+00 0.86100379E+02</pdfrwt>
<totfact> 0.10087632E+01</totfact>
</mgrwt>
</event>
<event>
13    1  0.2109068E-008  0.1136211E+03  0.7546771E-02  0.1356872E+00
         -3   -1    0    0    0  501 -0.00000000000E+00  0.00000000000E+00  0.27450987184E+03  0.27450987184E+03  0.00000000000E+00 0.  1.
          2   -1    0    0  503    0  0.00000000000E+00 -0.00000000000E+00 -0.96696749959E+03  0.96696749959E+03  0.00000000000E+00 0. -1.
         24    2    1    2    0    0 -0.31721521566E+02 -0.29491394470E+02 -0.29634858173E+03  0.31083122598E+03  0.83171941622E+02 0.  0.
         25    2    1    2    0    0 -0.66990169052E+02  0.11002997759E+03  0.52870866182E+02  0.18711979904E+03  0.12499684790E+03 0.  0.
         24    2    1    2    0    0  0.86450631649E+00 -0.39086193048E+02 -0.56519397977E+02  0.10772004963E+03  0.82949917940E+02 0.  0.
        -11    1    3    3    0    0  0.16338064106E+02  0.15526903058E+02 -0.37631263239E+02  0.43864895193E+02  0.00000000000E+00 0.  1.
         12    1    3    3    0    0 -0.48059585672E+02 -0.45018297528E+02 -0.25871731849E+03  0.26696633079E+03  0.00000000000E+00 0. -1.
        -13    1    5    5    0    0 -0.29904635850E+02 -0.40392760997E+02 -0.89453180925E+01  0.51047831512E+02  0.00000000000E+00 0.  1.
         14    1    5    5    0    0  0.30769142166E+02  0.13065679488E+01 -0.47574079885E+02  0.56672218117E+02  0.00000000000E+00 0. -1.
          5    1    4    4  502    0 -0.41840049524E+02  0.13331363510E+03  0.23554587520E+02  0.14177455217E+03  0.47000000000E+01 0.  1.
         -5    1    4    4    0  502 -0.25150119528E+02 -0.23283657517E+02  0.29316278662E+02  0.45345246875E+02  0.47000000000E+01 0.  1.
          1    1    1    2  503    0  0.11478763218E+03 -0.82398080039E+02 -0.49995390558E+03  0.51953782518E+03  0.00000000000E+00 0. -1.
         -4    1    1    2    0  501 -0.16940447876E+02  0.40945689970E+02  0.10749339136E+03  0.11626847159E+03  0.00000000000E+00 0.  1.
<mgrwt>
<rscale>  0 0.70955958E+02</rscale>
<asrwt>0</asrwt>
<pdfrwt beam="2">  1        2 0.14220110E+00 0.11362114E+03</pdfrwt>
<pdfrwt beam="1">  1       -3 0.40369100E-01 0.44311717E+02</pdfrwt>
<totfact> 0.10440789E+02</totfact>
</mgrwt>
</event>
<event>
13    1  0.2038932E-008  0.1035414E+03  0.7546771E-02  0.1346781E+00
          2   -1    0    0  502    0  0.00000000000E+00  0.00000000000E+00  0.39326095649E+04  0.39326095649E+04  0.00000000000E+00 0. -1.
          2   -1    0    0  503    0 -0.00000000000E+00 -0.00000000000E+00 -0.20910626133E+03  0.20910626133E+03  0.00000000000E+00 0. -1.
         24    2    1    2    0    0  0.30212500034E+02  0.11303744818E+02  0.14520950275E+02  0.87370169568E+02  0.79888163881E+02 0.  0.
         25    2    1    2    0    0  0.35990862426E+02 -0.88676697524E+02  0.53580646138E+03  0.55845635583E+03  0.12500415370E+03 0.  0.
         24    2    1    2    0    0  0.98000073529E+02  0.15554417166E+03  0.40177524257E+03  0.44861408097E+03  0.77673961899E+02 0.  0.
        -11    1    5    5    0    0 -0.13224467720E+02  0.20766543979E+02  0.56757722023E+02  0.61867397752E+02  0.00000000000E+00 0.  1.
         12    1    5    5    0    0  0.11122454125E+03  0.13477762769E+03  0.34501752054E+03  0.38674668322E+03  0.00000000000E+00 0. -1.
        -11    1    3    3    0    0  0.24588424966E+02 -0.33180727356E+02  0.60669726391E+01  0.41741579596E+02  0.00000000000E+00 0.  1.
         12    1    3    3    0    0  0.56240750677E+01  0.44484472174E+02  0.84539776362E+01  0.45628589972E+02  0.00000000000E+00 0. -1.
          5    1    4    4  501    0  0.39622472653E+02 -0.42675439696E+02  0.48929270163E+03  0.49276827349E+03  0.47000000000E+01 0. -1.
         -5    1    4    4    0  501 -0.36316102265E+01 -0.46001257827E+02  0.46513759753E+02  0.65688082335E+02  0.47000000000E+01 0. -1.
          1    1    1    2  502    0 -0.18073724942E+02 -0.49806546567E+02  0.28688616030E+04  0.28693508410E+04  0.00000000000E+00 0. -1.
          1    1    1    2  503    0 -0.14612971105E+03 -0.28364672391E+02 -0.97460953679E+02  0.17792437883E+03  0.00000000000E+00 0. -1.
<mgrwt>
<rscale>  0 0.74068098E+02</rscale>
<asrwt>0</asrwt>
<pdfrwt beam="1">  1        2 0.57832489E+00 0.52984447E+02</pdfrwt>
<pdfrwt beam="2">  1        2 0.30750923E-01 0.10354139E+03</pdfrwt>
<totfact> 0.24292456E+01</totfact>
</mgrwt>
</event>
<event>
13    1  0.2038932E-008  0.4790768E+02  0.7546771E-02  0.1496727E+00
          2   -1    0    0  503    0  0.00000000000E+00  0.00000000000E+00  0.30554788414E+03  0.30554788414E+03  0.00000000000E+00 0. -1.
          2   -1    0    0  502    0 -0.00000000000E+00 -0.00000000000E+00 -0.12314697442E+04  0.12314697442E+04  0.00000000000E+00 0. -1.
         24    2    1    2    0    0 -0.48173186673E+02 -0.26197663248E+02 -0.33643284154E+03  0.35007905586E+03  0.79757852347E+02 0.  0.
         25    2    1    2    0    0 -0.24276055341E+02  0.14498698113E+02  0.10816801084E+03  0.16770152399E+03  0.12499577380E+03 0.  0.
         24    2    1    2    0    0  0.81163084178E+01  0.54541172004E+02 -0.25675907985E+03  0.27412556556E+03  0.78606530916E+02 0.  0.
        -11    1    3    3    0    0 -0.57279775354E+02 -0.96127264703E+01 -0.31934666117E+03  0.32458537733E+03  0.00000000000E+00 0.  1.
         12    1    3    3    0    0  0.91065886808E+01 -0.16584936778E+02 -0.17086180362E+02  0.25493678524E+02  0.00000000000E+00 0. -1.
        -13    1    5    5    0    0  0.75220152649E+01 -0.19607388243E+01 -0.17249397542E+03  0.17266903824E+03  0.00000000000E+00 0.  1.
         14    1    5    5    0    0  0.59429315288E+00  0.56501910829E+02 -0.84265104435E+02  0.10145652733E+03  0.00000000000E+00 0. -1.
          5    1    4    4  501    0 -0.57917205819E+01  0.26031774135E+02 -0.22462563480E+02  0.35183150086E+02  0.47000000000E+01 0. -1.
         -5    1    4    4    0  501 -0.18484334759E+02 -0.11533076022E+02  0.13063057432E+03  0.13251837390E+03  0.47000000000E+01 0. -1.
          1    1    1    2  502    0  0.46343410980E+02 -0.11509026356E+02 -0.58988071197E+03  0.59181029375E+03  0.00000000000E+00 0. -1.
          1    1    1    2  503    0  0.17989522616E+02 -0.31333180513E+02  0.14898276241E+03  0.15330118923E+03  0.00000000000E+00 0. -1.
<mgrwt>
<rscale>  0 0.41604252E+02</rscale>
<asrwt>0</asrwt>
<pdfrwt beam="1">  1        2 0.44933512E-01 0.36130197E+02</pdfrwt>
<pdfrwt beam="2">  1        2 0.18109849E+00 0.47907676E+02</pdfrwt>
<totfact> 0.39429569E+02</totfact>
</mgrwt>
</event>
<event>
13    1  0.2038932E-008  0.2515286E+03  0.7546771E-02  0.1211696E+00
          2   -1    0    0  502    0  0.00000000000E+00  0.00000000000E+00  0.19891761953E+04  0.19891761953E+04  0.00000000000E+00 0. -1.
          2   -1    0    0  503    0 -0.00000000000E+00 -0.00000000000E+00 -0.57962017437E+03  0.57962017437E+03  0.00000000000E+00 0. -1.
         24    2    1    2    0    0 -0.17192047808E+03 -0.54547967778E+02 -0.11112740035E+03  0.22610306772E+03  0.79001054113E+02 0.  0.
         25    2    1    2    0    0 -0.64037669402E+01 -0.36193780577E+02  0.65660929454E+02  0.14589798546E+03  0.12499546600E+03 0.  0.
         24    2    1    2    0    0 -0.10496893074E+03  0.67304675628E+02  0.38728561976E+02  0.15252385548E+03  0.78836724922E+02 0.  0.
        -13    1    5    5    0    0 -0.11083044701E+03  0.45645219388E+02  0.16593901006E+02  0.12100508910E+03  0.00000000000E+00 0.  1.
         14    1    5    5    0    0  0.58615162765E+01  0.21659456240E+02  0.22134660971E+02  0.31518766377E+02  0.00000000000E+00 0. -1.
        -13    1    3    3    0    0 -0.85063671101E+02  0.88175812334E+01 -0.27299432377E+02  0.89771024769E+02  0.00000000000E+00 0.  1.
         14    1    3    3    0    0 -0.86856806978E+02 -0.63365549012E+02 -0.83827967973E+02  0.13633204295E+03  0.00000000000E+00 0. -1.
          5    1    4    4  501    0 -0.28800020394E+02 -0.71125842840E+02  0.11855296342E+02  0.77787947304E+02  0.47000000000E+01 0.  1.
         -5    1    4    4    0  501  0.22396253454E+02  0.34932062263E+02  0.53805633112E+02  0.68110038153E+02  0.47000000000E+01 0.  1.
          1    1    1    2  502    0 -0.64683983691E+02  0.45853963442E+02  0.16322114591E+04  0.16341361176E+04  0.00000000000E+00 0. -1.
          1    1    1    2  503    0  0.34797715945E+03 -0.22416890714E+02 -0.21591752923E+03  0.41013534341E+03  0.00000000000E+00 0. -1.
<mgrwt>
<rscale>  0 0.14122050E+03</rscale>
<asrwt>0</asrwt>
<pdfrwt beam="1">  1        2 0.29252591E+00 0.79288106E+02</pdfrwt>
<pdfrwt beam="2">  1        2 0.85238261E-01 0.25152863E+03</pdfrwt>
<totfact> 0.81938831E+01</totfact>
</mgrwt>
</event>
<event>
13    1  0.2038932E-008  0.1204414E+03  0.7546771E-02  0.1372664E+00
          2   -1    0    0  502    0  0.00000000000E+00  0.00000000000E+00  0.26810643150E+04  0.26810643150E+04  0.00000000000E+00 0. -1.
          2   -1    0    0  503    0 -0.00000000000E+00 -0.00000000000E+00 -0.12411306557E+04  0.12411306557E+04  0.00000000000E+00 0. -1.
         24    2    1    2    0    0 -0.17760581752E+02 -0.13462637534E+03 -0.31403909456E+03  0.35132253867E+03  0.79795200775E+02 0.  0.
         25    2    1    2    0    0  0.33257985334E+02  0.10830280182E+03  0.77139660483E+03  0.78962748916E+03  0.12499303674E+03 0.  0.
         24    2    1    2    0    0 -0.32990248340E+01  0.13000413970E+03  0.84793183760E+02  0.17484947599E+03  0.80439389218E+02 0.  0.
        -11    1    3    3    0    0 -0.35877005001E+02 -0.72276916746E+02 -0.23814826387E+03  0.25144722660E+03  0.00000000000E+00 0.  1.
         12    1    3    3    0    0  0.18116423248E+02 -0.62349458594E+02 -0.75890830686E+02  0.99875312067E+02  0.00000000000E+00 0. -1.
        -13    1    5    5    0    0  0.11784498075E+02  0.31643310592E+02 -0.12186566075E+02  0.35898271446E+02  0.00000000000E+00 0.  1.
         14    1    5    5    0    0 -0.15083522909E+02  0.98360829107E+02  0.96979749834E+02  0.13895120454E+03  0.00000000000E+00 0. -1.
          5    1    4    4  501    0  0.18330137678E+02  0.13042414855E+03  0.50710655285E+03  0.52395190468E+03  0.47000000000E+01 0. -1.
         -5    1    4    4    0  501  0.14927847657E+02 -0.22121346739E+02  0.26429005198E+03  0.26567558448E+03  0.47000000000E+01 0. -1.
          1    1    1    2  502    0  0.36006369972E+02  0.67959630930E+01  0.17476445908E+04  0.17480286782E+04  0.00000000000E+00 0. -1.
          1    1    1    2  503    0 -0.48204748720E+02 -0.11047652927E+03 -0.84986162560E+03  0.85836678872E+03  0.00000000000E+00 0. -1.
<mgrwt>
<rscale>  0 0.66432115E+02</rscale>
<asrwt>0</asrwt>
<pdfrwt beam="1">  1        2 0.39427416E+00 0.36642104E+02</pdfrwt>
<pdfrwt beam="2">  1        2 0.18251921E+00 0.12044139E+03</pdfrwt>
<totfact> 0.16411972E+01</totfact>
</mgrwt>
</event>
<event>
13    1  0.2038932E-008  0.1024007E+03  0.7546771E-02  0.1386218E+00
          2   -1    0    0  502    0  0.00000000000E+00  0.00000000000E+00  0.13432674882E+04  0.13432674882E+04  0.00000000000E+00 0. -1.
          2   -1    0    0  503    0 -0.00000000000E+00 -0.00000000000E+00 -0.34914582898E+04  0.34914582898E+04  0.00000000000E+00 0. -1.
         24    2    1    2    0    0 -0.71487182210E+02  0.16871643825E+03 -0.54091091863E+03  0.57670034825E+03  0.80143721036E+02 0.  0.
         25    2    1    2    0    0  0.14687613129E+03 -0.27467548432E+03  0.52979529871E+03  0.62715798675E+03  0.12499944877E+03 0.  0.
         24    2    1    2    0    0 -0.75483528992E+02 -0.28261422517E+02  0.15800246916E+03  0.19470334629E+03  0.80300321557E+02 0.  0.
        -11    1    5    5    0    0 -0.49295290456E+02 -0.56146592206E+02  0.93196246186E+02  0.11944875797E+03  0.00000000000E+00 0.  1.
         12    1    5    5    0    0 -0.26188238536E+02  0.27885169689E+02  0.64806222977E+02  0.75254588317E+02  0.00000000000E+00 0. -1.
        -13    1    3    3    0    0  0.10909763596E+02  0.95374316204E+01 -0.14046538511E+02  0.20181446622E+02  0.00000000000E+00 0.  1.
         14    1    3    3    0    0 -0.82396945806E+02  0.15917900663E+03 -0.52686438012E+03  0.55651890163E+03  0.00000000000E+00 0. -1.
          5    1    4    4  501    0  0.67833467906E+02 -0.22990575761E+02  0.11288601589E+03  0.13377327283E+03  0.47000000000E+01 0. -1.
         -5    1    4    4    0  501  0.79042663385E+02 -0.25168490856E+03  0.41690928282E+03  0.49338471392E+03  0.47000000000E+01 0. -1.
          1    1    1    2  502    0  0.18954745147E+02  0.33607075059E+02  0.56897546365E+03  0.57028220741E+03  0.00000000000E+00 0. -1.
          1    1    1    2  503    0 -0.18860165236E+02  0.10061339353E+03 -0.28640531145E+04  0.28658818893E+04  0.00000000000E+00 0. -1.
<mgrwt>
<rscale>  0 0.62857143E+02</rscale>
<asrwt>0</asrwt>
<pdfrwt beam="1">  1        2 0.19753934E+00 0.38583907E+02</pdfrwt>
<pdfrwt beam="2">  1        2 0.51344975E+00 0.10240074E+03</pdfrwt>
<totfact> 0.49008467E+00</totfact>
</mgrwt>
</event>
<event>
13    1  0.2038932E-008  0.7245897E+02  0.7546771E-02  0.1361156E+00
          2   -1    0    0  502    0  0.00000000000E+00  0.00000000000E+00  0.76683788971E+03  0.76683788971E+03  0.00000000000E+00 0. -1.
          2   -1    0    0  503    0 -0.00000000000E+00 -0.00000000000E+00 -0.77596015011E+03  0.77596015011E+03  0.00000000000E+00 0. -1.
         24    2    1    2    0    0  0.12670149910E+02  0.26421002414E+02 -0.19454310049E+03  0.21208341893E+03  0.79207048714E+02 0.  0.
         25    2    1    2    0    0 -0.34303084430E+02 -0.18344395250E+02  0.17306580767E+03  0.21700193080E+03  0.12499938299E+03 0.  0.
         24    2    1    2    0    0  0.41753591887E+02  0.34065143471E+01 -0.82945707787E+02  0.12400917603E+03  0.82117711387E+02 0.  0.
        -13    1    5    5    0    0  0.15672349866E+02  0.42284352396E+02 -0.45486321982E+02  0.64051498775E+02  0.00000000000E+00 0.  1.
         14    1    5    5    0    0  0.26081242021E+02 -0.38877838049E+02 -0.37459385805E+02  0.59957677253E+02  0.00000000000E+00 0. -1.
        -13    1    3    3    0    0  0.21081895817E+02 -0.19053511851E+02 -0.12755948067E+03  0.13068627990E+03  0.00000000000E+00 0.  1.
         14    1    3    3    0    0 -0.84117459066E+01  0.45474514266E+02 -0.66983619823E+02  0.81397139025E+02  0.00000000000E+00 0. -1.
          5    1    4    4  501    0 -0.56142903121E+02 -0.58988062005E+02  0.87157072144E+02  0.11937362462E+03  0.47000000000E+01 0. -1.
         -5    1    4    4    0  501  0.21839818691E+02  0.40643666756E+02  0.85908735525E+02  0.97628306179E+02  0.47000000000E+01 0. -1.
          1    1    1    2  502    0  0.26846557271E+02  0.61411847774E+02  0.53619237625E+03  0.54036507755E+03  0.00000000000E+00 0. -1.
          1    1    1    2  503    0 -0.46967214638E+02 -0.72894969285E+02 -0.44089163605E+03  0.44933843652E+03  0.00000000000E+00 0. -1.
<mgrwt>
<rscale>  0 0.69688272E+02</rscale>
<asrwt>0</asrwt>
<pdfrwt beam="1">  1        2 0.11277028E+00 0.67023523E+02</pdfrwt>
<pdfrwt beam="2">  1        2 0.11411179E+00 0.72458966E+02</pdfrwt>
<totfact> 0.26360500E+02</totfact>
</mgrwt>
</event>
<event>
13    1  0.2038932E-008  0.1974388E+03  0.7546771E-02  0.1321943E+00
          2   -1    0    0  503    0  0.00000000000E+00  0.00000000000E+00  0.36647814504E+04  0.36647814504E+04  0.00000000000E+00 0. -1.
          2   -1    0    0  502    0 -0.00000000000E+00 -0.00000000000E+00 -0.85833248749E+03  0.85833248749E+03  0.00000000000E+00 0. -1.
         24    2    1    2    0    0  0.14015261884E+03 -0.15308698019E+03 -0.20681081814E+03  0.30395249244E+03  0.80858042814E+02 0.  0.
         25    2    1    2    0    0 -0.46775997786E+03  0.23023809591E+03  0.32207489715E+04  0.32650662480E+04  0.12499875295E+03 0.  0.
         24    2    1    2    0    0  0.20145578575E+03  0.35631158680E+02 -0.37191265707E+01  0.21962390285E+03  0.79792316172E+02 0.  0.
        -11    1    5    5    0    0  0.11803321060E+03 -0.17105125883E+02 -0.15339029681E+02  0.12024853416E+03  0.00000000000E+00 0.  1.
         12    1    5    5    0    0  0.83422575147E+02  0.52736284563E+02  0.11619903110E+02  0.99375368689E+02  0.00000000000E+00 0. -1.
        -13    1    3    3    0    0 -0.57060217095E+01 -0.28684447664E+02 -0.41773283082E+02  0.50993758452E+02  0.00000000000E+00 0.  1.
         14    1    3    3    0    0  0.14585864055E+03 -0.12440253253E+03 -0.16503753505E+03  0.25295873398E+03  0.00000000000E+00 0. -1.
          5    1    4    4  501    0 -0.40762312198E+03  0.17229982877E+03  0.29007731338E+04  0.29343399094E+04  0.47000000000E+01 0. -1.
         -5    1    4    4    0  501 -0.60136855884E+02  0.57938267140E+02  0.31997583776E+03  0.33072633852E+03  0.47000000000E+01 0. -1.
          1    1    1    2  502    0  0.13236310514E+03 -0.14674079519E+03 -0.44703609549E+03  0.48876796463E+03  0.00000000000E+00 0. -1.
          1    1    1    2  503    0 -0.62115318691E+01  0.33958520803E+02  0.24326603157E+03  0.24570333001E+03  0.00000000000E+00 0. -1.
<mgrwt>
<rscale>  0 0.82558882E+02</rscale>
<asrwt>0</asrwt>
<pdfrwt beam="1">  1        2 0.53893844E+00 0.34521939E+02</pdfrwt>
<pdfrwt beam="2">  1        2 0.12622537E+00 0.19743876E+03</pdfrwt>
<totfact> 0.81434728E+00</totfact>
</mgrwt>
</event>
<event>
13    1  0.2038932E-008  0.8359062E+02  0.7546771E-02  0.1320115E+00
         -1   -1    0    0    0  501 -0.00000000000E+00  0.00000000000E+00  0.12819251412E+04  0.12819251412E+04  0.00000000000E+00 0.  1.
          2   -1    0    0  503    0  0.00000000000E+00 -0.00000000000E+00 -0.61505528826E+03  0.61505528826E+03  0.00000000000E+00 0. -1.
         24    2    1    2    0    0  0.74873765735E+02  0.10843603821E+03 -0.59739920729E+02  0.16548177263E+03  0.80317518439E+02 0.  0.
         25    2    1    2    0    0 -0.57577521061E+02 -0.11516705613E+03 -0.14013201786E+03  0.22767370814E+03  0.12497885101E+03 0.  0.
         24    2    1    2    0    0 -0.37674169178E+02  0.33871573157E+02 -0.23844981575E+01  0.95377561951E+02  0.80774791866E+02 0.  0.
        -13    1    5    5    0    0 -0.61797023854E+02  0.23999179744E+02 -0.12421063780E+02  0.67447131970E+02  0.00000000000E+00 0.  1.
         14    1    5    5    0    0  0.24122854676E+02  0.98723934128E+01  0.10036565622E+02  0.27930429981E+02  0.00000000000E+00 0. -1.
        -13    1    3    3    0    0  0.52693545620E+02  0.25617505416E+02 -0.53791217528E+02  0.79538427297E+02  0.00000000000E+00 0.  1.
         14    1    3    3    0    0  0.22180220114E+02  0.82818532790E+02 -0.59487032009E+01  0.85943345336E+02  0.00000000000E+00 0. -1.
          5    1    4    4  502    0  0.11159627221E+02 -0.37617208507E+02 -0.11406141136E+03  0.12071324375E+03  0.47000000000E+01 0.  1.
         -5    1    4    4    0  502 -0.68737148281E+02 -0.77549847620E+02 -0.26070606505E+02  0.10696046439E+03  0.47000000000E+01 0.  1.
          1    1    1    2  503    0  0.80853917085E+02  0.30565995518E+02 -0.26115038704E+03  0.27508391563E+03  0.00000000000E+00 0. -1.
         -2    1    1    2    0  501 -0.60475992581E+02 -0.57706550752E+02  0.11302766767E+04  0.11333634711E+04  0.00000000000E+00 0.  1.
<mgrwt>
<rscale>  0 0.83234472E+02</rscale>
<asrwt>0</asrwt>
<pdfrwt beam="2">  1        2 0.90449307E-01 0.82879841E+02</pdfrwt>
<pdfrwt beam="1">  1       -1 0.18851840E+00 0.83590620E+02</pdfrwt>
<totfact> 0.13442483E+01</totfact>
</mgrwt>
</event>
<event>
13    1  0.2038932E-008  0.8990772E+02  0.7546771E-02  0.1328954E+00
          2   -1    0    0  503    0  0.00000000000E+00  0.00000000000E+00  0.68827651472E+03  0.68827651472E+03  0.00000000000E+00 0. -1.
          2   -1    0    0  502    0 -0.00000000000E+00 -0.00000000000E+00 -0.17733808162E+04  0.17733808162E+04  0.00000000000E+00 0. -1.
         24    2    1    2    0    0 -0.13412145896E+03  0.53693895302E+02 -0.13717220447E+03  0.21498065735E+03  0.80801418352E+02 0.  0.
         25    2    1    2    0    0  0.92797093135E+02 -0.11035545892E+03 -0.76818914279E+03  0.79153739610E+03  0.12500904975E+03 0.  0.
         24    2    1    2    0    0  0.56555429023E+02  0.21909381495E+02 -0.46212029379E+01  0.10226095025E+03  0.82203460263E+02 0.  0.
        -13    1    5    5    0    0  0.18086245603E+02 -0.43030976439E+01  0.35975169576E+02  0.40494959629E+02  0.00000000000E+00 0.  1.
         14    1    5    5    0    0  0.38469183420E+02  0.26212479139E+02 -0.40596372514E+02  0.61765990617E+02  0.00000000000E+00 0. -1.
        -13    1    3    3    0    0 -0.10528401023E+03  0.39006536200E+02 -0.51742233401E+02  0.12362641867E+03  0.00000000000E+00 0.  1.
         14    1    3    3    0    0 -0.28837448729E+02  0.14687359102E+02 -0.85429971072E+02  0.91354238675E+02  0.00000000000E+00 0. -1.
          5    1    4    4  501    0  0.93940654549E+02 -0.13348621563E+03 -0.71373112191E+03  0.73217321770E+03  0.47000000000E+01 0.  1.
         -5    1    4    4    0  501 -0.11435614143E+01  0.23130756711E+02 -0.54458020877E+02  0.59364178396E+02  0.47000000000E+01 0.  1.
          1    1    1    2  502    0  0.70806192711E+02  0.78991380272E+01 -0.75887300475E+03  0.76221004365E+03  0.00000000000E+00 0. -1.
          1    1    1    2  503    0 -0.86037255911E+02  0.26853044096E+02  0.58375125343E+03  0.59066828361E+03  0.00000000000E+00 0. -1.
<mgrwt>
<rscale>  0 0.80034466E+02</rscale>
<asrwt>0</asrwt>
<pdfrwt beam="1">  1        2 0.10121714E+00 0.89907725E+02</pdfrwt>
<pdfrwt beam="2">  1        2 0.26079129E+00 0.71245444E+02</pdfrwt>
<totfact> 0.88239448E+01</totfact>
</mgrwt>
</event>
<event>
13    1  0.2038932E-008  0.9186302E+02  0.7546771E-02  0.1323123E+00
          2   -1    0    0  503    0  0.00000000000E+00  0.00000000000E+00  0.14908022277E+04  0.14908022277E+04  0.00000000000E+00 0. -1.
         -3   -1    0    0    0  501 -0.00000000000E+00 -0.00000000000E+00 -0.74577638727E+03  0.74577638727E+03  0.00000000000E+00 0.  1.
         24    2    1    2    0    0  0.45474058816E+02 -0.39526422406E+02 -0.13141815936E+03  0.16426961263E+03  0.77997082831E+02 0.  0.
         25    2    1    2    0    0 -0.23722316926E+02 -0.20097756475E+02  0.36160678647E+03  0.38386568132E+03  0.12500690036E+03 0.  0.
         24    2    1    2    0    0  0.35968074328E+02  0.18913274115E+02 -0.13574035709E+02  0.92928410295E+02  0.82462237939E+02 0.  0.
        -11    1    3    3    0    0  0.29846979741E+02 -0.48086771769E+02 -0.13474051590E+03  0.14614440271E+03  0.00000000000E+00 0.  1.
         12    1    3    3    0    0  0.15627079075E+02  0.85603493634E+01  0.33223565386E+01  0.18125209919E+02  0.00000000000E+00 0. -1.
        -11    1    5    5    0    0  0.52734576018E+02  0.32132739354E+02  0.83623285252E+01  0.62316747224E+02  0.00000000000E+00 0.  1.
         12    1    5    5    0    0 -0.16766501691E+02 -0.13219465240E+02 -0.21936364234E+02  0.30611663071E+02  0.00000000000E+00 0. -1.
          5    1    4    4  502    0 -0.62586194308E+02 -0.49191866594E+02  0.21151152173E+03  0.22604443210E+03  0.47000000000E+01 0. -1.
         -5    1    4    4    0  502  0.38863877382E+02  0.29094110119E+02  0.15009526474E+03  0.15782124922E+03  0.47000000000E+01 0. -1.
          1    1    1    2  503    0  0.72351061692E+02  0.12494689705E+02  0.10523637364E+04  0.10549219057E+04  0.00000000000E+00 0. -1.
         -4    1    1    2    0  501 -0.13007087791E+03  0.28216215061E+02 -0.52395248738E+03  0.54059300505E+03  0.00000000000E+00 0.  1.
<mgrwt>
<rscale>  0 0.82126540E+02</rscale>
<asrwt>0</asrwt>
<pdfrwt beam="1">  1        2 0.21923562E+00 0.73422023E+02</pdfrwt>
<pdfrwt beam="2">  1       -3 0.10967300E+00 0.91863018E+02</pdfrwt>
<totfact> 0.74421522E+00</totfact>
</mgrwt>
</event>
<event>
13    1  0.2038932E-008  0.1224331E+03  0.7546771E-02  0.1316922E+00
          2   -1    0    0  503    0  0.00000000000E+00  0.00000000000E+00  0.13694061876E+04  0.13694061876E+04  0.00000000000E+00 0. -1.
         -1   -1    0    0    0  501 -0.00000000000E+00 -0.00000000000E+00 -0.11951062824E+04  0.11951062824E+04  0.00000000000E+00 0.  1.
         24    2    1    2    0    0  0.23754733673E+02  0.50379595092E+02 -0.41245955790E+03  0.42138465764E+03  0.65876792701E+02 0.  0.
         25    2    1    2    0    0 -0.38230079794E+02 -0.22527457993E+03  0.82637082371E+03  0.86644361497E+03  0.12500249711E+03 0.  0.
         24    2    1    2    0    0 -0.47347152902E+02  0.13111721868E+02  0.28904138612E+02  0.97543560981E+02  0.79155713134E+02 0.  0.
        -11    1    3    3    0    0 -0.44055071374E+01 -0.62895220833E+01 -0.18851141778E+03  0.18866775351E+03  0.00000000000E+00 0.  1.
         12    1    3    3    0    0  0.28160240811E+02  0.56669117175E+02 -0.22394814012E+03  0.23271690413E+03  0.00000000000E+00 0. -1.
        -13    1    5    5    0    0 -0.61307129437E+02  0.35763649400E+01 -0.29490162810E+01  0.61482121003E+02  0.00000000000E+00 0.  1.
         14    1    5    5    0    0  0.13959976536E+02  0.95353569279E+01  0.31853154893E+02  0.36061439978E+02  0.00000000000E+00 0. -1.
          5    1    4    4  502    0 -0.14702359639E+02  0.13262893127E+02  0.53332116266E+02  0.57082995178E+02  0.47000000000E+01 0. -1.
         -5    1    4    4    0  502 -0.23527720155E+02 -0.23853747306E+03  0.77303870745E+03  0.80936061980E+03  0.47000000000E+01 0. -1.
          1    1    1    2  503    0 -0.11640014096E+01  0.58215434834E+02  0.44834176227E+03  0.45210698684E+03  0.00000000000E+00 0. -1.
         -2    1    1    2    0  501  0.62986500432E+02  0.10356782813E+03 -0.71685726151E+03  0.72703364960E+03  0.00000000000E+00 0.  1.
<mgrwt>
<rscale>  0 0.84432930E+02</rscale>
<asrwt>0</asrwt>
<pdfrwt beam="1">  1        2 0.20138326E+00 0.58227071E+02</pdfrwt>
<pdfrwt beam="2">  1       -1 0.17575092E+00 0.12243308E+03</pdfrwt>
<totfact> 0.58146259E+00</totfact>
</mgrwt>
</event>
<event>
13    1  0.2038932E-008  0.8597224E+02  0.7546771E-02  0.1335158E+00
          2   -1    0    0  502    0  0.00000000000E+00  0.00000000000E+00  0.30189445561E+04  0.30189445561E+04  0.00000000000E+00 0. -1.
          4   -1    0    0  503    0 -0.00000000000E+00 -0.00000000000E+00 -0.10322153971E+03  0.10322153971E+03  0.00000000000E+00 0. -1.
         24    2    1    2    0    0  0.59691754218E+02  0.56164643824E+02  0.13192371365E+02  0.12315187332E+03  0.90965776547E+02 0.  0.
         25    2    1    2    0    0  0.36961914808E+02 -0.82898285692E+02  0.19076335798E+04  0.19138781013E+04  0.12500081129E+03 0.  0.
         24    2    1    2    0    0 -0.20056623723E+02 -0.18397815458E+02  0.27417142779E+03  0.28641714305E+03  0.78256375137E+02 0.  0.
        -11    1    5    5    0    0 -0.22608018001E+02 -0.44765505358E+02  0.22543998043E+03  0.23095076905E+03  0.00000000000E+00 0.  1.
         12    1    5    5    0    0  0.25513942776E+01  0.26367689900E+02  0.48731447360E+02  0.55466374005E+02  0.00000000000E+00 0. -1.
        -13    1    3    3    0    0  0.37948175563E+02 -0.19737593525E+02 -0.16839174050E+01  0.42807384930E+02  0.00000000000E+00 0.  1.
         14    1    3    3    0    0  0.21743578654E+02  0.75902237348E+02  0.14876288770E+02  0.80344488391E+02  0.00000000000E+00 0. -1.
          5    1    4    4  501    0  0.41851705301E+02 -0.99277237703E+02  0.18588115873E+04  0.18619372014E+04  0.47000000000E+01 0.  1.
         -5    1    4    4    0  501 -0.48897904932E+01  0.16378952011E+02  0.48821992565E+02  0.51940899858E+02  0.47000000000E+01 0.  1.
          1    1    1    2  502    0 -0.58224812231E+02 -0.39859363087E+02  0.70720950109E+03  0.71072088475E+03  0.00000000000E+00 0. -1.
          3    1    1    2  503    0 -0.18372233072E+02  0.84990820413E+02  0.13516136347E+02  0.87998093413E+02  0.00000000000E+00 0. -1.
<mgrwt>
<rscale>  0 0.77886539E+02</rscale>
<asrwt>0</asrwt>
<pdfrwt beam="1">  1        2 0.44396238E+00 0.70561304E+02</pdfrwt>
<pdfrwt beam="2">  1        4 0.15179640E-01 0.85972236E+02</pdfrwt>
<totfact> 0.52713161E+01</totfact>
</mgrwt>
</event>
<event>
13    1  0.2038932E-008  0.1087689E+03  0.7546771E-02  0.1356353E+00
          2   -1    0    0  503    0  0.00000000000E+00  0.00000000000E+00  0.21383602145E+04  0.21383602145E+04  0.00000000000E+00 0. -1.
          2   -1    0    0  502    0 -0.00000000000E+00 -0.00000000000E+00 -0.60229295994E+03  0.60229295994E+03  0.00000000000E+00 0. -1.
         24    2    1    2    0    0  0.15698336973E+03 -0.25910006832E+03 -0.11914598974E+03  0.33506086650E+03  0.79330912117E+02 0.  0.
         25    2    1    2    0    0  0.10595444551E+01  0.17543378592E+03 -0.18669976766E+03  0.28506063603E+03  0.12499850836E+03 0.  0.
         24    2    1    2    0    0 -0.11507566884E+03  0.13237363358E+03  0.11344564903E+03  0.22339824334E+03  0.79193884992E+02 0.  0.
        -11    1    3    3    0    0  0.24843837316E+02 -0.67196060959E+02  0.35539360810E+01  0.71729752005E+02  0.00000000000E+00 0.  1.
         12    1    3    3    0    0  0.13213953242E+03 -0.19190400736E+03 -0.12269992582E+03  0.26333111450E+03  0.00000000000E+00 0. -1.
        -11    1    5    5    0    0 -0.87753093947E+01  0.40247324099E+01  0.40228790641E+02  0.41371005818E+02  0.00000000000E+00 0.  1.
         12    1    5    5    0    0 -0.10630035945E+03  0.12834890117E+03  0.73216858385E+02  0.18202723753E+03  0.00000000000E+00 0. -1.
          5    1    4    4  501    0 -0.54299349184E+02  0.97040921352E+02 -0.13815442784E+03  0.17740940130E+03  0.47000000000E+01 0. -1.
         -5    1    4    4    0  501  0.55358893639E+02  0.78392864567E+02 -0.48545339822E+02  0.10765123473E+03  0.47000000000E+01 0. -1.
          1    1    1    2  502    0  0.13281113180E+02  0.44554439443E+02 -0.76156492516E+02  0.89226102648E+02  0.00000000000E+00 0. -1.
          1    1    1    2  503    0 -0.56248358527E+02 -0.93261790622E+02  0.18046238555E+04  0.18079073259E+04  0.00000000000E+00 0. -1.
<mgrwt>
<rscale>  0 0.71111618E+02</rscale>
<asrwt>0</asrwt>
<pdfrwt beam="1">  1        2 0.31446474E+00 0.10876894E+03</pdfrwt>
<pdfrwt beam="2">  1        2 0.88572495E-01 0.46491785E+02</pdfrwt>
<totfact> 0.66491644E+01</totfact>
</mgrwt>
</event>
<event>
13    1  0.2038932E-008  0.1273521E+03  0.7546771E-02  0.1347157E+00
          2   -1    0    0  503    0  0.00000000000E+00  0.00000000000E+00  0.16398706917E+04  0.16398706917E+04  0.00000000000E+00 0. -1.
          2   -1    0    0  502    0 -0.00000000000E+00 -0.00000000000E+00 -0.32705381168E+04  0.32705381168E+04  0.00000000000E+00 0. -1.
         24    2    1    2    0    0 -0.56477372004E+02 -0.94250286064E+02 -0.46144492625E+03  0.48108036287E+03  0.80212752139E+02 0.  0.
         25    2    1    2    0    0 -0.18420640266E+02  0.95745547852E+02 -0.54833898950E+03  0.57079296614E+03  0.12498973105E+03 0.  0.
         24    2    1    2    0    0  0.19288078524E+02  0.10961973681E+03  0.22706815877E+03  0.26440652449E+03  0.77216221049E+02 0.  0.
        -11    1    5    5    0    0 -0.16919696295E+02  0.48052838550E+02  0.41971418745E+02  0.66007207234E+02  0.00000000000E+00 0.  1.
         12    1    5    5    0    0  0.36207774819E+02  0.61566898261E+02  0.18509674003E+03  0.19839931726E+03  0.00000000000E+00 0. -1.
        -13    1    3    3    0    0 -0.31607103559E+02  0.63804268929E+01 -0.11891148640E+03  0.12320576464E+03  0.00000000000E+00 0.  1.
         14    1    3    3    0    0 -0.24870268445E+02 -0.10063071296E+03 -0.34253343985E+03  0.35787459823E+03  0.00000000000E+00 0. -1.
          5    1    4    4  501    0  0.18695028358E+02  0.15351297665E+01 -0.32444924917E+03  0.32502502364E+03  0.47000000000E+01 0. -1.
         -5    1    4    4    0  501 -0.37115668624E+02  0.94210418086E+02 -0.22388974034E+03  0.24576794250E+03  0.47000000000E+01 0. -1.
          1    1    1    2  502    0 -0.36306827008E+02 -0.22926340820E+02 -0.22178777739E+04  0.22182934032E+04  0.00000000000E+00 0. -1.
          1    1    1    2  503    0  0.91916760754E+02 -0.88188657780E+02  0.13699261058E+04  0.13758355518E+04  0.00000000000E+00 0. -1.
<mgrwt>
<rscale>  0 0.73948894E+02</rscale>
<asrwt>0</asrwt>
<pdfrwt beam="1">  1        2 0.24115746E+00 0.12735211E+03</pdfrwt>
<pdfrwt beam="2">  1        2 0.48096148E+00 0.42939525E+02</pdfrwt>
<totfact> 0.49942953E+00</totfact>
</mgrwt>
</event>
<event>
13    1  0.2038932E-008  0.5588343E+02  0.7546771E-02  0.1436199E+00
          4   -1    0    0  503    0  0.00000000000E+00  0.00000000000E+00  0.25391738102E+04  0.25391738102E+04  0.00000000000E+00 0. -1.
         -1   -1    0    0    0  501 -0.00000000000E+00 -0.00000000000E+00 -0.19566918935E+04  0.19566918935E+04  0.00000000000E+00 0.  1.
         24    2    1    2    0    0  0.19689594708E+02  0.31471272640E+03 -0.55022157319E+03  0.64055693646E+03  0.90208807452E+02 0.  0.
         25    2    1    2    0    0 -0.16160403143E+03 -0.37371707854E+03  0.10715575532E+04  0.11531002748E+04  0.12499734482E+03 0.  0.
         24    2    1    2    0    0  0.69677481612E+02 -0.11230541452E+02 -0.17986442318E+03  0.20942678920E+03  0.80791662976E+02 0.  0.
        -11    1    3    3    0    0  0.17456011050E+02  0.25519950424E+03 -0.50390207756E+03  0.56510954960E+03  0.00000000000E+00 0.  1.
         12    1    3    3    0    0  0.22335836584E+01  0.59513222153E+02 -0.46319495634E+02  0.75447386852E+02  0.00000000000E+00 0. -1.
        -11    1    5    5    0    0 -0.11459386123E+02 -0.15760849510E+02 -0.11888735534E+02  0.22826825014E+02  0.00000000000E+00 0.  1.
         12    1    5    5    0    0  0.81136867735E+02  0.45303080582E+01 -0.16797568764E+03  0.18659996419E+03  0.00000000000E+00 0. -1.
          5    1    4    4  502    0 -0.37184926380E+02 -0.24105244998E+03  0.60730152916E+03  0.65446637783E+03  0.47000000000E+01 0. -1.
         -5    1    4    4    0  502 -0.12441910505E+03 -0.13266462856E+03  0.46425602407E+03  0.49863389702E+03  0.47000000000E+01 0. -1.
          3    1    1    2  503    0  0.47658536981E+02  0.29126758261E+02  0.13658156067E+04  0.13669571960E+04  0.00000000000E+00 0. -1.
         -2    1    1    2    0  501  0.24578418133E+02  0.41108135338E+02 -0.11248052469E+04  0.11258245072E+04  0.00000000000E+00 0.  1.
<mgrwt>
<rscale>  0 0.51735520E+02</rscale>
<asrwt>0</asrwt>
<pdfrwt beam="1">  1        4 0.37340791E+00 0.55883431E+02</pdfrwt>
<pdfrwt beam="2">  1       -1 0.28774881E+00 0.47895484E+02</pdfrwt>
<totfact> 0.33897749E-03</totfact>
</mgrwt>
</event>
<event>
13    1  0.2038932E-008  0.1186547E+03  0.7546771E-02  0.1245534E+00
          4   -1    0    0  503    0 -0.00000000000E+00  0.00000000000E+00  0.75005503051E+03  0.75005503051E+03  0.00000000000E+00 0. -1.
          2   -1    0    0  502    0  0.00000000000E+00 -0.00000000000E+00 -0.41860199585E+04  0.41860199585E+04  0.00000000000E+00 0. -1.
         24    2    1    2    0    0  0.16508156620E+03  0.21861561907E+03  0.32350956549E+02  0.28813499938E+03  0.83249510974E+02 0.  0.
         25    2    1    2    0    0 -0.11661970657E+03 -0.36118211801E+03 -0.56444531047E+03  0.69157728414E+03  0.12501181186E+03 0.  0.
         24    2    1    2    0    0 -0.12245021796E+03 -0.37013611270E+01  0.60065565066E+02  0.15823295626E+03  0.80137634025E+02 0.  0.
        -11    1    3    3    0    0  0.16266460931E+03  0.18242569022E+03  0.47219968443E+02  0.24893499753E+03  0.00000000000E+00 0.  1.
         12    1    3    3    0    0  0.24169568946E+01  0.36189928844E+02 -0.14869011895E+02  0.39200001850E+02  0.00000000000E+00 0. -1.
        -13    1    5    5    0    0 -0.12854331311E+03 -0.17087773398E+02  0.45212771615E+02  0.13733014986E+03  0.00000000000E+00 0.  1.
         14    1    5    5    0    0  0.60930951470E+01  0.13386412271E+02  0.14852793451E+02  0.20902806396E+02  0.00000000000E+00 0. -1.
          5    1    4    4  501    0 -0.13972580163E+03 -0.29517392071E+03 -0.43019606584E+03  0.54013117682E+03  0.47000000000E+01 0.  1.
         -5    1    4    4    0  501  0.23106095067E+02 -0.66008197299E+02 -0.13424924463E+03  0.15144610732E+03  0.47000000000E+01 0.  1.
          1    1    1    2  502    0 -0.80347624317E+02  0.86984665533E+02 -0.33635664943E+04  0.33656502543E+04  0.00000000000E+00 0. -1.
          3    1    1    2  503    0  0.15433598264E+03  0.59283194537E+02  0.39963035520E+03  0.43247949488E+03  0.00000000000E+00 0. -1.
<mgrwt>
<rscale>  0 0.11853472E+03</rscale>
<asrwt>0</asrwt>
<pdfrwt beam="2">  1        2 0.61559115E+00 0.11841483E+03</pdfrwt>
<pdfrwt beam="1">  1        4 0.11030221E+00 0.11865473E+03</pdfrwt>
<totfact> 0.18655073E-01</totfact>
</mgrwt>
</event>
<event>
13    1  0.2038932E-008  0.1025541E+03  0.7546771E-02  0.1426619E+00
          2   -1    0    0  503    0  0.00000000000E+00  0.00000000000E+00  0.50628669794E+04  0.50628669794E+04  0.00000000000E+00 0. -1.
          2   -1    0    0  502    0 -0.00000000000E+00 -0.00000000000E+00 -0.95116943395E+03  0.95116943395E+03  0.00000000000E+00 0. -1.
         24    2    1    2    0    0  0.40689307797E+02 -0.11598328051E+02 -0.10912115658E+03  0.14179879611E+03  0.80058296156E+02 0.  0.
         25    2    1    2    0    0 -0.35433585911E+02  0.87384403060E+02  0.28517668763E+04  0.28560621642E+04  0.12500078462E+03 0.  0.
         24    2    1    2    0    0 -0.84341165963E+02 -0.50466212418E+02 -0.28027890335E+03  0.30746158875E+03  0.79473857468E+02 0.  0.
        -13    1    5    5    0    0 -0.24953148459E+02  0.10269864370E+02 -0.14669838423E+03  0.14915946389E+03  0.00000000000E+00 0.  1.
         14    1    5    5    0    0 -0.59388017504E+02 -0.60736076788E+02 -0.13358051913E+03  0.15830212486E+03  0.00000000000E+00 0. -1.
        -13    1    3    3    0    0 -0.46699399763E+01 -0.34846802683E+02 -0.67048870837E+02  0.75707721383E+02  0.00000000000E+00 0.  1.
         14    1    3    3    0    0  0.45359247773E+02  0.23248474632E+02 -0.42072285739E+02  0.66091074727E+02  0.00000000000E+00 0. -1.
          5    1    4    4  501    0 -0.62403979527E+02  0.33158179149E+02  0.73035851038E+03  0.73378427701E+03  0.47000000000E+01 0. -1.
         -5    1    4    4    0  501  0.26970393617E+02  0.54226223911E+02  0.21214083659E+04  0.21222778872E+04  0.47000000000E+01 0. -1.
          1    1    1    2  502    0 -0.22972605513E+02 -0.16114177842E+02 -0.52811414305E+03  0.52885910735E+03  0.00000000000E+00 0. -1.
          1    1    1    2  503    0  0.10205804959E+03 -0.92056847481E+01  0.21774448722E+04  0.21798547570E+04  0.00000000000E+00 0. -1.
<mgrwt>
<rscale>  0 0.53644637E+02</rscale>
<asrwt>0</asrwt>
<pdfrwt beam="1">  1        2 0.74453925E+00 0.10255407E+03</pdfrwt>
<pdfrwt beam="2">  1        2 0.13987786E+00 0.28060779E+02</pdfrwt>
<totfact> 0.51697281E-01</totfact>
</mgrwt>
</event>
<event>
13    1  0.2038932E-008  0.1554731E+03  0.7546771E-02  0.1227281E+00
          2   -1    0    0  503    0  0.00000000000E+00  0.00000000000E+00  0.16776443640E+04  0.16776443640E+04  0.00000000000E+00 0. -1.
          2   -1    0    0  502    0 -0.00000000000E+00 -0.00000000000E+00 -0.45329734931E+03  0.45329734931E+03  0.00000000000E+00 0. -1.
         24    2    1    2    0    0  0.20033074877E+03 -0.24170417531E+02 -0.73303078364E+02  0.22898985071E+03  0.79664248231E+02 0.  0.
         25    2    1    2    0    0  0.40158222852E+02 -0.21898561960E+03  0.43085709332E+03  0.50082700773E+03  0.12498988901E+03 0.  0.
         24    2    1    2    0    0 -0.18345556458E+03  0.21411607239E+03  0.17505455657E+03  0.34139661415E+03  0.80036952346E+02 0.  0.
        -11    1    3    3    0    0  0.17182438784E+02  0.63530293047E+01  0.14726478431E+02  0.23504602760E+02  0.00000000000E+00 0.  1.
         12    1    3    3    0    0  0.18314830999E+03 -0.30523446836E+02 -0.88029556795E+02  0.20548524795E+03  0.00000000000E+00 0. -1.
        -13    1    5    5    0    0 -0.17729707478E+03  0.17057117735E+03  0.12930160226E+03  0.27793467508E+03  0.00000000000E+00 0.  1.
         14    1    5    5    0    0 -0.61584898023E+01  0.43544895040E+02  0.45752954317E+02  0.63461939062E+02  0.00000000000E+00 0. -1.
          5    1    4    4  501    0 -0.42197865377E+02 -0.11049570776E+03  0.18237989612E+03  0.21742694816E+03  0.47000000000E+01 0.  1.
         -5    1    4    4    0  501  0.82356088228E+02 -0.10848991184E+03  0.24847719720E+03  0.28340005957E+03  0.47000000000E+01 0.  1.
          1    1    1    2  502    0  0.10067397830E+03  0.41513232703E+02 -0.15993385801E+03  0.19348756378E+03  0.00000000000E+00 0. -1.
          1    1    1    2  503    0 -0.15770738534E+03 -0.12473267963E+02  0.85167230122E+03  0.86624067699E+03  0.00000000000E+00 0. -1.
<mgrwt>
<rscale>  0 0.13011757E+03</rscale>
<asrwt>0</asrwt>
<pdfrwt beam="1">  1        2 0.24671241E+00 0.15547308E+03</pdfrwt>
<pdfrwt beam="2">  1        2 0.66661375E-01 0.10889719E+03</pdfrwt>
<totfact> 0.14454224E+02</totfact>
</mgrwt>
</event>
<event>
13    1  0.2038932E-008  0.1370032E+03  0.7546771E-02  0.1304073E+00
          2   -1    0    0  502    0  0.00000000000E+00  0.00000000000E+00  0.17885506383E+04  0.17885506383E+04  0.00000000000E+00 0. -1.
          2   -1    0    0  503    0 -0.00000000000E+00 -0.00000000000E+00 -0.28981375594E+04  0.28981375594E+04  0.00000000000E+00 0. -1.
         24    2    1    2    0    0  0.34997213298E+02  0.60009934510E+02 -0.67319902570E+03  0.68144003925E+03  0.79609055477E+02 0.  0.
         25    2    1    2    0    0  0.49465068612E+02 -0.10584203802E+03  0.11924883463E+03  0.20855253403E+03  0.12499817945E+03 0.  0.
         24    2    1    2    0    0  0.60358040646E+02 -0.10407939794E+03 -0.14218039530E+03  0.20285504301E+03  0.80369705252E+02 0.  0.
        -11    1    5    5    0    0  0.56401413990E+02 -0.11193796259E+03 -0.10165208464E+03  0.16138269201E+03  0.00000000000E+00 0.  1.
         12    1    5    5    0    0  0.39566266557E+01  0.78585646509E+01 -0.40528310656E+02  0.41472351000E+02  0.00000000000E+00 0. -1.
        -13    1    3    3    0    0 -0.92270940557E+01  0.65309465842E+01 -0.11549271950E+02  0.16161008959E+02  0.00000000000E+00 0.  1.
         14    1    3    3    0    0  0.44224307354E+02  0.53478987926E+02 -0.66164975375E+03  0.66527903029E+03  0.00000000000E+00 0. -1.
          5    1    4    4  501    0  0.29017574332E+01 -0.20402984529E+02 -0.26094723388E+02  0.33581640261E+02  0.47000000000E+01 0.  1.
         -5    1    4    4    0  501  0.46563311179E+02 -0.85439053489E+02  0.14534355802E+03  0.17497089377E+03  0.47000000000E+01 0.  1.
          1    1    1    2  502    0 -0.87495617570E+01  0.57805826542E+02  0.15862840162E+04  0.15873610328E+04  0.00000000000E+00 0. -1.
          1    1    1    2  503    0 -0.13607076080E+03  0.92105674903E+02 -0.19997403510E+04  0.20064795486E+04  0.00000000000E+00 0. -1.
<mgrwt>
<rscale>  0 0.89497425E+02</rscale>
<asrwt>0</asrwt>
<pdfrwt beam="1">  1        2 0.26302215E+00 0.58464249E+02</pdfrwt>
<pdfrwt beam="2">  1        2 0.42619670E+00 0.13700320E+03</pdfrwt>
<totfact> 0.59403533E+00</totfact>
</mgrwt>
</event>
<event>
13    1  0.2038932E-008  0.4814842E+02  0.7546771E-02  0.1512498E+00
          2   -1    0    0  503    0  0.00000000000E+00  0.00000000000E+00  0.16754186484E+04  0.16754186484E+04  0.00000000000E+00 0. -1.
         -1   -1    0    0    0  501 -0.00000000000E+00 -0.00000000000E+00 -0.49124210145E+03  0.49124210145E+03  0.00000000000E+00 0.  1.
         24    2    1    2    0    0  0.85121844281E-01 -0.10630323792E+02 -0.50921202116E+02  0.95411020588E+02  0.79983016916E+02 0.  0.
         25    2    1    2    0    0  0.10612349539E+02 -0.90903619441E+02  0.43491316866E+03  0.46168148958E+03  0.12499697420E+03 0.  0.
         24    2    1    2    0    0 -0.12727275394E+01  0.43555069126E+02  0.33453130251E+03  0.35132277747E+03  0.98070575236E+02 0.  0.
        -11    1    5    5    0    0 -0.18917282073E+02  0.36030183633E+02  0.32879150361E+03  0.33130030265E+03  0.00000000000E+00 0.  1.
         12    1    5    5    0    0  0.17644554533E+02  0.75248854932E+01  0.57397989057E+01  0.20022474818E+02  0.00000000000E+00 0. -1.
        -13    1    3    3    0    0  0.17330677658E+02 -0.41339213222E+02 -0.34427971316E+02  0.56520510851E+02  0.00000000000E+00 0.  1.
         14    1    3    3    0    0 -0.17245555814E+02  0.30708889430E+02 -0.16493230801E+02  0.38890509737E+02  0.00000000000E+00 0. -1.
          5    1    4    4  502    0  0.19254142900E+02  0.76525775876E+01  0.25845227472E+03  0.25932402948E+03  0.47000000000E+01 0.  1.
         -5    1    4    4    0  502 -0.86417933610E+01 -0.98556197029E+02  0.17646089395E+03  0.20235746010E+03  0.47000000000E+01 0.  1.
          1    1    1    2  503    0 -0.32555817658E+02  0.35464046779E+02  0.86061823295E+03  0.86196364352E+03  0.00000000000E+00 0. -1.
         -2    1    1    2    0  501  0.23131073814E+02  0.22514827329E+02 -0.39496495510E+03  0.39628181864E+03  0.00000000000E+00 0.  1.
<mgrwt>
<rscale>  0 0.39423412E+02</rscale>
<asrwt>0</asrwt>
<pdfrwt beam="1">  1        2 0.24638509E+00 0.48148421E+02</pdfrwt>
<pdfrwt beam="2">  1       -1 0.72241486E-01 0.32279468E+02</pdfrwt>
<totfact> 0.34243946E+01</totfact>
</mgrwt>
</event>
<event>
13    1  0.2038932E-008  0.1613995E+03  0.7546771E-02  0.1216876E+00
          2   -1    0    0  503    0  0.00000000000E+00  0.00000000000E+00  0.34754433568E+04  0.34754433568E+04  0.00000000000E+00 0. -1.
         -3   -1    0    0    0  501 -0.00000000000E+00 -0.00000000000E+00 -0.12439132534E+04  0.12439132534E+04  0.00000000000E+00 0.  1.
         24    2    1    2    0    0  0.38285240091E+03 -0.13536793172E+03 -0.38201022115E+03  0.56369415389E+03  0.83179638440E+02 0.  0.
         25    2    1    2    0    0 -0.68466001861E+03  0.12907394810E+03  0.77957951248E+03  0.10529903150E+04  0.12499984844E+03 0.  0.
         24    2    1    2    0    0  0.42700727551E+02  0.10619632205E+03 -0.22259961402E+03  0.26299160395E+03  0.80703064598E+02 0.  0.
        -11    1    5    5    0    0  0.16637614937E+02 -0.10848983444E+02 -0.37715836205E+02  0.42626224008E+02  0.00000000000E+00 0.  1.
         12    1    5    5    0    0  0.26063112614E+02  0.11704530550E+03 -0.18488377781E+03  0.22036537994E+03  0.00000000000E+00 0. -1.
        -13    1    3    3    0    0  0.13723861222E+02 -0.26156965488E+02 -0.25592390711E+02  0.39083265891E+02  0.00000000000E+00 0.  1.
         14    1    3    3    0    0  0.36912853969E+03 -0.10921096623E+03 -0.35641783043E+03  0.52461088800E+03  0.00000000000E+00 0. -1.
          5    1    4    4  502    0 -0.10202318305E+03 -0.22562029313E+02  0.13798754583E+03  0.17314857161E+03  0.47000000000E+01 0. -1.
         -5    1    4    4    0  502 -0.58263683555E+03  0.15163597741E+03  0.64159196665E+03  0.87984174342E+03  0.47000000000E+01 0. -1.
          1    1    1    2  503    0  0.15159606736E+03 -0.53839509305E+02  0.24366740109E+04  0.24419787665E+04  0.00000000000E+00 0. -1.
         -4    1    1    2    0  501  0.10751082279E+03 -0.46062829121E+02 -0.38011358482E+03  0.39770177094E+03  0.00000000000E+00 0.  1.
<mgrwt>
<rscale>  0 0.13739646E+03</rscale>
<asrwt>0</asrwt>
<pdfrwt beam="1">  1        2 0.51109461E+00 0.16139954E+03</pdfrwt>
<pdfrwt beam="2">  1       -3 0.18292842E+00 0.11696308E+03</pdfrwt>
<totfact> 0.18549403E-01</totfact>
</mgrwt>
</event>
<event>
13    1  0.2038932E-008  0.1475003E+03  0.7546771E-02  0.1237092E+00
          2   -1    0    0  502    0  0.00000000000E+00  0.00000000000E+00  0.27866940390E+04  0.27866940390E+04  0.00000000000E+00 0. -1.
          2   -1    0    0  503    0 -0.00000000000E+00 -0.00000000000E+00 -0.19261814951E+04  0.19261814951E+04  0.00000000000E+00 0. -1.
         24    2    1    2    0    0 -0.11347836319E+03 -0.19914488814E+02 -0.12894871735E+03  0.19045760959E+03  0.79827335972E+02 0.  0.
         25    2    1    2    0    0  0.12071365762E+02 -0.98665197379E+02  0.49109943242E+03  0.51640993587E+03  0.12498011961E+03 0.  0.
         24    2    1    2    0    0  0.90070787155E+02  0.27935311585E+02 -0.91669676609E+01  0.12586879459E+03  0.82860073762E+02 0.  0.
        -13    1    5    5    0    0  0.86685066708E+02  0.24172687900E+02  0.23340287737E+02  0.92969826622E+02  0.00000000000E+00 0.  1.
         14    1    5    5    0    0  0.33857204463E+01  0.37626236857E+01 -0.32507255398E+02  0.32898967970E+02  0.00000000000E+00 0. -1.
        -13    1    3    3    0    0  0.93931244840E+01 -0.14353968672E+02 -0.16671960840E+02  0.23921151362E+02  0.00000000000E+00 0.  1.
         14    1    3    3    0    0 -0.12287148768E+03 -0.55605201422E+01 -0.11227675651E+03  0.16653645823E+03  0.00000000000E+00 0. -1.
          5    1    4    4  501    0  0.46591518681E+02 -0.98146181395E+02  0.44789166303E+03  0.46090397519E+03  0.47000000000E+01 0.  1.
         -5    1    4    4    0  501 -0.34520152920E+02 -0.51901598408E+00  0.43207769383E+02  0.55505960673E+02  0.47000000000E+01 0.  1.
          1    1    1    2  502    0 -0.60508340849E+02 -0.84295652303E+02  0.21872978173E+04  0.21897576939E+04  0.00000000000E+00 0. -1.
          1    1    1    2  503    0  0.71844551125E+02  0.17494002691E+03 -0.16797690208E+04  0.16903815001E+04  0.00000000000E+00 0. -1.
<mgrwt>
<rscale>  0 0.12371439E+03</rscale>
<asrwt>0</asrwt>
<pdfrwt beam="1">  1        2 0.40980795E+00 0.10376423E+03</pdfrwt>
<pdfrwt beam="2">  1        2 0.28326198E+00 0.14750026E+03</pdfrwt>
<totfact> 0.55508513E+00</totfact>
</mgrwt>
</event>
<event>
13    1  0.2038932E-008  0.9292614E+02  0.7546771E-02  0.1422031E+00
          2   -1    0    0  503    0  0.00000000000E+00  0.00000000000E+00  0.28662784787E+04  0.28662784787E+04  0.00000000000E+00 0. -1.
          2   -1    0    0  502    0 -0.00000000000E+00 -0.00000000000E+00 -0.84145794911E+02  0.84145794911E+02  0.00000000000E+00 0. -1.
         24    2    1    2    0    0  0.11978462160E+03  0.55555290478E+02  0.41219250507E+03  0.44045414053E+03  0.81623788210E+02 0.  0.
         25    2    1    2    0    0 -0.20560863630E+03 -0.96954589009E+02  0.66920939347E+03  0.71773390330E+03  0.12500255993E+03 0.  0.
         24    2    1    2    0    0  0.90782001883E+01  0.34403883906E+02  0.52164702794E+03  0.52930731670E+03  0.82368518316E+02 0.  0.
        -11    1    5    5    0    0 -0.11866992097E+02  0.57150336349E+02  0.31544874384E+03  0.32080351687E+03  0.00000000000E+00 0.  1.
         12    1    5    5    0    0  0.20945192285E+02 -0.22746452442E+02  0.20619828410E+03  0.20850379983E+03  0.00000000000E+00 0. -1.
        -11    1    3    3    0    0  0.75756144172E+00  0.33628446423E+02  0.10601776012E+03  0.11122594917E+03  0.00000000000E+00 0.  1.
         12    1    3    3    0    0  0.11902706015E+03  0.21926844055E+02  0.30617474495E+03  0.32922819136E+03  0.00000000000E+00 0. -1.
          5    1    4    4  501    0 -0.40536997004E+02 -0.41891936762E+02  0.34332435495E+03  0.34826984537E+03  0.47000000000E+01 0.  1.
         -5    1    4    4    0  501 -0.16507163930E+03 -0.55062652247E+02  0.32588503851E+03  0.36946405793E+03  0.47000000000E+01 0.  1.
          1    1    1    2  502    0 -0.15256783888E+02  0.28212344110E+02 -0.33672322866E+02  0.46503022934E+02  0.00000000000E+00 0. -1.
          1    1    1    2  503    0  0.92002598404E+02 -0.21216929485E+02  0.12127560801E+04  0.12164258901E+04  0.00000000000E+00 0. -1.
<mgrwt>
<rscale>  0 0.54593602E+02</rscale>
<asrwt>0</asrwt>
<pdfrwt beam="1">  1        2 0.42151148E+00 0.92926142E+02</pdfrwt>
<pdfrwt beam="2">  1        2 0.12374384E-01 0.32073444E+02</pdfrwt>
<totfact> 0.23093387E+02</totfact>
</mgrwt>
</event>
<event>
13    1  0.2038932E-008  0.9508872E+02  0.7546771E-02  0.1448231E+00
          2   -1    0    0  502    0  0.00000000000E+00  0.00000000000E+00  0.18827474456E+04  0.18827474456E+04  0.00000000000E+00 0. -1.
          2   -1    0    0  503    0 -0.00000000000E+00 -0.00000000000E+00 -0.24124900907E+04  0.24124900907E+04  0.00000000000E+00 0. -1.
         24    2    1    2    0    0 -0.13325732747E+03  0.75234708055E+02 -0.11587327167E+04  0.11723670831E+04  0.91461971053E+02 0.  0.
         25    2    1    2    0    0  0.15320385816E+03 -0.87659990767E+02  0.70421802212E+03  0.73668615407E+03  0.12501108263E+03 0.  0.
         24    2    1    2    0    0 -0.15101472123E+02 -0.10188783181E+03  0.13936215859E+03  0.19122950486E+03  0.80856215280E+02 0.  0.
        -13    1    3    3    0    0 -0.45872085109E+02 -0.89150494916E+01 -0.17311103071E+03  0.17930743223E+03  0.00000000000E+00 0.  1.
         14    1    3    3    0    0 -0.87385242366E+02  0.84149757547E+02 -0.98562168600E+03  0.99305965087E+03  0.00000000000E+00 0. -1.
        -13    1    5    5    0    0 -0.35412639368E+02 -0.28609135899E+02  0.20048123325E+02  0.49743993936E+02  0.00000000000E+00 0.  1.
         14    1    5    5    0    0  0.20311167244E+02 -0.73278695914E+02  0.11931403526E+03  0.14148551092E+03  0.00000000000E+00 0. -1.
          5    1    4    4  501    0 -0.14115492957E+02 -0.48741538185E+01  0.17099014311E+03  0.17170533934E+03  0.47000000000E+01 0.  1.
         -5    1    4    4    0  501  0.16731935111E+03 -0.82785836949E+02  0.53322787901E+03  0.56498081473E+03  0.47000000000E+01 0.  1.
          1    1    1    2  502    0  0.14511253271E+02  0.21253564032E+02  0.98813976754E+03  0.98847483056E+03  0.00000000000E+00 0. -1.
          1    1    1    2  503    0 -0.19356311829E+02  0.93059550493E+02 -0.12027298767E+04  0.12064799638E+04  0.00000000000E+00 0. -1.
<mgrwt>
<rscale>  0 0.49468259E+02</rscale>
<asrwt>0</asrwt>
<pdfrwt beam="1">  1        2 0.27687463E+00 0.25735004E+02</pdfrwt>
<pdfrwt beam="2">  1        2 0.35477795E+00 0.95088719E+02</pdfrwt>
<totfact> 0.10905970E+01</totfact>
</mgrwt>
</event>
<event>
13    1  0.2038932E-008  0.9533535E+02  0.7546771E-02  0.1344691E+00
          2   -1    0    0  503    0  0.00000000000E+00  0.00000000000E+00  0.15577050043E+04  0.15577050043E+04  0.00000000000E+00 0. -1.
          2   -1    0    0  502    0 -0.00000000000E+00 -0.00000000000E+00 -0.52128434552E+03  0.52128434552E+03  0.00000000000E+00 0. -1.
         24    2    1    2    0    0 -0.47358892267E+02 -0.26767986889E+01 -0.16868483500E+03  0.19310141862E+03  0.81139105160E+02 0.  0.
         25    2    1    2    0    0 -0.92997981856E+02  0.66266165014E+02  0.59928714309E+03  0.62274226737E+03  0.12499208948E+03 0.  0.
         24    2    1    2    0    0  0.96678010469E+02 -0.13166981366E+03  0.12229849089E+03  0.21842552197E+03  0.77905136130E+02 0.  0.
        -11    1    5    5    0    0 -0.46354024014E+01 -0.39565177739E+01 -0.77707665584E+01  0.98755152384E+01  0.00000000000E+00 0.  1.
         12    1    5    5    0    0  0.10131341287E+03 -0.12771329588E+03  0.13006925745E+03  0.20855000673E+03  0.00000000000E+00 0. -1.
        -13    1    3    3    0    0 -0.56604609349E+02  0.27135528370E+02 -0.11313903639E+03  0.12938647632E+03  0.00000000000E+00 0.  1.
         14    1    3    3    0    0  0.92457170820E+01 -0.29812327058E+02 -0.55545798617E+02  0.63714942305E+02  0.00000000000E+00 0. -1.
          5    1    4    4  501    0  0.10402934392E+02 -0.27168907058E+02  0.89397696380E+02  0.94129743826E+02  0.47000000000E+01 0.  1.
         -5    1    4    4    0  501 -0.10340091625E+03  0.93435072071E+02  0.50988944671E+03  0.52861252354E+03  0.47000000000E+01 0.  1.
          1    1    1    2  502    0 -0.46418640382E+02  0.35746134707E+02 -0.27449873029E+03  0.28068136606E+03  0.00000000000E+00 0. -1.
          1    1    1    2  503    0  0.90097504036E+02  0.32334312627E+02  0.75801859012E+03  0.76403877583E+03  0.00000000000E+00 0. -1.
<mgrwt>
<rscale>  0 0.74735831E+02</rscale>
<asrwt>0</asrwt>
<pdfrwt beam="1">  1        2 0.22907426E+00 0.95335348E+02</pdfrwt>
<pdfrwt beam="2">  1        2 0.76659463E-01 0.58587339E+02</pdfrwt>
<totfact> 0.14950821E+02</totfact>
</mgrwt>
</event>
<event>
13    1  0.2038932E-008  0.9022576E+02  0.7546771E-02  0.1376942E+00
          2   -1    0    0  502    0  0.00000000000E+00  0.00000000000E+00  0.99220493081E+03  0.99220493081E+03  0.00000000000E+00 0. -1.
          2   -1    0    0  503    0 -0.00000000000E+00 -0.00000000000E+00 -0.20670689724E+04  0.20670689724E+04  0.00000000000E+00 0. -1.
         24    2    1    2    0    0 -0.24629012824E+02  0.52795295913E+01 -0.46338916559E+03  0.47020378828E+03  0.75681054551E+02 0.  0.
         25    2    1    2    0    0  0.88375463139E+01 -0.30080651645E+02  0.33738869528E+03  0.36116163330E+03  0.12499458323E+03 0.  0.
         24    2    1    2    0    0 -0.23095079359E+02 -0.89649193248E+02 -0.31543010792E+02  0.12647537497E+03  0.80191635502E+02 0.  0.
        -13    1    3    3    0    0  0.25324852593E+02 -0.24413293430E+01 -0.94395604528E+02  0.97764197956E+02  0.00000000000E+00 0.  1.
         14    1    3    3    0    0 -0.49953865417E+02  0.77208589343E+01 -0.36899356106E+03  0.37243959032E+03  0.00000000000E+00 0. -1.
        -13    1    5    5    0    0 -0.40926766304E+02 -0.13138446195E+02 -0.37678158855E+01  0.43148759021E+02  0.00000000000E+00 0.  1.
         14    1    5    5    0    0  0.17831686946E+02 -0.76510747054E+02 -0.27775194907E+02  0.83326615953E+02  0.00000000000E+00 0. -1.
          5    1    4    4  501    0 -0.34011993758E+02 -0.39161085589E+02  0.56511347995E+02  0.76850691578E+02  0.47000000000E+01 0.  1.
         -5    1    4    4    0  501  0.42849540072E+02  0.90804339445E+01  0.28087734729E+03  0.28431094173E+03  0.47000000000E+01 0.  1.
          1    1    1    2  502    0 -0.35336486165E+02  0.31327110654E+02  0.58905314673E+03  0.59094303007E+03  0.00000000000E+00 0. -1.
          1    1    1    2  503    0  0.74223032034E+02  0.83123204648E+02 -0.15063737072E+04  0.15104900765E+04  0.00000000000E+00 0. -1.
<mgrwt>
<rscale>  0 0.65274593E+02</rscale>
<asrwt>0</asrwt>
<pdfrwt beam="1">  1        2 0.14591249E+00 0.47223459E+02</pdfrwt>
<pdfrwt beam="2">  1        2 0.30398073E+00 0.90225761E+02</pdfrwt>
<totfact> 0.41211376E+01</totfact>
</mgrwt>
</event>
<event>
13    1  0.2038932E-008  0.5270718E+03  0.7546771E-02  0.1183385E+00
          2   -1    0    0  503    0  0.00000000000E+00  0.00000000000E+00  0.24458215427E+04  0.24458215427E+04  0.00000000000E+00 0. -1.
          2   -1    0    0  502    0 -0.00000000000E+00 -0.00000000000E+00 -0.16240069744E+04  0.16240069744E+04  0.00000000000E+00 0. -1.
         24    2    1    2    0    0  0.69546994932E+02 -0.10817025251E+03 -0.45822020595E+02  0.15802810213E+03  0.79596705081E+02 0.  0.
         25    2    1    2    0    0  0.54472385522E+01  0.48257316470E+02  0.99761095735E+03  0.10065838960E+04  0.12500030563E+03 0.  0.
         24    2    1    2    0    0  0.44680923266E+03  0.15171045554E+03 -0.17334029176E+02  0.47910128399E+03  0.81135806185E+02 0.  0.
        -11    1    5    5    0    0  0.15416346185E+03  0.86901927773E+02 -0.28022594477E+02  0.17917472987E+03  0.00000000000E+00 0.  1.
         12    1    5    5    0    0  0.29264577081E+03  0.64808527771E+02  0.10688565301E+02  0.29992655413E+03  0.00000000000E+00 0. -1.
        -11    1    3    3    0    0  0.25717507564E+02 -0.95665793870E+02 -0.52252324351E+02  0.11199839156E+03  0.00000000000E+00 0.  1.
         12    1    3    3    0    0  0.43829487368E+02 -0.12504458639E+02  0.64303037556E+01  0.46029710571E+02  0.00000000000E+00 0. -1.
          5    1    4    4  501    0  0.13981102920E+01 -0.41732077814E+02  0.24371471480E+03  0.24731047944E+03  0.47000000000E+01 0.  1.
         -5    1    4    4    0  501  0.40491282602E+01  0.89989394283E+02  0.75389624255E+03  0.75927341653E+03  0.47000000000E+01 0.  1.
          1    1    1    2  502    0 -0.54213114340E+03 -0.44450435351E+02 -0.12104727339E+04  0.13270743224E+04  0.00000000000E+00 0. -1.
          1    1    1    2  503    0  0.20327677253E+02 -0.47347084154E+02  0.10978323946E+04  0.10990409125E+04  0.00000000000E+00 0. -1.
<mgrwt>
<rscale>  0 0.16479705E+03</rscale>
<asrwt>0</asrwt>
<pdfrwt beam="1">  1        2 0.35967964E+00 0.51526312E+02</pdfrwt>
<pdfrwt beam="2">  1        2 0.23882455E+00 0.52707185E+03</pdfrwt>
<totfact> 0.11560187E+01</totfact>
</mgrwt>
</event>
<event>
13    1  0.2038932E-008  0.3338367E+03  0.7546771E-02  0.1096818E+00
          2   -1    0    0  502    0  0.00000000000E+00  0.00000000000E+00  0.22956602245E+04  0.22956602245E+04  0.00000000000E+00 0. -1.
          2   -1    0    0  503    0 -0.00000000000E+00 -0.00000000000E+00 -0.37235188644E+04  0.37235188644E+04  0.00000000000E+00 0. -1.
         24    2    1    2    0    0  0.15393558031E+02  0.93690448459E+02 -0.40274003748E+03  0.42143986698E+03  0.79982260054E+02 0.  0.
         25    2    1    2    0    0  0.21157346625E+01 -0.19662248138E+01  0.13251698915E+02  0.12573719015E+03  0.12500356431E+03 0.  0.
         24    2    1    2    0    0 -0.20892816371E+02 -0.10681310385E+03  0.33998687298E+02  0.13820731906E+03  0.78101237973E+02 0.  0.
        -11    1    3    3    0    0  0.46752237023E+02  0.72029578673E+02 -0.26885074546E+03  0.28223174025E+03  0.00000000000E+00 0.  1.
         12    1    3    3    0    0 -0.31358678991E+02  0.21660869786E+02 -0.13388929202E+03  0.13920812672E+03  0.00000000000E+00 0. -1.
        -13    1    5    5    0    0  0.14663049371E+02 -0.22307123121E+02  0.37999179449E+02  0.46438673512E+02  0.00000000000E+00 0.  1.
         14    1    5    5    0    0 -0.35555865742E+02 -0.84505980728E+02 -0.40004921508E+01  0.91768645543E+02  0.00000000000E+00 0. -1.
          5    1    4    4  501    0  0.17338945564E+01 -0.62898609051E+02  0.13937493536E+02  0.64618767684E+02  0.47000000000E+01 0. -1.
         -5    1    4    4    0  501  0.38184010603E+00  0.60932384237E+02 -0.68579462122E+00  0.61118422468E+02  0.47000000000E+01 0. -1.
          1    1    1    2  502    0  0.44049041355E+03  0.19036406347E+03  0.20860129962E+04  0.21404953869E+04  0.00000000000E+00 0. -1.
          1    1    1    2  503    0 -0.43710688987E+03 -0.17527518326E+03 -0.31583819847E+04  0.31932993258E+04  0.00000000000E+00 0. -1.
<mgrwt>
<rscale>  0 0.27794169E+03</rscale>
<asrwt>0</asrwt>
<pdfrwt beam="1">  1        2 0.33759709E+00 0.33383670E+03</pdfrwt>
<pdfrwt beam="2">  1        2 0.54757630E+00 0.23140530E+03</pdfrwt>
<totfact> 0.85814175E-01</totfact>
</mgrwt>
</event>
<event>
13    1  0.2038932E-008  0.6786413E+02  0.7546771E-02  0.1379009E+00
          2   -1    0    0  503    0  0.00000000000E+00  0.00000000000E+00  0.63808085208E+03  0.63808085208E+03  0.00000000000E+00 0. -1.
          2   -1    0    0  502    0 -0.00000000000E+00 -0.00000000000E+00 -0.16492330879E+04  0.16492330879E+04  0.00000000000E+00 0. -1.
         24    2    1    2    0    0  0.14573078315E+02 -0.56139264568E+02 -0.22746705531E+03  0.24758724987E+03  0.78703198222E+02 0.  0.
         25    2    1    2    0    0 -0.73753384691E+02  0.30838611607E+02  0.23842324060E+03  0.28081279139E+03  0.12497839987E+03 0.  0.
         24    2    1    2    0    0 -0.58017435562E+00  0.70958278101E+02 -0.52820773854E+02  0.11883548492E+03  0.79350012551E+02 0.  0.
        -11    1    5    5    0    0  0.18957961691E+02  0.53646812157E+02  0.32450674923E+01  0.56990483672E+02  0.00000000000E+00 0.  1.
         12    1    5    5    0    0 -0.19538136047E+02  0.17311465944E+02 -0.56065841346E+02  0.61845001246E+02  0.00000000000E+00 0. -1.
        -13    1    3    3    0    0  0.21269496734E+01  0.19459706032E+02 -0.66411077844E+02  0.69236084047E+02  0.00000000000E+00 0.  1.
         14    1    3    3    0    0  0.12446128641E+02 -0.75598970600E+02 -0.16105597747E+03  0.17835116583E+03  0.00000000000E+00 0. -1.
          5    1    4    4  501    0 -0.13506195687E+02  0.60956271851E+02  0.18314362150E+03  0.19355040815E+03  0.47000000000E+01 0.  1.
         -5    1    4    4    0  501 -0.60247189004E+02 -0.30117660244E+02  0.55279619104E+02  0.87262383246E+02  0.47000000000E+01 0.  1.
          1    1    1    2  502    0  0.21716698226E+01 -0.67888669501E+02 -0.13009490831E+04  0.13027210386E+04  0.00000000000E+00 0. -1.
          1    1    1    2  503    0  0.57588810910E+02  0.22231044360E+02  0.33166143592E+03  0.33735737512E+03  0.00000000000E+00 0. -1.
<mgrwt>
<rscale>  0 0.64724853E+02</rscale>
<asrwt>0</asrwt>
<pdfrwt beam="1">  1        2 0.93835421E-01 0.61730790E+02</pdfrwt>
<pdfrwt beam="2">  1        2 0.24253427E+00 0.67864133E+02</pdfrwt>
<totfact> 0.11161211E+02</totfact>
</mgrwt>
</event>
<event>
13    1  0.2038932E-008  0.3638205E+02  0.7546771E-02  0.1553727E+00
          2   -1    0    0  503    0  0.00000000000E+00  0.00000000000E+00  0.10726050953E+04  0.10726050953E+04  0.00000000000E+00 0. -1.
          2   -1    0    0  502    0 -0.00000000000E+00 -0.00000000000E+00 -0.25101148011E+04  0.25101148011E+04  0.00000000000E+00 0. -1.
         24    2    1    2    0    0 -0.52367276315E+03 -0.54799241297E+02 -0.13793215664E+04  0.14785544983E+04  0.79745227080E+02 0.  0.
         25    2    1    2    0    0  0.44953784000E+03  0.98110845565E+02 -0.21375879327E+03  0.52251646803E+03  0.12498251898E+03 0.  0.
         24    2    1    2    0    0  0.39146508547E+02 -0.91248056269E+02  0.14497618883E+03  0.18475531426E+03  0.57076912265E+02 0.  0.
        -11    1    3    3    0    0 -0.46606314539E+03 -0.50728620940E+02 -0.12862056467E+04  0.13689825470E+04  0.00000000000E+00 0.  1.
         12    1    3    3    0    0 -0.57609617753E+02 -0.40706203575E+01 -0.93115919781E+02  0.10957195136E+03  0.00000000000E+00 0. -1.
        -11    1    5    5    0    0  0.63657994163E+01 -0.78780182318E+02  0.92929393206E+02  0.12199472386E+03  0.00000000000E+00 0.  1.
         12    1    5    5    0    0  0.32780709130E+02 -0.12467873951E+02  0.52046795623E+02  0.62760590394E+02  0.00000000000E+00 0. -1.
          5    1    4    4  501    0  0.42705569627E+03  0.10266978752E+03 -0.16644872801E+03  0.46972856209E+03  0.47000000000E+01 0. -1.
         -5    1    4    4    0  501  0.22482143735E+02 -0.45589419583E+01 -0.47310065264E+02  0.52787905945E+02  0.47000000000E+01 0. -1.
          1    1    1    2  502    0  0.32930300658E+02  0.15420009002E+02 -0.69229507550E+03  0.69324934399E+03  0.00000000000E+00 0. -1.
          1    1    1    2  503    0  0.20581139426E+01  0.32516443000E+02  0.70288954059E+03  0.70364427175E+03  0.00000000000E+00 0. -1.
<mgrwt>
<rscale>  0 0.34429381E+02</rscale>
<asrwt>0</asrwt>
<pdfrwt beam="1">  1        2 0.15773604E+00 0.32581512E+02</pdfrwt>
<pdfrwt beam="2">  1        2 0.36913453E+00 0.36382053E+02</pdfrwt>
<totfact> 0.26290512E+01</totfact>
</mgrwt>
</event>
<event>
13    1  0.2038932E-008  0.1253719E+03  0.7546771E-02  0.1252269E+00
          2   -1    0    0  502    0  0.00000000000E+00  0.00000000000E+00  0.25199331879E+04  0.25199331879E+04  0.00000000000E+00 0. -1.
          2   -1    0    0  503    0 -0.00000000000E+00 -0.00000000000E+00 -0.23080015626E+04  0.23080015626E+04  0.00000000000E+00 0. -1.
         24    2    1    2    0    0  0.38314056203E+02 -0.39206642727E+02 -0.59475015849E+03  0.60269504700E+03  0.80674908855E+02 0.  0.
         25    2    1    2    0    0  0.11752876901E+03 -0.11451292607E+03  0.45649742704E+03  0.50094019905E+03  0.12499984139E+03 0.  0.
         24    2    1    2    0    0 -0.32132596283E+02 -0.15168480216E+01 -0.24378285793E+03  0.25893706362E+03  0.81138871855E+02 0.  0.
        -11    1    5    5    0    0 -0.80320436809E+01 -0.15789044944E+02 -0.48479218595E+01  0.18366001533E+02  0.00000000000E+00 0.  1.
         12    1    5    5    0    0 -0.24100552602E+02  0.14272196923E+02 -0.23893493607E+03  0.24057106209E+03  0.00000000000E+00 0. -1.
        -13    1    3    3    0    0 -0.21413254019E+02 -0.84470878793E+00 -0.71218697863E+02  0.74373005223E+02  0.00000000000E+00 0.  1.
         14    1    3    3    0    0  0.59727310222E+02 -0.38361933939E+02 -0.52353146063E+03  0.52832204178E+03  0.00000000000E+00 0. -1.
          5    1    4    4  501    0  0.23859929578E+01 -0.76343799539E+02  0.24949885547E+03  0.26097095158E+03  0.47000000000E+01 0.  1.
         -5    1    4    4    0  501  0.11514277605E+03 -0.38169126534E+02  0.20699857158E+03  0.23996924747E+03  0.47000000000E+01 0.  1.
          1    1    1    2  502    0 -0.12417906395E+03 -0.25765068571E+02  0.20219653309E+04  0.20259388139E+04  0.00000000000E+00 0. -1.
          1    1    1    2  503    0  0.46883502210E+00  0.18100148539E+03 -0.14279981162E+04  0.14394236268E+04  0.00000000000E+00 0. -1.
<mgrwt>
<rscale>  0 0.11460679E+03</rscale>
<asrwt>0</asrwt>
<pdfrwt beam="1">  1        2 0.37057841E+00 0.10476605E+03</pdfrwt>
<pdfrwt beam="2">  1        2 0.33941199E+00 0.12537189E+03</pdfrwt>
<totfact> 0.50046222E+00</totfact>
</mgrwt>
</event>
<event>
13    1  0.2038932E-008  0.4190154E+02  0.7546771E-02  0.1496176E+00
          2   -1    0    0  503    0  0.00000000000E+00  0.00000000000E+00  0.27645049714E+03  0.27645049714E+03  0.00000000000E+00 0. -1.
          2   -1    0    0  502    0 -0.00000000000E+00 -0.00000000000E+00 -0.15703531624E+04  0.15703531624E+04  0.00000000000E+00 0. -1.
         24    2    1    2    0    0 -0.66406843117E+02  0.11810758486E+03 -0.69570879605E+03  0.71366836263E+03  0.83381847499E+02 0.  0.
         25    2    1    2    0    0  0.76532250459E+02 -0.39946796177E+02  0.74233110211E+02  0.16908614397E+03  0.12500655001E+03 0.  0.
         24    2    1    2    0    0  0.16420453876E+02 -0.41136241223E+02 -0.10686725075E+03  0.14120030591E+03  0.80963544016E+02 0.  0.
        -11    1    5    5    0    0  0.74741050009E+01  0.19397253649E+02 -0.61805196885E+02  0.65207346646E+02  0.00000000000E+00 0.  1.
         12    1    5    5    0    0  0.89463488753E+01 -0.60533494872E+02 -0.45062053866E+02  0.75992959268E+02  0.00000000000E+00 0. -1.
        -11    1    3    3    0    0 -0.65173934771E+02  0.31705157542E+02 -0.29921304761E+03  0.30786572828E+03  0.00000000000E+00 0.  1.
         12    1    3    3    0    0 -0.12329083458E+01  0.86402427316E+02 -0.39649574845E+03  0.40580263435E+03  0.00000000000E+00 0. -1.
          5    1    4    4  501    0  0.72223286445E+02 -0.82534709389E+01 -0.14828099913E+02  0.74338990002E+02  0.47000000000E+01 0.  1.
         -5    1    4    4    0  501  0.43089640137E+01 -0.31693325238E+02  0.89061210123E+02  0.94747153963E+02  0.47000000000E+01 0.  1.
          1    1    1    2  502    0  0.15394826403E+02 -0.38502963709E+02 -0.69014271866E+03  0.69138733790E+03  0.00000000000E+00 0. -1.
          1    1    1    2  503    0 -0.41940687621E+02  0.14784162506E+01  0.12458298998E+03  0.13146150914E+03  0.00000000000E+00 0. -1.
<mgrwt>
<rscale>  0 0.41683502E+02</rscale>
<asrwt>0</asrwt>
<pdfrwt beam="1">  1        2 0.40654483E-01 0.41901538E+02</pdfrwt>
<pdfrwt beam="2">  1        2 0.23093430E+00 0.41466600E+02</pdfrwt>
<totfact> 0.30322074E+02</totfact>
</mgrwt>
</event>
<event>
13    1  0.2038932E-008  0.3454437E+03  0.7546771E-02  0.1281203E+00
          2   -1    0    0  502    0  0.00000000000E+00  0.00000000000E+00  0.15823370089E+04  0.15823370089E+04  0.00000000000E+00 0. -1.
          2   -1    0    0  503    0 -0.00000000000E+00 -0.00000000000E+00 -0.17565415671E+04  0.17565415671E+04  0.00000000000E+00 0. -1.
         24    2    1    2    0    0 -0.37855112220E+02 -0.88802029957E+02 -0.46111761227E+02  0.13367721376E+03  0.80152934510E+02 0.  0.
         25    2    1    2    0    0  0.50080780183E+02 -0.19710126556E+03  0.46373063030E+03  0.52156309652E+03  0.12499989098E+03 0.  0.
         24    2    1    2    0    0 -0.36618027267E+02 -0.65871107008E+02  0.61087030754E+03  0.62071902128E+03  0.80309950140E+02 0.  0.
        -11    1    3    3    0    0  0.13082977171E+01  0.14630344684E+02 -0.77980910765E+01  0.16630359375E+02  0.00000000000E+00 0.  1.
         12    1    3    3    0    0 -0.39163409938E+02 -0.10343237464E+03 -0.38313670150E+02  0.11704685439E+03  0.00000000000E+00 0. -1.
        -13    1    5    5    0    0 -0.21774892988E+02 -0.77195995836E+02  0.34529950132E+03  0.35449275500E+03  0.00000000000E+00 0.  1.
         14    1    5    5    0    0 -0.14843134279E+02  0.11324888828E+02  0.26557080622E+03  0.26622626628E+03  0.00000000000E+00 0. -1.
          5    1    4    4  501    0  0.90146973329E+02 -0.14034828247E+03  0.35776037953E+03  0.39476410216E+03  0.47000000000E+01 0.  1.
         -5    1    4    4    0  501 -0.40066193146E+02 -0.56752983093E+02  0.10597025076E+03  0.12679899436E+03  0.47000000000E+01 0.  1.
          1    1    1    2  502    0  0.28691269464E+02  0.69956959870E+00  0.41073197330E+03  0.41173344803E+03  0.00000000000E+00 0. -1.
          1    1    1    2  503    0 -0.42989101595E+01  0.35107483293E+03 -0.16134257081E+04  0.16511857965E+04  0.00000000000E+00 0. -1.
<mgrwt>
<rscale>  0 0.99569896E+02</rscale>
<asrwt>0</asrwt>
<pdfrwt beam="1">  1        2 0.23269662E+00 0.28699797E+02</pdfrwt>
<pdfrwt beam="2">  1        2 0.25831493E+00 0.34544371E+03</pdfrwt>
<totfact> 0.27347141E+01</totfact>
</mgrwt>
</event>
<event>
13    1  0.2038932E-008  0.1022601E+03  0.7546771E-02  0.1392542E+00
          2   -1    0    0  502    0  0.00000000000E+00  0.00000000000E+00  0.19832591835E+04  0.19832591835E+04  0.00000000000E+00 0. -1.
          2   -1    0    0  503    0 -0.00000000000E+00 -0.00000000000E+00 -0.20891324939E+04  0.20891324939E+04  0.00000000000E+00 0. -1.
         24    2    1    2    0    0 -0.14335684901E+03 -0.62573788431E+02 -0.80794681488E+03  0.82700999492E+03  0.81858480679E+02 0.  0.
         25    2    1    2    0    0  0.20821093669E+03 -0.49815995474E+02 -0.61251533455E+01  0.24798485842E+03  0.12500217973E+03 0.  0.
         24    2    1    2    0    0 -0.17079382704E+02 -0.42821406578E+01  0.44844064299E+02  0.93828393649E+02  0.80515435227E+02 0.  0.
        -11    1    5    5    0    0 -0.40874308200E+02 -0.24911229409E+02  0.14301582627E+02  0.49958119331E+02  0.00000000000E+00 0.  1.
         12    1    5    5    0    0  0.23794925496E+02  0.20629088751E+02  0.30542481672E+02  0.43870274318E+02  0.00000000000E+00 0. -1.
        -13    1    3    3    0    0 -0.57621203903E+02 -0.69524301662E+02 -0.39277242359E+03  0.40301862041E+03  0.00000000000E+00 0.  1.
         14    1    3    3    0    0 -0.85735645105E+02  0.69505132311E+01 -0.41517439129E+03  0.42399137451E+03  0.00000000000E+00 0. -1.
          5    1    4    4  501    0  0.11660380680E+03 -0.90388051412E+02 -0.36289095091E+01  0.14765400971E+03  0.47000000000E+01 0.  1.
         -5    1    4    4    0  501  0.91607129888E+02  0.40572055938E+02 -0.24962438364E+01  0.10033084871E+03  0.47000000000E+01 0.  1.
          1    1    1    2  502    0 -0.33150693824E+02  0.15794688097E+02  0.17809528612E+04  0.17813313938E+04  0.00000000000E+00 0. -1.
          1    1    1    2  503    0 -0.14624011153E+02  0.10087723647E+03 -0.11175982676E+04  0.11222370366E+04  0.00000000000E+00 0. -1.
<mgrwt>
<rscale>  0 0.61278909E+02</rscale>
<asrwt>0</asrwt>
<pdfrwt beam="1">  1        2 0.29165576E+00 0.36721120E+02</pdfrwt>
<pdfrwt beam="2">  1        2 0.30722536E+00 0.10226008E+03</pdfrwt>
<totfact> 0.13429595E+01</totfact>
</mgrwt>
</event>
<event>
13    1  0.2038932E-008  0.1497262E+03  0.7546771E-02  0.1325697E+00
          2   -1    0    0  502    0  0.00000000000E+00  0.00000000000E+00  0.18951151524E+04  0.18951151524E+04  0.00000000000E+00 0. -1.
          2   -1    0    0  503    0 -0.00000000000E+00 -0.00000000000E+00 -0.14359986448E+04  0.14359986448E+04  0.00000000000E+00 0. -1.
         24    2    1    2    0    0 -0.24059900438E+03  0.12599058075E+03 -0.28951080942E+03  0.40377929032E+03  0.73889777214E+02 0.  0.
         25    2    1    2    0    0  0.47843931838E+02 -0.26796210896E+03  0.31682442081E+03  0.43601093658E+03  0.12504035166E+03 0.  0.
         24    2    1    2    0    0  0.45714812140E+00 -0.32834598709E+02 -0.14368308734E+03  0.16793548755E+03  0.80493344658E+02 0.  0.
        -11    1    5    5    0    0 -0.55569502581E+01 -0.48249817235E+02 -0.39942182700E+02  0.62883245131E+02  0.00000000000E+00 0.  1.
         12    1    5    5    0    0  0.60140983795E+01  0.15415218526E+02 -0.10374090464E+03  0.10505224242E+03  0.00000000000E+00 0. -1.
        -11    1    3    3    0    0  0.54957947677E+01  0.39022026025E+01 -0.64876976051E+01  0.93552747418E+01  0.00000000000E+00 0.  1.
         12    1    3    3    0    0 -0.24609479914E+03  0.12208837814E+03 -0.28302311181E+03  0.39442401558E+03  0.00000000000E+00 0. -1.
          5    1    4    4  501    0  0.52403527667E+02 -0.87745808231E+02  0.18917586873E+03  0.21506988604E+03  0.47000000000E+01 0.  1.
         -5    1    4    4    0  501 -0.45595958283E+01 -0.18021630073E+03  0.12764855208E+03  0.22094105053E+03  0.47000000000E+01 0.  1.
          1    1    1    2  502    0 -0.34780504509E+02  0.26999558641E+02  0.14280897190E+04  0.14287683175E+04  0.00000000000E+00 0. -1.
          1    1    1    2  503    0  0.22707842893E+03  0.14780656828E+03 -0.85260373551E+03  0.89461976521E+03  0.00000000000E+00 0. -1.
<mgrwt>
<rscale>  0 0.81194070E+02</rscale>
<asrwt>0</asrwt>
<pdfrwt beam="1">  1        2 0.27869341E+00 0.44030213E+02</pdfrwt>
<pdfrwt beam="2">  1        2 0.21117627E+00 0.14972621E+03</pdfrwt>
<totfact> 0.29200975E+01</totfact>
</mgrwt>
</event>
<event>
13    1  0.2038932E-008  0.2760999E+03  0.7546771E-02  0.1163678E+00
          2   -1    0    0  503    0  0.00000000000E+00  0.00000000000E+00  0.32903136741E+04  0.32903136741E+04  0.00000000000E+00 0. -1.
          2   -1    0    0  502    0 -0.00000000000E+00 -0.00000000000E+00 -0.39415244204E+04  0.39415244204E+04  0.00000000000E+00 0. -1.
         24    2    1    2    0    0  0.37905104666E+02  0.13457362872E+03 -0.10745422520E+04  0.10865993335E+04  0.80685821353E+02 0.  0.
         25    2    1    2    0    0  0.95750231799E+02  0.35662539099E+03  0.99784720419E+03  0.10712955619E+04  0.12500144653E+03 0.  0.
         24    2    1    2    0    0 -0.85184122019E+02 -0.11496558634E+03 -0.20304427791E+03  0.26023514097E+03  0.77601089670E+02 0.  0.
        -11    1    5    5    0    0 -0.90744903113E+02 -0.64719436984E+02 -0.12767452948E+03  0.16948164633E+03  0.00000000000E+00 0.  1.
         12    1    5    5    0    0  0.55607810936E+01 -0.50246149353E+02 -0.75369748433E+02  0.90753494644E+02  0.00000000000E+00 0. -1.
        -13    1    3    3    0    0  0.23255930786E+02  0.22955691245E+02 -0.50392061280E+03  0.50497899569E+03  0.00000000000E+00 0.  1.
         14    1    3    3    0    0  0.14649173880E+02  0.11161793748E+03 -0.57062163918E+03  0.58162033782E+03  0.00000000000E+00 0. -1.
          5    1    4    4  501    0  0.92916756556E+02  0.24926621270E+03  0.83330835119E+03  0.87475257451E+03  0.47000000000E+01 0. -1.
         -5    1    4    4    0  501  0.28334752428E+01  0.10735917829E+03  0.16453885300E+03  0.19654298739E+03  0.47000000000E+01 0. -1.
          1    1    1    2  502    0 -0.22975778117E+01 -0.12303912205E+03 -0.25836646670E+04  0.25865937091E+04  0.00000000000E+00 0. -1.
          1    1    1    2  503    0 -0.46173636634E+02 -0.25319431132E+03  0.22121932464E+04  0.22271143490E+04  0.00000000000E+00 0. -1.
<mgrwt>
<rscale>  0 0.18432855E+03</rscale>
<asrwt>0</asrwt>
<pdfrwt beam="1">  1        2 0.48386966E+00 0.27609992E+03</pdfrwt>
<pdfrwt beam="2">  1        2 0.57963594E+00 0.12306057E+03</pdfrwt>
<totfact> 0.20614027E-01</totfact>
</mgrwt>
</event>
<event>
13    1  0.2038932E-008  0.4989642E+02  0.7546771E-02  0.1520651E+00
          2   -1    0    0  503    0  0.00000000000E+00  0.00000000000E+00  0.11013189446E+04  0.11013189446E+04  0.00000000000E+00 0. -1.
          2   -1    0    0  502    0 -0.00000000000E+00 -0.00000000000E+00 -0.15239280531E+03  0.15239280531E+03  0.00000000000E+00 0. -1.
         24    2    1    2    0    0  0.71973021073E+02  0.61798398747E+02  0.47120654752E+02  0.13339835349E+03  0.81090115059E+02 0.  0.
         25    2    1    2    0    0 -0.35895936000E+02  0.47258239942E+01  0.21815546217E+02  0.13192772224E+03  0.12497261382E+03 0.  0.
         24    2    1    2    0    0 -0.12810862104E+02 -0.57026629830E+02  0.21878182064E+03  0.24032919373E+03  0.80476590518E+02 0.  0.
        -11    1    5    5    0    0 -0.15701483825E+02  0.14759132614E+02  0.21792666096E+02  0.30647820239E+02  0.00000000000E+00 0.  1.
         12    1    5    5    0    0  0.28906217210E+01 -0.71785762444E+02  0.19698915454E+03  0.20968137349E+03  0.00000000000E+00 0. -1.
        -13    1    3    3    0    0  0.77121556680E+02  0.16346345345E+02  0.33624816538E+02  0.85706276305E+02  0.00000000000E+00 0.  1.
         14    1    3    3    0    0 -0.51485356069E+01  0.45452053402E+02  0.13495838213E+02  0.47692077188E+02  0.00000000000E+00 0. -1.
          5    1    4    4  501    0 -0.75366723454E+02 -0.25985382628E+02  0.12241225394E+02  0.80791835687E+02  0.47000000000E+01 0. -1.
         -5    1    4    4    0  501  0.39470787454E+02  0.30711206622E+02  0.95743208231E+01  0.51135886554E+02  0.47000000000E+01 0. -1.
          1    1    1    2  502    0 -0.50903691191E+02  0.78541181624E+00 -0.28078396811E+02  0.58139478980E+02  0.00000000000E+00 0. -1.
          1    1    1    2  503    0  0.27637468221E+02 -0.10283004727E+02  0.68928651451E+03  0.68991700147E+03  0.00000000000E+00 0. -1.
<mgrwt>
<rscale>  0 0.38358427E+02</rscale>
<asrwt>0</asrwt>
<pdfrwt beam="1">  1        2 0.16195866E+00 0.29488470E+02</pdfrwt>
<pdfrwt beam="2">  1        2 0.22410707E-01 0.49896416E+02</pdfrwt>
<totfact> 0.98354636E+02</totfact>
</mgrwt>
</event>
<event>
13    1  0.2038932E-008  0.7479765E+02  0.7546771E-02  0.1453079E+00
          2   -1    0    0  502    0  0.00000000000E+00  0.00000000000E+00  0.19810267569E+04  0.19810267569E+04  0.00000000000E+00 0. -1.
          2   -1    0    0  503    0 -0.00000000000E+00 -0.00000000000E+00 -0.24134834800E+04  0.24134834800E+04  0.00000000000E+00 0. -1.
         24    2    1    2    0    0  0.56734259726E+02 -0.88537818268E+02 -0.50917293623E+03  0.52609193360E+03  0.80361197889E+02 0.  0.
         25    2    1    2    0    0  0.45450251800E+02  0.12983113465E+03  0.11989042588E+04  0.12132272566E+04  0.12500842175E+03 0.  0.
         24    2    1    2    0    0 -0.13176757943E+03  0.59950116385E+02  0.22451505750E+03  0.27826998076E+03  0.77913154887E+02 0.  0.
        -13    1    5    5    0    0 -0.11071373671E+03  0.34069666893E+02  0.11282160017E+03  0.16170030044E+03  0.00000000000E+00 0.  1.
         14    1    5    5    0    0 -0.21053842722E+02  0.25880449491E+02  0.11169345733E+03  0.11656968032E+03  0.00000000000E+00 0. -1.
        -13    1    3    3    0    0 -0.91213238586E+01 -0.27883677642E+02 -0.25358377081E+03  0.25527519825E+03  0.00000000000E+00 0.  1.
         14    1    3    3    0    0  0.65855583584E+02 -0.60654140625E+02 -0.25558916542E+03  0.27081673535E+03  0.00000000000E+00 0. -1.
          5    1    4    4  501    0  0.36236753366E+02  0.77454743242E+02  0.28073971279E+03  0.29351186668E+03  0.47000000000E+01 0.  1.
         -5    1    4    4    0  501  0.92134984337E+01  0.52376391409E+02  0.91816454597E+03  0.91971538990E+03  0.47000000000E+01 0.  1.
          1    1    1    2  502    0  0.14641066394E+02 -0.27969276360E+02  0.51387344508E+03  0.51484226595E+03  0.00000000000E+00 0. -1.
          1    1    1    2  503    0  0.14942001507E+02 -0.73274156409E+02 -0.18605765483E+04  0.18620788000E+04  0.00000000000E+00 0. -1.
<mgrwt>
<rscale>  0 0.48593558E+02</rscale>
<asrwt>0</asrwt>
<pdfrwt beam="1">  1        2 0.29132747E+00 0.31569625E+02</pdfrwt>
<pdfrwt beam="2">  1        2 0.35492404E+00 0.74797653E+02</pdfrwt>
<totfact> 0.99058456E+00</totfact>
</mgrwt>
</event>
<event>
13    1  0.2038932E-008  0.1020525E+03  0.7546771E-02  0.1319210E+00
          2   -1    0    0  502    0  0.00000000000E+00  0.00000000000E+00  0.39233969058E+04  0.39233969058E+04  0.00000000000E+00 0. -1.
          2   -1    0    0  503    0 -0.00000000000E+00 -0.00000000000E+00 -0.10987228522E+04  0.10987228522E+04  0.00000000000E+00 0. -1.
         24    2    1    2    0    0  0.10866770626E+03 -0.14668074079E+03  0.18676773630E+03  0.27289377951E+03  0.79151231628E+02 0.  0.
         25    2    1    2    0    0 -0.19714230133E+03  0.62988473735E+02 -0.49297123511E+02  0.24675716803E+03  0.12500503505E+03 0.  0.
         24    2    1    2    0    0 -0.15920367642E+02 -0.86136424761E+01  0.20448617148E+03  0.22023061564E+03  0.79745073823E+02 0.  0.
        -13    1    5    5    0    0 -0.31995717151E+02 -0.29607589494E+02  0.65027417199E+02  0.78287293089E+02  0.00000000000E+00 0.  1.
         14    1    5    5    0    0  0.16075349508E+02  0.20993947018E+02  0.13945875428E+03  0.14194332255E+03  0.00000000000E+00 0. -1.
        -13    1    3    3    0    0  0.17972942749E+02  0.55889964370E+01  0.60453230495E+01  0.19768901917E+02  0.00000000000E+00 0.  1.
         14    1    3    3    0    0  0.90694763513E+02 -0.15226973723E+03  0.18072241325E+03  0.25312487759E+03  0.00000000000E+00 0. -1.
          5    1    4    4  501    0 -0.18095997345E+03  0.23407832562E+02 -0.74219626677E+02  0.19704081201E+03  0.47000000000E+01 0. -1.
         -5    1    4    4    0  501 -0.16182327890E+02  0.39580641174E+02  0.24922503165E+02  0.49716356018E+02  0.47000000000E+01 0. -1.
          1    1    1    2  502    0  0.68367764481E+02 -0.31041426463E+01  0.33792401963E+04  0.33799331490E+04  0.00000000000E+00 0. -1.
          1    1    1    2  503    0  0.36027198234E+02  0.95410052179E+02 -0.89652292702E+03  0.90230504583E+03  0.00000000000E+00 0. -1.
<mgrwt>
<rscale>  0 0.83572067E+02</rscale>
<asrwt>0</asrwt>
<pdfrwt beam="1">  1        2 0.57697013E+00 0.68438198E+02</pdfrwt>
<pdfrwt beam="2">  1        2 0.16157689E+00 0.10205252E+03</pdfrwt>
<totfact> 0.36113881E+00</totfact>
</mgrwt>
</event>
<event>
13    1  0.2038932E-008  0.8368542E+02  0.7546771E-02  0.1366583E+00
         -1   -1    0    0    0  501  0.00000000000E+00  0.00000000000E+00  0.21266213816E+04  0.21266213816E+04  0.00000000000E+00 0.  1.
         -1   -1    0    0    0  502 -0.00000000000E+00 -0.00000000000E+00 -0.45409903875E+03  0.45409903875E+03  0.00000000000E+00 0.  1.
         24    2    1    2    0    0  0.14715673545E+02 -0.51915923115E+02  0.26797845258E+03  0.28510359339E+03  0.80992553950E+02 0.  0.
         25    2    1    2    0    0 -0.50439514651E+02  0.91868845141E+02  0.27053744511E+03  0.31591252999E+03  0.12500475211E+03 0.  0.
         24    2    1    2    0    0 -0.70206461650E+02  0.40653319495E+02  0.93253119733E+03  0.93961102660E+03  0.81687255222E+02 0.  0.
        -11    1    5    5    0    0 -0.85216326513E+02  0.19160571392E+02  0.77596263327E+03  0.78086295727E+03  0.00000000000E+00 0.  1.
         12    1    5    5    0    0  0.15009864863E+02  0.21492748103E+02  0.15656856406E+03  0.15874806933E+03  0.00000000000E+00 0. -1.
        -11    1    3    3    0    0  0.44247498707E+02 -0.45545987766E+02  0.14197005969E+03  0.15552419745E+03  0.00000000000E+00 0.  1.
         12    1    3    3    0    0 -0.29531825162E+02 -0.63699353485E+01  0.12600839289E+03  0.12957939594E+03  0.00000000000E+00 0. -1.
          5    1    4    4  503    0  0.37052853461E+02  0.89313573161E+01  0.99080923332E+02  0.10626289315E+03  0.47000000000E+01 0.  1.
         -5    1    4    4    0  503 -0.87492368112E+02  0.82937487825E+02  0.17145652178E+03  0.20964963683E+03  0.47000000000E+01 0.  1.
         -2    1    1    2    0  502  0.50627018136E+02 -0.22643801147E+02 -0.41487135148E+03  0.41856191295E+03  0.00000000000E+00 0.  1.
         -2    1    1    2    0  501  0.55303284621E+02 -0.57962440374E+02  0.61634659931E+03  0.62153135743E+03  0.00000000000E+00 0.  1.
<mgrwt>
<rscale>  0 0.68126445E+02</rscale>
<asrwt>0</asrwt>
<pdfrwt beam="1">  1       -1 0.31273843E+00 0.83685423E+02</pdfrwt>
<pdfrwt beam="2">  1       -1 0.66779271E-01 0.55460226E+02</pdfrwt>
<totfact> 0.77726630E-01</totfact>
</mgrwt>
</event>
<event>
13    1  0.2038932E-008  0.1586682E+03  0.7546771E-02  0.1304485E+00
          2   -1    0    0  503    0  0.00000000000E+00  0.00000000000E+00  0.23257102422E+04  0.23257102422E+04  0.00000000000E+00 0. -1.
          2   -1    0    0  502    0 -0.00000000000E+00 -0.00000000000E+00 -0.21113671966E+04  0.21113671966E+04  0.00000000000E+00 0. -1.
         24    2    1    2    0    0 -0.10589748637E+03 -0.99567682554E+02 -0.70959363177E+02  0.17847626899E+03  0.75435709991E+02 0.  0.
         25    2    1    2    0    0  0.95651771887E+02 -0.19890793128E+03  0.46931121762E+03  0.53347332098E+03  0.12500855422E+03 0.  0.
         24    2    1    2    0    0 -0.67379821626E+02  0.11310560938E+03  0.58009475737E+03  0.60019492849E+03  0.79944389536E+02 0.  0.
        -11    1    5    5    0    0  0.10668306402E+02  0.47663007511E+02  0.25064848985E+03  0.25536295838E+03  0.00000000000E+00 0.  1.
         12    1    5    5    0    0 -0.78048128028E+02  0.65442601867E+02  0.32944626753E+03  0.34483197012E+03  0.00000000000E+00 0. -1.
        -13    1    3    3    0    0 -0.26909301066E+02 -0.74027476747E+02 -0.48409003031E+02  0.92453282104E+02  0.00000000000E+00 0.  1.
         14    1    3    3    0    0 -0.78988185303E+02 -0.25540205807E+02 -0.22550360147E+02  0.86022986887E+02  0.00000000000E+00 0. -1.
          5    1    4    4  501    0  0.10657192988E+03 -0.17466323224E+03  0.46229721202E+03  0.50557454759E+03  0.47000000000E+01 0. -1.
         -5    1    4    4    0  501 -0.10920157993E+02 -0.24244699038E+02  0.70140055985E+01  0.27898773388E+02  0.47000000000E+01 0. -1.
          1    1    1    2  502    0  0.82621153754E+02  0.13532746753E+03 -0.19407480829E+04  0.19472141381E+04  0.00000000000E+00 0. -1.
          1    1    1    2  503    0 -0.49956176441E+01  0.50042536922E+02  0.11766445166E+04  0.11777187822E+04  0.00000000000E+00 0. -1.
<mgrwt>
<rscale>  0 0.89328750E+02</rscale>
<asrwt>0</asrwt>
<pdfrwt beam="1">  1        2 0.34201622E+00 0.50291269E+02</pdfrwt>
<pdfrwt beam="2">  1        2 0.31049517E+00 0.15866821E+03</pdfrwt>
<totfact> 0.83374899E+00</totfact>
</mgrwt>
</event>
<event>
13    1  0.2038932E-008  0.1770752E+03  0.7546771E-02  0.1209751E+00
          2   -1    0    0  502    0  0.00000000000E+00  0.00000000000E+00  0.70606621559E+03  0.70606621559E+03  0.00000000000E+00 0. -1.
          2   -1    0    0  503    0 -0.00000000000E+00 -0.00000000000E+00 -0.38776746526E+04  0.38776746526E+04  0.00000000000E+00 0. -1.
         24    2    1    2    0    0 -0.20097482929E+02  0.64961620752E+02 -0.17784306512E+03  0.20684879141E+03  0.80835299883E+02 0.  0.
         25    2    1    2    0    0  0.19531883555E+03  0.31618615331E+03  0.22053453527E+03  0.44986154069E+03  0.12496716960E+03 0.  0.
         24    2    1    2    0    0 -0.41768511044E+02 -0.36520310670E+02  0.61969533962E+02  0.11655278233E+03  0.81645491752E+02 0.  0.
        -13    1    3    3    0    0 -0.12790797618E+02 -0.15599785767E+02 -0.15401576346E+02  0.25380432889E+02  0.00000000000E+00 0.  1.
         14    1    3    3    0    0 -0.73066853109E+01  0.80561406519E+02 -0.16244148877E+03  0.18146835852E+03  0.00000000000E+00 0. -1.
        -13    1    5    5    0    0 -0.62184233581E+02 -0.10745434869E+02  0.27260592441E+02  0.68742149928E+02  0.00000000000E+00 0.  1.
         14    1    5    5    0    0  0.20415722537E+02 -0.25774875801E+02  0.34708941521E+02  0.47810632403E+02  0.00000000000E+00 0. -1.
          5    1    4    4  501    0  0.72786225208E+02  0.15092531186E+03  0.31762677479E+02  0.17060844651E+03  0.47000000000E+01 0. -1.
         -5    1    4    4    0  501  0.12253261034E+03  0.16526084145E+03  0.18877185779E+03  0.27925309418E+03  0.47000000000E+01 0. -1.
          1    1    1    2  502    0 -0.11622049622E+03  0.10430341621E+02  0.24496955980E+03  0.27134126298E+03  0.00000000000E+00 0. -1.
          1    1    1    2  503    0 -0.17232345352E+02 -0.35505780501E+03 -0.35212390010E+04  0.35391364908E+04  0.00000000000E+00 0. -1.
<mgrwt>
<rscale>  0 0.14269231E+03</rscale>
<asrwt>0</asrwt>
<pdfrwt beam="1">  1        2 0.10383327E+00 0.11498559E+03</pdfrwt>
<pdfrwt beam="2">  1        2 0.57024627E+00 0.17707520E+03</pdfrwt>
<totfact> 0.55747399E+00</totfact>
</mgrwt>
</event>
<event>
13    1  0.2038932E-008  0.4298930E+02  0.7546771E-02  0.1542241E+00
          2   -1    0    0  502    0  0.00000000000E+00  0.00000000000E+00  0.27383604815E+04  0.27383604815E+04  0.00000000000E+00 0. -1.
          2   -1    0    0  503    0 -0.00000000000E+00 -0.00000000000E+00 -0.97689505433E+03  0.97689505433E+03  0.00000000000E+00 0. -1.
         24    2    1    2    0    0  0.60244452038E+02 -0.14613611862E+03 -0.18398970308E+03  0.25504475962E+03  0.78806468032E+02 0.  0.
         25    2    1    2    0    0  0.21644469286E+03 -0.98182368488E+02  0.38883290344E+03  0.47255174971E+03  0.12500418714E+03 0.  0.
         24    2    1    2    0    0 -0.27958464063E+03  0.17803078923E+03  0.65570189700E+03  0.73748578285E+03  0.63857411387E+02 0.  0.
        -13    1    3    3    0    0  0.60126713457E+02 -0.11161398237E+03 -0.91577462479E+02  0.15639480287E+03  0.00000000000E+00 0.  1.
         14    1    3    3    0    0  0.11773858123E+00 -0.34522136254E+02 -0.92412240602E+02  0.98649956751E+02  0.00000000000E+00 0. -1.
        -13    1    5    5    0    0 -0.30970409370E+02  0.44779695622E+02  0.12871419822E+03  0.13975597383E+03  0.00000000000E+00 0.  1.
         14    1    5    5    0    0 -0.24861423126E+03  0.13325109361E+03  0.52698769878E+03  0.59772980903E+03  0.00000000000E+00 0. -1.
          5    1    4    4  501    0  0.75273027554E+02 -0.84475745433E+02  0.10145678233E+03  0.15204522000E+03  0.47000000000E+01 0. -1.
         -5    1    4    4    0  501  0.14117166531E+03 -0.13706623055E+02  0.28737612111E+03  0.32050652971E+03  0.47000000000E+01 0. -1.
          1    1    1    2  502    0 -0.12730528699E+02  0.41041327195E+02  0.15749269158E+04  0.15755130107E+04  0.00000000000E+00 0. -1.
          1    1    1    2  503    0  0.15626024429E+02  0.25246370684E+02 -0.67400658601E+03  0.67466023290E+03  0.00000000000E+00 0. -1.
<mgrwt>
<rscale>  0 0.35726636E+02</rscale>
<asrwt>0</asrwt>
<pdfrwt beam="1">  1        2 0.40270007E+00 0.42989295E+02</pdfrwt>
<pdfrwt beam="2">  1        2 0.14366104E+00 0.29690939E+02</pdfrwt>
<totfact> 0.22474859E+01</totfact>
</mgrwt>
</event>
<event>
13    1  0.2038932E-008  0.9862107E+02  0.7546771E-02  0.1400678E+00
          2   -1    0    0  503    0  0.00000000000E+00  0.00000000000E+00  0.33622492075E+04  0.33622492075E+04  0.00000000000E+00 0. -1.
          2   -1    0    0  502    0 -0.00000000000E+00 -0.00000000000E+00 -0.18217201306E+04  0.18217201306E+04  0.00000000000E+00 0. -1.
         24    2    1    2    0    0  0.11147223266E+03 -0.62302419004E+02 -0.10147981579E+04  0.10264664329E+04  0.86662487005E+02 0.  0.
         25    2    1    2    0    0 -0.14260733879E+03  0.97695542993E+02  0.64763554148E+02  0.22293862787E+03  0.12500416655E+03 0.  0.
         24    2    1    2    0    0 -0.90841029822E+02  0.62461332581E+01  0.27477534482E+02  0.12595922952E+03  0.82580904096E+02 0.  0.
        -11    1    5    5    0    0 -0.68994975908E+02  0.41055375668E+02  0.86356012878E+01  0.80749143533E+02  0.00000000000E+00 0.  1.
         12    1    5    5    0    0 -0.21846053915E+02 -0.34809242410E+02  0.18841933194E+02  0.45210085991E+02  0.00000000000E+00 0. -1.
        -11    1    3    3    0    0  0.41212158881E+01 -0.20608318174E+02 -0.42562074279E+03  0.42613930104E+03  0.00000000000E+00 0.  1.
         12    1    3    3    0    0  0.10735101677E+03 -0.41694100831E+02 -0.58917741509E+03  0.60032713190E+03  0.00000000000E+00 0. -1.
          5    1    4    4  501    0  0.81139645393E+00  0.14780190788E+02 -0.28728626959E+02  0.32657869050E+02  0.47000000000E+01 0.  1.
         -5    1    4    4    0  501 -0.14341873524E+03  0.82915352204E+02  0.93492181107E+02  0.19028075882E+03  0.47000000000E+01 0.  1.
          1    1    1    2  502    0  0.35286831158E+02  0.53425666593E+01 -0.67151037839E+03  0.67245809665E+03  0.00000000000E+00 0. -1.
          1    1    1    2  503    0  0.86689304798E+02 -0.46981823906E+02  0.31345965245E+04  0.31361469511E+04  0.00000000000E+00 0. -1.
<mgrwt>
<rscale>  0 0.59326937E+02</rscale>
<asrwt>0</asrwt>
<pdfrwt beam="1">  1        2 0.49444841E+00 0.98621065E+02</pdfrwt>
<pdfrwt beam="2">  1        2 0.26790002E+00 0.35688982E+02</pdfrwt>
<totfact> 0.35313156E+00</totfact>
</mgrwt>
</event>
<event>
13    1  0.2038932E-008  0.6415513E+02  0.7546771E-02  0.1512415E+00
         -1   -1    0    0    0  501 -0.00000000000E+00  0.00000000000E+00  0.14267016792E+04  0.14267016792E+04  0.00000000000E+00 0.  1.
          2   -1    0    0  503    0  0.00000000000E+00 -0.00000000000E+00 -0.85652251536E+03  0.85652251536E+03  0.00000000000E+00 0. -1.
         24    2    1    2    0    0 -0.25293202720E+02 -0.86054037061E+01  0.13658306588E+04  0.13684890176E+04  0.80962975957E+02 0.  0.
         25    2    1    2    0    0 -0.36113649774E+02  0.65018340905E+02 -0.41150129898E+03  0.43645120987E+03  0.12499903671E+03 0.  0.
         24    2    1    2    0    0 -0.13470924458E+02 -0.83502904180E+02 -0.21095724740E+03  0.24093440701E+03  0.79951406725E+02 0.  0.
        -11    1    3    3    0    0 -0.48507719482E+02 -0.23208576865E+02  0.68555385862E+03  0.68765960326E+03  0.00000000000E+00 0.  1.
         12    1    3    3    0    0  0.23214516762E+02  0.14603173159E+02  0.68027680022E+03  0.68082941430E+03  0.00000000000E+00 0. -1.
        -11    1    5    5    0    0 -0.14227857617E+02 -0.64901156367E+02 -0.62189168177E+02  0.91005959523E+02  0.00000000000E+00 0.  1.
         12    1    5    5    0    0  0.75693315949E+00 -0.18601747813E+02 -0.14876807922E+03  0.14992844748E+03  0.00000000000E+00 0. -1.
          5    1    4    4  502    0 -0.17682815986E+02 -0.17446255477E+01 -0.32508935141E+03  0.32560851049E+03  0.47000000000E+01 0.  1.
         -5    1    4    4    0  502 -0.18430833788E+02  0.66762966452E+02 -0.86411947569E+02  0.11084269938E+03  0.47000000000E+01 0.  1.
          1    1    1    2  503    0  0.63872222848E+02  0.54932318649E+01 -0.19467623070E+03  0.20496016991E+03  0.00000000000E+00 0. -1.
         -2    1    1    2    0  501  0.11005554103E+02  0.21596735116E+02  0.21483282073E+02  0.32389390198E+02  0.00000000000E+00 0.  1.
<mgrwt>
<rscale>  0 0.39434403E+02</rscale>
<asrwt>0</asrwt>
<pdfrwt beam="2">  1        2 0.12595919E+00 0.64155128E+02</pdfrwt>
<pdfrwt beam="1">  1       -1 0.20980907E+00 0.24239249E+02</pdfrwt>
<totfact> 0.75585808E+00</totfact>
</mgrwt>
</event>
<event>
13    1  0.2038932E-008  0.9148152E+02  0.7546771E-02  0.1357238E+00
          2   -1    0    0  502    0  0.00000000000E+00  0.00000000000E+00  0.75721145489E+03  0.75721145489E+03  0.00000000000E+00 0. -1.
          2   -1    0    0  503    0 -0.00000000000E+00 -0.00000000000E+00 -0.36536329466E+04  0.36536329466E+04  0.00000000000E+00 0. -1.
         24    2    1    2    0    0 -0.98379874272E+02 -0.56251129449E+02 -0.16350648447E+04  0.16409184812E+04  0.79584083930E+02 0.  0.
         25    2    1    2    0    0  0.15957796979E+03  0.30539402667E+03 -0.82206928508E+02  0.37565005948E+03  0.12499739249E+03 0.  0.
         24    2    1    2    0    0 -0.66606273892E+01 -0.13214341565E+03  0.34462873273E+02  0.15476073168E+03  0.72504814859E+02 0.  0.
        -13    1    3    3    0    0 -0.37272734338E+02  0.29276828959E+01 -0.20892710237E+03  0.21224599444E+03  0.00000000000E+00 0.  1.
         14    1    3    3    0    0 -0.61107139934E+02 -0.59178812344E+02 -0.14261377424E+04  0.14286724868E+04  0.00000000000E+00 0. -1.
        -13    1    5    5    0    0 -0.12596532320E+02  0.12856073135E+01  0.15255610731E+02  0.19825717425E+02  0.00000000000E+00 0.  1.
         14    1    5    5    0    0  0.59359049305E+01 -0.13342902297E+03  0.19207262542E+02  0.13493501425E+03  0.00000000000E+00 0. -1.
          5    1    4    4  501    0  0.12144248996E+03  0.12291535131E+03 -0.76651009343E+02  0.18908709419E+03  0.47000000000E+01 0. -1.
         -5    1    4    4    0  501  0.38135479829E+02  0.18247867536E+03 -0.55559191651E+01  0.18656296529E+03  0.47000000000E+01 0. -1.
          1    1    1    2  502    0 -0.61074092144E+01 -0.91216097461E+02  0.50843756228E+03  0.51659116486E+03  0.00000000000E+00 0. -1.
          1    1    1    2  503    0 -0.48430058913E+02 -0.25783384106E+02 -0.17220501540E+04  0.17229239642E+04  0.00000000000E+00 0. -1.
<mgrwt>
<rscale>  0 0.70846347E+02</rscale>
<asrwt>0</asrwt>
<pdfrwt beam="1">  1        2 0.11135463E+00 0.91481523E+02</pdfrwt>
<pdfrwt beam="2">  1        2 0.53729897E+00 0.54865777E+02</pdfrwt>
<totfact> 0.89779335E+00</totfact>
</mgrwt>
</event>
<event>
13    1  0.2038932E-008  0.1007486E+03  0.7546771E-02  0.1334734E+00
          2   -1    0    0  502    0  0.00000000000E+00  0.00000000000E+00  0.12268836243E+04  0.12268836243E+04  0.00000000000E+00 0. -1.
          2   -1    0    0  503    0 -0.00000000000E+00 -0.00000000000E+00 -0.36605999987E+03  0.36605999987E+03  0.00000000000E+00 0. -1.
         24    2    1    2    0    0 -0.19719079289E+02  0.69811795485E+02 -0.88462991468E+02  0.13986967550E+03  0.80469226337E+02 0.  0.
         25    2    1    2    0    0  0.72943480803E+02 -0.32803577927E+02  0.10012150545E+03  0.17901461886E+03  0.12500036718E+03 0.  0.
         24    2    1    2    0    0 -0.40347131202E+01 -0.39234601619E+02 -0.55687185033E+02  0.10775586322E+03  0.83394427912E+02 0.  0.
        -11    1    3    3    0    0 -0.32271376527E+02  0.47213950522E+02 -0.11039639559E+02  0.58244935475E+02  0.00000000000E+00 0.  1.
         12    1    3    3    0    0  0.12552297238E+02  0.22597844963E+02 -0.77423351909E+02  0.81624740022E+02  0.00000000000E+00 0. -1.
        -11    1    5    5    0    0  0.15558885474E+01  0.26263365099E+02 -0.19219996187E+02  0.32582102279E+02  0.00000000000E+00 0.  1.
         12    1    5    5    0    0 -0.55906016676E+01 -0.65497966719E+02 -0.36467188845E+02  0.75173760938E+02  0.00000000000E+00 0. -1.
          5    1    4    4  501    0  0.87616961406E+02 -0.41227951956E+01  0.11375147483E+03  0.14371923111E+03  0.47000000000E+01 0. -1.
         -5    1    4    4    0  501 -0.14673480603E+02 -0.28680782731E+02 -0.13629969378E+02  0.35295387749E+02  0.47000000000E+01 0. -1.
          1    1    1    2  502    0 -0.93693139394E+02 -0.38662695477E+02  0.10259596079E+04  0.10309540850E+04  0.00000000000E+00 0. -1.
          1    1    1    2  503    0  0.44503451001E+02  0.40889079538E+02 -0.12110731240E+03  0.13534938158E+03  0.00000000000E+00 0. -1.
<mgrwt>
<rscale>  0 0.78030831E+02</rscale>
<asrwt>0</asrwt>
<pdfrwt beam="1">  1        2 0.18042406E+00 0.10074857E+03</pdfrwt>
<pdfrwt beam="2">  1        2 0.53832353E-01 0.60435701E+02</pdfrwt>
<totfact> 0.31613898E+02</totfact>
</mgrwt>
</event>
<event>
13    1  0.2038932E-008  0.4386569E+03  0.7546771E-02  0.1234340E+00
          2   -1    0    0  503    0  0.00000000000E+00  0.00000000000E+00  0.10129577942E+04  0.10129577942E+04  0.00000000000E+00 0. -1.
          2   -1    0    0  502    0 -0.00000000000E+00 -0.00000000000E+00 -0.21394712560E+04  0.21394712560E+04  0.00000000000E+00 0. -1.
         24    2    1    2    0    0  0.12392005316E+03  0.23019741371E+03 -0.11750483203E+04  0.12064470234E+04  0.80180025113E+02 0.  0.
         25    2    1    2    0    0 -0.66625178466E+02 -0.80638102704E+02 -0.42896186574E+03  0.45888402034E+03  0.12499937541E+03 0.  0.
         24    2    1    2    0    0  0.60002889448E+02 -0.38599388936E+02 -0.59121685139E+02  0.12419690063E+03  0.82699678982E+02 0.  0.
        -13    1    3    3    0    0  0.38049533055E+02  0.36074734137E+02 -0.13226367405E+03  0.14227730979E+03  0.00000000000E+00 0.  1.
         14    1    3    3    0    0  0.85870520105E+02  0.19412267957E+03 -0.10427846463E+04  0.10641697136E+04  0.00000000000E+00 0. -1.
        -13    1    5    5    0    0  0.79618768020E+02 -0.21217913620E+02 -0.39034943818E+02  0.91176065490E+02  0.00000000000E+00 0.  1.
         14    1    5    5    0    0 -0.19615878572E+02 -0.17381475316E+02 -0.20086741321E+02  0.33020835138E+02  0.00000000000E+00 0. -1.
          5    1    4    4  501    0 -0.47325978540E+02  0.26193080179E+02 -0.14742323132E+03  0.15710354811E+03  0.47000000000E+01 0.  1.
         -5    1    4    4    0  501 -0.19299199926E+02 -0.10683118288E+03 -0.28153863441E+03  0.30178047223E+03  0.47000000000E+01 0.  1.
          1    1    1    2  502    0 -0.86595731945E+02 -0.92378278920E+02 -0.40308916890E+03  0.42250851505E+03  0.00000000000E+00 0. -1.
          1    1    1    2  503    0 -0.30702032197E+02 -0.18581643146E+02  0.93970757820E+03  0.94039259077E+03  0.00000000000E+00 0. -1.
<mgrwt>
<rscale>  0 0.12546783E+03</rscale>
<asrwt>0</asrwt>
<pdfrwt beam="1">  1        2 0.14896438E+00 0.35887216E+02</pdfrwt>
<pdfrwt beam="2">  1        2 0.31462813E+00 0.43865694E+03</pdfrwt>
<totfact> 0.31910689E+01</totfact>
</mgrwt>
</event>
<event>
13    1  0.2038932E-008  0.7907371E+02  0.7546771E-02  0.1362684E+00
          2   -1    0    0  503    0  0.00000000000E+00  0.00000000000E+00  0.80265740962E+03  0.80265740962E+03  0.00000000000E+00 0. -1.
          2   -1    0    0  502    0 -0.00000000000E+00 -0.00000000000E+00 -0.12058201824E+04  0.12058201824E+04  0.00000000000E+00 0. -1.
         24    2    1    2    0    0  0.13917692771E+03  0.38339143341E+02 -0.50446846785E+03  0.53602335158E+03  0.10951023361E+03 0.  0.
         25    2    1    2    0    0 -0.17487772322E+03 -0.90066932453E+02 -0.24358584074E+03  0.33711820582E+03  0.12498140856E+03 0.  0.
         24    2    1    2    0    0 -0.39891371909E+01  0.15869940494E+03  0.24762140630E+03  0.30498167325E+03  0.80598050976E+02 0.  0.
        -11    1    3    3    0    0  0.25445104369E+02 -0.33708322113E+01 -0.27807947102E+03  0.27926154058E+03  0.00000000000E+00 0.  1.
         12    1    3    3    0    0  0.11373182334E+03  0.41709975553E+02 -0.22638899683E+03  0.25676181100E+03  0.00000000000E+00 0. -1.
        -13    1    5    5    0    0  0.23193638662E+02  0.57638809867E+02  0.14792326376E+03  0.16044148229E+03  0.00000000000E+00 0.  1.
         14    1    5    5    0    0 -0.27182775853E+02  0.10106059507E+03  0.99698142536E+02  0.14454019097E+03  0.00000000000E+00 0. -1.
          5    1    4    4  501    0 -0.87764824201E+02 -0.63481949451E+01 -0.18021775394E+03  0.20060780838E+03  0.47000000000E+01 0.  1.
         -5    1    4    4    0  501 -0.87112899016E+02 -0.83718737508E+02 -0.63368086801E+02  0.13651039744E+03  0.47000000000E+01 0.  1.
          1    1    1    2  502    0  0.60822905011E+02 -0.50137903204E+02 -0.36028098521E+03  0.36880296015E+03  0.00000000000E+00 0. -1.
          1    1    1    2  503    0 -0.21132972314E+02 -0.56833712623E+02  0.45755111471E+03  0.46155140123E+03  0.00000000000E+00 0. -1.
<mgrwt>
<rscale>  0 0.69243631E+02</rscale>
<asrwt>0</asrwt>
<pdfrwt beam="1">  1        2 0.11803786E+00 0.60635579E+02</pdfrwt>
<pdfrwt beam="2">  1        2 0.17732650E+00 0.79073714E+02</pdfrwt>
<totfact> 0.14100532E+02</totfact>
</mgrwt>
</event>
<event>
13    1  0.2038932E-008  0.2071637E+03  0.7546771E-02  0.1210785E+00
          2   -1    0    0  502    0  0.00000000000E+00  0.00000000000E+00  0.15498359518E+04  0.15498359518E+04  0.00000000000E+00 0. -1.
          2   -1    0    0  503    0 -0.00000000000E+00 -0.00000000000E+00 -0.28933830412E+04  0.28933830412E+04  0.00000000000E+00 0. -1.
         24    2    1    2    0    0 -0.22397117655E+03  0.65716201787E+02 -0.59820955946E+03  0.64716249022E+03  0.80516486539E+02 0.  0.
         25    2    1    2    0    0 -0.13028065690E+03  0.16502395979E+03 -0.67224218912E+02  0.25366898684E+03  0.12499160935E+03 0.  0.
         24    2    1    2    0    0  0.41171119729E+03 -0.32733989327E+03  0.74262087207E+03  0.91520639356E+03  0.97259793713E+02 0.  0.
        -13    1    3    3    0    0 -0.20292632673E+03  0.58030329116E+02 -0.44725047109E+03  0.49454989341E+03  0.00000000000E+00 0.  1.
         14    1    3    3    0    0 -0.21044849826E+02  0.76858726708E+01 -0.15095908837E+03  0.15261259681E+03  0.00000000000E+00 0. -1.
        -13    1    5    5    0    0  0.13394925992E+03 -0.10420475152E+03  0.16603011594E+03  0.23741742538E+03  0.00000000000E+00 0.  1.
         14    1    5    5    0    0  0.27776193737E+03 -0.22313514174E+03  0.57659075613E+03  0.67778896818E+03  0.00000000000E+00 0. -1.
          5    1    4    4  501    0 -0.63736258005E+02  0.16308852076E+03 -0.65185917192E+02  0.18689962544E+03  0.47000000000E+01 0.  1.
         -5    1    4    4    0  501 -0.66544398891E+02  0.19354390324E+01 -0.20383017199E+01  0.66769361401E+02  0.47000000000E+01 0.  1.
          1    1    1    2  502    0 -0.95700235549E+02  0.18596860967E+03  0.58388147707E+03  0.62020999519E+03  0.00000000000E+00 0. -1.
          1    1    1    2  503    0  0.38240871708E+02 -0.89368877984E+02 -0.20046156602E+04  0.20069711272E+04  0.00000000000E+00 0. -1.
<mgrwt>
<rscale>  0 0.14190742E+03</rscale>
<asrwt>0</asrwt>
<pdfrwt beam="1">  1        2 0.22791705E+00 0.20716368E+03</pdfrwt>
<pdfrwt beam="2">  1        2 0.42549751E+00 0.97206793E+02</pdfrwt>
<totfact> 0.73721438E+00</totfact>
</mgrwt>
</event>
<event>
13    1  0.2038932E-008  0.1869156E+03  0.7546771E-02  0.1230365E+00
          2   -1    0    0  503    0  0.00000000000E+00  0.00000000000E+00  0.34541503743E+04  0.34541503743E+04  0.00000000000E+00 0. -1.
         -3   -1    0    0    0  501 -0.00000000000E+00 -0.00000000000E+00 -0.80622754596E+03  0.80622754596E+03  0.00000000000E+00 0.  1.
         24    2    1    2    0    0  0.16510639362E+02 -0.49848754322E+02  0.10707533621E+03  0.14403530495E+03  0.80768446360E+02 0.  0.
         25    2    1    2    0    0  0.86807478128E+02 -0.15154906848E+03  0.63495128406E+03  0.67029194078E+03  0.12500197728E+03 0.  0.
         24    2    1    2    0    0 -0.68401335189E+02 -0.10770472409E+02  0.20435116513E+03  0.23060112952E+03  0.81380197318E+02 0.  0.
        -13    1    5    5    0    0 -0.32814420739E+02 -0.44074016817E+02  0.80129820765E+02  0.97160142768E+02  0.00000000000E+00 0.  1.
         14    1    5    5    0    0 -0.35586914450E+02  0.33303544409E+02  0.12422134436E+03  0.13344098675E+03  0.00000000000E+00 0. -1.
        -13    1    3    3    0    0  0.19566656248E+02 -0.70893692950E+02  0.92861069491E+02  0.11845652352E+03  0.00000000000E+00 0.  1.
         14    1    3    3    0    0 -0.30560168858E+01  0.21044938628E+02  0.14214266715E+02  0.25578781428E+02  0.00000000000E+00 0. -1.
          5    1    4    4  502    0  0.19011265475E+02  0.17081241871E+02  0.36305977223E+02  0.44647631750E+02  0.47000000000E+01 0.  1.
         -5    1    4    4    0  502  0.67796212653E+02 -0.16863031035E+03  0.59864530684E+03  0.62564430903E+03  0.47000000000E+01 0.  1.
          1    1    1    2  503    0 -0.10417479344E+03  0.15831017822E+03  0.24522868549E+04  0.24595986093E+04  0.00000000000E+00 0. -1.
         -4    1    1    2    0  501  0.69258011138E+02  0.53858116994E+02 -0.75074181194E+03  0.75585093574E+03  0.00000000000E+00 0.  1.
<mgrwt>
<rscale>  0 0.12805847E+03</rscale>
<asrwt>0</asrwt>
<pdfrwt beam="1">  1        2 0.50796329E+00 0.18691557E+03</pdfrwt>
<pdfrwt beam="2">  1       -3 0.11856288E+00 0.87734650E+02</pdfrwt>
<totfact> 0.54505044E-01</totfact>
</mgrwt>
</event>
<event>
13    1  0.2038932E-008  0.8641314E+02  0.7546771E-02  0.1416704E+00
         -3   -1    0    0    0  501  0.00000000000E+00  0.00000000000E+00  0.17054508457E+03  0.17054508457E+03  0.00000000000E+00 0.  1.
         -3   -1    0    0    0  502 -0.00000000000E+00 -0.00000000000E+00 -0.11765529882E+04  0.11765529882E+04  0.00000000000E+00 0.  1.
         24    2    1    2    0    0  0.31615203996E+02 -0.35843068860E+02 -0.43334192523E+03  0.44310483713E+03  0.79198647830E+02 0.  0.
         25    2    1    2    0    0 -0.19061602104E+03  0.62482989604E+02 -0.15755031365E+03  0.28405501065E+03  0.12500622496E+03 0.  0.
         24    2    1    2    0    0  0.65863296949E+02  0.21290477293E+02 -0.40803059682E+02  0.11090178489E+03  0.76439897329E+02 0.  0.
        -11    1    5    5    0    0  0.37177726465E+02 -0.25501274366E+02 -0.32071160813E+02  0.55326826182E+02  0.00000000000E+00 0.  1.
         12    1    5    5    0    0  0.28685570483E+02  0.46791751660E+02 -0.87318988692E+01  0.55574958706E+02  0.00000000000E+00 0. -1.
        -13    1    3    3    0    0  0.17484241609E+02  0.21498243144E+02 -0.22005223043E+03  0.22179011989E+03  0.00000000000E+00 0.  1.
         14    1    3    3    0    0  0.14130962387E+02 -0.57341312004E+02 -0.21328969480E+03  0.22131471724E+03  0.00000000000E+00 0. -1.
          5    1    4    4  503    0 -0.10166697569E+03  0.96193422988E+02 -0.80332201263E+02  0.16144566000E+03  0.47000000000E+01 0. -1.
         -5    1    4    4    0  503 -0.88949045347E+02 -0.33710433383E+02 -0.77218112385E+02  0.12260935065E+03  0.47000000000E+01 0. -1.
         -4    1    1    2    0  501  0.59901802147E+02 -0.61593438876E+02  0.38864483013E+02  0.94299658816E+02  0.00000000000E+00 0.  1.
         -4    1    1    2    0  502  0.33235717945E+02  0.13663040839E+02 -0.41317708805E+03  0.41473678125E+03  0.00000000000E+00 0.  1.
<mgrwt>
<rscale>  0 0.55724475E+02</rscale>
<asrwt>0</asrwt>
<pdfrwt beam="1">  1       -3 0.25080159E-01 0.86413142E+02</pdfrwt>
<pdfrwt beam="2">  1       -3 0.17302250E+00 0.35934547E+02</pdfrwt>
<totfact> 0.83793499E+00</totfact>
</mgrwt>
</event>
<event>
13    1  0.2038932E-008  0.8173245E+02  0.7546771E-02  0.1365656E+00
          2   -1    0    0  503    0  0.00000000000E+00  0.00000000000E+00  0.16798855574E+04  0.16798855574E+04  0.00000000000E+00 0. -1.
          2   -1    0    0  502    0 -0.00000000000E+00 -0.00000000000E+00 -0.33675499971E+04  0.33675499971E+04  0.00000000000E+00 0. -1.
         24    2    1    2    0    0  0.13892458818E+03 -0.20599596909E+03 -0.19572348204E+04  0.19745453616E+04  0.79541575467E+02 0.  0.
         25    2    1    2    0    0 -0.96564654839E+02  0.16804329843E+03  0.58857793478E+03  0.63214911489E+03  0.12500094172E+03 0.  0.
         24    2    1    2    0    0 -0.46815552996E+02 -0.59652863651E+02 -0.38173137886E+03  0.39716374166E+03  0.79183533240E+02 0.  0.
        -11    1    5    5    0    0 -0.21438215743E+02  0.14764180000E+02 -0.51540430252E+02  0.57740748660E+02  0.00000000000E+00 0.  1.
         12    1    5    5    0    0 -0.25377337253E+02 -0.74417043651E+02 -0.33019094861E+03  0.33942299300E+03  0.00000000000E+00 0. -1.
        -11    1    3    3    0    0  0.53804384957E+02 -0.88717648906E+02 -0.11262882920E+04  0.11310574918E+04  0.00000000000E+00 0.  1.
         12    1    3    3    0    0  0.85120203227E+02 -0.11727832019E+03 -0.83094652836E+03  0.84348786973E+03  0.00000000000E+00 0. -1.
          5    1    4    4  501    0 -0.44192554520E+02 -0.86877812546E+01  0.14044898980E+03  0.14756852020E+03  0.47000000000E+01 0. -1.
         -5    1    4    4    0  501 -0.52372100319E+02  0.17673107968E+03  0.44812894499E+03  0.48458059469E+03  0.47000000000E+01 0. -1.
          1    1    1    2  502    0  0.50800220785E+02  0.64035985063E+02 -0.98796035208E+03  0.99133593050E+03  0.00000000000E+00 0. -1.
          1    1    1    2  503    0 -0.46344601134E+02  0.33569549253E+02  0.10506841769E+04  0.10522414059E+04  0.00000000000E+00 0. -1.
<mgrwt>
<rscale>  0 0.68389805E+02</rscale>
<asrwt>0</asrwt>
<pdfrwt beam="1">  1        2 0.24704200E+00 0.57225315E+02</pdfrwt>
<pdfrwt beam="2">  1        2 0.49522794E+00 0.81732455E+02</pdfrwt>
<totfact> 0.40241510E+00</totfact>
</mgrwt>
</event>
<event>
13    1  0.2038932E-008  0.8822215E+02  0.7546771E-02  0.1350152E+00
         -1   -1    0    0    0  501 -0.00000000000E+00  0.00000000000E+00  0.11136189950E+04  0.11136189950E+04  0.00000000000E+00 0.  1.
          2   -1    0    0  503    0  0.00000000000E+00 -0.00000000000E+00 -0.14016084800E+04  0.14016084800E+04  0.00000000000E+00 0. -1.
         24    2    1    2    0    0  0.21049389831E+01 -0.51281187742E+02  0.32215701408E+03  0.33626309764E+03  0.81569222934E+02 0.  0.
         25    2    1    2    0    0 -0.51935808065E+02  0.84367480504E+02 -0.85461876746E+03  0.86937584795E+03  0.12500370951E+03 0.  0.
         24    2    1    2    0    0  0.14758376487E+02  0.58421991981E+02  0.57927817302E+03  0.58783634148E+03  0.79733454709E+02 0.  0.
        -11    1    3    3    0    0  0.36726755658E+02 -0.32185805896E+01  0.13606023173E+03  0.14096666450E+03  0.00000000000E+00 0.  1.
         12    1    3    3    0    0 -0.34621816675E+02 -0.48062607153E+02  0.18609678235E+03  0.19529643314E+03  0.00000000000E+00 0. -1.
        -13    1    5    5    0    0 -0.18927136714E+00  0.71100732383E+02  0.53087506625E+03  0.53561524057E+03  0.00000000000E+00 0.  1.
         14    1    5    5    0    0  0.14947647854E+02 -0.12678740401E+02  0.48403106773E+02  0.52221100906E+02  0.00000000000E+00 0. -1.
          5    1    4    4  502    0  0.28021897588E+01  0.34285012468E+02 -0.47474375396E+02  0.58815139774E+02  0.47000000000E+01 0. -1.
         -5    1    4    4    0  502 -0.54737997824E+02  0.50082468036E+02 -0.80714439206E+03  0.81056070818E+03  0.47000000000E+01 0. -1.
          1    1    1    2  503    0 -0.24956478490E+02 -0.84662036490E+02 -0.51974909200E+03  0.52719029285E+03  0.00000000000E+00 0. -1.
         -2    1    1    2    0  501  0.60028971085E+02 -0.68462482529E+01  0.18494318735E+03  0.19456189512E+03  0.00000000000E+00 0.  1.
<mgrwt>
<rscale>  0 0.73008327E+02</rscale>
<asrwt>0</asrwt>
<pdfrwt beam="2">  1        2 0.20611889E+00 0.88222149E+02</pdfrwt>
<pdfrwt beam="1">  1       -1 0.16376750E+00 0.60418114E+02</pdfrwt>
<totfact> 0.69469657E+00</totfact>
</mgrwt>
</event>
<event>
13    1  0.2038932E-008  0.1470742E+03  0.7546771E-02  0.1299496E+00
          2   -1    0    0  502    0  0.00000000000E+00  0.00000000000E+00  0.30552667348E+04  0.30552667348E+04  0.00000000000E+00 0. -1.
          2   -1    0    0  503    0 -0.00000000000E+00 -0.00000000000E+00 -0.86910783719E+03  0.86910783719E+03  0.00000000000E+00 0. -1.
         24    2    1    2    0    0 -0.23540739086E+03  0.61284482235E+02 -0.30112669404E+02  0.25836649673E+03  0.81694836652E+02 0.  0.
         25    2    1    2    0    0  0.39601406654E+03  0.10884345666E+02  0.96968589975E+02  0.42658237311E+03  0.12499601482E+03 0.  0.
         24    2    1    2    0    0 -0.11413750025E+03  0.88334368063E+02 -0.63714988466E+02  0.17851226360E+03  0.83526636203E+02 0.  0.
        -11    1    3    3    0    0 -0.20234958729E+03  0.20058924436E+02 -0.29866792959E+02  0.20552309176E+03  0.00000000000E+00 0.  1.
         12    1    3    3    0    0 -0.33057803576E+02  0.41225557799E+02 -0.24587644500E+00  0.52843404966E+02  0.00000000000E+00 0. -1.
        -13    1    5    5    0    0 -0.52511559077E+02  0.64210110010E+01 -0.53920838273E+02  0.75539062868E+02  0.00000000000E+00 0.  1.
         14    1    5    5    0    0 -0.61625941173E+02  0.81913357062E+02 -0.97941501932E+01  0.10297320073E+03  0.00000000000E+00 0. -1.
          5    1    4    4  501    0  0.24185200596E+03 -0.16199404039E+02  0.11613514738E+03  0.26882015537E+03  0.47000000000E+01 0.  1.
         -5    1    4    4    0  501  0.15416206058E+03  0.27083749705E+02 -0.19166557400E+02  0.15776221773E+03  0.47000000000E+01 0.  1.
          1    1    1    2  502    0  0.86468018982E+01 -0.14676950732E+03  0.26180569524E+04  0.26221819658E+04  0.00000000000E+00 0. -1.
          1    1    1    2  503    0 -0.55115977330E+02 -0.13733688644E+02 -0.43503898688E+03  0.43873147284E+03  0.00000000000E+00 0. -1.
<mgrwt>
<rscale>  0 0.91400230E+02</rscale>
<asrwt>0</asrwt>
<pdfrwt beam="1">  1        2 0.44930393E+00 0.14707419E+03</pdfrwt>
<pdfrwt beam="2">  1        2 0.12780998E+00 0.56801278E+02</pdfrwt>
<totfact> 0.14270812E+01</totfact>
</mgrwt>
</event>
<event>
13    1  0.2038932E-008  0.6522436E+02  0.7546771E-02  0.1441962E+00
          2   -1    0    0  502    0  0.00000000000E+00  0.00000000000E+00  0.24025624980E+04  0.24025624980E+04  0.00000000000E+00 0. -1.
          2   -1    0    0  503    0 -0.00000000000E+00 -0.00000000000E+00 -0.89664844291E+03  0.89664844291E+03  0.00000000000E+00 0. -1.
         24    2    1    2    0    0 -0.30027477327E+02 -0.41512811451E+02 -0.95805397912E+01  0.96023767603E+02  0.80646229254E+02 0.  0.
         25    2    1    2    0    0  0.56785067640E+02  0.69296593323E+01  0.85745851658E+03  0.86840835408E+03  0.12500159077E+03 0.  0.
         24    2    1    2    0    0 -0.95559002593E+01 -0.16965932494E+02 -0.28506837154E+02  0.91765923547E+02  0.85024625049E+02 0.  0.
        -11    1    3    3    0    0 -0.10909331944E+02  0.24478985412E+02 -0.39295205914E+01  0.27086442778E+02  0.00000000000E+00 0.  1.
         12    1    3    3    0    0 -0.19118145383E+02 -0.65991796863E+02 -0.56510191999E+01  0.68937324825E+02  0.00000000000E+00 0. -1.
        -13    1    5    5    0    0 -0.11762570402E+01  0.34759842386E+02 -0.99171491770E+01  0.36166007121E+02  0.00000000000E+00 0.  1.
         14    1    5    5    0    0 -0.83796432191E+01 -0.51725774880E+02 -0.18589687977E+02  0.55599916426E+02  0.00000000000E+00 0. -1.
          5    1    4    4  501    0  0.65767122797E+02  0.12933988150E+02  0.85325851386E+03  0.85589998479E+03  0.47000000000E+01 0.  1.
         -5    1    4    4    0  501 -0.89820551573E+01 -0.60043288177E+01  0.42000027184E+01  0.12508369288E+02  0.47000000000E+01 0.  1.
          1    1    1    2  502    0  0.36526625470E+02  0.14513501801E+02  0.14631455747E+04  0.14636733955E+04  0.00000000000E+00 0. -1.
          1    1    1    2  503    0 -0.53728315524E+02  0.37035582812E+02 -0.77660265919E+03  0.77933950018E+03  0.00000000000E+00 0. -1.
<mgrwt>
<rscale>  0 0.50632050E+02</rscale>
<asrwt>0</asrwt>
<pdfrwt beam="1">  1        2 0.35331801E+00 0.39304403E+02</pdfrwt>
<pdfrwt beam="2">  1        2 0.13186007E+00 0.65224358E+02</pdfrwt>
<totfact> 0.35422759E+01</totfact>
</mgrwt>
</event>
<event>
13    1  0.2038932E-008  0.8170145E+02  0.7546771E-02  0.1435259E+00
         -1   -1    0    0    0  501 -0.00000000000E+00  0.00000000000E+00  0.79523022259E+03  0.79523022259E+03  0.00000000000E+00 0.  1.
          2   -1    0    0  503    0  0.00000000000E+00 -0.00000000000E+00 -0.12682931623E+04  0.12682931623E+04  0.00000000000E+00 0. -1.
         24    2    1    2    0    0 -0.38768265704E+02  0.32992904417E+02  0.41737023361E+03  0.42781309796E+03  0.78959639774E+02 0.  0.
         25    2    1    2    0    0  0.88614854506E+02  0.74446230715E+02 -0.78825733386E+03  0.80645369976E+03  0.12499244682E+03 0.  0.
         24    2    1    2    0    0 -0.29639538311E+02  0.21055267107E+01  0.87345559335E+02  0.12270093354E+03  0.80890894934E+02 0.  0.
        -13    1    3    3    0    0 -0.16448261215E+02 -0.18593227173E+02  0.25057853786E+03  0.25180519659E+03  0.00000000000E+00 0.  1.
         14    1    3    3    0    0 -0.22320004489E+02  0.51586131590E+02  0.16679169575E+03  0.17600790137E+03  0.00000000000E+00 0. -1.
        -13    1    5    5    0    0  0.14859093991E+02  0.12325978204E+02 -0.47739944135E+01  0.19887519593E+02  0.00000000000E+00 0.  1.
         14    1    5    5    0    0 -0.44498632303E+02 -0.10220451493E+02  0.92119553748E+02  0.10281341395E+03  0.00000000000E+00 0. -1.
          5    1    4    4  502    0  0.52915577500E+02 -0.20973732452E+02 -0.43614239015E+03  0.43986615042E+03  0.47000000000E+01 0.  1.
         -5    1    4    4    0  502  0.35699277007E+02  0.95419963168E+02 -0.35211494371E+03  0.36658754934E+03  0.47000000000E+01 0.  1.
          1    1    1    2  503    0 -0.17255562417E+02 -0.28120408423E+02 -0.44098705557E+03  0.44221950996E+03  0.00000000000E+00 0. -1.
         -2    1    1    2    0  501 -0.29514880738E+01 -0.81424253420E+02  0.25146565676E+03  0.26433614369E+03  0.00000000000E+00 0.  1.
<mgrwt>
<rscale>  0 0.51918623E+02</rscale>
<asrwt>0</asrwt>
<pdfrwt beam="2">  1        2 0.18651370E+00 0.32992602E+02</pdfrwt>
<pdfrwt beam="1">  1       -1 0.11694562E+00 0.81701448E+02</pdfrwt>
<totfact> 0.19501656E+01</totfact>
</mgrwt>
</event>
<event>
13    1  0.2038932E-008  0.4109938E+02  0.7546771E-02  0.1557177E+00
          2   -1    0    0  503    0  0.00000000000E+00  0.00000000000E+00  0.33287482411E+04  0.33287482411E+04  0.00000000000E+00 0. -1.
          2   -1    0    0  502    0 -0.00000000000E+00 -0.00000000000E+00 -0.15286852903E+04  0.15286852903E+04  0.00000000000E+00 0. -1.
         24    2    1    2    0    0 -0.13412571784E+02  0.92736490924E+03 -0.75256484722E+03  0.11968784341E+04  0.77321178986E+02 0.  0.
         25    2    1    2    0    0 -0.38717165670E+03 -0.90040540869E+02 -0.67229808902E+02  0.42208681791E+03  0.12501297494E+03 0.  0.
         24    2    1    2    0    0  0.36750623703E+03 -0.80290324203E+03  0.10226119433E+04  0.13534476012E+04  0.79817117900E+02 0.  0.
        -11    1    5    5    0    0  0.15907870057E+03 -0.30720423785E+03  0.34739726137E+03  0.49027067416E+03  0.00000000000E+00 0.  1.
         12    1    5    5    0    0  0.20842753646E+03 -0.49569900418E+03  0.67521468191E+03  0.86317692703E+03  0.00000000000E+00 0. -1.
        -13    1    3    3    0    0  0.40415981194E+01  0.71523558955E+03 -0.61637200373E+03  0.94418892710E+03  0.00000000000E+00 0.  1.
         14    1    3    3    0    0 -0.17454169903E+02  0.21212931969E+03 -0.13619284348E+03  0.25268950698E+03  0.00000000000E+00 0. -1.
          5    1    4    4  501    0 -0.25665959294E+03 -0.11004580592E+03 -0.13999400871E+02  0.27964674014E+03  0.47000000000E+01 0. -1.
         -5    1    4    4    0  501 -0.13051206376E+03  0.20005265055E+02 -0.53230408032E+02  0.14244007777E+03  0.47000000000E+01 0. -1.
          1    1    1    2  502    0  0.40469836453E+02 -0.71923850695E+01 -0.14083515772E+03  0.14671087115E+03  0.00000000000E+00 0. -1.
          1    1    1    2  503    0 -0.73918450047E+01 -0.27228741275E+02  0.17380808213E+04  0.17383098070E+04  0.00000000000E+00 0. -1.
<mgrwt>
<rscale>  0 0.34052725E+02</rscale>
<asrwt>0</asrwt>
<pdfrwt beam="1">  1        2 0.48952180E+00 0.28214247E+02</pdfrwt>
<pdfrwt beam="2">  1        2 0.22480666E+00 0.41099381E+02</pdfrwt>
<totfact> 0.62857731E+00</totfact>
</mgrwt>
</event>
<event>
13    1  0.2038932E-008  0.8225538E+02  0.7546771E-02  0.1356504E+00
          2   -1    0    0  502    0  0.00000000000E+00  0.00000000000E+00  0.96597962155E+03  0.96597962155E+03  0.00000000000E+00 0. -1.
          4   -1    0    0  503    0 -0.00000000000E+00 -0.00000000000E+00 -0.97713302942E+03  0.97713302942E+03  0.00000000000E+00 0. -1.
         24    2    1    2    0    0 -0.63008498181E+02 -0.30440611209E+02 -0.20106657896E+02  0.10761533430E+03  0.79246961021E+02 0.  0.
         25    2    1    2    0    0  0.94327237921E+02  0.64390768590E+02  0.53005978396E+02  0.17743011646E+03  0.12501205378E+03 0.  0.
         24    2    1    2    0    0 -0.16063897919E+02 -0.91781556932E+02 -0.39999173010E+02  0.12952293608E+03  0.80587555610E+02 0.  0.
        -11    1    5    5    0    0 -0.72537181934E+01 -0.44485913678E+02 -0.61974864096E+02  0.76632217266E+02  0.00000000000E+00 0.  1.
         12    1    5    5    0    0 -0.88101797258E+01 -0.47295643254E+02  0.21975691086E+02  0.52890718811E+02  0.00000000000E+00 0. -1.
        -13    1    3    3    0    0 -0.23002415058E+02  0.26727469211E+02 -0.12558292427E+02  0.37432331180E+02  0.00000000000E+00 0.  1.
         14    1    3    3    0    0 -0.40006083123E+02 -0.57168080419E+02 -0.75483654693E+01  0.70183003120E+02  0.00000000000E+00 0. -1.
          5    1    4    4  501    0  0.10738399815E+03  0.74100510122E+02  0.74304822307E+02  0.15021819223E+03  0.47000000000E+01 0.  1.
         -5    1    4    4    0  501 -0.13056760233E+02 -0.97097415324E+01 -0.21298843910E+02  0.27211924230E+02  0.47000000000E+01 0.  1.
          1    1    1    2  502    0 -0.73399660539E+02  0.38107381766E+02  0.75876494230E+03  0.76325875061E+03  0.00000000000E+00 0. -1.
          3    1    1    2  503    0  0.58144818718E+02  0.19724017785E+02 -0.76281849767E+03  0.76528551352E+03  0.00000000000E+00 0. -1.
<mgrwt>
<rscale>  0 0.71066243E+02</rscale>
<asrwt>0</asrwt>
<pdfrwt beam="1">  1        2 0.14205583E+00 0.82255376E+02</pdfrwt>
<pdfrwt beam="2">  1        4 0.14369603E+00 0.61399160E+02</pdfrwt>
<totfact> 0.56685351E+00</totfact>
</mgrwt>
</event>
<event>
13    1  0.2038932E-008  0.3745927E+02  0.7546771E-02  0.1542679E+00
          2   -1    0    0  502    0  0.00000000000E+00  0.00000000000E+00  0.21098580262E+04  0.21098580262E+04  0.00000000000E+00 0. -1.
          2   -1    0    0  503    0 -0.00000000000E+00 -0.00000000000E+00 -0.33936780957E+03  0.33936780957E+03  0.00000000000E+00 0. -1.
         24    2    1    2    0    0  0.62897280210E+02  0.83043207471E+01 -0.78808115783E+02  0.12929850139E+03  0.80513065699E+02 0.  0.
         25    2    1    2    0    0  0.30138736232E+02 -0.29582130662E+02  0.22235788789E+03  0.25855229061E+03  0.12499124288E+03 0.  0.
         24    2    1    2    0    0 -0.52773845852E+02 -0.54240871034E+00 -0.14395636635E+03  0.17207286332E+03  0.78104173166E+02 0.  0.
        -13    1    5    5    0    0 -0.16980909923E+02 -0.32730807827E+02 -0.10112805413E+03  0.10764079345E+03  0.00000000000E+00 0.  1.
         14    1    5    5    0    0 -0.35792935929E+02  0.32188399117E+02 -0.42828312220E+02  0.64432069870E+02  0.00000000000E+00 0. -1.
        -13    1    3    3    0    0 -0.49148732842E+01 -0.46799120028E+01 -0.56257130955E+02  0.56665001007E+02  0.00000000000E+00 0.  1.
         14    1    3    3    0    0  0.67812153494E+02  0.12984232750E+02 -0.22550984828E+02  0.72633500386E+02  0.00000000000E+00 0. -1.
          5    1    4    4  501    0  0.72185808886E+02 -0.37984795367E+02  0.18192293271E+03  0.19942838095E+03  0.47000000000E+01 0.  1.
         -5    1    4    4    0  501 -0.42047072654E+02  0.84026647051E+01  0.40434955184E+02  0.59123909662E+02  0.47000000000E+01 0.  1.
          1    1    1    2  502    0 -0.35547106404E+02 -0.11828582406E+02  0.18250162841E+04  0.18254007641E+04  0.00000000000E+00 0. -1.
          1    1    1    2  503    0 -0.47150641855E+01  0.33648801031E+02 -0.54119473204E+02  0.63901416424E+02  0.00000000000E+00 0. -1.
<mgrwt>
<rscale>  0 0.35675958E+02</rscale>
<asrwt>0</asrwt>
<pdfrwt beam="1">  1        2 0.31027323E+00 0.37459267E+02</pdfrwt>
<pdfrwt beam="2">  1        2 0.49907032E-01 0.33977546E+02</pdfrwt>
<totfact> 0.14023681E+02</totfact>
</mgrwt>
</event>
<event>
13    1  0.2038932E-008  0.3881746E+02  0.7546771E-02  0.1597036E+00
          2   -1    0    0  502    0  0.00000000000E+00  0.00000000000E+00  0.11535875255E+04  0.11535875255E+04  0.00000000000E+00 0. -1.
          2   -1    0    0  503    0 -0.00000000000E+00 -0.00000000000E+00 -0.31437799524E+03  0.31437799524E+03  0.00000000000E+00 0. -1.
         24    2    1    2    0    0  0.49108663148E+02  0.79977786249E+02  0.98009960604E+01  0.12407498815E+03  0.80563242674E+02 0.  0.
         25    2    1    2    0    0 -0.78951720100E+02 -0.15879124176E+03  0.42065312605E+03  0.47330853529E+03  0.12499553814E+03 0.  0.
         24    2    1    2    0    0  0.30748035902E+02  0.35894108718E+02  0.87953447812E+02  0.12899558420E+03  0.81671433254E+02 0.  0.
        -11    1    5    5    0    0  0.25162025710E+02 -0.16752397668E+02  0.64216901486E+02  0.70975917056E+02  0.00000000000E+00 0.  1.
         12    1    5    5    0    0  0.55860101920E+01  0.52646506387E+02  0.23736546326E+02  0.58019667149E+02  0.00000000000E+00 0. -1.
        -11    1    3    3    0    0  0.72716944011E+01 -0.15979234639E+02 -0.52347333289E+01  0.18319822929E+02  0.00000000000E+00 0.  1.
         12    1    3    3    0    0  0.41836968747E+02  0.95957020888E+02  0.15035729389E+02  0.10575516522E+03  0.00000000000E+00 0. -1.
          5    1    4    4  501    0 -0.11895931722E+01 -0.60609462959E+02  0.40574199443E+02  0.73097727684E+02  0.47000000000E+01 0. -1.
         -5    1    4    4    0  501 -0.77762126928E+02 -0.98181778803E+02  0.38007892660E+03  0.40021080760E+03  0.47000000000E+01 0. -1.
          1    1    1    2  502    0  0.20272687159E+02  0.33124194381E+02  0.52983437982E+03  0.53125574269E+03  0.00000000000E+00 0. -1.
          1    1    1    2  503    0 -0.21177666110E+02  0.97951524150E+01 -0.20903241945E+03  0.21033067045E+03  0.00000000000E+00 0. -1.
<mgrwt>
<rscale>  0 0.30095447E+02</rscale>
<asrwt>0</asrwt>
<pdfrwt beam="1">  1        2 0.16964522E+00 0.38817463E+02</pdfrwt>
<pdfrwt beam="2">  1        2 0.46232058E-01 0.23333207E+02</pdfrwt>
<totfact> 0.42221415E+02</totfact>
</mgrwt>
</event>
<event>
13    1  0.2038932E-008  0.4768971E+02  0.7546771E-02  0.1484261E+00
          2   -1    0    0  503    0  0.00000000000E+00  0.00000000000E+00  0.20560833567E+03  0.20560833567E+03  0.00000000000E+00 0. -1.
          2   -1    0    0  502    0 -0.00000000000E+00 -0.00000000000E+00 -0.30204643766E+04  0.30204643766E+04  0.00000000000E+00 0. -1.
         24    2    1    2    0    0  0.20355736619E+03  0.23479220644E+03 -0.53873797156E+03  0.62676610985E+03  0.77679938972E+02 0.  0.
         25    2    1    2    0    0 -0.16483534014E+03 -0.13015730829E+03 -0.11256811602E+04  0.11519091813E+04  0.12500029324E+03 0.  0.
         24    2    1    2    0    0  0.14622029764E+02 -0.74543455206E+02 -0.47520955535E+01  0.12327588740E+03  0.96973354764E+02 0.  0.
        -11    1    3    3    0    0  0.16466001524E+03  0.14674906720E+03 -0.41530033178E+03  0.47023672221E+03  0.00000000000E+00 0.  1.
         12    1    3    3    0    0  0.38897350953E+02  0.88043139245E+02 -0.12343763978E+03  0.15652938764E+03  0.00000000000E+00 0. -1.
        -13    1    5    5    0    0 -0.22198898157E+02 -0.78505022474E+02  0.12299881218E+02  0.82505252627E+02  0.00000000000E+00 0.  1.
         14    1    5    5    0    0  0.36820927921E+02  0.39615672679E+01 -0.17051976772E+02  0.40770634776E+02  0.00000000000E+00 0. -1.
          5    1    4    4  501    0 -0.16711054680E+03 -0.14819888427E+03 -0.98741067661E+03  0.10123688944E+04  0.47000000000E+01 0.  1.
         -5    1    4    4    0  501  0.22752066659E+01  0.18041575971E+02 -0.13827048356E+03  0.13954028684E+03  0.47000000000E+01 0.  1.
          1    1    1    2  502    0 -0.36781984611E+02  0.14633378382E+02 -0.12281876958E+04  0.12288254824E+04  0.00000000000E+00 0. -1.
          1    1    1    2  503    0 -0.16562071207E+02 -0.44724821321E+02  0.82502882109E+02  0.95296051341E+02  0.00000000000E+00 0. -1.
<mgrwt>
<rscale>  0 0.43449328E+02</rscale>
<asrwt>0</asrwt>
<pdfrwt beam="1">  1        2 0.30236523E-01 0.47689710E+02</pdfrwt>
<pdfrwt beam="2">  1        2 0.44418590E+00 0.39585984E+02</pdfrwt>
<totfact> 0.85190426E+01</totfact>
</mgrwt>
</event>
<event>
13    1  0.2038932E-008  0.1172496E+03  0.7546771E-02  0.1348713E+00
         -3   -1    0    0    0  501 -0.00000000000E+00  0.00000000000E+00  0.11369468655E+04  0.11369468655E+04  0.00000000000E+00 0.  1.
          2   -1    0    0  503    0  0.00000000000E+00 -0.00000000000E+00 -0.87582896259E+03  0.87582896259E+03  0.00000000000E+00 0. -1.
         24    2    1    2    0    0  0.96833023083E+00 -0.87523590293E+02  0.37241904039E+03  0.39107286231E+03  0.81121670784E+02 0.  0.
         25    2    1    2    0    0  0.14620161548E+03  0.45956010131E+02 -0.39534081801E+03  0.44206882833E+03  0.12507445528E+03 0.  0.
         24    2    1    2    0    0  0.73064255417E+00  0.15035171854E+02  0.17053540284E+02  0.83204503783E+02  0.80034842302E+02 0.  0.
        -11    1    3    3    0    0  0.13850716961E+02 -0.70033925430E+02  0.35788744422E+03  0.36493837261E+03  0.00000000000E+00 0.  1.
         12    1    3    3    0    0 -0.12882386730E+02 -0.17489664864E+02  0.14531596173E+02  0.26134489707E+02  0.00000000000E+00 0. -1.
        -11    1    5    5    0    0  0.21751926875E+02 -0.21708551587E+02 -0.10751334500E+02  0.32557621662E+02  0.00000000000E+00 0.  1.
         12    1    5    5    0    0 -0.21021284321E+02  0.36743723441E+02  0.27804874784E+02  0.50646882121E+02  0.00000000000E+00 0. -1.
          5    1    4    4  502    0  0.70116768447E+02  0.32161979962E+02 -0.33520679263E+03  0.34400063662E+03  0.47000000000E+01 0. -1.
         -5    1    4    4    0  502  0.76084847037E+02  0.13794030169E+02 -0.60134025382E+02  0.98068191711E+02  0.47000000000E+01 0. -1.
          1    1    1    2  503    0 -0.35874094377E+02 -0.28828840218E+02 -0.40768979404E+03  0.41027919864E+03  0.00000000000E+00 0. -1.
         -4    1    1    2    0  501 -0.11202649389E+03  0.55361248527E+02  0.67467593424E+03  0.68615043497E+03  0.00000000000E+00 0.  1.
<mgrwt>
<rscale>  0 0.73458142E+02</rscale>
<asrwt>0</asrwt>
<pdfrwt beam="2">  1        2 0.12879838E+00 0.46022306E+02</pdfrwt>
<pdfrwt beam="1">  1       -3 0.16719807E+00 0.11724964E+03</pdfrwt>
<totfact> 0.58240301E+00</totfact>
</mgrwt>
</event>
<event>
13    1  0.2038932E-008  0.1060014E+03  0.7546771E-02  0.1301733E+00
          2   -1    0    0  502    0  0.00000000000E+00  0.00000000000E+00  0.25215027483E+04  0.25215027483E+04  0.00000000000E+00 0. -1.
          2   -1    0    0  503    0 -0.00000000000E+00 -0.00000000000E+00 -0.18152484079E+04  0.18152484079E+04  0.00000000000E+00 0. -1.
         24    2    1    2    0    0 -0.10141179944E+02  0.55833969027E+02 -0.26964162617E+03  0.28771880044E+03  0.82796291799E+02 0.  0.
         25    2    1    2    0    0  0.16415821953E+03  0.50110949113E+01  0.31930624856E+03  0.38020368983E+03  0.12500133311E+03 0.  0.
         24    2    1    2    0    0 -0.38769639105E+02  0.80703634376E+02 -0.45719259369E+03  0.47280441546E+03  0.80639853879E+02 0.  0.
        -11    1    3    3    0    0 -0.21700510697E+02  0.73574656165E+02 -0.23410668760E+03  0.24635357390E+03  0.00000000000E+00 0.  1.
         12    1    3    3    0    0  0.11559330754E+02 -0.17740687138E+02 -0.35534938570E+02  0.41365226540E+02  0.00000000000E+00 0. -1.
        -11    1    5    5    0    0 -0.33843671908E+02  0.71340060333E+02 -0.45525047712E+03  0.46204739504E+03  0.00000000000E+00 0.  1.
         12    1    5    5    0    0 -0.49259671970E+01  0.93635740424E+01 -0.19421165685E+01  0.10757020426E+02  0.00000000000E+00 0. -1.
          5    1    4    4  501    0  0.27303165119E+02 -0.22391560196E+02  0.46177658399E+01  0.35920169193E+02  0.47000000000E+01 0. -1.
         -5    1    4    4    0  501  0.13685505441E+03  0.27402655108E+02  0.31468848272E+03  0.34428352063E+03  0.47000000000E+01 0. -1.
          1    1    1    2  502    0 -0.72193689834E+02 -0.77465266947E+02  0.21521685532E+04  0.21547719782E+04  0.00000000000E+00 0. -1.
          1    1    1    2  503    0 -0.43053710645E+02 -0.64083431367E+02 -0.10383862415E+04  0.10412522724E+04  0.00000000000E+00 0. -1.
<mgrwt>
<rscale>  0 0.90463406E+02</rscale>
<asrwt>0</asrwt>
<pdfrwt beam="1">  1        2 0.37080923E+00 0.10600138E+03</pdfrwt>
<pdfrwt beam="2">  1        2 0.26694830E+00 0.77203032E+02</pdfrwt>
<totfact> 0.90852315E+00</totfact>
</mgrwt>
</event>
<event>
13    1  0.2038932E-008  0.9070759E+02  0.7546771E-02  0.1344675E+00
         -1   -1    0    0    0  501 -0.00000000000E+00  0.00000000000E+00  0.37657890844E+03  0.37657890844E+03  0.00000000000E+00 0.  1.
          2   -1    0    0  503    0  0.00000000000E+00 -0.00000000000E+00 -0.23519062436E+04  0.23519062436E+04  0.00000000000E+00 0. -1.
         24    2    1    2    0    0 -0.42772464668E+01 -0.19207185927E+02  0.11832010048E+03  0.14432782800E+03  0.80272441907E+02 0.  0.
         25    2    1    2    0    0  0.17131105567E+03  0.25707071093E+03 -0.16609775900E+04  0.16940788312E+04  0.12499481420E+03 0.  0.
         24    2    1    2    0    0 -0.50585957515E+02 -0.15376272144E+03 -0.16727541332E+03  0.24593996518E+03  0.79394514727E+02 0.  0.
        -13    1    5    5    0    0 -0.12073488708E+02 -0.48457298014E+02 -0.10827736002E+03  0.11923869151E+03  0.00000000000E+00 0.  1.
         14    1    5    5    0    0 -0.38512468807E+02 -0.10530542343E+03 -0.58998053306E+02  0.12670127367E+03  0.00000000000E+00 0. -1.
        -13    1    3    3    0    0  0.20405066892E+02 -0.37574732335E+02  0.99407593368E+02  0.10821320106E+03  0.00000000000E+00 0.  1.
         14    1    3    3    0    0 -0.24682313359E+02  0.18367546408E+02  0.18912507114E+02  0.36114626942E+02  0.00000000000E+00 0. -1.
          5    1    4    4  502    0  0.14606591874E+03  0.12687769029E+03 -0.11488907022E+04  0.11650773092E+04  0.47000000000E+01 0. -1.
         -5    1    4    4    0  502  0.25245136934E+02  0.13019302064E+03 -0.51208688781E+03  0.52900152195E+03  0.47000000000E+01 0. -1.
          1    1    1    2  503    0 -0.57544556081E+02 -0.21938561228E+02 -0.44284380316E+03  0.44710548017E+03  0.00000000000E+00 0. -1.
         -2    1    1    2    0  501 -0.58903295609E+02 -0.62162242334E+02  0.17744937082E+03  0.19703304751E+03  0.00000000000E+00 0.  1.
<mgrwt>
<rscale>  0 0.74740889E+02</rscale>
<asrwt>0</asrwt>
<pdfrwt beam="2">  1        2 0.34586855E+00 0.61584709E+02</pdfrwt>
<pdfrwt beam="1">  1       -1 0.55379254E-01 0.90707590E+02</pdfrwt>
<totfact> 0.26009745E+01</totfact>
</mgrwt>
</event>
<event>
13    1  0.2038932E-008  0.1235346E+03  0.7546771E-02  0.1346420E+00
          2   -1    0    0  503    0  0.00000000000E+00  0.00000000000E+00  0.38007835231E+04  0.38007835231E+04  0.00000000000E+00 0. -1.
          2   -1    0    0  502    0 -0.00000000000E+00 -0.00000000000E+00 -0.39904467053E+03  0.39904467053E+03  0.00000000000E+00 0. -1.
         24    2    1    2    0    0 -0.18834611648E+03 -0.67942516912E+02  0.37688837667E+01  0.21791483099E+03  0.85919868961E+02 0.  0.
         25    2    1    2    0    0  0.21715266116E+01 -0.51516359888E+01  0.15073191713E+04  0.15125033839E+04  0.12499658834E+03 0.  0.
         24    2    1    2    0    0  0.10586382200E+03 -0.42991878904E+02  0.29901429046E+03  0.32959879906E+03  0.78551715357E+02 0.  0.
        -11    1    5    5    0    0  0.72089292216E+02 -0.48634879686E+02  0.27322766687E+03  0.28673258538E+03  0.00000000000E+00 0.  1.
         12    1    5    5    0    0  0.33774529780E+02  0.56430007821E+01  0.25786623594E+02  0.42866213689E+02  0.00000000000E+00 0. -1.
        -11    1    3    3    0    0 -0.19193789786E+01  0.11989592842E+02  0.88271486147E+01  0.15011758886E+02  0.00000000000E+00 0.  1.
         12    1    3    3    0    0 -0.18642673750E+03 -0.79932109754E+02 -0.50582648480E+01  0.20290307210E+03  0.00000000000E+00 0. -1.
          5    1    4    4  501    0 -0.11346315244E+02 -0.24133875696E+02  0.14524889855E+04  0.14527413830E+04  0.47000000000E+01 0.  1.
         -5    1    4    4    0  501  0.13517841855E+02  0.18982239707E+02  0.54830185813E+02  0.59762000878E+02  0.47000000000E+01 0.  1.
          1    1    1    2  502    0  0.35811590976E+02  0.11814804099E+03 -0.25990384780E+03  0.28773501654E+03  0.00000000000E+00 0. -1.
          1    1    1    2  503    0  0.44499176897E+02 -0.20620091829E+01  0.18515403548E+04  0.18520761631E+04  0.00000000000E+00 0. -1.
<mgrwt>
<rscale>  0 0.74182806E+02</rscale>
<asrwt>0</asrwt>
<pdfrwt beam="1">  1        2 0.55893873E+00 0.44546926E+02</pdfrwt>
<pdfrwt beam="2">  1        2 0.58683042E-01 0.12353464E+03</pdfrwt>
<totfact> 0.15429677E+01</totfact>
</mgrwt>
</event>
<event>
13    1  0.2038932E-008  0.1631173E+03  0.7546771E-02  0.1383136E+00
          2   -1    0    0  502    0  0.00000000000E+00  0.00000000000E+00  0.30417411341E+04  0.30417411341E+04  0.00000000000E+00 0. -1.
          4   -1    0    0  503    0 -0.00000000000E+00 -0.00000000000E+00 -0.69687374114E+03  0.69687374114E+03  0.00000000000E+00 0. -1.
         24    2    1    2    0    0 -0.70696604517E+02  0.18855111728E+02 -0.13316139191E+03  0.17182390890E+03  0.80236988020E+02 0.  0.
         25    2    1    2    0    0  0.24096248025E+03  0.17307240433E+02  0.14119368666E+02  0.27237257868E+03  0.12500003033E+03 0.  0.
         24    2    1    2    0    0  0.62182414393E+01  0.18084444399E+02 -0.14305535445E+03  0.16549412689E+03  0.80979984824E+02 0.  0.
        -11    1    3    3    0    0 -0.37533518318E+02  0.32059603466E+02 -0.20161882510E+02  0.53320583999E+02  0.00000000000E+00 0.  1.
         12    1    3    3    0    0 -0.33163086200E+02 -0.13204491738E+02 -0.11299950940E+03  0.11850332490E+03  0.00000000000E+00 0. -1.
        -13    1    5    5    0    0 -0.28595203690E+00 -0.28236136874E+02 -0.22252830822E+02  0.35952046864E+02  0.00000000000E+00 0.  1.
         14    1    5    5    0    0  0.65041934762E+01  0.46320581273E+02 -0.12080252362E+03  0.12954208002E+03  0.00000000000E+00 0. -1.
          5    1    4    4  501    0  0.11981964477E+03  0.54023150362E+02 -0.35664275994E+02  0.13626914041E+03  0.47000000000E+01 0. -1.
         -5    1    4    4    0  501  0.12114283549E+03 -0.36715909928E+02  0.49783644660E+02  0.13610343826E+03  0.47000000000E+01 0. -1.
          1    1    1    2  502    0 -0.15708303172E+03 -0.38743942166E+02  0.28650662472E+04  0.28696307729E+04  0.00000000000E+00 0. -1.
          3    1    1    2  503    0 -0.19401085450E+02 -0.15502854395E+02 -0.25810147659E+03  0.25929348783E+03  0.00000000000E+00 0. -1.
<mgrwt>
<rscale>  0 0.63646667E+02</rscale>
<asrwt>0</asrwt>
<pdfrwt beam="1">  1        2 0.44731487E+00 0.16311731E+03</pdfrwt>
<pdfrwt beam="2">  1        4 0.10248143E+00 0.24834263E+02</pdfrwt>
<totfact> 0.95954316E-01</totfact>
</mgrwt>
</event>
<event>
13    1  0.2038932E-008  0.8434264E+02  0.7546771E-02  0.1378712E+00
          2   -1    0    0  503    0  0.00000000000E+00  0.00000000000E+00  0.38409144444E+04  0.38409144444E+04  0.00000000000E+00 0. -1.
          2   -1    0    0  502    0 -0.00000000000E+00 -0.00000000000E+00 -0.96762557809E+03  0.96762557809E+03  0.00000000000E+00 0. -1.
         24    2    1    2    0    0  0.31445471758E+02 -0.44414070388E+02 -0.42297943152E+02  0.10649064953E+03  0.81177060188E+02 0.  0.
         25    2    1    2    0    0  0.64520650652E+02  0.16362137180E+03  0.14214967181E+04  0.14377800076E+04  0.12499425213E+03 0.  0.
         24    2    1    2    0    0  0.39506949803E+02 -0.10859930725E+03  0.94918914393E+02  0.17049997356E+03  0.81890366079E+02 0.  0.
        -11    1    5    5    0    0  0.99840697728E+01  0.32373235773E+01 -0.98819981351E+01  0.14415817712E+02  0.00000000000E+00 0.  1.
         12    1    5    5    0    0  0.29522880030E+02 -0.11183663082E+03  0.10480091253E+03  0.15608415585E+03  0.00000000000E+00 0. -1.
        -13    1    3    3    0    0  0.12948169306E+02 -0.39573691403E+02  0.16404309419E+02  0.44753027911E+02  0.00000000000E+00 0.  1.
         14    1    3    3    0    0  0.18497302453E+02 -0.48403789843E+01 -0.58702252571E+02  0.61737621623E+02  0.00000000000E+00 0. -1.
          5    1    4    4  501    0  0.48836851352E+02  0.17089225007E+03  0.13917100695E+04  0.14030210999E+04  0.47000000000E+01 0.  1.
         -5    1    4    4    0  501  0.15683799300E+02 -0.72708782638E+01  0.29786648542E+02  0.34758907672E+02  0.47000000000E+01 0.  1.
          1    1    1    2  502    0 -0.99186636437E+02  0.23486358840E+02 -0.84395633390E+03  0.85008934320E+03  0.00000000000E+00 0. -1.
          1    1    1    2  503    0 -0.36286435777E+02 -0.34094353008E+02  0.22431275109E+04  0.22436800486E+04  0.00000000000E+00 0. -1.
<mgrwt>
<rscale>  0 0.64803496E+02</rscale>
<asrwt>0</asrwt>
<pdfrwt beam="1">  1        2 0.56484035E+00 0.49790866E+02</pdfrwt>
<pdfrwt beam="2">  1        2 0.14229788E+00 0.84342641E+02</pdfrwt>
<totfact> 0.52244547E+00</totfact>
</mgrwt>
</event>
<event>
13    1  0.2038932E-008  0.6890033E+02  0.7546771E-02  0.1420411E+00
          2   -1    0    0  502    0  0.00000000000E+00  0.00000000000E+00  0.11552503488E+03  0.11552503488E+03  0.00000000000E+00 0. -1.
          2   -1    0    0  503    0 -0.00000000000E+00 -0.00000000000E+00 -0.35934999433E+04  0.35934999433E+04  0.00000000000E+00 0. -1.
         24    2    1    2    0    0 -0.10787000562E+02  0.81176033621E+02 -0.76183119151E+03  0.77056646089E+03  0.81731257683E+02 0.  0.
         25    2    1    2    0    0  0.76947900549E+02 -0.17426090414E+03 -0.10987365172E+03  0.25296587708E+03  0.12502669120E+03 0.  0.
         24    2    1    2    0    0 -0.28452312096E+02 -0.18241594834E+00 -0.48210796359E+03  0.48965644805E+03  0.80782307594E+02 0.  0.
        -11    1    5    5    0    0  0.22086115394E+02 -0.21240362095E+02 -0.15531328137E+03  0.15830718507E+03  0.00000000000E+00 0.  1.
         12    1    5    5    0    0 -0.50538427490E+02  0.21057946147E+02 -0.32679468222E+03  0.33134926298E+03  0.00000000000E+00 0. -1.
        -13    1    3    3    0    0 -0.12484908204E+02  0.89369988825E+02 -0.75304738038E+03  0.75843472028E+03  0.00000000000E+00 0.  1.
         14    1    3    3    0    0  0.16979076423E+01 -0.81939552047E+01 -0.87838111286E+01  0.12131740609E+02  0.00000000000E+00 0. -1.
          5    1    4    4  501    0  0.74239434450E+02 -0.16672250837E+03 -0.45799480956E+02  0.18822213175E+03  0.47000000000E+01 0.  1.
         -5    1    4    4    0  501  0.27084660988E+01 -0.75383957675E+01 -0.64074170767E+02  0.64743745326E+02  0.47000000000E+01 0.  1.
          1    1    1    2  502    0  0.90099381094E+01  0.42862027553E+02  0.21695938455E+02  0.48877869595E+02  0.00000000000E+00 0. -1.
          1    1    1    2  503    0 -0.46718526000E+02  0.50405258913E+02 -0.21458580401E+04  0.21469583226E+04  0.00000000000E+00 0. -1.
<mgrwt>
<rscale>  0 0.54934048E+02</rscale>
<asrwt>0</asrwt>
<pdfrwt beam="1">  1        2 0.16988976E-01 0.43798772E+02</pdfrwt>
<pdfrwt beam="2">  1        2 0.52845586E+00 0.68900325E+02</pdfrwt>
<totfact> 0.68828930E+01</totfact>
</mgrwt>
</event>
<event>
13    1  0.2038932E-008  0.7841217E+02  0.7546771E-02  0.1498436E+00
          2   -1    0    0  503    0  0.00000000000E+00  0.00000000000E+00  0.21447961321E+04  0.21447961321E+04  0.00000000000E+00 0. -1.
          2   -1    0    0  502    0 -0.00000000000E+00 -0.00000000000E+00 -0.12573073137E+04  0.12573073137E+04  0.00000000000E+00 0. -1.
         24    2    1    2    0    0  0.12964679697E+02 -0.85346290775E+02 -0.97441203172E+03  0.98173245244E+03  0.82871758395E+02 0.  0.
         25    2    1    2    0    0 -0.95753343919E+02  0.88784955286E+02  0.79013668292E+03  0.81055056369E+03  0.12499906980E+03 0.  0.
         24    2    1    2    0    0  0.27579150512E+02  0.30915407701E+02 -0.73437056858E+01  0.91624808476E+02  0.81392896120E+02 0.  0.
        -11    1    5    5    0    0  0.31783416039E+01 -0.27633804889E+02 -0.40469504118E+01  0.28108839101E+02  0.00000000000E+00 0.  1.
         12    1    5    5    0    0  0.24400808908E+02  0.58549212590E+02 -0.32967552740E+01  0.63515969374E+02  0.00000000000E+00 0. -1.
        -13    1    3    3    0    0 -0.13628915548E+02  0.10276822301E+02 -0.78198880409E+02  0.80040148131E+02  0.00000000000E+00 0.  1.
         14    1    3    3    0    0  0.26593595245E+02 -0.95623113077E+02 -0.89621315131E+03  0.90169230430E+03  0.00000000000E+00 0. -1.
          5    1    4    4  501    0 -0.62538856223E+02  0.86831060825E+02  0.28770914572E+03  0.30700062572E+03  0.47000000000E+01 0. -1.
         -5    1    4    4    0  501 -0.33214487696E+02  0.19538944604E+01  0.50242753719E+03  0.50354993797E+03  0.47000000000E+01 0. -1.
          1    1    1    2  502    0  0.54895441353E+02 -0.56167828152E+02 -0.21242477166E+03  0.22647873634E+03  0.00000000000E+00 0. -1.
          1    1    1    2  503    0  0.31407235789E+00  0.21813755941E+02  0.12915326446E+04  0.12917168849E+04  0.00000000000E+00 0. -1.
<mgrwt>
<rscale>  0 0.41359898E+02</rscale>
<asrwt>0</asrwt>
<pdfrwt beam="1">  1        2 0.31541120E+00 0.21816017E+02</pdfrwt>
<pdfrwt beam="2">  1        2 0.18489813E+00 0.78412167E+02</pdfrwt>
<totfact> 0.31625821E+01</totfact>
</mgrwt>
</event>
<event>
13    1  0.2038932E-008  0.7661521E+02  0.7546771E-02  0.1449150E+00
          2   -1    0    0  503    0  0.00000000000E+00  0.00000000000E+00  0.23650648085E+04  0.23650648085E+04  0.00000000000E+00 0. -1.
         -1   -1    0    0    0  501 -0.00000000000E+00 -0.00000000000E+00 -0.21427258197E+04  0.21427258197E+04  0.00000000000E+00 0.  1.
         24    2    1    2    0    0  0.12505838061E+02 -0.31397619232E+02 -0.16469326302E+03  0.18642601750E+03  0.80551738890E+02 0.  0.
         25    2    1    2    0    0  0.50903532641E+02  0.16402091382E+02  0.92643110744E+03  0.93635492192E+03  0.12500297890E+03 0.  0.
         24    2    1    2    0    0 -0.76143705222E+02  0.66306484116E+02 -0.16460948817E+03  0.20818386943E+03  0.77780628801E+02 0.  0.
        -11    1    5    5    0    0 -0.88567886310E+02  0.38864525739E+02 -0.11643436871E+03  0.15136605982E+03  0.00000000000E+00 0.  1.
         12    1    5    5    0    0  0.12424181089E+02  0.27441958378E+02 -0.48175119454E+02  0.56817809617E+02  0.00000000000E+00 0. -1.
        -11    1    3    3    0    0  0.37632352017E+02 -0.13556770704E+02 -0.14363827891E+03  0.14910377298E+03  0.00000000000E+00 0.  1.
         12    1    3    3    0    0 -0.25126513957E+02 -0.17840848528E+02 -0.21054984108E+02  0.37322244514E+02  0.00000000000E+00 0. -1.
          5    1    4    4  502    0  0.67710634027E+01 -0.44172224264E+02  0.58695755764E+03  0.58867503528E+03  0.47000000000E+01 0. -1.
         -5    1    4    4    0  502  0.44132469238E+02  0.60574315646E+02  0.33947354980E+03  0.34767988664E+03  0.47000000000E+01 0. -1.
          1    1    1    2  503    0  0.19493802002E+02  0.25028423125E+02  0.14000115851E+04  0.14003709754E+04  0.00000000000E+00 0. -1.
         -2    1    1    2    0  501 -0.67594674816E+01 -0.76339379391E+02 -0.17748009526E+04  0.17764548440E+04  0.00000000000E+00 0.  1.
<mgrwt>
<rscale>  0 0.49300740E+02</rscale>
<asrwt>0</asrwt>
<pdfrwt beam="1">  1        2 0.34780365E+00 0.31724285E+02</pdfrwt>
<pdfrwt beam="2">  1       -1 0.31510674E+00 0.76615214E+02</pdfrwt>
<totfact> 0.29949634E-01</totfact>
</mgrwt>
</event>
<event>
13    1  0.2038932E-008  0.1114398E+03  0.7546771E-02  0.1284050E+00
          2   -1    0    0  503    0  0.00000000000E+00  0.00000000000E+00  0.19520715695E+04  0.19520715695E+04  0.00000000000E+00 0. -1.
         -1   -1    0    0    0  501 -0.00000000000E+00 -0.00000000000E+00 -0.11725072849E+04  0.11725072849E+04  0.00000000000E+00 0.  1.
         24    2    1    2    0    0 -0.11430182721E+02 -0.38250420326E+01 -0.13000703059E+03  0.15469028709E+03  0.82957681345E+02 0.  0.
         25    2    1    2    0    0  0.14615643427E+03  0.54094377691E+02  0.68392731484E+02  0.21115845837E+03  0.12498969495E+03 0.  0.
         24    2    1    2    0    0 -0.39922209671E+02 -0.53273113748E+02 -0.18453418860E+03  0.21209872299E+03  0.80629982391E+02 0.  0.
        -11    1    3    3    0    0  0.33394224184E+02 -0.16219853342E+02 -0.52475729790E+02  0.64280324115E+02  0.00000000000E+00 0.  1.
         12    1    3    3    0    0 -0.44824406905E+02  0.12394811309E+02 -0.77531300797E+02  0.90409962974E+02  0.00000000000E+00 0. -1.
        -13    1    5    5    0    0 -0.57040276961E+02 -0.10452596402E+02 -0.11252473397E+03  0.12658856869E+03  0.00000000000E+00 0.  1.
         14    1    5    5    0    0  0.17118067290E+02 -0.42820517346E+02 -0.72009454629E+02  0.85510154306E+02  0.00000000000E+00 0. -1.
          5    1    4    4  502    0  0.11069202136E+03  0.85221248062E+02  0.81705057778E+02  0.16190488313E+03  0.47000000000E+01 0.  1.
         -5    1    4    4    0  502  0.35464412910E+02 -0.31126870372E+02 -0.13312326294E+02  0.49253575236E+02  0.47000000000E+01 0.  1.
          1    1    1    2  503    0  0.26716042190E+02 -0.82372344584E+02  0.17778571974E+04  0.17799649335E+04  0.00000000000E+00 0. -1.
         -2    1    1    2    0  501 -0.12152008407E+03  0.85376122674E+02 -0.75214442513E+03  0.76666645251E+03  0.00000000000E+00 0.  1.
<mgrwt>
<rscale>  0 0.98235967E+02</rscale>
<asrwt>0</asrwt>
<pdfrwt beam="1">  1        2 0.28706935E+00 0.86596594E+02</pdfrwt>
<pdfrwt beam="2">  1       -1 0.17242754E+00 0.11143978E+03</pdfrwt>
<totfact> 0.31287617E+00</totfact>
</mgrwt>
</event>
<event>
13    1  0.2038932E-008  0.1365062E+03  0.7546771E-02  0.1218579E+00
          2   -1    0    0  503    0  0.00000000000E+00  0.00000000000E+00  0.21237961017E+04  0.21237961017E+04  0.00000000000E+00 0. -1.
          2   -1    0    0  502    0 -0.00000000000E+00 -0.00000000000E+00 -0.16816901952E+04  0.16816901952E+04  0.00000000000E+00 0. -1.
         24    2    1    2    0    0 -0.22778578187E+02  0.73699001952E+02 -0.45619021153E+03  0.46961103007E+03  0.80464923709E+02 0.  0.
         25    2    1    2    0    0  0.12631278184E+03 -0.77914171755E+02  0.24895449591E+03  0.31564047128E+03  0.12500011623E+03 0.  0.
         24    2    1    2    0    0 -0.20893389820E+01 -0.14426609084E+03 -0.60444364105E+03  0.62704872908E+03  0.83790948957E+02 0.  0.
        -11    1    3    3    0    0 -0.44641752719E+02  0.15800524481E+02 -0.24521194676E+03  0.24974275063E+03  0.00000000000E+00 0.  1.
         12    1    3    3    0    0  0.21863174532E+02  0.57898477472E+02 -0.21097826478E+03  0.21986827944E+03  0.00000000000E+00 0. -1.
        -13    1    5    5    0    0 -0.34470116444E+02 -0.23752346290E+02 -0.13894361440E+03  0.14511268334E+03  0.00000000000E+00 0.  1.
         14    1    5    5    0    0  0.32380777462E+02 -0.12051374455E+03 -0.46550002665E+03  0.48193604574E+03  0.00000000000E+00 0. -1.
          5    1    4    4  501    0 -0.51886589912E+01 -0.36480569427E+02  0.80141447783E+01  0.38000929520E+02  0.47000000000E+01 0. -1.
         -5    1    4    4    0  501  0.13150144083E+03 -0.41433602329E+02  0.24094035113E+03  0.27763954176E+03  0.47000000000E+01 0. -1.
          1    1    1    2  502    0  0.33895623275E+02  0.13765146260E+03 -0.55830218674E+03  0.57601924460E+03  0.00000000000E+00 0. -1.
          1    1    1    2  503    0 -0.13534048794E+03  0.10829798050E+02  0.18120874500E+04  0.18171668219E+04  0.00000000000E+00 0. -1.
<mgrwt>
<rscale>  0 0.13616903E+03</rscale>
<asrwt>0</asrwt>
<pdfrwt beam="1">  1        2 0.31232296E+00 0.13583274E+03</pdfrwt>
<pdfrwt beam="2">  1        2 0.24730738E+00 0.13650616E+03</pdfrwt>
<totfact> 0.15285073E+01</totfact>
</mgrwt>
</event>
<event>
13    1  0.2038932E-008  0.6468237E+02  0.7546771E-02  0.1383074E+00
          2   -1    0    0  503    0  0.00000000000E+00  0.00000000000E+00  0.14834944413E+04  0.14834944413E+04  0.00000000000E+00 0. -1.
          2   -1    0    0  502    0 -0.00000000000E+00 -0.00000000000E+00 -0.28351616870E+04  0.28351616870E+04  0.00000000000E+00 0. -1.
         24    2    1    2    0    0  0.44203505783E+02  0.37684119019E+02 -0.24367867126E+03  0.26343153257E+03  0.81503587477E+02 0.  0.
         25    2    1    2    0    0 -0.13890429327E+02  0.18504929020E+03  0.75024679491E+03  0.78289906672E+03  0.12499804623E+03 0.  0.
         24    2    1    2    0    0 -0.37364503322E+02 -0.11472870521E+03 -0.38802220021E+03  0.41494621666E+03  0.84025906467E+02 0.  0.
        -11    1    5    5    0    0 -0.29394059639E+01 -0.41878389979E+02 -0.40957406774E+02  0.58651076924E+02  0.00000000000E+00 0.  1.
         12    1    5    5    0    0 -0.34425097358E+02 -0.72850315230E+02 -0.34706479343E+03  0.35629513973E+03  0.00000000000E+00 0. -1.
        -11    1    3    3    0    0  0.25383009402E+02 -0.62904311262E+01 -0.18892829787E+03  0.19072956883E+03  0.00000000000E+00 0.  1.
         12    1    3    3    0    0  0.18820496381E+02  0.43974550145E+02 -0.54750373397E+02  0.72701963740E+02  0.00000000000E+00 0. -1.
          5    1    4    4  501    0  0.79119552137E+00  0.18599222950E+03  0.52263814288E+03  0.55476702661E+03  0.47000000000E+01 0.  1.
         -5    1    4    4    0  501 -0.14681624848E+02 -0.94293929634E+00  0.22760865203E+03  0.22813204011E+03  0.47000000000E+01 0.  1.
          1    1    1    2  502    0  0.36859256520E+02 -0.50670633433E+02 -0.21618362048E+04  0.21627440658E+04  0.00000000000E+00 0. -1.
          1    1    1    2  503    0 -0.29807829654E+02 -0.57334070580E+02  0.69162303564E+03  0.69463524657E+03  0.00000000000E+00 0. -1.
<mgrwt>
<rscale>  0 0.63662515E+02</rscale>
<asrwt>0</asrwt>
<pdfrwt beam="1">  1        2 0.21816095E+00 0.64682369E+02</pdfrwt>
<pdfrwt beam="2">  1        2 0.41693554E+00 0.62658741E+02</pdfrwt>
<totfact> 0.99661227E+00</totfact>
</mgrwt>
</event>
<event>
13    1  0.2038932E-008  0.2838214E+03  0.7546771E-02  0.1281807E+00
          2   -1    0    0  502    0  0.00000000000E+00  0.00000000000E+00  0.17480760845E+04  0.17480760845E+04  0.00000000000E+00 0. -1.
          2   -1    0    0  503    0 -0.00000000000E+00 -0.00000000000E+00 -0.80916456744E+03  0.80916456744E+03  0.00000000000E+00 0. -1.
         24    2    1    2    0    0 -0.60497086347E+02 -0.85667708839E+02 -0.49022495110E+02  0.14016417491E+03  0.79018587100E+02 0.  0.
         25    2    1    2    0    0  0.18639799562E+03  0.40814905877E+03  0.11535169343E+03  0.47985667050E+03  0.12500617623E+03 0.  0.
         24    2    1    2    0    0  0.12672508386E+03 -0.30384606314E+03  0.48572777231E+03  0.59233330300E+03  0.80904858221E+02 0.  0.
        -11    1    5    5    0    0  0.33827237834E+02 -0.87526553260E+02  0.20842247076E+03  0.22857188336E+03  0.00000000000E+00 0.  1.
         12    1    5    5    0    0  0.92897846024E+02 -0.21631950988E+03  0.27730530156E+03  0.36376141964E+03  0.00000000000E+00 0. -1.
        -13    1    3    3    0    0  0.16972101877E+02 -0.29510410484E+02 -0.35540271444E+01  0.34227878667E+02  0.00000000000E+00 0.  1.
         14    1    3    3    0    0 -0.77469188224E+02 -0.56157298355E+02 -0.45468467966E+02  0.10593629624E+03  0.00000000000E+00 0. -1.
          5    1    4    4  501    0  0.12857572349E+03  0.22959538342E+03  0.12603913527E+03  0.29181108680E+03  0.47000000000E+01 0.  1.
         -5    1    4    4    0  501  0.57822272127E+02  0.17855367535E+03 -0.10687441838E+02  0.18804558370E+03  0.47000000000E+01 0.  1.
          1    1    1    2  502    0 -0.27626944412E+03 -0.44076202847E+02  0.84259459777E+03  0.88782496788E+03  0.00000000000E+00 0. -1.
          1    1    1    2  503    0  0.23643450988E+02  0.25440916050E+02 -0.45574005133E+03  0.45706153565E+03  0.00000000000E+00 0. -1.
<mgrwt>
<rscale>  0 0.99284669E+02</rscale>
<asrwt>0</asrwt>
<pdfrwt beam="1">  1        2 0.25707001E+00 0.28382143E+03</pdfrwt>
<pdfrwt beam="2">  1        2 0.11899479E+00 0.34731153E+02</pdfrwt>
<totfact> 0.68773054E+01</totfact>
</mgrwt>
</event>
<event>
13    1  0.2038932E-008  0.1464347E+03  0.7546771E-02  0.1288551E+00
         -1   -1    0    0    0  501 -0.00000000000E+00  0.00000000000E+00  0.97870426090E+03  0.97870426090E+03  0.00000000000E+00 0.  1.
          2   -1    0    0  503    0  0.00000000000E+00 -0.00000000000E+00 -0.18543993383E+04  0.18543993383E+04  0.00000000000E+00 0. -1.
         24    2    1    2    0    0 -0.38290839500E+03  0.82296322123E+02  0.26987144063E+03  0.48225590955E+03  0.79678379982E+02 0.  0.
         25    2    1    2    0    0  0.62966352651E+02  0.13683344315E+03 -0.15608259166E+03  0.25035088326E+03  0.12500254636E+03 0.  0.
         24    2    1    2    0    0  0.24084899880E+03 -0.26974866420E+03 -0.33865011627E+03  0.50184349747E+03  0.79940056535E+02 0.  0.
        -13    1    3    3    0    0 -0.17503113624E+03  0.58535876285E+02  0.16787516603E+03  0.24948831403E+03  0.00000000000E+00 0.  1.
         14    1    3    3    0    0 -0.20787725876E+03  0.23760445838E+02  0.10199627460E+03  0.23276759552E+03  0.00000000000E+00 0. -1.
        -13    1    5    5    0    0  0.54694336734E+02 -0.37893782445E+02 -0.10219252788E+03  0.12194556971E+03  0.00000000000E+00 0.  1.
         14    1    5    5    0    0  0.18615466206E+03 -0.23185488175E+03 -0.23645758840E+03  0.37989792775E+03  0.00000000000E+00 0. -1.
          5    1    4    4  502    0 -0.19225420377E+02 -0.18236489157E+01 -0.58695551615E+02  0.61969349386E+02  0.47000000000E+01 0. -1.
         -5    1    4    4    0  502  0.82191773027E+02  0.13865709207E+03 -0.97387040045E+02  0.18838153387E+03  0.47000000000E+01 0. -1.
          1    1    1    2  503    0  0.14138431776E+03  0.40144513216E+02 -0.11178067543E+04  0.11274276240E+04  0.00000000000E+00 0. -1.
         -2    1    1    2    0  501 -0.62291274206E+02  0.10474385707E+02  0.46697294419E+03  0.47122568500E+03  0.00000000000E+00 0.  1.
<mgrwt>
<rscale>  0 0.96175175E+02</rscale>
<asrwt>0</asrwt>
<pdfrwt beam="2">  1        2 0.27270578E+00 0.14643474E+03</pdfrwt>
<pdfrwt beam="1">  1       -1 0.14392710E+00 0.63165779E+02</pdfrwt>
<totfact> 0.55374912E+00</totfact>
</mgrwt>
</event>
<event>
13    1  0.2038932E-008  0.1010861E+03  0.7546771E-02  0.1304000E+00
          2   -1    0    0  503    0  0.00000000000E+00  0.00000000000E+00  0.65877883052E+03  0.65877883052E+03  0.00000000000E+00 0. -1.
          2   -1    0    0  502    0 -0.00000000000E+00 -0.00000000000E+00 -0.10875607150E+04  0.10875607150E+04  0.00000000000E+00 0. -1.
         24    2    1    2    0    0 -0.67765292875E+02 -0.12933078312E+02 -0.47851645574E+02  0.11753336070E+03  0.82249081813E+02 0.  0.
         25    2    1    2    0    0  0.48991744771E+02 -0.83462436963E+02  0.26451112418E+02  0.16028677470E+03  0.12500407736E+03 0.  0.
         24    2    1    2    0    0 -0.10463479804E+02  0.12058649347E+03  0.17688244314E+03  0.23752699018E+03  0.10237717301E+03 0.  0.
        -11    1    5    5    0    0  0.44793886059E+02  0.45923846099E+02  0.88543652819E+02  0.10934107336E+03  0.00000000000E+00 0.  1.
         12    1    5    5    0    0 -0.55257365863E+02  0.74662647369E+02  0.88338790323E+02  0.12818591682E+03  0.00000000000E+00 0. -1.
        -13    1    3    3    0    0 -0.88394728396E+01  0.22679152370E+02 -0.41859312739E+02  0.48421919574E+02  0.00000000000E+00 0.  1.
         14    1    3    3    0    0 -0.58925820035E+02 -0.35612230682E+02 -0.59923328352E+01  0.69111441121E+02  0.00000000000E+00 0. -1.
          5    1    4    4  501    0  0.80797551686E+01 -0.59300238350E+02  0.72380101586E+02  0.94036002774E+02  0.47000000000E+01 0. -1.
         -5    1    4    4    0  501  0.40911989602E+02 -0.24162198612E+02 -0.45928989168E+02  0.66250771928E+02  0.47000000000E+01 0. -1.
          1    1    1    2  502    0  0.10133677911E+03  0.88033807194E+01 -0.89985863839E+03  0.90558942761E+03  0.00000000000E+00 0. -1.
          1    1    1    2  503    0 -0.72099751205E+02 -0.32994358913E+02  0.31559484398E+03  0.32540299229E+03  0.00000000000E+00 0. -1.
<mgrwt>
<rscale>  0 0.89527525E+02</rscale>
<asrwt>0</asrwt>
<pdfrwt beam="1">  1        2 0.96879241E-01 0.79290616E+02</pdfrwt>
<pdfrwt beam="2">  1        2 0.15993540E+00 0.10108608E+03</pdfrwt>
<totfact> 0.20041393E+02</totfact>
</mgrwt>
</event>
<event>
13    1  0.2038932E-008  0.6715582E+02  0.7546771E-02  0.1395918E+00
          2   -1    0    0  502    0  0.00000000000E+00  0.00000000000E+00  0.80279936276E+03  0.80279936276E+03  0.00000000000E+00 0. -1.
          2   -1    0    0  503    0 -0.00000000000E+00 -0.00000000000E+00 -0.49659917639E+03  0.49659917639E+03  0.00000000000E+00 0. -1.
         24    2    1    2    0    0  0.64082925268E+02  0.44898007742E+02 -0.56838583338E+02  0.12520445940E+03  0.79517794782E+02 0.  0.
         25    2    1    2    0    0 -0.10726556021E+03  0.73768531657E+02  0.29488479130E+03  0.34573098847E+03  0.12500071831E+03 0.  0.
         24    2    1    2    0    0 -0.39629103566E+02 -0.57137627774E+02  0.15567248223E+03  0.18826468513E+03  0.79840438289E+02 0.  0.
        -11    1    3    3    0    0 -0.17572408183E+02  0.17724137025E+02 -0.18090320804E+02  0.30825221320E+02  0.00000000000E+00 0.  1.
         12    1    3    3    0    0  0.81655333451E+02  0.27173870717E+02 -0.38748262533E+02  0.94379238077E+02  0.00000000000E+00 0. -1.
        -13    1    5    5    0    0 -0.59941947057E+02 -0.58916203355E+02  0.13634934348E+03  0.16017271772E+03  0.00000000000E+00 0.  1.
         14    1    5    5    0    0  0.20312843491E+02  0.17785755814E+01  0.19323138757E+02  0.28091967414E+02  0.00000000000E+00 0. -1.
          5    1    4    4  501    0 -0.83534976546E+02 -0.17670446310E+02  0.15127155197E+03  0.17376855128E+03  0.47000000000E+01 0.  1.
         -5    1    4    4    0  501 -0.23730583667E+02  0.91438977967E+02  0.14361323933E+03  0.17196243719E+03  0.47000000000E+01 0.  1.
          1    1    1    2  502    0  0.16496161298E+02 -0.51868753528E+02  0.27052045246E+03  0.27594167161E+03  0.00000000000E+00 0. -1.
          1    1    1    2  503    0  0.66315577213E+02 -0.96601580973E+01 -0.35803895629E+03  0.36425673454E+03  0.00000000000E+00 0. -1.
<mgrwt>
<rscale>  0 0.60458321E+02</rscale>
<asrwt>0</asrwt>
<pdfrwt beam="1">  1        2 0.11805873E+00 0.54428769E+02</pdfrwt>
<pdfrwt beam="2">  1        2 0.73029290E-01 0.67155818E+02</pdfrwt>
<totfact> 0.41322763E+02</totfact>
</mgrwt>
</event>
<event>
13    1  0.2038932E-008  0.1644488E+03  0.7546771E-02  0.1304230E+00
          2   -1    0    0  502    0  0.00000000000E+00  0.00000000000E+00  0.12474360070E+04  0.12474360070E+04  0.00000000000E+00 0. -1.
          2   -1    0    0  503    0 -0.00000000000E+00 -0.00000000000E+00 -0.11749562924E+04  0.11749562924E+04  0.00000000000E+00 0. -1.
         24    2    1    2    0    0  0.26569105005E+02 -0.60416941462E+02 -0.13051156907E+02  0.10328210555E+03  0.78362851367E+02 0.  0.
         25    2    1    2    0    0 -0.55634237801E+02  0.21744509913E+03 -0.22545136059E+03  0.34181914437E+03  0.12503788191E+03 0.  0.
         24    2    1    2    0    0 -0.15030119931E+03 -0.81180585401E+02  0.11024087732E+03  0.21754505012E+03  0.77408396451E+02 0.  0.
        -11    1    3    3    0    0  0.27050578094E+02 -0.72322212204E+02  0.94791738687E+01  0.77795185523E+02  0.00000000000E+00 0.  1.
         12    1    3    3    0    0 -0.48147308861E+00  0.11905270741E+02 -0.22530330776E+02  0.25486920030E+02  0.00000000000E+00 0. -1.
        -13    1    5    5    0    0  0.70604328935E+01 -0.13203353299E+02  0.16071568828E+02  0.21965281141E+02  0.00000000000E+00 0.  1.
         14    1    5    5    0    0 -0.15736163220E+03 -0.67977232102E+02  0.94169308496E+02  0.19557976898E+03  0.00000000000E+00 0. -1.
          5    1    4    4  501    0 -0.90290311180E+02  0.13194661190E+03 -0.11077392610E+03  0.19456413181E+03  0.47000000000E+01 0.  1.
         -5    1    4    4    0  501  0.34656073380E+02  0.85498487228E+02 -0.11467743449E+03  0.14725501255E+03  0.47000000000E+01 0.  1.
          1    1    1    2  502    0  0.13377099561E+03 -0.92777927122E+02  0.97271393276E+03  0.98624277844E+03  0.00000000000E+00 0. -1.
          1    1    1    2  503    0  0.45595336490E+02  0.16930354859E+02 -0.77197257802E+03  0.77350322096E+03  0.00000000000E+00 0. -1.
<mgrwt>
<rscale>  0 0.89433329E+02</rscale>
<asrwt>0</asrwt>
<pdfrwt beam="1">  1        2 0.18344647E+00 0.16444881E+03</pdfrwt>
<pdfrwt beam="2">  1        2 0.17278769E+00 0.48637142E+02</pdfrwt>
<totfact> 0.79729148E+01</totfact>
</mgrwt>
</event>
<event>
13    1  0.2038932E-008  0.1148749E+03  0.7546771E-02  0.1385197E+00
          2   -1    0    0  502    0  0.00000000000E+00  0.00000000000E+00  0.75397475763E+03  0.75397475763E+03  0.00000000000E+00 0. -1.
          2   -1    0    0  503    0 -0.00000000000E+00 -0.00000000000E+00 -0.62213848119E+03  0.62213848119E+03  0.00000000000E+00 0. -1.
         24    2    1    2    0    0  0.10480864499E+03 -0.72903387065E+02 -0.62109002426E+02  0.16344408950E+03  0.80973367845E+02 0.  0.
         25    2    1    2    0    0  0.41232929042E+02  0.27071196482E+02  0.55155557251E+03  0.56768790707E+03  0.12499202435E+03 0.  0.
         24    2    1    2    0    0 -0.35500553035E+01  0.18677266228E+02 -0.85681123304E+02  0.12007669153E+03  0.81949458759E+02 0.  0.
        -13    1    3    3    0    0  0.99758955002E+02 -0.86684042276E+02 -0.66739168020E+02  0.14805434420E+03  0.00000000000E+00 0.  1.
         14    1    3    3    0    0  0.50496899862E+01  0.13780655210E+02  0.46301655939E+01  0.15389745300E+02  0.00000000000E+00 0. -1.
        -13    1    5    5    0    0  0.25918663819E+02 -0.25239309479E+01  0.10417064935E+01  0.26062089594E+02  0.00000000000E+00 0.  1.
         14    1    5    5    0    0 -0.29468719122E+02  0.21201197176E+02 -0.86722829798E+02  0.94014601933E+02  0.00000000000E+00 0. -1.
          5    1    4    4  501    0 -0.24318111312E+02 -0.22648356118E+02  0.55690984072E+02  0.65022259877E+02  0.47000000000E+01 0.  1.
         -5    1    4    4    0  501  0.65551040355E+02  0.49719552599E+02  0.49586458844E+03  0.50266564720E+03  0.47000000000E+01 0.  1.
          1    1    1    2  502    0  0.15993148244E+02 -0.30771297459E+02  0.10572513127E+03  0.11126750164E+03  0.00000000000E+00 0. -1.
          1    1    1    2  503    0 -0.15848466697E+03  0.57926221814E+02 -0.37765430162E+03  0.41363704908E+03  0.00000000000E+00 0. -1.
<mgrwt>
<rscale>  0 0.63117207E+02</rscale>
<asrwt>0</asrwt>
<pdfrwt beam="1">  1        2 0.11087864E+00 0.34679296E+02</pdfrwt>
<pdfrwt beam="2">  1        2 0.91490953E-01 0.11487494E+03</pdfrwt>
<totfact> 0.34943146E+02</totfact>
</mgrwt>
</event>
<event>
13    1  0.2038932E-008  0.5501669E+02  0.7546771E-02  0.1547665E+00
          2   -1    0    0  502    0  0.00000000000E+00  0.00000000000E+00  0.23481803861E+04  0.23481803861E+04  0.00000000000E+00 0. -1.
          4   -1    0    0  503    0 -0.00000000000E+00 -0.00000000000E+00 -0.32593823484E+03  0.32593823484E+03  0.00000000000E+00 0. -1.
         24    2    1    2    0    0 -0.86186526901E+02  0.55215644709E+02 -0.46413266691E+02  0.13771082058E+03  0.79581366787E+02 0.  0.
         25    2    1    2    0    0  0.76866098018E+02 -0.64615848190E+02  0.22259075421E+03  0.27432755133E+03  0.12500142679E+03 0.  0.
         24    2    1    2    0    0  0.35111959324E+02  0.31070109759E+02 -0.76561438273E+02  0.12090699815E+03  0.80985473782E+02 0.  0.
        -11    1    3    3    0    0 -0.54537364296E+02  0.25414088144E+02  0.15431996932E+02  0.62115589910E+02  0.00000000000E+00 0.  1.
         12    1    3    3    0    0 -0.31649162605E+02  0.29801556565E+02 -0.61845263623E+02  0.75595230669E+02  0.00000000000E+00 0. -1.
        -13    1    5    5    0    0 -0.25089673431E+02  0.11750528012E+02 -0.10951756652E+02  0.29791065694E+02  0.00000000000E+00 0.  1.
         14    1    5    5    0    0  0.60201632755E+02  0.19319581747E+02 -0.65609681622E+02  0.91115932458E+02  0.00000000000E+00 0. -1.
          5    1    4    4  501    0 -0.23155130318E+02 -0.10339781180E+02  0.17543718464E+01  0.25850318285E+02  0.47000000000E+01 0.  1.
         -5    1    4    4    0  501  0.10002122834E+03 -0.54276067010E+02  0.22083638236E+03  0.24847723305E+03  0.47000000000E+01 0.  1.
          1    1    1    2  502    0 -0.47150076987E+02 -0.28422310585E+02  0.20303746139E+04  0.20311208802E+04  0.00000000000E+00 0. -1.
          3    1    1    2  503    0  0.21358546547E+02  0.67524043071E+01 -0.10774851186E+03  0.11005237064E+03  0.00000000000E+00 0. -1.
<mgrwt>
<rscale>  0 0.35105576E+02</rscale>
<asrwt>0</asrwt>
<pdfrwt beam="1">  1        2 0.34532064E+00 0.55016692E+02</pdfrwt>
<pdfrwt beam="2">  1        4 0.47932095E-01 0.22400502E+02</pdfrwt>
<totfact> 0.11892885E+01</totfact>
</mgrwt>
</event>
<event>
13    1  0.2038932E-008  0.1071266E+03  0.7546771E-02  0.1339834E+00
          2   -1    0    0  502    0  0.00000000000E+00  0.00000000000E+00  0.12735944446E+04  0.12735944446E+04  0.00000000000E+00 0. -1.
          2   -1    0    0  503    0 -0.00000000000E+00 -0.00000000000E+00 -0.15725091446E+04  0.15725091446E+04  0.00000000000E+00 0. -1.
         24    2    1    2    0    0  0.57562899325E+02  0.52926591571E+02 -0.29166621922E+03  0.31251672519E+03  0.80515890458E+02 0.  0.
         25    2    1    2    0    0  0.21333113543E+01 -0.23510578364E+03  0.20850297137E+03  0.33819248182E+03  0.12498553985E+03 0.  0.
         24    2    1    2    0    0 -0.42965414796E+02  0.80454158140E+02 -0.10828459301E+03  0.16312047911E+03  0.81017523966E+02 0.  0.
        -13    1    5    5    0    0 -0.55163756879E+02  0.49456190502E+02 -0.33613979981E+02  0.81356342729E+02  0.00000000000E+00 0.  1.
         14    1    5    5    0    0  0.12198342083E+02  0.30997967638E+02 -0.74670613032E+02  0.81764136379E+02  0.00000000000E+00 0. -1.
        -13    1    3    3    0    0  0.85608585546E+01  0.47212786674E+02 -0.22215587871E+03  0.22727861749E+03  0.00000000000E+00 0.  1.
         14    1    3    3    0    0  0.49002040770E+02  0.57138048979E+01 -0.69510340514E+02  0.85238107701E+02  0.00000000000E+00 0. -1.
          5    1    4    4  501    0 -0.37532461801E+01 -0.11252168501E+02 -0.16403233654E+02  0.20781102646E+02  0.47000000000E+01 0.  1.
         -5    1    4    4    0  501  0.58865575344E+01 -0.22385361514E+03  0.22490620503E+03  0.31741137918E+03  0.47000000000E+01 0.  1.
          1    1    1    2  502    0 -0.54356732246E+02  0.12607120798E+01  0.95894220327E+03  0.96048237513E+03  0.00000000000E+00 0. -1.
          1    1    1    2  503    0  0.37625936363E+02  0.10046432185E+03 -0.10664090623E+04  0.10717915279E+04  0.00000000000E+00 0. -1.
<mgrwt>
<rscale>  0 0.76319185E+02</rscale>
<asrwt>0</asrwt>
<pdfrwt beam="1">  1        2 0.18729330E+00 0.54371350E+02</pdfrwt>
<pdfrwt beam="2">  1        2 0.23125134E+00 0.10712660E+03</pdfrwt>
<totfact> 0.49582268E+01</totfact>
</mgrwt>
</event>
<event>
13    1  0.2038932E-008  0.1332247E+03  0.7546771E-02  0.1244853E+00
          2   -1    0    0  503    0  0.00000000000E+00  0.00000000000E+00  0.12157103138E+04  0.12157103138E+04  0.00000000000E+00 0. -1.
         -3   -1    0    0    0  501 -0.00000000000E+00 -0.00000000000E+00 -0.98870815309E+03  0.98870815309E+03  0.00000000000E+00 0.  1.
         24    2    1    2    0    0 -0.48066701143E+02  0.17886020890E+03 -0.71945517586E+02  0.21428384056E+03  0.80249764722E+02 0.  0.
         25    2    1    2    0    0 -0.75363017989E+02 -0.24495440065E+03  0.58351726473E+03  0.64946145610E+03  0.12500216737E+03 0.  0.
         24    2    1    2    0    0 -0.38607682004E+02 -0.15751654724E+02 -0.88795620533E+02  0.12692846775E+03  0.80545055493E+02 0.  0.
        -13    1    5    5    0    0 -0.78283449497E+01  0.31867331617E+02 -0.42714530230E+02  0.53864096593E+02  0.00000000000E+00 0.  1.
         14    1    5    5    0    0 -0.30779337054E+02 -0.47618986341E+02 -0.46081090303E+02  0.73064371161E+02  0.00000000000E+00 0. -1.
        -13    1    3    3    0    0 -0.28990128692E+02  0.14013528744E+03 -0.88264366116E+02  0.16813365122E+03  0.00000000000E+00 0.  1.
         14    1    3    3    0    0 -0.19076572452E+02  0.38724921463E+02  0.16318848530E+02  0.46150189340E+02  0.00000000000E+00 0. -1.
          5    1    4    4  502    0 -0.60419686025E+02 -0.17004293114E+03  0.51854906344E+03  0.54907227036E+03  0.47000000000E+01 0. -1.
         -5    1    4    4    0  502 -0.14943331964E+02 -0.74911469510E+02  0.64968201293E+02  0.10038918574E+03  0.47000000000E+01 0. -1.
          1    1    1    2  503    0  0.12402476547E+03 -0.54692635025E+02  0.49261147205E+03  0.51092023758E+03  0.00000000000E+00 0. -1.
         -4    1    1    2    0  501  0.38012635662E+02  0.13653848150E+03 -0.68838543790E+03  0.70282446494E+03  0.00000000000E+00 0.  1.
<mgrwt>
<rscale>  0 0.11894160E+03</rscale>
<asrwt>0</asrwt>
<pdfrwt beam="1">  1        2 0.17878093E+00 0.13322473E+03</pdfrwt>
<pdfrwt beam="2">  1       -3 0.14539826E+00 0.10618977E+03</pdfrwt>
<totfact> 0.50606410E+00</totfact>
</mgrwt>
</event>
<event>
13    1  0.2038932E-008  0.7514277E+02  0.7546771E-02  0.1375593E+00
          2   -1    0    0  503    0  0.00000000000E+00  0.00000000000E+00  0.12608861527E+04  0.12608861527E+04  0.00000000000E+00 0. -1.
          2   -1    0    0  502    0 -0.00000000000E+00 -0.00000000000E+00 -0.21545911535E+04  0.21545911535E+04  0.00000000000E+00 0. -1.
         24    2    1    2    0    0  0.40030071573E+02 -0.26448555063E+01 -0.88843989437E+03  0.89301423666E+03  0.80867664041E+02 0.  0.
         25    2    1    2    0    0 -0.95069464608E+02  0.35093350175E+02 -0.16796513674E+03  0.23264003237E+03  0.12505739152E+03 0.  0.
         24    2    1    2    0    0 -0.49498679616E+02 -0.80510096681E+01  0.24348319026E+02  0.98021838226E+02  0.80625691249E+02 0.  0.
        -11    1    3    3    0    0  0.37757451709E+02 -0.23865057923E+02 -0.82238837356E+03  0.82360051185E+03  0.00000000000E+00 0.  1.
         12    1    3    3    0    0  0.22726198645E+01  0.21220202417E+02 -0.66051520805E+02  0.69413724812E+02  0.00000000000E+00 0. -1.
        -13    1    5    5    0    0  0.56159756187E+01 -0.22025459562E+02 -0.16434703126E+02  0.28049233820E+02  0.00000000000E+00 0.  1.
         14    1    5    5    0    0 -0.55114655235E+02  0.13974449894E+02  0.40783022151E+02  0.69972604406E+02  0.00000000000E+00 0. -1.
          5    1    4    4  501    0 -0.11131474735E+03 -0.54138790416E+01 -0.14547678910E+03  0.18331903674E+03  0.47000000000E+01 0.  1.
         -5    1    4    4    0  501  0.16245282743E+02  0.40507229216E+02 -0.22488347634E+02  0.49320995626E+02  0.47000000000E+01 0.  1.
          1    1    1    2  502    0  0.71455190324E+02  0.22427418045E+02 -0.10246519365E+04  0.10273852366E+04  0.00000000000E+00 0. -1.
          1    1    1    2  503    0  0.33082882327E+02 -0.46824903045E+02  0.11630036478E+04  0.11644159624E+04  0.00000000000E+00 0. -1.
<mgrwt>
<rscale>  0 0.65636459E+02</rscale>
<asrwt>0</asrwt>
<pdfrwt beam="1">  1        2 0.18542444E+00 0.57332789E+02</pdfrwt>
<pdfrwt beam="2">  1        2 0.31685164E+00 0.75142774E+02</pdfrwt>
<totfact> 0.27245678E+01</totfact>
</mgrwt>
</event>
<event>
13    1  0.2552067E-008  0.3384048E+02  0.7546771E-02  0.1589799E+00
          2   -1    0    0  503    0  0.00000000000E+00  0.00000000000E+00  0.30049176557E+04  0.30049176557E+04  0.00000000000E+00 0. -1.
          2   -1    0    0  502    0 -0.00000000000E+00 -0.00000000000E+00 -0.27230163797E+04  0.27230163797E+04  0.00000000000E+00 0. -1.
         24    2    1    2    0    0  0.46414471594E+03  0.62652912913E+03  0.15051788613E+03  0.79964948300E+03  0.93886072608E+02 0.  0.
         25    2    1    2    0    0  0.80827746005E+02 -0.91131165929E+03  0.34002621536E+03  0.98400438400E+03  0.12499894291E+03 0.  0.
         24    2    1    2    0    0 -0.53653601833E+03  0.28045342345E+03  0.12987428065E+04  0.14365115482E+04  0.10152600196E+03 0.  0.
        -11    1    3    3    0    0  0.27838754462E+03  0.44936451901E+03  0.97090135654E+02  0.53745194240E+03  0.00000000000E+00 0.  1.
         12    1    3    3    0    0  0.18575717132E+03  0.17716461012E+03  0.53427750477E+02  0.26219754060E+03  0.00000000000E+00 0. -1.
        -11    1    5    5    0    0 -0.22618041588E+03  0.17410367347E+03  0.57953283361E+03  0.64600926842E+03  0.00000000000E+00 0.  1.
         12    1    5    5    0    0 -0.31035560244E+03  0.10634974998E+03  0.71920997289E+03  0.79050227981E+03  0.00000000000E+00 0. -1.
          5    1    4    4  501    0  0.48489105142E+02 -0.64191147341E+03  0.29803445221E+03  0.70939985743E+03  0.47000000000E+01 0.  1.
         -5    1    4    4    0  501  0.32338640863E+02 -0.26940018588E+03  0.41991763150E+02  0.27460452658E+03  0.47000000000E+01 0.  1.
          1    1    1    2  502    0  0.23806419857E+02  0.14675480019E+02 -0.20069064859E+04  0.20071013323E+04  0.00000000000E+00 0. -1.
          1    1    1    2  503    0 -0.32242863472E+02 -0.10346373312E+02  0.49952085386E+03  0.50066728786E+03  0.00000000000E+00 0. -1.
<mgrwt>
<rscale>  0 0.30763515E+02</rscale>
<asrwt>0</asrwt>
<pdfrwt beam="1">  1        2 0.44189965E+00 0.33840480E+02</pdfrwt>
<pdfrwt beam="2">  1        2 0.40044359E+00 0.27966325E+02</pdfrwt>
<totfact> 0.26327774E+00</totfact>
</mgrwt>
</event>
<event>
13    1  0.2038932E-008  0.8213191E+02  0.7546771E-02  0.1432384E+00
          2   -1    0    0  502    0  0.00000000000E+00  0.00000000000E+00  0.22324311979E+04  0.22324311979E+04  0.00000000000E+00 0. -1.
          2   -1    0    0  503    0 -0.00000000000E+00 -0.00000000000E+00 -0.17212439847E+04  0.17212439847E+04  0.00000000000E+00 0. -1.
         24    2    1    2    0    0  0.31031995810E+03 -0.34971237792E+02 -0.11282510646E+04  0.11749828574E+04  0.10056235175E+03 0.  0.
         25    2    1    2    0    0 -0.28435569478E+03  0.82593902050E+02  0.74372699209E+03  0.81020407753E+03  0.12498357764E+03 0.  0.
         24    2    1    2    0    0 -0.64865126649E+02 -0.10972061557E+03 -0.29264975510E+03  0.32935065363E+03  0.81128760297E+02 0.  0.
        -11    1    5    5    0    0 -0.81728636173E+02 -0.99374937682E+02 -0.27117740702E+03  0.30015351787E+03  0.00000000000E+00 0.  1.
         12    1    5    5    0    0  0.16863509524E+02 -0.10345677886E+02 -0.21472348080E+02  0.29197135758E+02  0.00000000000E+00 0. -1.
        -13    1    3    3    0    0  0.24644354004E+02 -0.23784920536E+02 -0.59500427973E+02  0.68653969718E+02  0.00000000000E+00 0.  1.
         14    1    3    3    0    0  0.28567560410E+03 -0.11186317256E+02 -0.10687506366E+04  0.11063288877E+04  0.00000000000E+00 0. -1.
          5    1    4    4  501    0 -0.27331410933E+03  0.10348308933E+03  0.63798132073E+03  0.70174896347E+03  0.47000000000E+01 0.  1.
         -5    1    4    4    0  501 -0.11041585453E+02 -0.20889187282E+02  0.10574567136E+03  0.10845511406E+03  0.47000000000E+01 0.  1.
          1    1    1    2  502    0 -0.29371524919E+02  0.16191599265E+02  0.14060350608E+04  0.14064350133E+04  0.00000000000E+00 0. -1.
          1    1    1    2  503    0  0.68272388249E+02  0.45906352045E+02 -0.21767401997E+03  0.23270258083E+03  0.00000000000E+00 0. -1.
<mgrwt>
<rscale>  0 0.52484374E+02</rscale>
<asrwt>0</asrwt>
<pdfrwt beam="1">  1        2 0.32829870E+00 0.33538849E+02</pdfrwt>
<pdfrwt beam="2">  1        2 0.25312412E+00 0.82131906E+02</pdfrwt>
<totfact> 0.16034463E+01</totfact>
</mgrwt>
</event>
<event>
13    1  0.2038932E-008  0.3615732E+02  0.7546771E-02  0.1551637E+00
          2   -1    0    0  502    0  0.00000000000E+00  0.00000000000E+00  0.29068025950E+04  0.29068025950E+04  0.00000000000E+00 0. -1.
          2   -1    0    0  503    0 -0.00000000000E+00 -0.00000000000E+00 -0.27838989748E+04  0.27838989748E+04  0.00000000000E+00 0. -1.
         24    2    1    2    0    0  0.13446049349E+03  0.78912625536E+03 -0.13178866845E+04  0.15440537447E+04  0.80478457130E+02 0.  0.
         25    2    1    2    0    0 -0.35886988008E+03 -0.12668077096E+03  0.10411226947E+04  0.11155247238E+04  0.12499334171E+03 0.  0.
         24    2    1    2    0    0  0.22445400628E+03 -0.65853083074E+03  0.17372528308E+03  0.72244047743E+03  0.87734334645E+02 0.  0.
        -11    1    3    3    0    0  0.13511697137E+03  0.65105217305E+03 -0.11256451464E+04  0.13073647248E+04  0.00000000000E+00 0.  1.
         12    1    3    3    0    0 -0.65647787881E+00  0.13807408231E+03 -0.19224153810E+03  0.23668901990E+03  0.00000000000E+00 0. -1.
        -13    1    5    5    0    0  0.14106158201E+03 -0.35782251431E+03  0.54883778778E+02  0.38851969170E+03  0.00000000000E+00 0.  1.
         14    1    5    5    0    0  0.83392424262E+02 -0.30070831644E+03  0.11884150430E+03  0.33392078573E+03  0.00000000000E+00 0. -1.
          5    1    4    4  501    0 -0.16597875474E+03 -0.12488345130E+02  0.56908754321E+03  0.59294825037E+03  0.47000000000E+01 0. -1.
         -5    1    4    4    0  501 -0.19289112534E+03 -0.11419242583E+03  0.47203515149E+03  0.52257647344E+03  0.47000000000E+01 0. -1.
          1    1    1    2  502    0  0.22585260715E+02 -0.28242040517E+02  0.12667893678E+04  0.12673054128E+04  0.00000000000E+00 0. -1.
          1    1    1    2  503    0 -0.22629880408E+02  0.24327386860E+02 -0.10408470409E+04  0.10413772111E+04  0.00000000000E+00 0. -1.
<mgrwt>
<rscale>  0 0.34660422E+02</rscale>
<asrwt>0</asrwt>
<pdfrwt beam="1">  1        2 0.42747097E+00 0.36157324E+02</pdfrwt>
<pdfrwt beam="2">  1        2 0.40939691E+00 0.33225491E+02</pdfrwt>
<totfact> 0.26468184E+00</totfact>
</mgrwt>
</event>
<event>
13    1  0.2038932E-008  0.6078577E+02  0.7546771E-02  0.1437298E+00
          2   -1    0    0  503    0  0.00000000000E+00  0.00000000000E+00  0.44452604765E+04  0.44452604765E+04  0.00000000000E+00 0. -1.
          2   -1    0    0  502    0 -0.00000000000E+00 -0.00000000000E+00 -0.29696727531E+04  0.29696727531E+04  0.00000000000E+00 0. -1.
         24    2    1    2    0    0  0.18105337284E+03 -0.12730543301E+04 -0.10182667609E+03  0.12940116267E+04  0.10319770711E+03 0.  0.
         25    2    1    2    0    0 -0.46967925186E+03  0.11310842844E+03  0.10503131872E+04  0.11628304760E+04  0.12499923376E+03 0.  0.
         24    2    1    2    0    0  0.31906214535E+03  0.11912109602E+04  0.15226447661E+04  0.19609929975E+04  0.79134367768E+02 0.  0.
        -11    1    3    3    0    0  0.80248533474E+02 -0.52083161755E+03  0.87578284521E+01  0.52705037759E+03  0.00000000000E+00 0.  1.
         12    1    3    3    0    0  0.10080483937E+03 -0.75222271258E+03 -0.11058450454E+03  0.76696124909E+03  0.00000000000E+00 0. -1.
        -13    1    5    5    0    0  0.16781846762E+03  0.50659396839E+03  0.62022773058E+03  0.81821936219E+03  0.00000000000E+00 0.  1.
         14    1    5    5    0    0  0.15124367772E+03  0.68461699185E+03  0.90241703554E+03  0.11427736353E+04  0.00000000000E+00 0. -1.
          5    1    4    4  501    0 -0.19410399415E+03  0.32608642033E+02  0.57220682242E+03  0.60513008660E+03  0.47000000000E+01 0. -1.
         -5    1    4    4    0  501 -0.27557525771E+03  0.80499786409E+02  0.47810636481E+03  0.55770038941E+03  0.47000000000E+01 0. -1.
          1    1    1    2  502    0 -0.32178618386E+02  0.29524602538E+02 -0.19951577887E+04  0.19956356801E+04  0.00000000000E+00 0. -1.
          1    1    1    2  503    0  0.17423520584E+01 -0.60789661096E+02  0.99961423495E+03  0.10014624493E+04  0.00000000000E+00 0. -1.
<mgrwt>
<rscale>  0 0.51522633E+02</rscale>
<asrwt>0</asrwt>
<pdfrwt beam="1">  1        2 0.65371478E+00 0.60785766E+02</pdfrwt>
<pdfrwt beam="2">  1        2 0.43671658E+00 0.43671108E+02</pdfrwt>
<totfact> 0.21282247E-01</totfact>
</mgrwt>
</event>
<event>
13    1  0.2038932E-008  0.6083825E+02  0.7546771E-02  0.1421404E+00
          2   -1    0    0  502    0  0.00000000000E+00  0.00000000000E+00  0.38819668513E+04  0.38819668513E+04  0.00000000000E+00 0. -1.
          2   -1    0    0  503    0 -0.00000000000E+00 -0.00000000000E+00 -0.59939922359E+03  0.59939922359E+03  0.00000000000E+00 0. -1.
         24    2    1    2    0    0  0.21150773944E+03 -0.99432477688E+02 -0.44679078591E+03  0.51063365837E+03  0.80637368704E+02 0.  0.
         25    2    1    2    0    0 -0.10943348168E+03  0.92262328545E+02  0.12210363603E+04  0.12357354073E+04  0.12499671702E+03 0.  0.
         24    2    1    2    0    0 -0.10987712581E+03 -0.29706883885E+01  0.12780769772E+02  0.12336452970E+03  0.54531196071E+02 0.  0.
        -11    1    3    3    0    0  0.50200223226E+02 -0.69311473504E+01 -0.44478073431E+02  0.67427014109E+02  0.00000000000E+00 0.  1.
         12    1    3    3    0    0  0.16130751621E+03 -0.92501330338E+02 -0.40231271247E+03  0.44320664426E+03  0.00000000000E+00 0. -1.
        -13    1    5    5    0    0 -0.76613005331E+02 -0.22756610976E+02  0.23315178180E+02  0.83252708440E+02  0.00000000000E+00 0.  1.
         14    1    5    5    0    0 -0.33264120480E+02  0.19785922588E+02 -0.10534408408E+02  0.40111821256E+02  0.00000000000E+00 0. -1.
          5    1    4    4  501    0 -0.61523176500E+02  0.11312975383E+03  0.10139437117E+04  0.10220994975E+04  0.47000000000E+01 0.  1.
         -5    1    4    4    0  501 -0.47910305177E+02 -0.20867425280E+02  0.20709264869E+03  0.21363590972E+03  0.47000000000E+01 0.  1.
          1    1    1    2  502    0  0.52408171538E+02  0.30962655563E+02  0.25427201812E+04  0.25434486868E+04  0.00000000000E+00 0. -1.
          1    1    1    2  503    0 -0.44605303491E+02 -0.20821818032E+02 -0.47178897719E+02  0.68183792764E+02  0.00000000000E+00 0. -1.
<mgrwt>
<rscale>  0 0.54724882E+02</rscale>
<asrwt>0</asrwt>
<pdfrwt beam="1">  1        2 0.57087747E+00 0.60838252E+02</pdfrwt>
<pdfrwt beam="2">  1        2 0.88146946E-01 0.49225818E+02</pdfrwt>
<totfact> 0.83984108E+00</totfact>
</mgrwt>
</event>
<event>
13    1  0.2038932E-008  0.1064589E+03  0.7546771E-02  0.1388676E+00
          2   -1    0    0  503    0  0.00000000000E+00  0.00000000000E+00  0.12055495169E+04  0.12055495169E+04  0.00000000000E+00 0. -1.
          2   -1    0    0  502    0 -0.00000000000E+00 -0.00000000000E+00 -0.18050740130E+04  0.18050740130E+04  0.00000000000E+00 0. -1.
         24    2    1    2    0    0  0.13190464959E+03  0.12363455302E+03 -0.44916808458E+03  0.49082641577E+03  0.80462804585E+02 0.  0.
         25    2    1    2    0    0  0.15315638823E+03 -0.26767856664E+02  0.86079695283E+03  0.88360976847E+03  0.12498572534E+03 0.  0.
         24    2    1    2    0    0 -0.15004571689E+03 -0.81275951755E+02 -0.12849309911E+03  0.22948263515E+03  0.83858844631E+02 0.  0.
        -11    1    3    3    0    0  0.13614670273E+03  0.11225699443E+03 -0.36092362753E+03  0.40175044788E+03  0.00000000000E+00 0.  1.
         12    1    3    3    0    0 -0.42420531383E+01  0.11377558597E+02 -0.88244457058E+02  0.89075967892E+02  0.00000000000E+00 0. -1.
        -13    1    5    5    0    0 -0.68389470618E+02 -0.35016430818E+02 -0.87279726206E+01  0.77326888110E+02  0.00000000000E+00 0.  1.
         14    1    5    5    0    0 -0.81656246275E+02 -0.46259520937E+02 -0.11976512649E+03  0.15215574704E+03  0.00000000000E+00 0. -1.
          5    1    4    4  501    0  0.15130834490E+03 -0.25867810448E+01  0.83202426546E+03  0.84568751615E+03  0.47000000000E+01 0. -1.
         -5    1    4    4    0  501  0.18480433215E+01 -0.24181075619E+02  0.28772687372E+02  0.37922252317E+02  0.47000000000E+01 0. -1.
          1    1    1    2  502    0 -0.10188322697E+03 -0.30627512836E+02 -0.11409326729E+04  0.11458820186E+04  0.00000000000E+00 0. -1.
          1    1    1    2  503    0 -0.33132093959E+02  0.15036768232E+02  0.25827240764E+03  0.26082269188E+03  0.00000000000E+00 0. -1.
<mgrwt>
<rscale>  0 0.62237173E+02</rscale>
<asrwt>0</asrwt>
<pdfrwt beam="1">  1        2 0.17728670E+00 0.36384613E+02</pdfrwt>
<pdfrwt beam="2">  1        2 0.26545206E+00 0.10645890E+03</pdfrwt>
<totfact> 0.42467279E+01</totfact>
</mgrwt>
</event>
<event>
13    1  0.2038932E-008  0.4580303E+02  0.7546771E-02  0.1471136E+00
          2   -1    0    0  503    0  0.00000000000E+00  0.00000000000E+00  0.13125668436E+04  0.13125668436E+04  0.00000000000E+00 0. -1.
         -1   -1    0    0    0  501 -0.00000000000E+00 -0.00000000000E+00 -0.17232482026E+04  0.17232482026E+04  0.00000000000E+00 0.  1.
         24    2    1    2    0    0  0.10479098635E+02 -0.18408027113E+02 -0.12133710077E+04  0.12162023369E+04  0.80188870323E+02 0.  0.
         25    2    1    2    0    0 -0.12265747719E+03 -0.26321425387E+01  0.36442825375E+03  0.40433226173E+03  0.12499936343E+03 0.  0.
         24    2    1    2    0    0  0.13562823325E+03  0.33988972411E+02  0.31714577822E+03  0.35445042397E+03  0.74184840158E+02 0.  0.
        -11    1    3    3    0    0  0.27737524267E+02 -0.22048563914E+02 -0.11464034948E+04  0.11469509503E+04  0.00000000000E+00 0.  1.
         12    1    3    3    0    0 -0.17258425632E+02  0.36405368004E+01 -0.66967512899E+02  0.69251386610E+02  0.00000000000E+00 0. -1.
        -13    1    5    5    0    0  0.12193733616E+03  0.42425336681E+01  0.21528770400E+03  0.24745809451E+03  0.00000000000E+00 0.  1.
         14    1    5    5    0    0  0.13690897093E+02  0.29746438743E+02  0.10185807421E+03  0.10699232946E+03  0.00000000000E+00 0. -1.
          5    1    4    4  502    0 -0.13260928636E+03 -0.27502889646E+02  0.34569759767E+03  0.37130923878E+03  0.47000000000E+01 0.  1.
         -5    1    4    4    0  502  0.99518091711E+01  0.24870747107E+02  0.18730656077E+02  0.33023022947E+02  0.47000000000E+01 0.  1.
          1    1    1    2  503    0 -0.31829801318E+02  0.32140139614E+02  0.58898444813E+03  0.59071888828E+03  0.00000000000E+00 0. -1.
         -2    1    1    2    0  501  0.83799466187E+01 -0.45088942373E+02 -0.46786883134E+03  0.47011113534E+03  0.00000000000E+00 0.  1.
<mgrwt>
<rscale>  0 0.45517681E+02</rscale>
<asrwt>0</asrwt>
<pdfrwt beam="1">  1        2 0.19302454E+00 0.45234111E+02</pdfrwt>
<pdfrwt beam="2">  1       -1 0.25341885E+00 0.45803028E+02</pdfrwt>
<totfact> 0.22209937E+00</totfact>
</mgrwt>
</event>
<event>
13    1  0.2038932E-008  0.2792812E+02  0.7546771E-02  0.1680700E+00
          2   -1    0    0  502    0  0.00000000000E+00  0.00000000000E+00  0.25743507275E+04  0.25743507275E+04  0.00000000000E+00 0. -1.
          2   -1    0    0  503    0 -0.00000000000E+00 -0.00000000000E+00 -0.12734965598E+04  0.12734965598E+04  0.00000000000E+00 0. -1.
         24    2    1    2    0    0  0.78214268982E+02  0.35570441126E+02 -0.37094753375E+03  0.38903687369E+03  0.79780249074E+02 0.  0.
         25    2    1    2    0    0 -0.16349179505E+03  0.14224025111E+02  0.10787366623E+04  0.10982846274E+04  0.12499778504E+03 0.  0.
         24    2    1    2    0    0  0.79960900906E+02 -0.30157489487E+02 -0.20239345747E+03  0.23348091561E+03  0.79038006561E+02 0.  0.
        -11    1    3    3    0    0  0.26185706425E+02 -0.25800121801E+02 -0.12063796798E+03  0.12611445922E+03  0.00000000000E+00 0.  1.
         12    1    3    3    0    0  0.52028562557E+02  0.61370562927E+02 -0.25030956577E+03  0.26292241447E+03  0.00000000000E+00 0. -1.
        -11    1    5    5    0    0  0.39279157552E+02 -0.54723382831E+02 -0.13675147338E+03  0.15244168169E+03  0.00000000000E+00 0.  1.
         12    1    5    5    0    0  0.40681743355E+02  0.24565893344E+02 -0.65641984090E+02  0.81039233914E+02  0.00000000000E+00 0. -1.
          5    1    4    4  501    0 -0.12635355131E+03 -0.33284588953E+02  0.90331135649E+03  0.91272481096E+03  0.47000000000E+01 0.  1.
         -5    1    4    4    0  501 -0.37138243738E+02  0.47508614064E+02  0.17542530583E+03  0.18555981646E+03  0.47000000000E+01 0.  1.
          1    1    1    2  502    0 -0.14283104387E+02 -0.24002951002E+02  0.14609667641E+04  0.14612337372E+04  0.00000000000E+00 0. -1.
          1    1    1    2  503    0  0.19599729544E+02  0.43659742523E+01 -0.66550826754E+03  0.66581113335E+03  0.00000000000E+00 0. -1.
<mgrwt>
<rscale>  0 0.23681214E+02</rscale>
<asrwt>0</asrwt>
<pdfrwt beam="1">  1        2 0.37858099E+00 0.27928118E+02</pdfrwt>
<pdfrwt beam="2">  1        2 0.18727891E+00 0.20080118E+02</pdfrwt>
<totfact> 0.20948324E+01</totfact>
</mgrwt>
</event>
<event>
13    1  0.2038932E-008  0.1044859E+03  0.7546771E-02  0.1288737E+00
          2   -1    0    0  503    0  0.00000000000E+00  0.00000000000E+00  0.28770431546E+04  0.28770431546E+04  0.00000000000E+00 0. -1.
         -1   -1    0    0    0  501 -0.00000000000E+00 -0.00000000000E+00 -0.23365632569E+04  0.23365632569E+04  0.00000000000E+00 0.  1.
         24    2    1    2    0    0 -0.86498605218E+02  0.11320094964E+03 -0.27223073220E+03  0.31729104353E+03  0.79167992546E+02 0.  0.
         25    2    1    2    0    0  0.15657691309E+03 -0.17449254250E+03  0.32737074958E+02  0.26769927408E+03  0.12500883235E+03 0.  0.
         24    2    1    2    0    0  0.64665805950E+02  0.12565472079E+03  0.52749719972E+03  0.55256060996E+03  0.84256493257E+02 0.  0.
        -11    1    5    5    0    0 -0.11780934968E+01  0.88128990231E+02  0.30709820708E+03  0.31949556431E+03  0.00000000000E+00 0.  1.
         12    1    5    5    0    0  0.65843899447E+02  0.37525730563E+02  0.22039899264E+03  0.23306504566E+03  0.00000000000E+00 0. -1.
        -13    1    3    3    0    0 -0.10695810898E+02  0.17469739333E+02 -0.12193502937E+03  0.12364361508E+03  0.00000000000E+00 0.  1.
         14    1    3    3    0    0 -0.75802794320E+02  0.95731210309E+02 -0.15029570283E+03  0.19364742844E+03  0.00000000000E+00 0. -1.
          5    1    4    4  502    0  0.18101836084E+02  0.11469534748E+02  0.28228900113E+02  0.35751748188E+02  0.47000000000E+01 0. -1.
         -5    1    4    4    0  502  0.13847507700E+03 -0.18596207725E+03  0.45081748456E+01  0.23194752589E+03  0.47000000000E+01 0. -1.
          1    1    1    2  503    0 -0.84141672876E+02  0.27012585188E+02  0.21619358640E+04  0.21637412463E+04  0.00000000000E+00 0. -1.
         -2    1    1    2    0  501 -0.50602440943E+02 -0.91375713123E+02 -0.19094595088E+04  0.19123142377E+04  0.00000000000E+00 0.  1.
<mgrwt>
<rscale>  0 0.96091450E+02</rscale>
<asrwt>0</asrwt>
<pdfrwt beam="1">  1        2 0.42309458E+00 0.88371380E+02</pdfrwt>
<pdfrwt beam="2">  1       -1 0.34361224E+00 0.10448594E+03</pdfrwt>
<totfact> 0.92423290E-02</totfact>
</mgrwt>
</event>
<event>
13    1  0.2038932E-008  0.2285087E+03  0.7546771E-02  0.1197281E+00
          2   -1    0    0  502    0  0.00000000000E+00  0.00000000000E+00  0.14306844316E+04  0.14306844316E+04  0.00000000000E+00 0. -1.
          2   -1    0    0  503    0 -0.00000000000E+00 -0.00000000000E+00 -0.14678917915E+04  0.14678917915E+04  0.00000000000E+00 0. -1.
         24    2    1    2    0    0  0.57135382738E+02  0.36552343127E+02 -0.13931307430E+02  0.10495845021E+03  0.78877558248E+02 0.  0.
         25    2    1    2    0    0  0.23643840182E+03  0.13046569057E+03  0.16602558838E+03  0.34075623361E+03  0.12500360184E+03 0.  0.
         24    2    1    2    0    0  0.35986150713E+02 -0.15571037792E+03 -0.10087023231E+03  0.20281746930E+03  0.73616555554E+02 0.  0.
        -11    1    5    5    0    0  0.64943305792E+01 -0.88536113546E+02 -0.93746381973E+02  0.12910927102E+03  0.00000000000E+00 0.  1.
         12    1    5    5    0    0  0.29491820133E+02 -0.67174264377E+02 -0.71238503329E+01  0.73708198275E+02  0.00000000000E+00 0. -1.
        -11    1    3    3    0    0  0.64885332693E+02  0.44741461946E+02  0.90764872210E+01  0.79336545400E+02  0.00000000000E+00 0.  1.
         12    1    3    3    0    0 -0.77499499555E+01 -0.81891188193E+01 -0.23007794652E+02  0.25621904810E+02  0.00000000000E+00 0. -1.
          5    1    4    4  501    0  0.12304683038E+03  0.13569920390E+03  0.90837627636E+02  0.20451983033E+03  0.47000000000E+01 0.  1.
         -5    1    4    4    0  501  0.11339157144E+03 -0.52335133261E+01  0.75187960747E+02  0.13623640327E+03  0.47000000000E+01 0.  1.
          1    1    1    2  502    0 -0.10152935177E+03 -0.91879161792E+01  0.10672353620E+04  0.10720932539E+04  0.00000000000E+00 0. -1.
          1    1    1    2  503    0 -0.22803058350E+03 -0.21197395982E+01 -0.11556667707E+04  0.11779508161E+04  0.00000000000E+00 0. -1.
<mgrwt>
<rscale>  0 0.15262746E+03</rscale>
<asrwt>0</asrwt>
<pdfrwt beam="1">  1        2 0.21039477E+00 0.10194424E+03</pdfrwt>
<pdfrwt beam="2">  1        2 0.21586644E+00 0.22850867E+03</pdfrwt>
<totfact> 0.42199277E+01</totfact>
</mgrwt>
</event>
<event>
13    1  0.2038932E-008  0.5902577E+02  0.7546771E-02  0.1431695E+00
          2   -1    0    0  502    0  0.00000000000E+00  0.00000000000E+00  0.93829126154E+03  0.93829126154E+03  0.00000000000E+00 0. -1.
          4   -1    0    0  503    0 -0.00000000000E+00 -0.00000000000E+00 -0.39134063403E+03  0.39134063403E+03  0.00000000000E+00 0. -1.
         24    2    1    2    0    0 -0.24324157644E+03  0.79647667273E+02  0.19529097840E+03  0.33224360031E+03  0.82079402377E+02 0.  0.
         25    2    1    2    0    0 -0.41361457439E+01  0.75175961904E+02  0.49410148950E+03  0.51519959002E+03  0.12500321067E+03 0.  0.
         24    2    1    2    0    0  0.14373937209E+03 -0.13490047010E+03  0.23561645707E+02  0.21448562917E+03  0.81177521822E+02 0.  0.
        -11    1    5    5    0    0  0.95409470447E+02 -0.34520189498E+02  0.17063746691E+02  0.10288722946E+03  0.00000000000E+00 0.  1.
         12    1    5    5    0    0  0.48329901642E+02 -0.10038028060E+03  0.64978990160E+01  0.11159839971E+03  0.00000000000E+00 0. -1.
        -13    1    3    3    0    0 -0.10634862403E+03  0.32453474823E+02  0.13627015835E+03  0.17587726947E+03  0.00000000000E+00 0.  1.
         14    1    3    3    0    0 -0.13689295241E+03  0.47194192450E+02  0.59020820046E+02  0.15636633084E+03  0.00000000000E+00 0. -1.
          5    1    4    4  501    0  0.47377440464E+02  0.64843601206E+02  0.18652934916E+03  0.20313690601E+03  0.47000000000E+01 0.  1.
         -5    1    4    4    0  501 -0.51513586208E+02  0.10332360698E+02  0.30757214034E+03  0.31206268401E+03  0.47000000000E+01 0.  1.
          1    1    1    2  502    0  0.45388957903E+02 -0.11855091726E+02  0.34835971540E+02  0.58431546381E+02  0.00000000000E+00 0. -1.
          3    1    1    2  503    0  0.58249392189E+02 -0.80680673510E+01 -0.20083945763E+03  0.20927152970E+03  0.00000000000E+00 0. -1.
<mgrwt>
<rscale>  0 0.52621239E+02</rscale>
<asrwt>0</asrwt>
<pdfrwt beam="1">  1        2 0.13798401E+00 0.46911626E+02</pdfrwt>
<pdfrwt beam="2">  1        4 0.57550093E-01 0.59025768E+02</pdfrwt>
<totfact> 0.46240009E+01</totfact>
</mgrwt>
</event>
<event>
13    1  0.2038932E-008  0.1075418E+03  0.7546771E-02  0.1327286E+00
         -3   -1    0    0    0  501 -0.00000000000E+00  0.00000000000E+00  0.15418382751E+04  0.15418382751E+04  0.00000000000E+00 0.  1.
          2   -1    0    0  503    0  0.00000000000E+00 -0.00000000000E+00 -0.11303057913E+04  0.11303057913E+04  0.00000000000E+00 0. -1.
         24    2    1    2    0    0  0.16843651875E+02 -0.80996836654E+01  0.19452753548E+03  0.21292577673E+03  0.84540587028E+02 0.  0.
         25    2    1    2    0    0 -0.17509442450E+03  0.37500689252E+02 -0.68418138945E+02  0.22883968312E+03  0.12498879810E+03 0.  0.
         24    2    1    2    0    0  0.71375932670E+02  0.17069620442E+02  0.11394385528E+02  0.11001231712E+03  0.81160225414E+02 0.  0.
        -11    1    5    5    0    0  0.59650113533E+02 -0.62205648142E+01  0.39391439209E+02  0.71753166857E+02  0.00000000000E+00 0.  1.
         12    1    5    5    0    0  0.11725819137E+02  0.23290185256E+02 -0.27997053681E+02  0.38259150259E+02  0.00000000000E+00 0. -1.
        -11    1    3    3    0    0  0.38182461650E+02  0.24743741535E+02  0.12643433535E+03  0.13437185076E+03  0.00000000000E+00 0.  1.
         12    1    3    3    0    0 -0.21338809776E+02 -0.32843425200E+02  0.68093200128E+02  0.78553925970E+02  0.00000000000E+00 0. -1.
          5    1    4    4  502    0 -0.12623713855E+03  0.33893166967E+02  0.15343730500E+02  0.13168933891E+03  0.47000000000E+01 0.  1.
         -5    1    4    4    0  502 -0.48857285941E+02  0.36075222847E+01 -0.83761869445E+02  0.97150344206E+02  0.47000000000E+01 0.  1.
          1    1    1    2  503    0  0.24774941298E+02  0.55135349437E+02 -0.91921258571E+03  0.92119785182E+03  0.00000000000E+00 0. -1.
         -4    1    1    2    0  501  0.62099898654E+02 -0.10160597546E+03  0.11932412874E+04  0.11991684376E+04  0.00000000000E+00 0.  1.
<mgrwt>
<rscale>  0 0.80625426E+02</rscale>
<asrwt>0</asrwt>
<pdfrwt beam="2">  1        2 0.16622144E+00 0.60445881E+02</pdfrwt>
<pdfrwt beam="1">  1       -3 0.22674092E+00 0.10754181E+03</pdfrwt>
<totfact> 0.18152195E+00</totfact>
</mgrwt>
</event>
<event>
13    1  0.2038932E-008  0.2320697E+03  0.7546771E-02  0.1269283E+00
          2   -1    0    0  502    0  0.00000000000E+00  0.00000000000E+00  0.17763778241E+04  0.17763778241E+04  0.00000000000E+00 0. -1.
          2   -1    0    0  503    0 -0.00000000000E+00 -0.00000000000E+00 -0.13264857746E+04  0.13264857746E+04  0.00000000000E+00 0. -1.
         24    2    1    2    0    0  0.17270821323E+03 -0.21858658721E+03 -0.23192354714E+02  0.29101982093E+03  0.80909998320E+02 0.  0.
         25    2    1    2    0    0 -0.17293520245E+03  0.51710213017E+03  0.98605557813E+03  0.11336778723E+04  0.12497486808E+03 0.  0.
         24    2    1    2    0    0 -0.30300477510E+02 -0.56842710557E+02  0.38994103519E+02  0.11136060727E+03  0.82045304933E+02 0.  0.
        -11    1    3    3    0    0  0.12632630044E+03 -0.11339152084E+03  0.13633741982E+02  0.17029929566E+03  0.00000000000E+00 0.  1.
         12    1    3    3    0    0  0.46381912792E+02 -0.10519506637E+03 -0.36826096696E+02  0.12072052527E+03  0.00000000000E+00 0. -1.
        -13    1    5    5    0    0 -0.27951548351E+02  0.11269495757E+02  0.30161241747E+02  0.42637906768E+02  0.00000000000E+00 0.  1.
         14    1    5    5    0    0 -0.23489291587E+01 -0.68112206314E+02  0.88328617715E+01  0.68722700502E+02  0.00000000000E+00 0. -1.
          5    1    4    4  501    0 -0.17299425039E+03  0.46695231794E+03  0.94694915156E+03  0.10699094651E+04  0.47000000000E+01 0.  1.
         -5    1    4    4    0  501  0.59047942046E-01  0.50149812225E+02  0.39106426576E+02  0.63768407165E+02  0.47000000000E+01 0.  1.
          1    1    1    2  502    0 -0.42549483971E+02 -0.21984340419E+02  0.49359749868E+03  0.49591557801E+03  0.00000000000E+00 0. -1.
          1    1    1    2  503    0  0.73076950701E+02 -0.21968849198E+03 -0.10455627761E+04  0.10708897203E+04  0.00000000000E+00 0. -1.
<mgrwt>
<rscale>  0 0.10542574E+03</rscale>
<asrwt>0</asrwt>
<pdfrwt beam="1">  1        2 0.26123203E+00 0.47893317E+02</pdfrwt>
<pdfrwt beam="2">  1        2 0.19507144E+00 0.23206966E+03</pdfrwt>
<totfact> 0.36378497E+01</totfact>
</mgrwt>
</event>
<event>
13    1  0.2038932E-008  0.8016147E+02  0.7546771E-02  0.1401606E+00
          2   -1    0    0  502    0  0.00000000000E+00  0.00000000000E+00  0.39293505926E+03  0.39293505926E+03  0.00000000000E+00 0. -1.
          2   -1    0    0  503    0 -0.00000000000E+00 -0.00000000000E+00 -0.39265430192E+04  0.39265430192E+04  0.00000000000E+00 0. -1.
         24    2    1    2    0    0  0.24086063164E+02 -0.20396500201E+02 -0.53070144950E+03  0.53768136459E+03  0.80380754351E+02 0.  0.
         25    2    1    2    0    0 -0.47727257461E+02 -0.28530870051E+02 -0.10200539533E+03  0.17065551179E+03  0.12500520540E+03 0.  0.
         24    2    1    2    0    0  0.10909143532E+03  0.31164624913E+02  0.11455639707E+03  0.17955881523E+03  0.79031796840E+02 0.  0.
        -11    1    3    3    0    0  0.24895088465E+02 -0.40717814420E+02 -0.17476349216E+03  0.18116286605E+03  0.00000000000E+00 0.  1.
         12    1    3    3    0    0 -0.80902530070E+00  0.20321314218E+02 -0.35593795733E+03  0.35651849854E+03  0.00000000000E+00 0. -1.
        -13    1    5    5    0    0 -0.97493830901E+00  0.99003092589E+01 -0.85083988873E+01  0.13090434666E+02  0.00000000000E+00 0.  1.
         14    1    5    5    0    0  0.11006637363E+03  0.21264315654E+02  0.12306479596E+03  0.16646838057E+03  0.00000000000E+00 0. -1.
          5    1    4    4  501    0  0.13212594780E+01  0.45030738580E+02 -0.52039347506E+02  0.68990556111E+02  0.47000000000E+01 0. -1.
         -5    1    4    4    0  501 -0.49048516939E+02 -0.73561608630E+02 -0.49966047822E+02  0.10166495568E+03  0.47000000000E+01 0. -1.
          1    1    1    2  502    0 -0.60044611509E+02  0.53179630719E+02  0.20017908692E+03  0.21565040073E+03  0.00000000000E+00 0. -1.
          1    1    1    2  503    0 -0.25405629518E+02 -0.35416885380E+02 -0.32156365991E+04  0.32159319862E+04  0.00000000000E+00 0. -1.
<mgrwt>
<rscale>  0 0.59109857E+02</rscale>
<asrwt>0</asrwt>
<pdfrwt beam="1">  1        2 0.57784567E-01 0.80161469E+02</pdfrwt>
<pdfrwt beam="2">  1        2 0.57743280E+00 0.43586716E+02</pdfrwt>
<totfact> 0.13164798E+01</totfact>
</mgrwt>
</event>
<event>
13    1  0.2038932E-008  0.4164215E+02  0.7546771E-02  0.1603518E+00
          2   -1    0    0  503    0  0.00000000000E+00  0.00000000000E+00  0.16054919235E+04  0.16054919235E+04  0.00000000000E+00 0. -1.
          2   -1    0    0  502    0 -0.00000000000E+00 -0.00000000000E+00 -0.65207344066E+03  0.65207344066E+03  0.00000000000E+00 0. -1.
         24    2    1    2    0    0 -0.27735918137E+02 -0.31308466402E+02  0.50815874420E+02  0.10552810002E+03  0.82488942156E+02 0.  0.
         25    2    1    2    0    0 -0.36264500807E+01  0.91237964338E+02  0.15874302690E+02  0.15561367055E+03  0.12500441473E+03 0.  0.
         24    2    1    2    0    0 -0.20360900697E+02 -0.25588850048E+02  0.77739121387E+03  0.78231080878E+03  0.81263439513E+02 0.  0.
        -11    1    3    3    0    0 -0.55645374687E+02 -0.11557528782E+02  0.40593914826E+02  0.69841607344E+02  0.00000000000E+00 0.  1.
         12    1    3    3    0    0  0.27909456549E+02 -0.19750937620E+02  0.10221959594E+02  0.35686492679E+02  0.00000000000E+00 0. -1.
        -11    1    5    5    0    0  0.23231669325E+02 -0.35912342308E+02  0.38930350239E+03  0.39164604398E+03  0.00000000000E+00 0.  1.
         12    1    5    5    0    0 -0.43592570023E+02  0.10323492260E+02  0.38808771148E+03  0.39066476480E+03  0.00000000000E+00 0. -1.
          5    1    4    4  501    0 -0.62059238409E+02  0.65691453602E+02  0.14546815239E+02  0.91653783238E+02  0.47000000000E+01 0. -1.
         -5    1    4    4    0  501  0.58432788328E+02  0.25546510736E+02  0.13274874503E+01  0.63959887317E+02  0.47000000000E+01 0. -1.
          1    1    1    2  502    0  0.32578959637E+02 -0.25909091401E+02 -0.55143791876E+03  0.55300673402E+03  0.00000000000E+00 0. -1.
          1    1    1    2  503    0  0.19144309278E+02 -0.84315564865E+01  0.66077501063E+03  0.66110605080E+03  0.00000000000E+00 0. -1.
<mgrwt>
<rscale>  0 0.29514460E+02</rscale>
<asrwt>0</asrwt>
<pdfrwt beam="1">  1        2 0.23610175E+00 0.20918789E+02</pdfrwt>
<pdfrwt beam="2">  1        2 0.95893153E-01 0.41642150E+02</pdfrwt>
<totfact> 0.12863615E+02</totfact>
</mgrwt>
</event>
<event>
13    1  0.2038932E-008  0.1014915E+03  0.7546771E-02  0.1333376E+00
          2   -1    0    0  502    0  0.00000000000E+00  0.00000000000E+00  0.20612058226E+04  0.20612058226E+04  0.00000000000E+00 0. -1.
          2   -1    0    0  503    0 -0.00000000000E+00 -0.00000000000E+00 -0.14280300415E+04  0.14280300415E+04  0.00000000000E+00 0. -1.
         24    2    1    2    0    0 -0.97246418067E+02  0.14809717594E+02 -0.31536443492E+03  0.34002994539E+03  0.80557081533E+02 0.  0.
         25    2    1    2    0    0  0.12531119494E+03 -0.62384933136E+02 -0.38407211102E+03  0.42747042972E+03  0.12499922545E+03 0.  0.
         24    2    1    2    0    0  0.33367632573E+01  0.12993692413E+02  0.20619606782E+03  0.22156622874E+03  0.79967526541E+02 0.  0.
        -11    1    3    3    0    0 -0.10603972700E+03  0.54773432473E+01 -0.22541672272E+03  0.24917287949E+03  0.00000000000E+00 0.  1.
         12    1    3    3    0    0  0.87933089366E+01  0.93323743466E+01 -0.89947712208E+02  0.90857065903E+02  0.00000000000E+00 0. -1.
        -13    1    5    5    0    0 -0.26561409779E+02 -0.16066842028E+02  0.42414414967E+02  0.52560769583E+02  0.00000000000E+00 0.  1.
         14    1    5    5    0    0  0.29898173036E+02  0.29060534441E+02  0.16378165285E+03  0.16900545916E+03  0.00000000000E+00 0. -1.
          5    1    4    4  501    0 -0.23849669233E+02  0.20061642460E+01 -0.64107337846E+02  0.68590612938E+02  0.47000000000E+01 0.  1.
         -5    1    4    4    0  501  0.14916086417E+03 -0.64391097382E+02 -0.31996477318E+03  0.35887981679E+03  0.47000000000E+01 0.  1.
          1    1    1    2  502    0  0.43307435476E+02 -0.42545976093E+02  0.18085837536E+04  0.18096024115E+04  0.00000000000E+00 0. -1.
          1    1    1    2  503    0 -0.74708975604E+02  0.77127499223E+02 -0.68216749433E+03  0.69056684868E+03  0.00000000000E+00 0. -1.
<mgrwt>
<rscale>  0 0.78495500E+02</rscale>
<asrwt>0</asrwt>
<pdfrwt beam="1">  1        2 0.30311851E+00 0.60709917E+02</pdfrwt>
<pdfrwt beam="2">  1        2 0.21000441E+00 0.10149155E+03</pdfrwt>
<totfact> 0.24475449E+01</totfact>
</mgrwt>
</event>
<event>
13    1  0.2038932E-008  0.5940214E+02  0.7546771E-02  0.1451274E+00
          2   -1    0    0  503    0  0.00000000000E+00  0.00000000000E+00  0.16979924980E+04  0.16979924980E+04  0.00000000000E+00 0. -1.
         -1   -1    0    0    0  501 -0.00000000000E+00 -0.00000000000E+00 -0.76056663784E+03  0.76056663784E+03  0.00000000000E+00 0.  1.
         24    2    1    2    0    0 -0.99159920663E+00  0.69844294102E+02 -0.38262651748E+03  0.39685877057E+03  0.78832881533E+02 0.  0.
         25    2    1    2    0    0  0.52305416302E+02 -0.70885044543E+01  0.37004542148E+03  0.39413689266E+03  0.12499669085E+03 0.  0.
         24    2    1    2    0    0  0.88606844129E+01  0.16231496661E+02 -0.22143980909E+03  0.23655257442E+03  0.81114475918E+02 0.  0.
        -11    1    5    5    0    0  0.72313553915E+01 -0.33020689042E+02 -0.96217214760E+02  0.10198240447E+03  0.00000000000E+00 0.  1.
         12    1    5    5    0    0  0.16293290214E+01  0.49252185703E+02 -0.12522259433E+03  0.13457016995E+03  0.00000000000E+00 0. -1.
        -11    1    3    3    0    0 -0.81433168471E+00 -0.95167942935E+01 -0.16392948890E+03  0.16420752066E+03  0.00000000000E+00 0.  1.
         12    1    3    3    0    0 -0.17726752192E+00  0.79361088395E+02 -0.21869702858E+03  0.23265124991E+03  0.00000000000E+00 0. -1.
          5    1    4    4  502    0  0.17662941742E+02  0.47475611159E+01  0.35296049635E+03  0.35346530357E+03  0.47000000000E+01 0.  1.
         -5    1    4    4    0  502  0.34642474560E+02 -0.11836065570E+02  0.17084925135E+02  0.40671589085E+02  0.47000000000E+01 0.  1.
          1    1    1    2  503    0 -0.39117209974E+02 -0.44647403634E+02  0.12974081025E+04  0.12987653103E+04  0.00000000000E+00 0. -1.
         -2    1    1    2    0  501 -0.21057291535E+02 -0.34339882675E+02 -0.12596133720E+03  0.13224558797E+03  0.00000000000E+00 0.  1.
<mgrwt>
<rscale>  0 0.48916615E+02</rscale>
<asrwt>0</asrwt>
<pdfrwt beam="1">  1        2 0.24970478E+00 0.59402141E+02</pdfrwt>
<pdfrwt beam="2">  1       -1 0.11184803E+00 0.40281970E+02</pdfrwt>
<totfact> 0.13269328E+01</totfact>
</mgrwt>
</event>
<event>
13    1  0.2038932E-008  0.2591694E+03  0.7546771E-02  0.1263982E+00
          2   -1    0    0  502    0  0.00000000000E+00  0.00000000000E+00  0.33493305035E+04  0.33493305035E+04  0.00000000000E+00 0. -1.
          2   -1    0    0  503    0 -0.00000000000E+00 -0.00000000000E+00 -0.93389271160E+03  0.93389271160E+03  0.00000000000E+00 0. -1.
         24    2    1    2    0    0  0.24228029044E+03 -0.38897649095E+03  0.49195335773E+03  0.67706972117E+03  0.80017819838E+02 0.  0.
         25    2    1    2    0    0  0.67574678023E+01 -0.41219443752E+02 -0.84003508775E+02  0.15626620737E+03  0.12497132537E+03 0.  0.
         24    2    1    2    0    0 -0.50964524317E+02  0.62837884738E+03  0.16097844233E+03  0.65817506397E+03  0.99111035535E+02 0.  0.
        -11    1    3    3    0    0  0.18545991683E+02 -0.50230878773E+02  0.27464911873E+02  0.60178205141E+02  0.00000000000E+00 0.  1.
         12    1    3    3    0    0  0.22373429875E+03 -0.33874561217E+03  0.46448844586E+03  0.61689151602E+03  0.00000000000E+00 0. -1.
        -11    1    5    5    0    0 -0.15104935477E+02  0.37718583703E+03  0.14346716684E+03  0.40383182477E+03  0.00000000000E+00 0.  1.
         12    1    5    5    0    0 -0.35859588840E+02  0.25119301035E+03  0.17511275490E+02  0.25434323920E+03  0.00000000000E+00 0. -1.
          5    1    4    4  501    0  0.86433385037E-01 -0.75672352720E+02 -0.92750200115E+02  0.11979566794E+03  0.47000000000E+01 0. -1.
         -5    1    4    4    0  501  0.66710344172E+01  0.34452908968E+02  0.87466913399E+01  0.36470539425E+02  0.47000000000E+01 0. -1.
          1    1    1    2  502    0 -0.15385491047E+03 -0.20732592746E+03  0.23108268348E+04  0.23252045145E+04  0.00000000000E+00 0. -1.
          1    1    1    2  503    0 -0.44218323448E+02  0.91430147745E+01 -0.46431733422E+03  0.46650770809E+03  0.00000000000E+00 0. -1.
<mgrwt>
<rscale>  0 0.10817787E+03</rscale>
<asrwt>0</asrwt>
<pdfrwt beam="1">  1        2 0.49254860E+00 0.25916940E+03</pdfrwt>
<pdfrwt beam="2">  1        2 0.13733716E+00 0.45153680E+02</pdfrwt>
<totfact> 0.82507365E+00</totfact>
</mgrwt>
</event>
<event>
13    1  0.2038932E-008  0.9958386E+02  0.7546771E-02  0.1316826E+00
          2   -1    0    0  503    0  0.00000000000E+00  0.00000000000E+00  0.87667570476E+03  0.87667570476E+03  0.00000000000E+00 0. -1.
          2   -1    0    0  502    0 -0.00000000000E+00 -0.00000000000E+00 -0.30469364490E+04  0.30469364490E+04  0.00000000000E+00 0. -1.
         24    2    1    2    0    0 -0.27748454187E+03 -0.13869293066E+03 -0.42968198204E+03  0.53659279757E+03  0.84094142022E+02 0.  0.
         25    2    1    2    0    0 -0.11370011395E+03 -0.32848154991E+03 -0.13586128693E+04  0.14079350429E+04  0.12499724731E+03 0.  0.
         24    2    1    2    0    0  0.48016706750E+03  0.33870838432E+03 -0.24384140762E+03  0.64140956625E+03  0.81632207418E+02 0.  0.
        -11    1    3    3    0    0 -0.44421673072E+02 -0.42151463371E+02 -0.42727642430E+02  0.74670491698E+02  0.00000000000E+00 0.  1.
         12    1    3    3    0    0 -0.23306286880E+03 -0.96541467290E+02 -0.38695433962E+03  0.46192230588E+03  0.00000000000E+00 0. -1.
        -11    1    5    5    0    0  0.40820542951E+03  0.31953211340E+03 -0.22075392723E+03  0.56344009492E+03  0.00000000000E+00 0.  1.
         12    1    5    5    0    0  0.71961637991E+02  0.19176270911E+02 -0.23087480395E+02  0.77969471330E+02  0.00000000000E+00 0. -1.
          5    1    4    4  501    0 -0.10106393367E+03 -0.31054930729E+03 -0.13386021425E+04  0.13778724820E+04  0.47000000000E+01 0.  1.
         -5    1    4    4    0  501 -0.12636180277E+02 -0.17932242614E+02 -0.20010726868E+02  0.30062560885E+02  0.47000000000E+01 0.  1.
          1    1    1    2  502    0 -0.25243612779E+02  0.95740474080E+02 -0.73241673607E+03  0.73907899012E+03  0.00000000000E+00 0. -1.
          1    1    1    2  503    0 -0.63738798902E+02  0.32725622174E+02  0.59429225080E+03  0.59859575691E+03  0.00000000000E+00 0. -1.
<mgrwt>
<rscale>  0 0.84469514E+02</rscale>
<asrwt>0</asrwt>
<pdfrwt beam="1">  1        2 0.12892290E+00 0.71649151E+02</pdfrwt>
<pdfrwt beam="2">  1        2 0.44807890E+00 0.99583856E+02</pdfrwt>
<totfact> 0.15004313E+01</totfact>
</mgrwt>
</event>
<event>
13    1  0.2038932E-008  0.1223233E+03  0.7546771E-02  0.1373113E+00
          2   -1    0    0  503    0  0.00000000000E+00  0.00000000000E+00  0.18329568641E+04  0.18329568641E+04  0.00000000000E+00 0. -1.
          2   -1    0    0  502    0 -0.00000000000E+00 -0.00000000000E+00 -0.64434128279E+03  0.64434128279E+03  0.00000000000E+00 0. -1.
         24    2    1    2    0    0 -0.62658102602E+02 -0.28225220213E+01 -0.29565322104E+02  0.10586644305E+03  0.79997443963E+02 0.  0.
         25    2    1    2    0    0 -0.59161541537E+02  0.12979743275E+03  0.15078249314E+04  0.15197066349E+04  0.12499908374E+03 0.  0.
         24    2    1    2    0    0  0.36309723242E+02  0.74130406771E+01 -0.64327197468E+02  0.10929483032E+03  0.80212358313E+02 0.  0.
        -11    1    5    5    0    0 -0.12996022117E+02 -0.22284839838E+02 -0.38172657871E+02  0.46072361416E+02  0.00000000000E+00 0.  1.
         12    1    5    5    0    0  0.49305745359E+02  0.29697880515E+02 -0.26154539597E+02  0.63222468902E+02  0.00000000000E+00 0. -1.
        -11    1    3    3    0    0 -0.52231068268E+01 -0.34363272432E+02 -0.21115300421E+01  0.34822031765E+02  0.00000000000E+00 0.  1.
         12    1    3    3    0    0 -0.57434995776E+02  0.31540750410E+02 -0.27453792062E+02  0.71044411285E+02  0.00000000000E+00 0. -1.
          5    1    4    4  501    0  0.35601869356E+02  0.14206855868E+02  0.23909312137E+03  0.24219194566E+03  0.47000000000E+01 0.  1.
         -5    1    4    4    0  501 -0.94763410893E+02  0.11559057688E+03  0.12687318100E+04  0.12775146892E+04  0.47000000000E+01 0.  1.
          1    1    1    2  502    0  0.10734541618E+03 -0.10583519360E+03 -0.47079206739E+03  0.49433723034E+03  0.00000000000E+00 0. -1.
          1    1    1    2  503    0 -0.21835495281E+02 -0.28552757802E+02  0.24547523688E+03  0.24809300827E+03  0.00000000000E+00 0. -1.
<mgrwt>
<rscale>  0 0.66309273E+02</rscale>
<asrwt>0</asrwt>
<pdfrwt beam="1">  1        2 0.26955248E+00 0.35945081E+02</pdfrwt>
<pdfrwt beam="2">  1        2 0.94756071E-01 0.12232327E+03</pdfrwt>
<totfact> 0.94906978E+01</totfact>
</mgrwt>
</event>
<event>
13    1  0.2038932E-008  0.1741338E+03  0.7546771E-02  0.1308473E+00
          2   -1    0    0  503    0  0.00000000000E+00  0.00000000000E+00  0.11781280581E+04  0.11781280581E+04  0.00000000000E+00 0. -1.
          2   -1    0    0  502    0 -0.00000000000E+00 -0.00000000000E+00 -0.29268906516E+04  0.29268906516E+04  0.00000000000E+00 0. -1.
         24    2    1    2    0    0 -0.38956647834E+02  0.12102966039E+03 -0.47014262271E+03  0.49364517243E+03  0.80533666638E+02 0.  0.
         25    2    1    2    0    0  0.21529218956E+02 -0.99789605177E+02  0.43770624399E+03  0.46651305299E+03  0.12500479994E+03 0.  0.
         24    2    1    2    0    0  0.15061479199E+03 -0.13099537456E+03 -0.39886568905E+03  0.45349224853E+03  0.81955950704E+02 0.  0.
        -13    1    5    5    0    0  0.25837743692E+02  0.57583553777E+01 -0.85766979836E+02  0.89759247356E+02  0.00000000000E+00 0.  1.
         14    1    5    5    0    0  0.12477704830E+03 -0.13675372993E+03 -0.31309870921E+03  0.36373300117E+03  0.00000000000E+00 0. -1.
        -13    1    3    3    0    0  0.26690605203E+01 -0.11387220882E+02 -0.35730589818E+02  0.37596113259E+02  0.00000000000E+00 0.  1.
         14    1    3    3    0    0 -0.41625708354E+02  0.13241688127E+03 -0.43441203290E+03  0.45604905917E+03  0.00000000000E+00 0. -1.
          5    1    4    4  501    0 -0.48072928173E+01 -0.11247366083E+03  0.41255569664E+03  0.42766543849E+03  0.47000000000E+01 0. -1.
         -5    1    4    4    0  501  0.26336511773E+02  0.12684055656E+02  0.25150547350E+02  0.38847614499E+02  0.47000000000E+01 0. -1.
          1    1    1    2  502    0 -0.15587987847E+03  0.71839880795E+02 -0.20000243444E+04  0.20073756209E+04  0.00000000000E+00 0. -1.
          1    1    1    2  503    0  0.22692515355E+02  0.37915438550E+02  0.68256381865E+03  0.68399261492E+03  0.00000000000E+00 0. -1.
<mgrwt>
<rscale>  0 0.87718450E+02</rscale>
<asrwt>0</asrwt>
<pdfrwt beam="1">  1        2 0.17325413E+00 0.44187450E+02</pdfrwt>
<pdfrwt beam="2">  1        2 0.43042509E+00 0.17413375E+03</pdfrwt>
<totfact> 0.11177923E+01</totfact>
</mgrwt>
</event>
<event>
13    1  0.2038932E-008  0.1804788E+03  0.7546771E-02  0.1255391E+00
         -3   -1    0    0    0  501  0.00000000000E+00  0.00000000000E+00  0.16885296129E+04  0.16885296129E+04  0.00000000000E+00 0.  1.
         -3   -1    0    0    0  502 -0.00000000000E+00 -0.00000000000E+00 -0.61134333237E+03  0.61134333237E+03  0.00000000000E+00 0.  1.
         24    2    1    2    0    0  0.19397114724E+03 -0.69373912777E+01 -0.17798482520E+03  0.27581731710E+03  0.81997933217E+02 0.  0.
         25    2    1    2    0    0 -0.24706965955E+03 -0.23105394304E+03  0.68497521013E+03  0.77410975542E+03  0.12500213468E+03 0.  0.
         24    2    1    2    0    0  0.21599280097E+02 -0.85382381282E+01  0.14775026425E+02  0.84056470583E+02  0.79421397809E+02 0.  0.
        -11    1    5    5    0    0  0.46831051210E+02  0.13108482163E+02  0.27681032085E+01  0.48709773736E+02  0.00000000000E+00 0.  1.
         12    1    5    5    0    0 -0.25231771113E+02 -0.21646720291E+02  0.12006923216E+02  0.35346696847E+02  0.00000000000E+00 0. -1.
        -13    1    3    3    0    0  0.34773047965E+02 -0.30374836495E+02 -0.20015651567E+02  0.50323174229E+02  0.00000000000E+00 0.  1.
         14    1    3    3    0    0  0.15919809928E+03  0.23437445217E+02 -0.15796917364E+03  0.22549414287E+03  0.00000000000E+00 0. -1.
          5    1    4    4  503    0 -0.23804956845E+03 -0.15581488023E+03  0.53115309296E+03  0.60257080257E+03  0.47000000000E+01 0. -1.
         -5    1    4    4    0  503 -0.90200911038E+01 -0.75239062808E+02  0.15382211717E+03  0.17153895285E+03  0.47000000000E+01 0. -1.
         -4    1    1    2    0  502  0.28761695708E+02  0.17602623151E+03 -0.27755911915E+03  0.32992655841E+03  0.00000000000E+00 0.  1.
         -4    1    1    2    0  501  0.27375365059E+01  0.70503340938E+02  0.83297998836E+03  0.83596284379E+03  0.00000000000E+00 0.  1.
<mgrwt>
<rscale>  0 0.11284479E+03</rscale>
<asrwt>0</asrwt>
<pdfrwt beam="1">  1       -3 0.24831318E+00 0.70556468E+02</pdfrwt>
<pdfrwt beam="2">  1       -3 0.89903432E-01 0.18047879E+03</pdfrwt>
<totfact> 0.25267495E-01</totfact>
</mgrwt>
</event>
<event>
13    1  0.2038932E-008  0.1276302E+03  0.7546771E-02  0.1298245E+00
          2   -1    0    0  503    0  0.00000000000E+00  0.00000000000E+00  0.61272276387E+03  0.61272276387E+03  0.00000000000E+00 0. -1.
          2   -1    0    0  502    0 -0.00000000000E+00 -0.00000000000E+00 -0.98876594058E+03  0.98876594058E+03  0.00000000000E+00 0. -1.
         24    2    1    2    0    0 -0.51899940713E+02  0.25778756597E+02 -0.36957725511E+03  0.38231426733E+03  0.78858755832E+02 0.  0.
         25    2    1    2    0    0 -0.14685690646E+03  0.13240365079E+03  0.24794580607E+03  0.34088086724E+03  0.12499986075E+03 0.  0.
         24    2    1    2    0    0  0.55474472628E+00 -0.64122640822E+01 -0.92555313549E+02  0.12372665941E+03  0.81855820256E+02 0.  0.
        -11    1    5    5    0    0 -0.35388965166E+02  0.30477017192E+01 -0.74221598997E+02  0.82283127669E+02  0.00000000000E+00 0.  1.
         12    1    5    5    0    0  0.35943709892E+02 -0.94599658014E+01 -0.18333714552E+02  0.41443531739E+02  0.00000000000E+00 0. -1.
        -11    1    3    3    0    0 -0.48131348247E+02 -0.18839897001E+02 -0.16554991666E+03  0.17343109095E+03  0.00000000000E+00 0.  1.
         12    1    3    3    0    0 -0.37685924666E+01  0.44618653598E+02 -0.20402733845E+03  0.20888317637E+03  0.00000000000E+00 0. -1.
          5    1    4    4  501    0  0.22672365425E+02  0.17821702776E+02  0.29017806290E+02  0.41179756261E+02  0.47000000000E+01 0.  1.
         -5    1    4    4    0  501 -0.16952927188E+03  0.11458194801E+03  0.21892799978E+03  0.29970111098E+03  0.47000000000E+01 0.  1.
          1    1    1    2  502    0  0.17470968588E+03 -0.89862378251E+02 -0.43298323249E+03  0.47547155644E+03  0.00000000000E+00 0. -1.
          1    1    1    2  503    0  0.23492416558E+02 -0.61907765052E+02  0.27112681837E+03  0.27909535404E+03  0.00000000000E+00 0. -1.
<mgrwt>
<rscale>  0 0.91929703E+02</rscale>
<asrwt>0</asrwt>
<pdfrwt beam="1">  1        2 0.90106291E-01 0.66215293E+02</pdfrwt>
<pdfrwt beam="2">  1        2 0.14540675E+00 0.12763019E+03</pdfrwt>
<totfact> 0.24535755E+02</totfact>
</mgrwt>
</event>
<event>
13    1  0.2038932E-008  0.9437853E+02  0.7546771E-02  0.1332031E+00
          2   -1    0    0  503    0  0.00000000000E+00  0.00000000000E+00  0.41411583903E+04  0.41411583903E+04  0.00000000000E+00 0. -1.
         -3   -1    0    0    0  501 -0.00000000000E+00 -0.00000000000E+00 -0.17211767002E+04  0.17211767002E+04  0.00000000000E+00 0.  1.
         24    2    1    2    0    0  0.66361683314E+03  0.22983416486E+03 -0.67946137729E+03  0.97848001989E+03  0.50441466261E+02 0.  0.
         25    2    1    2    0    0 -0.54688906017E+03 -0.33722782135E+03  0.70600792039E+03  0.96274743181E+03  0.12500074470E+03 0.  0.
         24    2    1    2    0    0 -0.88219914620E+02  0.18337098080E+03  0.49576979404E+02  0.22292304911E+03  0.76348798292E+02 0.  0.
        -11    1    3    3    0    0  0.21523686605E+03  0.82317725390E+02 -0.25473479559E+03  0.34350099345E+03  0.00000000000E+00 0.  1.
         12    1    3    3    0    0  0.44837996709E+03  0.14751643947E+03 -0.42472658170E+03  0.63497902643E+03  0.00000000000E+00 0. -1.
        -11    1    5    5    0    0 -0.80505527186E+02  0.12848803892E+03  0.48485203721E+01  0.15170307908E+03  0.00000000000E+00 0.  1.
         12    1    5    5    0    0 -0.77143874337E+01  0.54882941878E+02  0.44728459031E+02  0.71219970023E+02  0.00000000000E+00 0. -1.
          5    1    4    4  502    0 -0.45217286150E+03 -0.24955025493E+03  0.49524139883E+03  0.71555695757E+03  0.47000000000E+01 0.  1.
         -5    1    4    4    0  502 -0.94716198670E+02 -0.87677566418E+02  0.21076652156E+03  0.24719047423E+03  0.47000000000E+01 0.  1.
          1    1    1    2  503    0  0.56361844422E+02 -0.34455234434E+02  0.30173623863E+04  0.30180854181E+04  0.00000000000E+00 0. -1.
         -4    1    1    2    0  501 -0.84869702774E+02 -0.41522089874E+02 -0.67350421883E+03  0.68009917157E+03  0.00000000000E+00 0.  1.
<mgrwt>
<rscale>  0 0.78959305E+02</rscale>
<asrwt>0</asrwt>
<pdfrwt beam="1">  1        2 0.60899388E+00 0.66059221E+02</pdfrwt>
<pdfrwt beam="2">  1       -3 0.25311422E+00 0.94378526E+02</pdfrwt>
<totfact> 0.33308208E-02</totfact>
</mgrwt>
</event>
<event>
13    1  0.2038932E-008  0.8979297E+02  0.7546771E-02  0.1476633E+00
          2   -1    0    0  503    0  0.00000000000E+00  0.00000000000E+00  0.83103611448E+03  0.83103611448E+03  0.00000000000E+00 0. -1.
          2   -1    0    0  502    0 -0.00000000000E+00 -0.00000000000E+00 -0.29754175679E+04  0.29754175679E+04  0.00000000000E+00 0. -1.
         24    2    1    2    0    0 -0.15279260114E+03 -0.14479326081E+02 -0.84682784156E+03  0.86452378318E+03  0.82028949690E+02 0.  0.
         25    2    1    2    0    0  0.24105365393E+03  0.34263305886E+02  0.66152945113E+03  0.71590626840E+03  0.12497892711E+03 0.  0.
         24    2    1    2    0    0 -0.15092641148E+03 -0.11216092767E+03 -0.24599412413E+03  0.32037372168E+03  0.82263947501E+02 0.  0.
        -11    1    5    5    0    0  0.90564926486E+01 -0.14120389221E+02 -0.13014487586E+02  0.21231635311E+02  0.00000000000E+00 0.  1.
         12    1    5    5    0    0 -0.15998290413E+03 -0.98040538451E+02 -0.23297963655E+03  0.29914208637E+03  0.00000000000E+00 0. -1.
        -13    1    3    3    0    0 -0.16611582255E+02 -0.10891421897E+02 -0.27362779828E+02  0.33812563580E+02  0.00000000000E+00 0.  1.
         14    1    3    3    0    0 -0.13618101889E+03 -0.35879041843E+01 -0.81946506173E+03  0.83071121960E+03  0.00000000000E+00 0. -1.
          5    1    4    4  501    0  0.11518070273E+03 -0.44978125598E+02  0.26828351915E+03  0.29544502486E+03  0.47000000000E+01 0.  1.
         -5    1    4    4    0  501  0.12587295120E+03  0.79241431484E+02  0.39324593198E+03  0.42046124355E+03  0.47000000000E+01 0.  1.
          1    1    1    2  502    0  0.47563481401E+02  0.76122074242E+02 -0.18069621871E+04  0.18091902058E+04  0.00000000000E+00 0. -1.
          1    1    1    2  503    0  0.15101877295E+02  0.16254873625E+02  0.93873248307E+02  0.96459703307E+02  0.00000000000E+00 0. -1.
<mgrwt>
<rscale>  0 0.44635036E+02</rscale>
<asrwt>0</asrwt>
<pdfrwt beam="1">  1        2 0.12221119E+00 0.22187555E+02</pdfrwt>
<pdfrwt beam="2">  1        2 0.43756141E+00 0.89792969E+02</pdfrwt>
<totfact> 0.18563061E+01</totfact>
</mgrwt>
</event>
<event>
13    1  0.2038932E-008  0.1345321E+03  0.7546771E-02  0.1241870E+00
         -3   -1    0    0    0  501 -0.00000000000E+00  0.00000000000E+00  0.17229603099E+04  0.17229603099E+04  0.00000000000E+00 0.  1.
          2   -1    0    0  503    0  0.00000000000E+00 -0.00000000000E+00 -0.45513467003E+04  0.45513467003E+04  0.00000000000E+00 0. -1.
         24    2    1    2    0    0  0.28671715114E+02 -0.10451355723E+01  0.66433913777E+02  0.10659418829E+03  0.78266828995E+02 0.  0.
         25    2    1    2    0    0 -0.90332176863E+01 -0.23332501021E+03 -0.38699732066E+03  0.46894457336E+03  0.12497970741E+03 0.  0.
         24    2    1    2    0    0 -0.12359367327E+02  0.43554908772E+02  0.57220195977E+02  0.10956983203E+03  0.81741135447E+02 0.  0.
        -13    1    3    3    0    0  0.47691941142E+02 -0.97166955386E+01  0.70131422074E+02  0.85365987279E+02  0.00000000000E+00 0.  1.
         14    1    3    3    0    0 -0.19020226028E+02  0.86715599663E+01 -0.36975082965E+01  0.21228201008E+02  0.00000000000E+00 0. -1.
        -13    1    5    5    0    0 -0.19113535533E+02 -0.13670335372E+02 -0.57723772657E+01  0.24197637262E+02  0.00000000000E+00 0.  1.
         14    1    5    5    0    0  0.67541682058E+01  0.57225244145E+02  0.62992573242E+02  0.85372194766E+02  0.00000000000E+00 0. -1.
          5    1    4    4  502    0 -0.45982618058E+02 -0.19087161631E+03 -0.23190249008E+03  0.30388687037E+03  0.47000000000E+01 0. -1.
         -5    1    4    4    0  502  0.36949400372E+02 -0.42453393901E+02 -0.15509483058E+03  0.16505770298E+03  0.47000000000E+01 0. -1.
          1    1    1    2  503    0 -0.80791708753E+02  0.90741680200E+02 -0.40736642936E+04  0.40754756936E+04  0.00000000000E+00 0. -1.
         -4    1    1    2    0  501  0.73512578653E+02  0.10007355681E+03  0.15086211141E+04  0.15137227229E+04  0.00000000000E+00 0.  1.
<mgrwt>
<rscale>  0 0.12074712E+03</rscale>
<asrwt>0</asrwt>
<pdfrwt beam="2">  1        2 0.66931569E+00 0.13453214E+03</pdfrwt>
<pdfrwt beam="1">  1       -3 0.25337652E+00 0.10837460E+03</pdfrwt>
<totfact> 0.13790810E-02</totfact>
</mgrwt>
</event>
<event>
13    1  0.2038932E-008  0.1002399E+03  0.7546771E-02  0.1357630E+00
          2   -1    0    0  503    0  0.00000000000E+00  0.00000000000E+00  0.13703795318E+04  0.13703795318E+04  0.00000000000E+00 0. -1.
          2   -1    0    0  502    0 -0.00000000000E+00 -0.00000000000E+00 -0.46139729084E+04  0.46139729084E+04  0.00000000000E+00 0. -1.
         24    2    1    2    0    0 -0.87262547169E+02  0.72609600325E+02 -0.20092927858E+04  0.20141430004E+04  0.81410199884E+02 0.  0.
         25    2    1    2    0    0  0.16641677540E+03  0.11368981606E+03  0.25311769649E+03  0.34686463773E+03  0.12500636474E+03 0.  0.
         24    2    1    2    0    0  0.11617608754E+02 -0.11125177174E+03  0.61572278738E+01  0.13710828894E+03  0.79049641938E+02 0.  0.
        -11    1    3    3    0    0 -0.16098027563E+02  0.10951627166E+02 -0.72686921641E+02  0.75249406686E+02  0.00000000000E+00 0.  1.
         12    1    3    3    0    0 -0.71164519606E+02  0.61657973159E+02 -0.19366058642E+04  0.19388935937E+04  0.00000000000E+00 0. -1.
        -11    1    5    5    0    0 -0.29528600754E+02 -0.17018723588E+02 -0.27216381596E+00  0.34082976516E+02  0.00000000000E+00 0.  1.
         12    1    5    5    0    0  0.41146209508E+02 -0.94233048155E+02  0.64293916898E+01  0.10302531242E+03  0.00000000000E+00 0. -1.
          5    1    4    4  501    0  0.87531322884E+01 -0.57654621584E+01 -0.11631485381E+02  0.16347456405E+02  0.47000000000E+01 0.  1.
         -5    1    4    4    0  501  0.15766364311E+03  0.11945527821E+03  0.26474918187E+03  0.33051718133E+03  0.47000000000E+01 0.  1.
          1    1    1    2  502    0 -0.96918085554E+02 -0.25520573591E+02 -0.24882716437E+04  0.24902891775E+04  0.00000000000E+00 0. -1.
          1    1    1    2  503    0  0.61462485666E+01 -0.49527071046E+02  0.99469612852E+03  0.99594733557E+03  0.00000000000E+00 0. -1.
<mgrwt>
<rscale>  0 0.70729547E+02</rscale>
<asrwt>0</asrwt>
<pdfrwt beam="1">  1        2 0.20152641E+00 0.49906985E+02</pdfrwt>
<pdfrwt beam="2">  1        2 0.67852541E+00 0.10023985E+03</pdfrwt>
<totfact> 0.78734916E-01</totfact>
</mgrwt>
</event>
<event>
13    1  0.2038932E-008  0.1595965E+03  0.7546771E-02  0.1289178E+00
          2   -1    0    0  503    0  0.00000000000E+00  0.00000000000E+00  0.26239107413E+04  0.26239107413E+04  0.00000000000E+00 0. -1.
          2   -1    0    0  502    0 -0.00000000000E+00 -0.00000000000E+00 -0.62178483705E+03  0.62178483705E+03  0.00000000000E+00 0. -1.
         24    2    1    2    0    0  0.69232815565E+02 -0.18134144643E+02 -0.36473697502E+02  0.11300154947E+03  0.79479491823E+02 0.  0.
         25    2    1    2    0    0 -0.10956065127E+03 -0.94072747808E+02  0.15885714184E+04  0.16000120622E+04  0.12500491801E+03 0.  0.
         24    2    1    2    0    0 -0.10149896275E+03  0.22147286887E+02  0.15467349441E+03  0.20335661154E+03  0.81470729903E+02 0.  0.
        -11    1    5    5    0    0 -0.94150232218E+02 -0.11834813913E+02  0.12897934477E+03  0.16012495253E+03  0.00000000000E+00 0.  1.
         12    1    5    5    0    0 -0.73487305321E+01  0.33982100800E+02  0.25694149641E+02  0.43231659013E+02  0.00000000000E+00 0. -1.
        -13    1    3    3    0    0 -0.80036238200E+01 -0.15205547838E+02  0.12722953929E+02  0.21380838056E+02  0.00000000000E+00 0.  1.
         14    1    3    3    0    0  0.77236439385E+02 -0.29285968052E+01 -0.49196651432E+02  0.91620711416E+02  0.00000000000E+00 0. -1.
          5    1    4    4  501    0  0.61207216367E+01  0.23978207134E+02  0.25039943678E+03  0.25166323845E+03  0.47000000000E+01 0. -1.
         -5    1    4    4    0  501 -0.11568137291E+03 -0.11805095494E+03  0.13381719816E+04  0.13483488237E+04  0.47000000000E+01 0. -1.
          1    1    1    2  502    0  0.13796213791E+03  0.14754663781E+03 -0.49616666588E+03  0.53570973685E+03  0.00000000000E+00 0. -1.
          1    1    1    2  503    0  0.38646605487E+01 -0.57487032250E+02  0.79152135485E+03  0.79361561833E+03  0.00000000000E+00 0. -1.
<mgrwt>
<rscale>  0 0.95892836E+02</rscale>
<asrwt>0</asrwt>
<pdfrwt beam="1">  1        2 0.38586922E+00 0.57616790E+02</pdfrwt>
<pdfrwt beam="2">  1        2 0.91438948E-01 0.15959647E+03</pdfrwt>
<totfact> 0.39344426E+01</totfact>
</mgrwt>
</event>
<event>
13    1  0.2038932E-008  0.2618133E+03  0.7546771E-02  0.1211703E+00
          2   -1    0    0  503    0  0.00000000000E+00  0.00000000000E+00  0.10670778587E+04  0.10670778587E+04  0.00000000000E+00 0. -1.
          2   -1    0    0  502    0 -0.00000000000E+00 -0.00000000000E+00 -0.22555594896E+04  0.22555594896E+04  0.00000000000E+00 0. -1.
         24    2    1    2    0    0 -0.64101971790E+02 -0.12524334373E+03 -0.37220233445E+03  0.40595530172E+03  0.80437374958E+02 0.  0.
         25    2    1    2    0    0 -0.14323375835E+03  0.52973492420E+03  0.26385977268E+02  0.56343416893E+03  0.12500737369E+03 0.  0.
         24    2    1    2    0    0  0.38315946569E+02 -0.14954919417E+03 -0.33962326481E+03  0.38172601222E+03  0.80856126314E+02 0.  0.
        -13    1    3    3    0    0 -0.14442293253E+02  0.18354527856E+01 -0.10430234135E+03  0.10531347080E+03  0.00000000000E+00 0.  1.
         14    1    3    3    0    0 -0.49659678537E+02 -0.12707879651E+03 -0.26789999310E+03  0.30064183092E+03  0.00000000000E+00 0. -1.
        -13    1    5    5    0    0 -0.98835289859E+01 -0.11057474711E+03 -0.19515743343E+03  0.22452367952E+03  0.00000000000E+00 0.  1.
         14    1    5    5    0    0  0.48199475555E+02 -0.38974447063E+02 -0.14446583138E+03  0.15720233270E+03  0.00000000000E+00 0. -1.
          5    1    4    4  501    0  0.20050278807E+02  0.55722202105E+02  0.17708316573E+02  0.61989127785E+02  0.47000000000E+01 0. -1.
         -5    1    4    4    0  501 -0.16328403716E+03  0.47401272209E+03  0.86776606942E+01  0.50144504115E+03  0.47000000000E+01 0. -1.
          1    1    1    2  502    0  0.24431085653E+03 -0.26646786050E+03 -0.12087816740E+04  0.12616838156E+04  0.00000000000E+00 0. -1.
          1    1    1    2  503    0 -0.75291072956E+02  0.11525474203E+02  0.70573966500E+03  0.70983804982E+03  0.00000000000E+00 0. -1.
<mgrwt>
<rscale>  0 0.14121553E+03</rscale>
<asrwt>0</asrwt>
<pdfrwt beam="1">  1        2 0.15692322E+00 0.76168118E+02</pdfrwt>
<pdfrwt beam="2">  1        2 0.33169992E+00 0.26181328E+03</pdfrwt>
<totfact> 0.26337315E+01</totfact>
</mgrwt>
</event>
<event>
13    1  0.2038932E-008  0.5030850E+02  0.7546771E-02  0.1514400E+00
          2   -1    0    0  503    0  0.00000000000E+00  0.00000000000E+00  0.24585050636E+04  0.24585050636E+04  0.00000000000E+00 0. -1.
          2   -1    0    0  502    0 -0.00000000000E+00 -0.00000000000E+00 -0.19613355136E+04  0.19613355136E+04  0.00000000000E+00 0. -1.
         24    2    1    2    0    0 -0.15385909161E+03  0.28822278907E+03 -0.48605562019E+03  0.59118657591E+03  0.80662912199E+02 0.  0.
         25    2    1    2    0    0 -0.65944272732E+02 -0.22452189289E+03 -0.22342326861E+03  0.34684290362E+03  0.12499326121E+03 0.  0.
         24    2    1    2    0    0  0.25830308805E+03 -0.11168845099E+03 -0.84833552803E+02  0.31281404919E+03  0.10705653792E+03 0.  0.
        -13    1    5    5    0    0  0.12200871645E+03 -0.12142386286E+02 -0.75043645893E+02  0.14375365464E+03  0.00000000000E+00 0.  1.
         14    1    5    5    0    0  0.13629437160E+03 -0.99546064704E+02 -0.97899069108E+01  0.16906039455E+03  0.00000000000E+00 0. -1.
        -13    1    3    3    0    0 -0.10708567565E+03  0.11515529706E+03 -0.22752737132E+03  0.27658052909E+03  0.00000000000E+00 0.  1.
         14    1    3    3    0    0 -0.46773415957E+02  0.17306749201E+03 -0.25852824887E+03  0.31460604682E+03  0.00000000000E+00 0. -1.
          5    1    4    4  501    0 -0.94547273896E+02 -0.11971341265E+03 -0.10056799772E+03  0.18277445209E+03  0.47000000000E+01 0.  1.
         -5    1    4    4    0  501  0.28603001165E+02 -0.10480848023E+03 -0.12285527089E+03  0.16406845154E+03  0.47000000000E+01 0.  1.
          1    1    1    2  502    0 -0.46726206865E+02  0.18618340057E+02 -0.93797939002E+03  0.93932705544E+03  0.00000000000E+00 0. -1.
          1    1    1    2  503    0  0.82264831607E+01  0.29369214749E+02  0.22294613816E+04  0.22296699930E+04  0.00000000000E+00 0. -1.
<mgrwt>
<rscale>  0 0.39171281E+02</rscale>
<asrwt>0</asrwt>
<pdfrwt beam="1">  1        2 0.36154486E+00 0.30499603E+02</pdfrwt>
<pdfrwt beam="2">  1        2 0.28843169E+00 0.50308499E+02</pdfrwt>
<totfact> 0.10338352E+01</totfact>
</mgrwt>
</event>
<event>
13    1  0.2038932E-008  0.2879402E+02  0.7546771E-02  0.1637303E+00
          2   -1    0    0  503    0  0.00000000000E+00  0.00000000000E+00  0.25302968627E+04  0.25302968627E+04  0.00000000000E+00 0. -1.
         -3   -1    0    0    0  501 -0.00000000000E+00 -0.00000000000E+00 -0.14023959919E+03  0.14023959919E+03  0.00000000000E+00 0.  1.
         24    2    1    2    0    0  0.46984136720E+02 -0.31746518308E+02 -0.10145817295E+02  0.98113578368E+02  0.79422831249E+02 0.  0.
         25    2    1    2    0    0  0.98912081796E+02  0.60270303645E+02  0.17413689000E+04  0.17496878925E+04  0.12500386310E+03 0.  0.
         24    2    1    2    0    0 -0.19618461532E+03 -0.26133549040E+02  0.19676992304E+03  0.29077535043E+03  0.81612107750E+02 0.  0.
        -13    1    5    5    0    0 -0.20272422994E+03 -0.31865494266E+02  0.19095117107E+03  0.28031209903E+03  0.00000000000E+00 0.  1.
         14    1    5    5    0    0  0.65396146176E+01  0.57319452261E+01  0.58187519679E+01  0.10463251401E+02  0.00000000000E+00 0. -1.
        -13    1    3    3    0    0  0.67755394165E+02 -0.25415081876E+02 -0.18752338685E+02  0.74755401352E+02  0.00000000000E+00 0.  1.
         14    1    3    3    0    0 -0.20771257444E+02 -0.63314364316E+01  0.86065213899E+01  0.23358177016E+02  0.00000000000E+00 0. -1.
          5    1    4    4  502    0  0.58727242330E+02  0.92854581600E+02  0.14088842286E+04  0.14131693890E+04  0.47000000000E+01 0.  1.
         -5    1    4    4    0  502  0.40184839467E+02 -0.32584277955E+02  0.33248467138E+03  0.33651850350E+03  0.47000000000E+01 0.  1.
          1    1    1    2  503    0  0.23493401986E+02  0.79983965902E+01  0.49073680591E+03  0.49136394552E+03  0.00000000000E+00 0. -1.
         -4    1    1    2    0  501  0.26794994819E+02 -0.10388632887E+02 -0.28672548152E+02  0.40595695069E+02  0.00000000000E+00 0.  1.
<mgrwt>
<rscale>  0 0.26731985E+02</rscale>
<asrwt>0</asrwt>
<pdfrwt beam="1">  1        2 0.37210245E+00 0.24817620E+02</pdfrwt>
<pdfrwt beam="2">  1       -3 0.20623472E-01 0.28794018E+02</pdfrwt>
<totfact> 0.66295961E+01</totfact>
</mgrwt>
</event>
<event>
13    1  0.2038932E-008  0.1439016E+03  0.7546771E-02  0.1249172E+00
          2   -1    0    0  503    0  0.00000000000E+00  0.00000000000E+00  0.39384458825E+04  0.39384458825E+04  0.00000000000E+00 0. -1.
          2   -1    0    0  502    0 -0.00000000000E+00 -0.00000000000E+00 -0.20488163885E+04  0.20488163885E+04  0.00000000000E+00 0. -1.
         24    2    1    2    0    0  0.57363730514E+03 -0.40947655593E+03 -0.24722383628E+03  0.75282600822E+03  0.94321607930E+02 0.  0.
         25    2    1    2    0    0 -0.36057290552E+03  0.31953096233E+03  0.47815946452E+03  0.69019913446E+03  0.12500206246E+03 0.  0.
         24    2    1    2    0    0 -0.53456205746E+02  0.10921654087E+03 -0.35748821981E+03  0.38567190375E+03  0.78480388070E+02 0.  0.
        -13    1    5    5    0    0 -0.22356404410E+01  0.11755106028E+02 -0.15265409135E+03  0.15312234393E+03  0.00000000000E+00 0.  1.
         14    1    5    5    0    0 -0.51220565305E+02  0.97461434841E+02 -0.20483412846E+03  0.23254955982E+03  0.00000000000E+00 0. -1.
        -13    1    3    3    0    0  0.26199116438E+02 -0.35838036415E+02  0.27077612541E+01  0.44475729643E+02  0.00000000000E+00 0.  1.
         14    1    3    3    0    0  0.54743818870E+03 -0.37363851951E+03 -0.24993159753E+03  0.70835027857E+03  0.00000000000E+00 0. -1.
          5    1    4    4  501    0 -0.12661491043E+03  0.12828051467E+03  0.10022068436E+03  0.20628500081E+03  0.47000000000E+01 0.  1.
         -5    1    4    4    0  501 -0.23395799508E+03  0.19125044766E+03  0.37793878016E+03  0.48391413365E+03  0.47000000000E+01 0.  1.
          1    1    1    2  502    0 -0.10643400436E+03 -0.96955458300E+02 -0.10656318298E+04  0.10753137937E+04  0.00000000000E+00 0. -1.
          1    1    1    2  503    0 -0.53174189517E+02  0.77684511030E+02  0.30818139153E+04  0.30832514309E+04  0.00000000000E+00 0. -1.
<mgrwt>
<rscale>  0 0.11639125E+03</rscale>
<asrwt>0</asrwt>
<pdfrwt beam="1">  1        2 0.57918322E+00 0.94140202E+02</pdfrwt>
<pdfrwt beam="2">  1        2 0.30129653E+00 0.14390157E+03</pdfrwt>
<totfact> 0.10692045E+00</totfact>
</mgrwt>
</event>
<event>
13    1  0.2038932E-008  0.8695307E+02  0.7546771E-02  0.1368519E+00
          2   -1    0    0  503    0  0.00000000000E+00  0.00000000000E+00  0.79838290661E+03  0.79838290661E+03  0.00000000000E+00 0. -1.
          2   -1    0    0  502    0 -0.00000000000E+00 -0.00000000000E+00 -0.73283888218E+03  0.73283888218E+03  0.00000000000E+00 0. -1.
         24    2    1    2    0    0 -0.10803059566E+01  0.28511039853E+01 -0.18010715378E+03  0.19732357356E+03  0.80552529341E+02 0.  0.
         25    2    1    2    0    0  0.10126235037E+03  0.57268193483E+02  0.16458733061E+02  0.17154955578E+03  0.12499860243E+03 0.  0.
         24    2    1    2    0    0 -0.31755513115E+02 -0.11965553589E+01 -0.14309754919E+03  0.16750683182E+03  0.81066551450E+02 0.  0.
        -11    1    3    3    0    0 -0.20249044133E+01 -0.29526052487E+02 -0.15068786300E+03  0.15356666327E+03  0.00000000000E+00 0.  1.
         12    1    3    3    0    0  0.94459845669E+00  0.32377156472E+02 -0.29419290780E+02  0.43756910282E+02  0.00000000000E+00 0. -1.
        -11    1    5    5    0    0 -0.49190514443E+02  0.24552113849E+02 -0.78781824309E+02  0.96068146891E+02  0.00000000000E+00 0.  1.
         12    1    5    5    0    0  0.17435001329E+02 -0.25748669208E+02 -0.64315724877E+02  0.71438684925E+02  0.00000000000E+00 0. -1.
          5    1    4    4  501    0  0.10523186543E+03  0.56430548848E+02 -0.31185774718E+02  0.12350220602E+03  0.47000000000E+01 0.  1.
         -5    1    4    4    0  501 -0.39695150618E+01  0.83764463468E+00  0.47644507780E+02  0.48047349770E+02  0.47000000000E+01 0.  1.
          1    1    1    2  502    0 -0.27269835790E+02 -0.91556142989E+02 -0.30290222232E+03  0.31760970947E+03  0.00000000000E+00 0. -1.
          1    1    1    2  503    0 -0.41156695510E+02  0.32633400880E+02  0.67519221665E+03  0.67723211816E+03  0.00000000000E+00 0. -1.
<mgrwt>
<rscale>  0 0.67580751E+02</rscale>
<asrwt>0</asrwt>
<pdfrwt beam="1">  1        2 0.11740925E+00 0.52524399E+02</pdfrwt>
<pdfrwt beam="2">  1        2 0.10777042E+00 0.86953074E+02</pdfrwt>
<totfact> 0.26954593E+02</totfact>
</mgrwt>
</event>
<event>
13    1  0.2038932E-008  0.1714823E+03  0.7546771E-02  0.1280625E+00
          2   -1    0    0  503    0  0.00000000000E+00  0.00000000000E+00  0.13900611587E+04  0.13900611587E+04  0.00000000000E+00 0. -1.
          2   -1    0    0  502    0 -0.00000000000E+00 -0.00000000000E+00 -0.81060683748E+03  0.81060683748E+03  0.00000000000E+00 0. -1.
         24    2    1    2    0    0  0.35489345206E+03  0.41847091985E+03 -0.25689963222E+03  0.61152985290E+03  0.83090714708E+02 0.  0.
         25    2    1    2    0    0 -0.22581935501E+03 -0.41577873470E+03  0.13615771401E+03  0.50796447885E+03  0.12499060512E+03 0.  0.
         24    2    1    2    0    0  0.28619035433E+01 -0.75339193576E+02 -0.68893386310E+02  0.13001674720E+03  0.80460370951E+02 0.  0.
        -11    1    5    5    0    0 -0.14535297730E+02  0.95875243741E+01 -0.30681929212E+02  0.35278552747E+02  0.00000000000E+00 0.  1.
         12    1    5    5    0    0  0.17397201273E+02 -0.84926717950E+02 -0.38211457098E+02  0.94738194449E+02  0.00000000000E+00 0. -1.
        -13    1    3    3    0    0  0.62399279364E+02  0.68650021953E+02 -0.79747487341E+02  0.12233624694E+03  0.00000000000E+00 0.  1.
         14    1    3    3    0    0  0.29249417270E+03  0.34982089790E+03 -0.17715214488E+03  0.48919360595E+03  0.00000000000E+00 0. -1.
          5    1    4    4  501    0 -0.42655471173E+01 -0.19211202801E+02 -0.19157822217E+02  0.27863548901E+02  0.47000000000E+01 0. -1.
         -5    1    4    4    0  501 -0.22155380789E+03 -0.39656753189E+03  0.15531553623E+03  0.48010092995E+03  0.47000000000E+01 0. -1.
          1    1    1    2  502    0  0.37800198137E+02  0.44165581065E+02 -0.72056823115E+02  0.92583147967E+02  0.00000000000E+00 0. -1.
          1    1    1    2  503    0 -0.16973619874E+03  0.28481427354E+02  0.84114644882E+03  0.85857376924E+03  0.00000000000E+00 0. -1.
<mgrwt>
<rscale>  0 0.99843848E+02</rscale>
<asrwt>0</asrwt>
<pdfrwt beam="1">  1        2 0.20442076E+00 0.17148233E+03</pdfrwt>
<pdfrwt beam="2">  1        2 0.11920689E+00 0.58133067E+02</pdfrwt>
<totfact> 0.10649518E+02</totfact>
</mgrwt>
</event>
<event>
13    1  0.2038932E-008  0.7984517E+02  0.7546771E-02  0.1414992E+00
          2   -1    0    0  502    0  0.00000000000E+00  0.00000000000E+00  0.18979897730E+04  0.18979897730E+04  0.00000000000E+00 0. -1.
          2   -1    0    0  503    0 -0.00000000000E+00 -0.00000000000E+00 -0.62426898235E+03  0.62426898235E+03  0.00000000000E+00 0. -1.
         24    2    1    2    0    0 -0.49452799491E+01  0.10454000305E+02 -0.16189647810E+02  0.82057999147E+02  0.79609475640E+02 0.  0.
         25    2    1    2    0    0  0.10852385888E+03  0.46346677779E+02  0.35283995515E+03  0.39248570622E+03  0.12499421248E+03 0.  0.
         24    2    1    2    0    0 -0.87689524538E+01 -0.35784775765E+00  0.17656512585E+03  0.19388609396E+03  0.79621298552E+02 0.  0.
        -11    1    5    5    0    0  0.16965139113E+02 -0.33060973563E+02  0.10101755725E+03  0.10763545323E+03  0.00000000000E+00 0.  1.
         12    1    5    5    0    0 -0.25734091567E+02  0.32703125805E+02  0.75547568601E+02  0.86250640738E+02  0.00000000000E+00 0. -1.
        -13    1    3    3    0    0 -0.29542588673E+02 -0.16779094659E+02 -0.27443313356E+02  0.43674225935E+02  0.00000000000E+00 0.  1.
         14    1    3    3    0    0  0.24597308724E+02  0.27233094964E+02  0.11253665546E+02  0.38383773212E+02  0.00000000000E+00 0. -1.
          5    1    4    4  501    0  0.11804176750E+03  0.63708513851E+02  0.34582995043E+03  0.37096236767E+03  0.47000000000E+01 0.  1.
         -5    1    4    4    0  501 -0.95179086222E+01 -0.17361836072E+02  0.70100047162E+01  0.21523338553E+02  0.47000000000E+01 0.  1.
          1    1    1    2  502    0 -0.39350163692E+02  0.21493585621E+01  0.13038912193E+04  0.13044866296E+04  0.00000000000E+00 0. -1.
          1    1    1    2  503    0 -0.55459462782E+02 -0.58592188888E+02 -0.54338586188E+03  0.54934232634E+03  0.00000000000E+00 0. -1.
<mgrwt>
<rscale>  0 0.56094600E+02</rscale>
<asrwt>0</asrwt>
<pdfrwt beam="1">  1        2 0.27911614E+00 0.39408820E+02</pdfrwt>
<pdfrwt beam="2">  1        2 0.91804263E-01 0.79845173E+02</pdfrwt>
<totfact> 0.91826899E+01</totfact>
</mgrwt>
</event>
<event>
13    1  0.2038932E-008  0.1310609E+03  0.7546771E-02  0.1339872E+00
          2   -1    0    0  502    0  0.00000000000E+00  0.00000000000E+00  0.16621872151E+04  0.16621872151E+04  0.00000000000E+00 0. -1.
          2   -1    0    0  503    0 -0.00000000000E+00 -0.00000000000E+00 -0.53466723535E+03  0.53466723535E+03  0.00000000000E+00 0. -1.
         24    2    1    2    0    0  0.47414249982E+01 -0.21983273169E+02 -0.14735709859E+03  0.16856487286E+03  0.78703598709E+02 0.  0.
         25    2    1    2    0    0  0.18642564670E+03 -0.98707362167E+02 -0.17317341118E+03  0.30019237050E+03  0.12501505461E+03 0.  0.
         24    2    1    2    0    0 -0.11564719008E+02 -0.53755947928E+02  0.12550766996E+03  0.15897008863E+03  0.80596955258E+02 0.  0.
        -11    1    5    5    0    0  0.34066436341E+01  0.20607542382E+02  0.36215102290E+02  0.41806813533E+02  0.00000000000E+00 0.  1.
         12    1    5    5    0    0 -0.14971362642E+02 -0.74363490310E+02  0.89292567671E+02  0.11716327510E+03  0.00000000000E+00 0. -1.
        -13    1    3    3    0    0  0.35182755149E+02 -0.30171813979E+02 -0.11191151337E+03  0.12112948214E+03  0.00000000000E+00 0.  1.
         14    1    3    3    0    0 -0.30441330151E+02  0.81885408099E+01 -0.35445585221E+02  0.47435390729E+02  0.00000000000E+00 0. -1.
          5    1    4    4  501    0  0.12066255040E+03 -0.81394270278E+02 -0.18017571447E+03  0.23166755576E+03  0.47000000000E+01 0. -1.
         -5    1    4    4    0  501  0.65763096292E+02 -0.17313091889E+02  0.70023032965E+01  0.68524814747E+02  0.47000000000E+01 0. -1.
          1    1    1    2  502    0 -0.41417502535E+02  0.16074122329E+02  0.13556282336E+04  0.13563560353E+04  0.00000000000E+00 0. -1.
          1    1    1    2  503    0 -0.13818485015E+03  0.15837246093E+03 -0.33085414018E+02  0.21277108313E+03  0.00000000000E+00 0. -1.
<mgrwt>
<rscale>  0 0.76306526E+02</rscale>
<asrwt>0</asrwt>
<pdfrwt beam="1">  1        2 0.24443930E+00 0.44427322E+02</pdfrwt>
<pdfrwt beam="2">  1        2 0.78627535E-01 0.13106092E+03</pdfrwt>
<totfact> 0.13702593E+02</totfact>
</mgrwt>
</event>
<event>
13    1  0.2038932E-008  0.7167800E+02  0.7546771E-02  0.1367408E+00
          2   -1    0    0  502    0  0.00000000000E+00  0.00000000000E+00  0.21867361556E+04  0.21867361556E+04  0.00000000000E+00 0. -1.
          2   -1    0    0  503    0 -0.00000000000E+00 -0.00000000000E+00 -0.12779860541E+04  0.12779860541E+04  0.00000000000E+00 0. -1.
         24    2    1    2    0    0  0.38832995639E+02  0.33410549579E+03  0.11550222181E+03  0.36461838592E+03  0.80444516574E+02 0.  0.
         25    2    1    2    0    0  0.15024284040E+03 -0.89288028071E+02 -0.73043326396E+03  0.76138844963E+03  0.12503741476E+03 0.  0.
         24    2    1    2    0    0 -0.10987009927E+03 -0.22556893093E+03  0.17131098055E+04  0.17332700698E+04  0.80790765217E+02 0.  0.
        -11    1    5    5    0    0 -0.26812838679E+02 -0.56940298110E+01  0.23438070124E+03  0.23597809942E+03  0.00000000000E+00 0.  1.
         12    1    5    5    0    0 -0.83057260594E+02 -0.21987490112E+03  0.14787291043E+04  0.14972919703E+04  0.00000000000E+00 0. -1.
        -13    1    3    3    0    0  0.38905310885E+02  0.22307852671E+03  0.11413443655E+03  0.25358296847E+03  0.00000000000E+00 0.  1.
         14    1    3    3    0    0 -0.72315245989E-01  0.11102696908E+03  0.13677852604E+01  0.11103541745E+03  0.00000000000E+00 0. -1.
          5    1    4    4  501    0 -0.89764539554E+01 -0.25991492474E+01 -0.19107767221E+01  0.10633596292E+02  0.47000000000E+01 0.  1.
         -5    1    4    4    0  501  0.15921929435E+03 -0.86688878824E+02 -0.72852248723E+03  0.75075485334E+03  0.47000000000E+01 0.  1.
          1    1    1    2  502    0 -0.32870770065E+02 -0.63841844160E+02  0.19908827697E+03  0.21164217589E+03  0.00000000000E+00 0. -1.
          1    1    1    2  503    0 -0.46334966697E+02  0.44593307377E+02 -0.38851693883E+03  0.39380312843E+03  0.00000000000E+00 0. -1.
<mgrwt>
<rscale>  0 0.67892958E+02</rscale>
<asrwt>0</asrwt>
<pdfrwt beam="1">  1        2 0.32157885E+00 0.71677997E+02</pdfrwt>
<pdfrwt beam="2">  1        2 0.18793912E+00 0.64307793E+02</pdfrwt>
<totfact> 0.25726753E+01</totfact>
</mgrwt>
</event>
<event>
13    1  0.2038932E-008  0.8995993E+02  0.7546771E-02  0.1487508E+00
          2   -1    0    0  502    0  0.00000000000E+00  0.00000000000E+00  0.17703725984E+04  0.17703725984E+04  0.00000000000E+00 0. -1.
          2   -1    0    0  503    0 -0.00000000000E+00 -0.00000000000E+00 -0.34032356486E+03  0.34032356486E+03  0.00000000000E+00 0. -1.
         24    2    1    2    0    0  0.11138788464E+03 -0.57178497892E+02 -0.18056107543E+03  0.23449809290E+03  0.81917105335E+02 0.  0.
         25    2    1    2    0    0  0.67505676587E+01 -0.10817515087E+03  0.87062568192E+03  0.88620682121E+03  0.12500407398E+03 0.  0.
         24    2    1    2    0    0 -0.65722749720E+02  0.83560904373E+02  0.63290097014E+02  0.14704525289E+03  0.79465498470E+02 0.  0.
        -11    1    3    3    0    0  0.82217987196E+01  0.17862273387E+02 -0.40664559790E+02  0.45169294965E+02  0.00000000000E+00 0.  1.
         12    1    3    3    0    0  0.10316608592E+03 -0.75040771279E+02 -0.13989651564E+03  0.18932879793E+03  0.00000000000E+00 0. -1.
        -13    1    5    5    0    0 -0.56937560012E+02  0.40191602441E+02  0.73859462732E+02  0.10155033669E+03  0.00000000000E+00 0.  1.
         14    1    5    5    0    0 -0.87851897077E+01  0.43369301932E+02 -0.10569365718E+02  0.45494916199E+02  0.00000000000E+00 0. -1.
          5    1    4    4  501    0  0.63425977942E+02 -0.76433176061E+02  0.56992027621E+03  0.57852925277E+03  0.47000000000E+01 0. -1.
         -5    1    4    4    0  501 -0.56675410283E+02 -0.31741974810E+02  0.30070540571E+03  0.30767756844E+03  0.47000000000E+01 0. -1.
          1    1    1    2  502    0 -0.62950039894E+02  0.64190861617E+02  0.75584856047E+03  0.76117686552E+03  0.00000000000E+00 0. -1.
          1    1    1    2  503    0  0.10534337314E+02  0.17601882771E+02 -0.79154230453E+02  0.81769130718E+02  0.00000000000E+00 0. -1.
<mgrwt>
<rscale>  0 0.42957906E+02</rscale>
<asrwt>0</asrwt>
<pdfrwt beam="1">  1        2 0.26034891E+00 0.89959929E+02</pdfrwt>
<pdfrwt beam="2">  1        2 0.50047584E-01 0.20513375E+02</pdfrwt>
<totfact> 0.18224537E+02</totfact>
</mgrwt>
</event>
<event>
13    1  0.2038932E-008  0.9178760E+02  0.7546771E-02  0.1426850E+00
          2   -1    0    0  502    0  0.00000000000E+00  0.00000000000E+00  0.29380068493E+04  0.29380068493E+04  0.00000000000E+00 0. -1.
          2   -1    0    0  503    0 -0.00000000000E+00 -0.00000000000E+00 -0.12716448583E+04  0.12716448583E+04  0.00000000000E+00 0. -1.
         24    2    1    2    0    0 -0.40020222540E+01  0.41424802426E+02 -0.63711218563E+03  0.64377396241E+03  0.82467855313E+02 0.  0.
         25    2    1    2    0    0  0.21346905016E+02  0.85908716253E+02  0.18783522631E+04  0.18845871751E+04  0.12500239362E+03 0.  0.
         24    2    1    2    0    0  0.15861189417E+02 -0.34924194853E+02  0.17507208162E+03  0.19639406882E+03  0.80306411881E+02 0.  0.
        -11    1    3    3    0    0  0.11058195983E+01 -0.21875728157E+02 -0.76430443429E+02  0.79507125480E+02  0.00000000000E+00 0.  1.
         12    1    3    3    0    0 -0.51078418524E+01  0.63300530583E+02 -0.56068174220E+03  0.56426683692E+03  0.00000000000E+00 0. -1.
        -11    1    5    5    0    0 -0.12650794365E+02 -0.51993556823E+02  0.85589392269E+02  0.10094016355E+03  0.00000000000E+00 0.  1.
         12    1    5    5    0    0  0.28511983782E+02  0.17069361970E+02  0.89482689350E+02  0.95453905266E+02  0.00000000000E+00 0. -1.
          5    1    4    4  501    0 -0.52474184377E+02  0.32505599866E+02  0.74011841886E+03  0.74270284636E+03  0.47000000000E+01 0. -1.
         -5    1    4    4    0  501  0.73821089393E+02  0.53403116387E+02  0.11382338442E+04  0.11418843287E+04  0.47000000000E+01 0. -1.
          1    1    1    2  502    0  0.28458336712E+00  0.31295902495E+02  0.86053516547E+03  0.86110410841E+03  0.00000000000E+00 0. -1.
          1    1    1    2  503    0 -0.33490655546E+02 -0.12370522632E+03 -0.61048533353E+03  0.62379239293E+03  0.00000000000E+00 0. -1.
<mgrwt>
<rscale>  0 0.53597523E+02</rscale>
<asrwt>0</asrwt>
<pdfrwt beam="1">  1        2 0.43205983E+00 0.31297196E+02</pdfrwt>
<pdfrwt beam="2">  1        2 0.18700660E+00 0.91787597E+02</pdfrwt>
<totfact> 0.12356632E+01</totfact>
</mgrwt>
</event>
<event>
13    1  0.2038932E-008  0.9697274E+02  0.7546771E-02  0.1312063E+00
          2   -1    0    0  503    0  0.00000000000E+00  0.00000000000E+00  0.11047498241E+04  0.11047498241E+04  0.00000000000E+00 0. -1.
          2   -1    0    0  502    0 -0.00000000000E+00 -0.00000000000E+00 -0.13956022915E+04  0.13956022915E+04  0.00000000000E+00 0. -1.
         24    2    1    2    0    0 -0.13137185858E+03  0.65712767532E+02 -0.15257657791E+03  0.22572681358E+03  0.78078481025E+02 0.  0.
         25    2    1    2    0    0  0.32460807788E+01  0.63757242444E+02  0.12662024009E+03  0.18903290875E+03  0.12500092954E+03 0.  0.
         24    2    1    2    0    0  0.65099993595E+02  0.87381899667E+01 -0.41784190560E+02  0.11243583799E+03  0.81126653784E+02 0.  0.
        -11    1    5    5    0    0  0.28092479943E+02  0.34042051009E+02  0.86289756582E+01  0.44972301333E+02  0.00000000000E+00 0.  1.
         12    1    5    5    0    0  0.37007513653E+02 -0.25303861043E+02 -0.50413166218E+02  0.67463536659E+02  0.00000000000E+00 0. -1.
        -13    1    3    3    0    0  0.29428312412E+01  0.12921129223E+02 -0.41641698384E+02  0.43699506638E+02  0.00000000000E+00 0.  1.
         14    1    3    3    0    0 -0.13431468983E+03  0.52791638309E+02 -0.11093487952E+03  0.18202730694E+03  0.00000000000E+00 0. -1.
          5    1    4    4  501    0 -0.54090940214E+02  0.26486679182E+01  0.65988025570E+02  0.85494764598E+02  0.47000000000E+01 0.  1.
         -5    1    4    4    0  501  0.57337020993E+02  0.61108574526E+02  0.60632214516E+02  0.10353814415E+03  0.47000000000E+01 0.  1.
          1    1    1    2  502    0 -0.15235998670E+01 -0.96586330564E+02 -0.10943171397E+04  0.10985723658E+04  0.00000000000E+00 0. -1.
          1    1    1    2  503    0  0.64549384078E+02 -0.41621869379E+02  0.87120520061E+03  0.87458418952E+03  0.00000000000E+00 0. -1.
<mgrwt>
<rscale>  0 0.86301729E+02</rscale>
<asrwt>0</asrwt>
<pdfrwt beam="1">  1        2 0.16246321E+00 0.76804967E+02</pdfrwt>
<pdfrwt beam="2">  1        2 0.20523563E+00 0.96972744E+02</pdfrwt>
<totfact> 0.73339331E+01</totfact>
</mgrwt>
</event>
<event>
13    1  0.2038932E-008  0.4996247E+02  0.7546771E-02  0.1469268E+00
         -1   -1    0    0    0  501 -0.00000000000E+00  0.00000000000E+00  0.49716862327E+02  0.49716862327E+02  0.00000000000E+00 0.  1.
          2   -1    0    0  503    0  0.00000000000E+00 -0.00000000000E+00 -0.47101440124E+04  0.47101440124E+04  0.00000000000E+00 0. -1.
         24    2    1    2    0    0  0.13403677654E+03  0.57969853180E+02 -0.86133470460E+03  0.87692996885E+03  0.76041669994E+02 0.  0.
         25    2    1    2    0    0 -0.65664523602E+02 -0.15852135200E+03 -0.14150565252E+04  0.14308945443E+04  0.12503351041E+03 0.  0.
         24    2    1    2    0    0 -0.54214283922E+02  0.58127381154E+02 -0.50754891021E+03  0.52025816766E+03  0.82126023537E+02 0.  0.
        -11    1    5    5    0    0 -0.61916994966E+02  0.67177713118E+02 -0.49336945375E+03  0.50175689064E+03  0.00000000000E+00 0.  1.
         12    1    5    5    0    0  0.77027110437E+01 -0.90503319643E+01 -0.14179456455E+02  0.18501277022E+02  0.00000000000E+00 0. -1.
        -11    1    3    3    0    0  0.91398337672E+02  0.11280813477E+02 -0.64511023250E+03  0.65165030880E+03  0.00000000000E+00 0.  1.
         12    1    3    3    0    0  0.42638438866E+02  0.46689039703E+02 -0.21622447209E+03  0.22527966004E+03  0.00000000000E+00 0. -1.
          5    1    4    4  502    0 -0.11632230595E+02 -0.50678829115E+02 -0.12869807625E+03  0.13888461881E+03  0.47000000000E+01 0.  1.
         -5    1    4    4    0  502 -0.54032293007E+02 -0.10784252288E+03 -0.12863584490E+04  0.12920099255E+04  0.47000000000E+01 0.  1.
          1    1    1    2  503    0  0.27865103108E+02  0.41877486785E+02 -0.18876294733E+04  0.18882995568E+04  0.00000000000E+00 0. -1.
         -2    1    1    2    0  501 -0.42023072122E+02  0.54663087835E+00  0.11142463225E+02  0.43478637083E+02  0.00000000000E+00 0.  1.
<mgrwt>
<rscale>  0 0.45823073E+02</rscale>
<asrwt>0</asrwt>
<pdfrwt beam="2">  1        2 0.69266842E+00 0.49962467E+02</pdfrwt>
<pdfrwt beam="1">  1       -1 0.73113014E-02 0.42026627E+02</pdfrwt>
<totfact> 0.24941813E+01</totfact>
</mgrwt>
</event>
<event>
13    1  0.2038932E-008  0.4479667E+02  0.7546771E-02  0.1578615E+00
          2   -1    0    0  503    0  0.00000000000E+00  0.00000000000E+00  0.17507503925E+04  0.17507503925E+04  0.00000000000E+00 0. -1.
          2   -1    0    0  502    0 -0.00000000000E+00 -0.00000000000E+00 -0.91890687032E+03  0.91890687032E+03  0.00000000000E+00 0. -1.
         24    2    1    2    0    0 -0.45259396375E+03  0.32476371951E+03 -0.48926739916E+03  0.74361718864E+03  0.57194106548E+02 0.  0.
         25    2    1    2    0    0  0.60085573991E+02 -0.27476509934E+03  0.26136826216E+03  0.40378775554E+03  0.12500018818E+03 0.  0.
         24    2    1    2    0    0  0.33436697451E+03 -0.68177485272E+02  0.87193707605E+03  0.94008340927E+03  0.83863631290E+02 0.  0.
        -11    1    3    3    0    0 -0.15500027537E+03  0.10274998827E+03 -0.19871887302E+03  0.27216141525E+03  0.00000000000E+00 0.  1.
         12    1    3    3    0    0 -0.29759368838E+03  0.22201373123E+03 -0.29054852614E+03  0.47145577339E+03  0.00000000000E+00 0. -1.
        -11    1    5    5    0    0  0.16096282434E+03 -0.14674178383E+01  0.48150145296E+03  0.50769561091E+03  0.00000000000E+00 0.  1.
         12    1    5    5    0    0  0.17340415017E+03 -0.66710067434E+02  0.39043562309E+03  0.43238779836E+03  0.00000000000E+00 0. -1.
          5    1    4    4  501    0  0.49243738235E+00 -0.80088136622E+02  0.10880814710E+02  0.80961930874E+02  0.47000000000E+01 0. -1.
         -5    1    4    4    0  501  0.59593136609E+02 -0.19467696272E+03  0.25048744745E+03  0.32282582467E+03  0.47000000000E+01 0. -1.
          1    1    1    2  502    0  0.13368873495E+02  0.18256866693E+02 -0.19522420707E+03  0.19653124684E+03  0.00000000000E+00 0. -1.
          1    1    1    2  503    0  0.44772541752E+02 -0.78001588269E-01  0.38302979023E+03  0.38563766256E+03  0.00000000000E+00 0. -1.
<mgrwt>
<rscale>  0 0.31838225E+02</rscale>
<asrwt>0</asrwt>
<pdfrwt beam="1">  1        2 0.25746329E+00 0.44796674E+02</pdfrwt>
<pdfrwt beam="2">  1        2 0.13513336E+00 0.22628300E+02</pdfrwt>
<totfact> 0.71058635E+01</totfact>
</mgrwt>
</event>
<event>
13    1  0.2038932E-008  0.3552784E+03  0.7546771E-02  0.1216744E+00
          2   -1    0    0  503    0  0.00000000000E+00  0.00000000000E+00  0.16372991230E+04  0.16372991230E+04  0.00000000000E+00 0. -1.
          2   -1    0    0  502    0 -0.00000000000E+00 -0.00000000000E+00 -0.20014106268E+04  0.20014106268E+04  0.00000000000E+00 0. -1.
         24    2    1    2    0    0  0.61967392988E+02 -0.57163173518E+02  0.14077459677E+02  0.11685641676E+03  0.79684760572E+02 0.  0.
         25    2    1    2    0    0  0.39734537083E+03  0.41875176522E+02  0.16554945944E+03  0.45018743114E+03  0.12500090201E+03 0.  0.
         24    2    1    2    0    0 -0.82096371090E+02 -0.13249138746E+02  0.43151129114E+01  0.11638060204E+03  0.81304800029E+02 0.  0.
        -11    1    5    5    0    0 -0.70235922405E+02  0.94008835959E+00  0.36576356960E+02  0.79194687011E+02  0.00000000000E+00 0.  1.
         12    1    5    5    0    0 -0.11860448684E+02 -0.14189227105E+02 -0.32261244049E+02  0.37185915027E+02  0.00000000000E+00 0. -1.
        -13    1    3    3    0    0 -0.10361230762E+02  0.32246126151E+01 -0.14758956145E+02  0.18318843193E+02  0.00000000000E+00 0.  1.
         14    1    3    3    0    0  0.72328623750E+02 -0.60387786133E+02  0.28836415822E+02  0.98537573570E+02  0.00000000000E+00 0. -1.
          5    1    4    4  501    0  0.35602164769E+03  0.42460652460E+01  0.16868604313E+03  0.39401334221E+03  0.47000000000E+01 0.  1.
         -5    1    4    4    0  501  0.41323723147E+02  0.37629111276E+02 -0.31365836862E+01  0.56174088932E+02  0.47000000000E+01 0.  1.
          1    1    1    2  502    0 -0.35227048177E+03 -0.18462090492E+02 -0.17333069521E+04  0.17688381303E+04  0.00000000000E+00 0. -1.
          1    1    1    2  503    0 -0.24945910967E+02  0.46999226234E+02  0.11852534162E+04  0.11864471696E+04  0.00000000000E+00 0. -1.
<mgrwt>
<rscale>  0 0.13749219E+03</rscale>
<asrwt>0</asrwt>
<pdfrwt beam="1">  1        2 0.24077928E+00 0.53209264E+02</pdfrwt>
<pdfrwt beam="2">  1        2 0.29432509E+00 0.35527842E+03</pdfrwt>
<totfact> 0.18251800E+01</totfact>
</mgrwt>
</event>
<event>
13    1  0.2038932E-008  0.1123520E+03  0.7546771E-02  0.1407355E+00
          2   -1    0    0  502    0  0.00000000000E+00  0.00000000000E+00  0.65533386241E+03  0.65533386241E+03  0.00000000000E+00 0. -1.
          2   -1    0    0  503    0 -0.00000000000E+00 -0.00000000000E+00 -0.62368105155E+03  0.62368105155E+03  0.00000000000E+00 0. -1.
         24    2    1    2    0    0  0.12678147355E+03 -0.47838893891E+02 -0.19503548645E+03  0.25106138593E+03  0.81430195434E+02 0.  0.
         25    2    1    2    0    0 -0.21565052503E+03  0.44260782277E+02  0.89916777316E+02  0.26865743947E+03  0.12501050814E+03 0.  0.
         24    2    1    2    0    0 -0.58827135408E+02 -0.89279647682E+02  0.95399161801E+02  0.16388975500E+03  0.79544731895E+02 0.  0.
        -11    1    5    5    0    0 -0.26302826863E+02  0.64466327601E+00  0.53233507564E+02  0.59380641789E+02  0.00000000000E+00 0.  1.
         12    1    5    5    0    0 -0.32524308545E+02 -0.89924310958E+02  0.42165654236E+02  0.10450911321E+03  0.00000000000E+00 0. -1.
        -11    1    3    3    0    0 -0.66080357284E+01 -0.65074016102E+00 -0.42467011212E+02  0.42982980821E+02  0.00000000000E+00 0.  1.
         12    1    3    3    0    0  0.13338950928E+03 -0.47188153730E+02 -0.15256847523E+03  0.20807840511E+03  0.00000000000E+00 0. -1.
          5    1    4    4  501    0  0.46169763813E+01 -0.16246030588E+02 -0.89792535919E+01  0.19696877312E+02  0.47000000000E+01 0. -1.
         -5    1    4    4    0  501 -0.22026750141E+03  0.60506812865E+02  0.98896030908E+02  0.24896056216E+03  0.47000000000E+01 0. -1.
          1    1    1    2  502    0  0.12851068160E+03  0.70155298797E+02  0.30066309975E+03  0.33441749474E+03  0.00000000000E+00 0. -1.
          1    1    1    2  503    0  0.19185505287E+02  0.22702460498E+02 -0.25929074156E+03  0.26098883881E+03  0.00000000000E+00 0. -1.
<mgrwt>
<rscale>  0 0.57788350E+02</rscale>
<asrwt>0</asrwt>
<pdfrwt beam="1">  1        2 0.96372627E-01 0.11235203E+03</pdfrwt>
<pdfrwt beam="2">  1        2 0.91717801E-01 0.29723481E+02</pdfrwt>
<totfact> 0.40667680E+02</totfact>
</mgrwt>
</event>
<event>
13    1  0.2038932E-008  0.1274074E+03  0.7546771E-02  0.1237542E+00
          2   -1    0    0  503    0  0.00000000000E+00  0.00000000000E+00  0.50547278996E+03  0.50547278996E+03  0.00000000000E+00 0. -1.
          2   -1    0    0  502    0 -0.00000000000E+00 -0.00000000000E+00 -0.49919300242E+04  0.49919300242E+04  0.00000000000E+00 0. -1.
         24    2    1    2    0    0  0.43164102726E+02 -0.33780390917E+02 -0.26192338640E+04  0.26210449805E+04  0.80538818304E+02 0.  0.
         25    2    1    2    0    0  0.95370813564E+02  0.22251614537E+03 -0.68558155172E+02  0.28095537760E+03  0.12500670593E+03 0.  0.
         24    2    1    2    0    0  0.41903051901E+02  0.41531579766E+01 -0.66911134469E+02  0.11212773465E+03  0.79513611924E+02 0.  0.
        -13    1    5    5    0    0  0.64449421781E+02  0.22501729626E+01 -0.60939073696E+02  0.88726331769E+02  0.00000000000E+00 0.  1.
         14    1    5    5    0    0 -0.22546369880E+02  0.19029850140E+01 -0.59720607733E+01  0.23401402877E+02  0.00000000000E+00 0. -1.
        -13    1    3    3    0    0  0.61889615206E+01  0.17802974110E+02 -0.17971156626E+03  0.18069725006E+03  0.00000000000E+00 0.  1.
         14    1    3    3    0    0  0.36975141206E+02 -0.51583365027E+02 -0.24395222977E+04  0.24403477305E+04  0.00000000000E+00 0. -1.
          5    1    4    4  501    0  0.10112375460E+03  0.79170973402E+02 -0.24703735168E+02  0.13086795370E+03  0.47000000000E+01 0.  1.
         -5    1    4    4    0  501 -0.57529410392E+01  0.14334517197E+03 -0.43854420004E+02  0.15008742390E+03  0.47000000000E+01 0.  1.
          1    1    1    2  502    0 -0.39512994979E+01 -0.11303133980E+03 -0.20809103955E+04  0.20839817108E+04  0.00000000000E+00 0. -1.
          1    1    1    2  503    0 -0.17648666869E+03 -0.79857572638E+02  0.34915631487E+03  0.39929301064E+03  0.00000000000E+00 0. -1.
<mgrwt>
<rscale>  0 0.12343110E+03</rscale>
<asrwt>0</asrwt>
<pdfrwt beam="1">  1        2 0.74334237E-01 0.12740742E+03</pdfrwt>
<pdfrwt beam="2">  1        2 0.73410733E+00 0.11957887E+03</pdfrwt>
<totfact> 0.11465275E+00</totfact>
</mgrwt>
</event>
<event>
13    1  0.2038932E-008  0.2215609E+03  0.7546771E-02  0.1298474E+00
          2   -1    0    0  503    0  0.00000000000E+00  0.00000000000E+00  0.12812356775E+04  0.12812356775E+04  0.00000000000E+00 0. -1.
          2   -1    0    0  502    0 -0.00000000000E+00 -0.00000000000E+00 -0.49810498502E+04  0.49810498502E+04  0.00000000000E+00 0. -1.
         24    2    1    2    0    0 -0.21437914344E+02  0.10486772725E+03 -0.23571004597E+03  0.27100887949E+03  0.80185800492E+02 0.  0.
         25    2    1    2    0    0  0.10592371514E+03 -0.26443193845E+03  0.21611210248E+03  0.37877926960E+03  0.12500084294E+03 0.  0.
         24    2    1    2    0    0  0.68467667990E+02 -0.46254896863E+02  0.34675456429E+02  0.12030049561E+03  0.80265091556E+02 0.  0.
        -11    1    5    5    0    0  0.45830543624E+01  0.17270412440E+02  0.23493603171E+02  0.29516451736E+02  0.00000000000E+00 0.  1.
         12    1    5    5    0    0  0.63884613628E+02 -0.63525309303E+02  0.11181853258E+02  0.90784043877E+02  0.00000000000E+00 0. -1.
        -11    1    3    3    0    0 -0.41211741824E+02  0.80927874363E+02 -0.21578012697E+03  0.23411277562E+03  0.00000000000E+00 0.  1.
         12    1    3    3    0    0  0.19773827481E+02  0.23939852886E+02 -0.19929919004E+02  0.36896103872E+02  0.00000000000E+00 0. -1.
          5    1    4    4  501    0 -0.19089203386E+02 -0.11276212084E+03  0.80855425308E+02  0.14014058436E+03  0.47000000000E+01 0. -1.
         -5    1    4    4    0  501  0.12501291853E+03 -0.15166981761E+03  0.13525667717E+03  0.23863868524E+03  0.47000000000E+01 0. -1.
          1    1    1    2  502    0 -0.14224892406E+03  0.16929279138E+03 -0.46004799746E+04  0.46057910072E+04  0.00000000000E+00 0. -1.
          1    1    1    2  503    0 -0.10704544723E+02  0.36526316688E+02  0.88558828899E+03  0.88640587582E+03  0.00000000000E+00 0. -1.
<mgrwt>
<rscale>  0 0.91832321E+02</rscale>
<asrwt>0</asrwt>
<pdfrwt beam="1">  1        2 0.18841701E+00 0.38062568E+02</pdfrwt>
<pdfrwt beam="2">  1        2 0.73250732E+00 0.22156086E+03</pdfrwt>
<totfact> 0.34009105E-01</totfact>
</mgrwt>
</event>
<event>
13    1  0.2038932E-008  0.2924271E+03  0.7546771E-02  0.1284845E+00
          2   -1    0    0  503    0  0.00000000000E+00  0.00000000000E+00  0.12039563645E+04  0.12039563645E+04  0.00000000000E+00 0. -1.
          2   -1    0    0  502    0 -0.00000000000E+00 -0.00000000000E+00 -0.10626203566E+04  0.10626203566E+04  0.00000000000E+00 0. -1.
         24    2    1    2    0    0 -0.16476332485E+02 -0.25779030373E+02  0.38164349852E+01  0.87017681535E+02  0.81372500174E+02 0.  0.
         25    2    1    2    0    0  0.24466439441E+03 -0.15277594689E+03  0.55486229010E+03  0.63773050018E+03  0.12500749594E+03 0.  0.
         24    2    1    2    0    0  0.39762983235E+02  0.92036805019E+01  0.81891043492E+02  0.12225095977E+03  0.81076208535E+02 0.  0.
        -11    1    5    5    0    0  0.25786396537E+02  0.38512683409E+02  0.76341027973E+02  0.89309112534E+02  0.00000000000E+00 0.  1.
         12    1    5    5    0    0  0.13976586699E+02 -0.29309002907E+02  0.55500155185E+01  0.32941847237E+02  0.00000000000E+00 0. -1.
        -13    1    3    3    0    0 -0.31638489018E+02  0.16934802845E+02  0.17148495474E+02  0.39772508493E+02  0.00000000000E+00 0.  1.
         14    1    3    3    0    0  0.15162156533E+02 -0.42713833218E+02 -0.13332060489E+02  0.47245173042E+02  0.00000000000E+00 0. -1.
          5    1    4    4  501    0  0.32455118519E+02  0.37337245701E+01  0.13714961899E+02  0.35741650734E+02  0.47000000000E+01 0.  1.
         -5    1    4    4    0  501  0.21220927589E+03 -0.15650967146E+03  0.54114732820E+03  0.60198884944E+03  0.47000000000E+01 0.  1.
          1    1    1    2  502    0 -0.23548511130E+03  0.17368296362E+03 -0.93646844492E+03  0.98111781037E+03  0.00000000000E+00 0. -1.
          1    1    1    2  503    0 -0.32465933856E+02 -0.43316668627E+01  0.43723468416E+03  0.43845976923E+03  0.00000000000E+00 0. -1.
<mgrwt>
<rscale>  0 0.97867509E+02</rscale>
<asrwt>0</asrwt>
<pdfrwt beam="1">  1        2 0.17705241E+00 0.32753629E+02</pdfrwt>
<pdfrwt beam="2">  1        2 0.15626770E+00 0.29242712E+03</pdfrwt>
<totfact> 0.97177949E+01</totfact>
</mgrwt>
</event>
<event>
13    1  0.2038932E-008  0.8061614E+02  0.7546771E-02  0.1422772E+00
          2   -1    0    0  503    0  0.00000000000E+00  0.00000000000E+00  0.19674278835E+04  0.19674278835E+04  0.00000000000E+00 0. -1.
         -1   -1    0    0    0  501 -0.00000000000E+00 -0.00000000000E+00 -0.24222983801E+04  0.24222983801E+04  0.00000000000E+00 0.  1.
         24    2    1    2    0    0 -0.80623772209E+03  0.34057544797E+03 -0.14216794134E+04  0.16715729875E+04  0.83504478626E+02 0.  0.
         25    2    1    2    0    0  0.24785637930E+03 -0.92126333061E+02  0.26262116213E+03  0.39308252493E+03  0.12499580234E+03 0.  0.
         24    2    1    2    0    0  0.64327585552E+03 -0.28113168809E+03 -0.83990885979E+02  0.71270467980E+03  0.89747642514E+02 0.  0.
        -13    1    5    5    0    0  0.44302770324E+03 -0.16238132949E+03 -0.87368052955E+02  0.47986916830E+03  0.00000000000E+00 0.  1.
         14    1    5    5    0    0  0.20024815227E+03 -0.11875035860E+03  0.33771669758E+01  0.23283551150E+03  0.00000000000E+00 0. -1.
        -13    1    3    3    0    0 -0.58927350194E+03  0.24346658242E+03 -0.96267092088E+03  0.11546664188E+04  0.00000000000E+00 0.  1.
         14    1    3    3    0    0 -0.21696422015E+03  0.97108865550E+02 -0.45900849251E+03  0.51690656873E+03  0.00000000000E+00 0. -1.
          5    1    4    4  502    0  0.25806808603E+03 -0.71672927110E+02  0.25063210241E+03  0.36684422616E+03  0.47000000000E+01 0. -1.
         -5    1    4    4    0  502 -0.10211706731E+02 -0.20453405951E+02  0.11989059721E+02  0.26238298770E+02  0.47000000000E+01 0. -1.
          1    1    1    2  503    0 -0.43825595470E+01  0.36499386103E+02  0.11960459432E+04  0.11966107597E+04  0.00000000000E+00 0. -1.
         -2    1    1    2    0  501 -0.80511953182E+02 -0.38168129179E+01 -0.40786730252E+03  0.41575531161E+03  0.00000000000E+00 0.  1.
<mgrwt>
<rscale>  0 0.54438726E+02</rscale>
<asrwt>0</asrwt>
<pdfrwt beam="1">  1        2 0.28932763E+00 0.36761556E+02</pdfrwt>
<pdfrwt beam="2">  1       -1 0.35622035E+00 0.80616142E+02</pdfrwt>
<totfact> 0.24783311E-01</totfact>
</mgrwt>
</event>
<event>
13    1  0.2038932E-008  0.8754041E+02  0.7546771E-02  0.1365247E+00
         -3   -1    0    0    0  501 -0.00000000000E+00  0.00000000000E+00  0.13384774562E+03  0.13384774562E+03  0.00000000000E+00 0.  1.
          2   -1    0    0  503    0  0.00000000000E+00 -0.00000000000E+00 -0.15556061058E+04  0.15556061058E+04  0.00000000000E+00 0. -1.
         24    2    1    2    0    0 -0.61451046866E+02  0.46341719658E+01 -0.37251686049E+02  0.10784546884E+03  0.80282316396E+02 0.  0.
         25    2    1    2    0    0  0.74941530337E+02 -0.17451325740E+03 -0.67400856244E+03  0.71132566691E+03  0.12500220873E+03 0.  0.
         24    2    1    2    0    0  0.66964116844E+02  0.17469627836E+03 -0.50835564919E+03  0.54818337029E+03  0.84122284703E+02 0.  0.
        -11    1    5    5    0    0 -0.11735821649E+02  0.30217590500E+02 -0.15569578434E+03  0.15903461744E+03  0.00000000000E+00 0.  1.
         12    1    5    5    0    0  0.78699938493E+02  0.14447868786E+03 -0.35265986485E+03  0.38914875284E+03  0.00000000000E+00 0. -1.
        -13    1    3    3    0    0 -0.29497520120E+02 -0.36781225671E+02 -0.27663379499E+02  0.54664657874E+02  0.00000000000E+00 0.  1.
         14    1    3    3    0    0 -0.31953526746E+02  0.41415397637E+02 -0.95883065495E+01  0.53180810970E+02  0.00000000000E+00 0. -1.
          5    1    4    4  502    0  0.31154733796E+02 -0.17614707044E+03 -0.58887145021E+03  0.61545924539E+03  0.47000000000E+01 0. -1.
         -5    1    4    4    0  502  0.43786796541E+02  0.16338130480E+01 -0.85137112231E+02  0.95866421522E+02  0.47000000000E+01 0. -1.
          1    1    1    2  503    0 -0.13069992409E+02  0.51993539685E+02 -0.22479366456E+03  0.23109812742E+03  0.00000000000E+00 0. -1.
         -4    1    1    2    0  501 -0.67384607906E+02 -0.56810732613E+02  0.22651202029E+02  0.91001217991E+02  0.00000000000E+00 0.  1.
<mgrwt>
<rscale>  0 0.68506497E+02</rscale>
<asrwt>0</asrwt>
<pdfrwt beam="2">  1        2 0.22876560E+00 0.53611126E+02</pdfrwt>
<pdfrwt beam="1">  1       -3 0.19683492E-01 0.87540413E+02</pdfrwt>
<totfact> 0.21055500E+02</totfact>
</mgrwt>
</event>
<event>
13    1  0.2038932E-008  0.6328296E+02  0.7546771E-02  0.1427069E+00
          2   -1    0    0  502    0  0.00000000000E+00  0.00000000000E+00  0.10036582251E+04  0.10036582251E+04  0.00000000000E+00 0. -1.
          2   -1    0    0  503    0 -0.00000000000E+00 -0.00000000000E+00 -0.20796926397E+04  0.20796926397E+04  0.00000000000E+00 0. -1.
         24    2    1    2    0    0 -0.23257659227E+02  0.68331972776E+02 -0.80751509987E+03  0.81468860611E+03  0.80166771114E+02 0.  0.
         25    2    1    2    0    0  0.27274496197E+02  0.10943356858E+03  0.18916227737E+03  0.25324278313E+03  0.12501974226E+03 0.  0.
         24    2    1    2    0    0  0.88175245896E+02 -0.14922726157E+03  0.51878196432E+03  0.55296497485E+03  0.81190438621E+02 0.  0.
        -11    1    3    3    0    0 -0.12777996873E+02  0.52494832398E+02 -0.20893589339E+03  0.21580823010E+03  0.00000000000E+00 0.  1.
         12    1    3    3    0    0 -0.10479662355E+02  0.15837140378E+02 -0.59857920648E+03  0.59888037601E+03  0.00000000000E+00 0. -1.
        -13    1    5    5    0    0  0.15958397352E+02 -0.53618616407E+02  0.76704352421E+02  0.94937790957E+02  0.00000000000E+00 0.  1.
         14    1    5    5    0    0  0.72216848544E+02 -0.95608645164E+02  0.44207761189E+03  0.45802718389E+03  0.00000000000E+00 0. -1.
          5    1    4    4  501    0  0.75876625293E+02  0.77629368452E+02  0.13843974866E+03  0.17598646289E+03  0.47000000000E+01 0.  1.
         -5    1    4    4    0  501 -0.48602129097E+02  0.31804200126E+02  0.50722528713E+02  0.77256320243E+02  0.47000000000E+01 0.  1.
          1    1    1    2  502    0 -0.29231071644E+02 -0.34631354545E+02  0.24005360104E+03  0.24429391650E+03  0.00000000000E+00 0. -1.
          1    1    1    2  503    0 -0.62961011222E+02  0.60930747611E+01 -0.12165171575E+04  0.12181605842E+04  0.00000000000E+00 0. -1.
<mgrwt>
<rscale>  0 0.53552804E+02</rscale>
<asrwt>0</asrwt>
<pdfrwt beam="1">  1        2 0.14759680E+00 0.45318719E+02</pdfrwt>
<pdfrwt beam="2">  1        2 0.30583715E+00 0.63282963E+02</pdfrwt>
<totfact> 0.41753995E+01</totfact>
</mgrwt>
</event>
<event>
13    1  0.2038932E-008  0.6594378E+02  0.7546771E-02  0.1424366E+00
          2   -1    0    0  503    0  0.00000000000E+00  0.00000000000E+00  0.50825044176E+03  0.50825044176E+03  0.00000000000E+00 0. -1.
          2   -1    0    0  502    0 -0.00000000000E+00 -0.00000000000E+00 -0.27772649544E+04  0.27772649544E+04  0.00000000000E+00 0. -1.
         24    2    1    2    0    0  0.66275671333E+02 -0.38389983747E+02 -0.97107565205E+03  0.97764605658E+03  0.83292463587E+02 0.  0.
         25    2    1    2    0    0  0.28876128521E+02  0.11203027990E+03  0.21282342853E+03  0.27256909297E+03  0.12496193138E+03 0.  0.
         24    2    1    2    0    0 -0.37882411426E+02  0.19382585206E+02 -0.59318409951E+03  0.59942733460E+03  0.75066582736E+02 0.  0.
        -11    1    5    5    0    0 -0.54914196037E+02  0.12343636534E+02 -0.54400023491E+03  0.54690418710E+03  0.00000000000E+00 0.  1.
         12    1    5    5    0    0  0.17031784611E+02  0.70389486717E+01 -0.49183864604E+02  0.52523147495E+02  0.00000000000E+00 0. -1.
        -13    1    3    3    0    0  0.31306777440E+02  0.36956568188E+01 -0.99947503686E+02  0.10480112445E+03  0.00000000000E+00 0.  1.
         14    1    3    3    0    0  0.34968893892E+02 -0.42085640566E+02 -0.87112814836E+03  0.87284493213E+03  0.00000000000E+00 0. -1.
          5    1    4    4  501    0 -0.41374511384E+02  0.11841383190E+02  0.30565248764E+02  0.52994273088E+02  0.47000000000E+01 0.  1.
         -5    1    4    4    0  501  0.70250639906E+02  0.10018889671E+03  0.18225817977E+03  0.21957481988E+03  0.47000000000E+01 0.  1.
          1    1    1    2  502    0 -0.16810778586E+02 -0.41090403925E+02 -0.11721176081E+04  0.11729581028E+04  0.00000000000E+00 0. -1.
          1    1    1    2  503    0 -0.40458609842E+02 -0.51932477435E+02  0.25453941854E+03  0.26291480923E+03  0.00000000000E+00 0. -1.
<mgrwt>
<rscale>  0 0.54107799E+02</rscale>
<asrwt>0</asrwt>
<pdfrwt beam="1">  1        2 0.74742710E-01 0.65943779E+02</pdfrwt>
<pdfrwt beam="2">  1        2 0.40842133E+00 0.44396211E+02</pdfrwt>
<totfact> 0.43585319E+01</totfact>
</mgrwt>
</event>
<event>
13    1  0.2038932E-008  0.8337213E+02  0.7546771E-02  0.1378015E+00
          2   -1    0    0  503    0  0.00000000000E+00  0.00000000000E+00  0.29063916305E+04  0.29063916305E+04  0.00000000000E+00 0. -1.
         -1   -1    0    0    0  501 -0.00000000000E+00 -0.00000000000E+00 -0.62103348774E+03  0.62103348774E+03  0.00000000000E+00 0.  1.
         24    2    1    2    0    0  0.29606362074E+02 -0.58789687492E+02 -0.23363907691E+03  0.25432089155E+03  0.75888955635E+02 0.  0.
         25    2    1    2    0    0 -0.18980197189E+03  0.13939916633E+03  0.58849695539E+03  0.64607393798E+03  0.12500380287E+03 0.  0.
         24    2    1    2    0    0  0.11620048051E+03  0.12309932452E+02 -0.69653489292E+01  0.14170210882E+03  0.79855403387E+02 0.  0.
        -11    1    5    5    0    0  0.10328962623E+03 -0.21293876084E+02 -0.71377964085E+01  0.10570299988E+03  0.00000000000E+00 0.  1.
         12    1    5    5    0    0  0.12910854278E+02  0.33603808536E+02  0.17244747921E+00  0.35999108940E+02  0.00000000000E+00 0. -1.
        -13    1    3    3    0    0  0.46946417175E+02 -0.59625974365E+02 -0.21844056952E+03  0.23124771418E+03  0.00000000000E+00 0.  1.
         14    1    3    3    0    0 -0.17340055101E+02  0.83628687315E+00 -0.15198507394E+02  0.23073177364E+02  0.00000000000E+00 0. -1.
          5    1    4    4  502    0 -0.18150072602E+03  0.15912810455E+03  0.56218143389E+03  0.61182867031E+03  0.47000000000E+01 0.  1.
         -5    1    4    4    0  502 -0.83012458709E+01 -0.19728938218E+02  0.26315521494E+02  0.34245267669E+02  0.47000000000E+01 0.  1.
          1    1    1    2  503    0 -0.23915818458E+02 -0.44657624400E+02  0.22047645018E+04  0.22053464078E+04  0.00000000000E+00 0. -1.
         -2    1    1    2    0  501  0.67910947765E+02 -0.48261786894E+02 -0.26729888857E+03  0.27998177214E+03  0.00000000000E+00 0.  1.
<mgrwt>
<rscale>  0 0.64988425E+02</rscale>
<asrwt>0</asrwt>
<pdfrwt beam="1">  1        2 0.42741053E+00 0.50658363E+02</pdfrwt>
<pdfrwt beam="2">  1       -1 0.91328456E-01 0.83372125E+02</pdfrwt>
<totfact> 0.53537692E+00</totfact>
</mgrwt>
</event>
<event>
13    1  0.2038932E-008  0.1018672E+03  0.7546771E-02  0.1390467E+00
          2   -1    0    0  503    0  0.00000000000E+00  0.00000000000E+00  0.41574919166E+03  0.41574919166E+03  0.00000000000E+00 0. -1.
          2   -1    0    0  502    0 -0.00000000000E+00 -0.00000000000E+00 -0.22461594990E+04  0.22461594990E+04  0.00000000000E+00 0. -1.
         24    2    1    2    0    0  0.46302747517E+02  0.15006900352E+02 -0.78578994336E+03  0.79146863878E+03  0.81164152275E+02 0.  0.
         25    2    1    2    0    0 -0.47883034630E+02 -0.26697406779E+03 -0.20376430617E+03  0.36154276372E+03  0.12500135860E+03 0.  0.
         24    2    1    2    0    0 -0.28146938788E+02  0.11825437805E+03 -0.30669217420E+03  0.33976343718E+03  0.81257340849E+02 0.  0.
        -11    1    3    3    0    0  0.27859540216E+02 -0.32922266373E+02 -0.33610137839E+03  0.33885714713E+03  0.00000000000E+00 0.  1.
         12    1    3    3    0    0  0.18443207301E+02  0.47929166724E+02 -0.44968856497E+03  0.45261149166E+03  0.00000000000E+00 0. -1.
        -13    1    5    5    0    0  0.23601907478E+02  0.12745522486E+02 -0.80730047583E+02  0.85069612453E+02  0.00000000000E+00 0.  1.
         14    1    5    5    0    0 -0.51748846265E+02  0.10550885556E+03 -0.22596212662E+03  0.25469382473E+03  0.00000000000E+00 0. -1.
          5    1    4    4  501    0  0.76051143130E+01 -0.21249685352E+03 -0.18385593393E+03  0.28113670156E+03  0.47000000000E+01 0. -1.
         -5    1    4    4    0  501 -0.55488148943E+02 -0.54477214271E+02 -0.19908372243E+02  0.80406062167E+02  0.47000000000E+01 0. -1.
          1    1    1    2  502    0 -0.99861161351E+00  0.37467687644E+02 -0.84318445287E+03  0.84401708893E+03  0.00000000000E+00 0. -1.
          1    1    1    2  503    0  0.30725837514E+02  0.96245101748E+02  0.30902056928E+03  0.32511676201E+03  0.00000000000E+00 0. -1.
<mgrwt>
<rscale>  0 0.61790654E+02</rscale>
<asrwt>0</asrwt>
<pdfrwt beam="1">  1        2 0.61139588E-01 0.10186723E+03</pdfrwt>
<pdfrwt beam="2">  1        2 0.33031757E+00 0.37480993E+02</pdfrwt>
<totfact> 0.98774500E+01</totfact>
</mgrwt>
</event>
<event>
13    1  0.2038932E-008  0.9761070E+02  0.7546771E-02  0.1403529E+00
          2   -1    0    0  503    0  0.00000000000E+00  0.00000000000E+00  0.54583306692E+03  0.54583306692E+03  0.00000000000E+00 0. -1.
          2   -1    0    0  502    0 -0.00000000000E+00 -0.00000000000E+00 -0.26237952240E+04  0.26237952240E+04  0.00000000000E+00 0. -1.
         24    2    1    2    0    0 -0.34208911883E+03  0.16739771113E+03 -0.17571582892E+04  0.17997333896E+04  0.79925350020E+02 0.  0.
         25    2    1    2    0    0 -0.44872686004E+02 -0.65063416119E+01 -0.16763086994E+01  0.13298464665E+03  0.12500486312E+03 0.  0.
         24    2    1    2    0    0  0.33520442639E+03 -0.10328976724E+03 -0.12068106375E+03  0.37936340746E+03  0.79510328178E+02 0.  0.
        -11    1    5    5    0    0  0.36784489735E+02 -0.38146914546E+02 -0.29227825183E+02  0.60519017997E+02  0.00000000000E+00 0.  1.
         12    1    5    5    0    0  0.29841993665E+03 -0.65142852697E+02 -0.91453238567E+02  0.31884438946E+03  0.00000000000E+00 0. -1.
        -11    1    3    3    0    0 -0.17566209010E+03  0.74038475349E+02 -0.10562072634E+04  0.10732719362E+04  0.00000000000E+00 0.  1.
         12    1    3    3    0    0 -0.16642702873E+03  0.93359235781E+02 -0.70095102576E+03  0.72646145343E+03  0.00000000000E+00 0. -1.
          5    1    4    4  501    0 -0.19717311908E+02  0.55949587599E+02 -0.20455130060E+02  0.62925599617E+02  0.47000000000E+01 0. -1.
         -5    1    4    4    0  501 -0.25155374096E+02 -0.62455929211E+02  0.18778821361E+02  0.70059047033E+02  0.47000000000E+01 0. -1.
          1    1    1    2  502    0 -0.33719835344E+02 -0.10294058616E+02 -0.52014635224E+03  0.52133983416E+03  0.00000000000E+00 0. -1.
          1    1    1    2  503    0  0.85477213791E+02 -0.47307543659E+02  0.32169985677E+03  0.33620701303E+03  0.00000000000E+00 0. -1.
<mgrwt>
<rscale>  0 0.58663242E+02</rscale>
<asrwt>0</asrwt>
<pdfrwt beam="1">  1        2 0.80269568E-01 0.97610704E+02</pdfrwt>
<pdfrwt beam="2">  1        2 0.38585224E+00 0.35256133E+02</pdfrwt>
<totfact> 0.49463029E+01</totfact>
</mgrwt>
</event>
<event>
13    1  0.2038932E-008  0.1131617E+03  0.7546771E-02  0.1280730E+00
          2   -1    0    0  502    0  0.00000000000E+00  0.00000000000E+00  0.60185979173E+03  0.60185979173E+03  0.00000000000E+00 0. -1.
          2   -1    0    0  503    0 -0.00000000000E+00 -0.00000000000E+00 -0.12166797518E+04  0.12166797518E+04  0.00000000000E+00 0. -1.
         24    2    1    2    0    0 -0.34165827491E+03 -0.21381311542E+03 -0.81372240444E+03  0.91161943379E+03  0.80370488646E+02 0.  0.
         25    2    1    2    0    0  0.10913814169E+03  0.18725134216E+03  0.26858246540E+02  0.25163462116E+03  0.12499767216E+03 0.  0.
         24    2    1    2    0    0  0.47466771565E+02  0.19412450040E+02  0.44415938836E+02  0.10436377784E+03  0.79303750752E+02 0.  0.
        -11    1    5    5    0    0  0.65665643217E+02  0.23916485509E+02  0.18347373796E+02  0.72253727263E+02  0.00000000000E+00 0.  1.
         12    1    5    5    0    0 -0.18198871652E+02 -0.45040354690E+01  0.26068565040E+02  0.32110050579E+02  0.00000000000E+00 0. -1.
        -11    1    3    3    0    0 -0.81705998194E+02 -0.86786723956E+02 -0.19414207590E+03  0.22781341319E+03  0.00000000000E+00 0.  1.
         12    1    3    3    0    0 -0.25995227671E+03 -0.12702639147E+03 -0.61958032854E+03  0.68380602060E+03  0.00000000000E+00 0. -1.
          5    1    4    4  501    0  0.18137226524E+02  0.52597439957E+02  0.63923598555E+02  0.84875002965E+02  0.47000000000E+01 0.  1.
         -5    1    4    4    0  501  0.91000915166E+02  0.13465390220E+03 -0.37065352015E+02  0.16675961819E+03  0.47000000000E+01 0.  1.
          1    1    1    2  502    0  0.97786018229E+02  0.18524431868E+02  0.32228123643E+03  0.33729876266E+03  0.00000000000E+00 0. -1.
          1    1    1    2  503    0  0.87267343422E+02 -0.11375108642E+02 -0.19465297742E+03  0.21362294807E+03  0.00000000000E+00 0. -1.
<mgrwt>
<rscale>  0 0.99794087E+02</rscale>
<asrwt>0</asrwt>
<pdfrwt beam="1">  1        2 0.88508793E-01 0.11316169E+03</pdfrwt>
<pdfrwt beam="2">  1        2 0.17892349E+00 0.88005581E+02</pdfrwt>
<totfact> 0.18900325E+02</totfact>
</mgrwt>
</event>
<event>
13    1  0.2038932E-008  0.1046603E+03  0.7546771E-02  0.1300972E+00
          2   -1    0    0  502    0  0.00000000000E+00  0.00000000000E+00  0.36532860688E+04  0.36532860688E+04  0.00000000000E+00 0. -1.
          2   -1    0    0  503    0 -0.00000000000E+00 -0.00000000000E+00 -0.19667294929E+03  0.19667294929E+03  0.00000000000E+00 0. -1.
         24    2    1    2    0    0  0.10253780862E+02 -0.99006162229E+02  0.13150302476E+03  0.18428136656E+03  0.82214453455E+02 0.  0.
         25    2    1    2    0    0 -0.55821019062E+02 -0.66084152014E+02  0.20886459709E+04  0.20941704733E+04  0.12499951314E+03 0.  0.
         24    2    1    2    0    0  0.26514745892E+02  0.28493836610E+02  0.92692885381E+02  0.12899161527E+03  0.80820389352E+02 0.  0.
        -13    1    3    3    0    0 -0.34053287931E+02 -0.64187214602E+02  0.70703154913E+02  0.10138323852E+03  0.00000000000E+00 0.  1.
         14    1    3    3    0    0  0.44307068793E+02 -0.34818947627E+02  0.60799869849E+02  0.82898128040E+02  0.00000000000E+00 0. -1.
        -13    1    5    5    0    0 -0.59299079000E+01 -0.24299706468E+02  0.42210294377E+02  0.49064737781E+02  0.00000000000E+00 0.  1.
         14    1    5    5    0    0  0.32444653792E+02  0.52793543079E+02  0.50482591005E+02  0.79926877488E+02  0.00000000000E+00 0. -1.
          5    1    4    4  501    0  0.33930270856E+02 -0.16193316964E+02  0.27296588967E+03  0.27558293438E+03  0.47000000000E+01 0. -1.
         -5    1    4    4    0  501 -0.89751289918E+02 -0.49890835050E+02  0.18156800812E+04  0.18185875390E+04  0.47000000000E+01 0. -1.
          1    1    1    2  502    0  0.65084183086E+02  0.44320331528E+02  0.12739843397E+04  0.12764154263E+04  0.00000000000E+00 0. -1.
          1    1    1    2  503    0 -0.46031690779E+02  0.92276146105E+02 -0.13021310118E+03  0.16610013671E+03  0.00000000000E+00 0. -1.
<mgrwt>
<rscale>  0 0.90780613E+02</rscale>
<asrwt>0</asrwt>
<pdfrwt beam="1">  1        2 0.53724791E+00 0.78741620E+02</pdfrwt>
<pdfrwt beam="2">  1        2 0.28922495E-01 0.10466028E+03</pdfrwt>
<totfact> 0.35676171E+01</totfact>
</mgrwt>
</event>
<event>
13    1  0.2038932E-008  0.2727701E+02  0.7546771E-02  0.1649397E+00
          2   -1    0    0  503    0  0.00000000000E+00  0.00000000000E+00  0.23395362542E+03  0.23395362542E+03  0.00000000000E+00 0. -1.
         -3   -1    0    0    0  501 -0.00000000000E+00 -0.00000000000E+00 -0.15058136793E+04  0.15058136793E+04  0.00000000000E+00 0.  1.
         24    2    1    2    0    0  0.79268699127E+01  0.29099506440E+02 -0.79088304003E+03  0.79565289244E+03  0.81596113291E+02 0.  0.
         25    2    1    2    0    0 -0.38645248434E+02 -0.55317819245E+02  0.99405132271E+02  0.17337736046E+03  0.12499924978E+03 0.  0.
         24    2    1    2    0    0 -0.10210636109E+02 -0.53269804877E+01 -0.80959095386E+02  0.11478646595E+03  0.80553856697E+02 0.  0.
        -11    1    5    5    0    0 -0.43416549402E+02 -0.43636091035E+01 -0.64075544718E+02  0.77522340505E+02  0.00000000000E+00 0.  1.
         12    1    5    5    0    0  0.33205913294E+02 -0.96337138422E+00 -0.16883550668E+02  0.37264125446E+02  0.00000000000E+00 0. -1.
        -11    1    3    3    0    0 -0.27898063386E+02  0.83030285092E+01 -0.11952653820E+03  0.12301965517E+03  0.00000000000E+00 0.  1.
         12    1    3    3    0    0  0.35824933299E+02  0.20796477931E+02 -0.67135650183E+03  0.67263323728E+03  0.00000000000E+00 0. -1.
          5    1    4    4  502    0  0.20298964002E+02 -0.71746322598E+02  0.29418725363E+02  0.80294048022E+02  0.47000000000E+01 0.  1.
         -5    1    4    4    0  502 -0.58944212436E+02  0.16428503353E+02  0.69986406908E+02  0.93083312436E+02  0.47000000000E+01 0.  1.
          1    1    1    2  503    0  0.19609853397E+02  0.14610707650E+02  0.76023742449E+02  0.79860056000E+02  0.00000000000E+00 0. -1.
         -4    1    1    2    0  501  0.21319161233E+02  0.16934585642E+02 -0.57544679313E+03  0.57609052982E+03  0.00000000000E+00 0.  1.
<mgrwt>
<rscale>  0 0.25827190E+02</rscale>
<asrwt>0</asrwt>
<pdfrwt beam="1">  1        2 0.34404945E-01 0.24454430E+02</pdfrwt>
<pdfrwt beam="2">  1       -3 0.22144319E+00 0.27277011E+02</pdfrwt>
<totfact> 0.11385503E+01</totfact>
</mgrwt>
</event>
<event>
13    1  0.2038932E-008  0.1473850E+03  0.7546771E-02  0.1204976E+00
          2   -1    0    0  502    0  0.00000000000E+00  0.00000000000E+00  0.12395503700E+04  0.12395503700E+04  0.00000000000E+00 0. -1.
          2   -1    0    0  503    0 -0.00000000000E+00 -0.00000000000E+00 -0.18368831966E+04  0.18368831966E+04  0.00000000000E+00 0. -1.
         24    2    1    2    0    0  0.21434515826E+02  0.14058816383E+03 -0.73430114865E+03  0.75230318672E+03  0.80854422005E+02 0.  0.
         25    2    1    2    0    0 -0.89961944415E+02 -0.31847883507E+03  0.58428528237E+02  0.35855817497E+03  0.12501260776E+03 0.  0.
         24    2    1    2    0    0 -0.32905596608E+02  0.12231601947E+03 -0.30690821202E+02  0.15368954824E+03  0.81452831905E+02 0.  0.
        -11    1    5    5    0    0 -0.26362631726E+02  0.23308431614E+02  0.21842800441E+02  0.41417137358E+02  0.00000000000E+00 0.  1.
         12    1    5    5    0    0 -0.65429648829E+01  0.99007587856E+02 -0.52533621643E+02  0.11227241088E+03  0.00000000000E+00 0. -1.
        -13    1    3    3    0    0 -0.95428403563E+01 -0.63809044574E+01 -0.29060379422E+02  0.31245598024E+02  0.00000000000E+00 0.  1.
         14    1    3    3    0    0  0.30977356183E+02  0.14696906829E+03 -0.70524076923E+03  0.72105758869E+03  0.00000000000E+00 0. -1.
          5    1    4    4  501    0 -0.87843827738E+02 -0.99577196292E+02  0.39859375008E+01  0.13292905548E+03  0.47000000000E+01 0.  1.
         -5    1    4    4    0  501 -0.21181166769E+01 -0.21890163877E+03  0.54442590736E+02  0.22562911949E+03  0.47000000000E+01 0.  1.
          1    1    1    2  502    0  0.11831729352E+03 -0.88849607675E+02  0.94857016409E+03  0.96004093191E+03  0.00000000000E+00 0. -1.
          1    1    1    2  503    0 -0.16884268323E+02  0.14442425944E+03 -0.83933954908E+03  0.85184172467E+03  0.00000000000E+00 0. -1.
<mgrwt>
<rscale>  0 0.14639309E+03</rscale>
<asrwt>0</asrwt>
<pdfrwt beam="1">  1        2 0.18228682E+00 0.14738501E+03</pdfrwt>
<pdfrwt beam="2">  1        2 0.27012988E+00 0.14540786E+03</pdfrwt>
<totfact> 0.35012769E+01</totfact>
</mgrwt>
</event>
<event>
13    1  0.2038932E-008  0.1160681E+03  0.7546771E-02  0.1293226E+00
          2   -1    0    0  502    0  0.00000000000E+00  0.00000000000E+00  0.26472723370E+04  0.26472723370E+04  0.00000000000E+00 0. -1.
          2   -1    0    0  503    0 -0.00000000000E+00 -0.00000000000E+00 -0.20003333632E+04  0.20003333632E+04  0.00000000000E+00 0. -1.
         24    2    1    2    0    0  0.23751189130E+03 -0.31769952369E+03 -0.53754746879E+03  0.67192955316E+03  0.72021922718E+02 0.  0.
         25    2    1    2    0    0 -0.37076148889E+03  0.56048121483E+02 -0.92379840128E+02  0.40591253717E+03  0.12500191758E+03 0.  0.
         24    2    1    2    0    0  0.79822281387E+02  0.42609367066E+03 -0.98200704009E+01  0.44082548220E+03  0.79393067648E+02 0.  0.
        -11    1    5    5    0    0  0.17589333276E+02  0.26309696147E+03  0.17327377568E+02  0.26425297311E+03  0.00000000000E+00 0.  1.
         12    1    5    5    0    0  0.62232948111E+02  0.16299670919E+03 -0.27147447969E+02  0.17657250909E+03  0.00000000000E+00 0. -1.
        -13    1    3    3    0    0  0.11908121391E+03 -0.10528552151E+03 -0.23591085434E+03  0.28446319225E+03  0.00000000000E+00 0.  1.
         14    1    3    3    0    0  0.11843067739E+03 -0.21241400217E+03 -0.30163661445E+03  0.38746636092E+03  0.00000000000E+00 0. -1.
          5    1    4    4  501    0  0.13594636802E+01  0.20576152222E+02 -0.15960382968E+01  0.21209986327E+02  0.47000000000E+01 0. -1.
         -5    1    4    4    0  501 -0.37212095257E+03  0.35471969261E+02 -0.90783801831E+02  0.38470255084E+03  0.47000000000E+01 0. -1.
          1    1    1    2  502    0  0.72475960487E+02 -0.90576216622E+02  0.22047054269E+04  0.22077551575E+04  0.00000000000E+00 0. -1.
          1    1    1    2  503    0 -0.19048644280E+02 -0.73866051831E+02 -0.91801907390E+03  0.92118297016E+03  0.00000000000E+00 0. -1.
<mgrwt>
<rscale>  0 0.94095622E+02</rscale>
<asrwt>0</asrwt>
<pdfrwt beam="1">  1        2 0.38930475E+00 0.11606813E+03</pdfrwt>
<pdfrwt beam="2">  1        2 0.29416667E+00 0.76282662E+02</pdfrwt>
<totfact> 0.63427705E+00</totfact>
</mgrwt>
</event>
<event>
13    1  0.2038932E-008  0.8306952E+02  0.7546771E-02  0.1429123E+00
          2   -1    0    0  502    0  0.00000000000E+00  0.00000000000E+00  0.10236212839E+04  0.10236212839E+04  0.00000000000E+00 0. -1.
          2   -1    0    0  503    0 -0.00000000000E+00 -0.00000000000E+00 -0.20132965113E+04  0.20132965113E+04  0.00000000000E+00 0. -1.
         24    2    1    2    0    0  0.61063217637E+02 -0.21151936589E+02 -0.36897848799E+03  0.38298553523E+03  0.79728756602E+02 0.  0.
         25    2    1    2    0    0 -0.19997790344E+03  0.55516658160E+02  0.34834661830E+03  0.42432348963E+03  0.12502718174E+03 0.  0.
         24    2    1    2    0    0  0.81182458352E+02  0.46381438383E+02  0.10108152161E+03  0.15883572099E+03  0.79180066183E+02 0.  0.
        -13    1    5    5    0    0  0.86792624366E+02  0.26715568257E+02  0.10412300688E+03  0.13816034812E+03  0.00000000000E+00 0.  1.
         14    1    5    5    0    0 -0.56101660142E+01  0.19665870126E+02 -0.30414852712E+01  0.20675372867E+02  0.00000000000E+00 0. -1.
        -13    1    3    3    0    0  0.46553570700E+02  0.15359604733E+02 -0.29666617669E+03  0.30068916308E+03  0.00000000000E+00 0.  1.
         14    1    3    3    0    0  0.14509646938E+02 -0.36511541322E+02 -0.72312311298E+02  0.82296372151E+02  0.00000000000E+00 0. -1.
          5    1    4    4  501    0  0.68930659668E+01  0.25514010618E+02  0.78425706569E+02  0.82892463753E+02  0.47000000000E+01 0. -1.
         -5    1    4    4    0  501 -0.20687096940E+03  0.30002647541E+02  0.26992091173E+03  0.34143102588E+03  0.47000000000E+01 0. -1.
          1    1    1    2  502    0 -0.98786100446E+01 -0.32522272674E+02  0.49864724438E+03  0.49980432119E+03  0.00000000000E+00 0. -1.
          1    1    1    2  503    0  0.67610837494E+02 -0.48223887279E+02 -0.15687721237E+04  0.15709687281E+04  0.00000000000E+00 0. -1.
<mgrwt>
<rscale>  0 0.53136526E+02</rscale>
<asrwt>0</asrwt>
<pdfrwt beam="1">  1        2 0.15053254E+00 0.33989486E+02</pdfrwt>
<pdfrwt beam="2">  1        2 0.29607301E+00 0.83069522E+02</pdfrwt>
<totfact> 0.43129590E+01</totfact>
</mgrwt>
</event>
<event>
13    1  0.2038932E-008  0.8119985E+02  0.7546771E-02  0.1360668E+00
          2   -1    0    0  503    0  0.00000000000E+00  0.00000000000E+00  0.17542412934E+04  0.17542412934E+04  0.00000000000E+00 0. -1.
          2   -1    0    0  502    0 -0.00000000000E+00 -0.00000000000E+00 -0.10252745500E+04  0.10252745500E+04  0.00000000000E+00 0. -1.
         24    2    1    2    0    0 -0.12753977020E+02  0.76782800933E+02 -0.40402085613E+03  0.41932849140E+03  0.80902837165E+02 0.  0.
         25    2    1    2    0    0  0.24338441787E+02 -0.96229317936E+02 -0.62470304726E+01  0.15975622187E+03  0.12502233263E+03 0.  0.
         24    2    1    2    0    0  0.13943309379E+02  0.63008686154E+02  0.41536013517E+03  0.42841367339E+03  0.82763054854E+02 0.  0.
        -11    1    3    3    0    0  0.19163238685E+01 -0.16476017207E+02 -0.40880332119E+02  0.44117264130E+02  0.00000000000E+00 0.  1.
         12    1    3    3    0    0 -0.14670300889E+02  0.93258818140E+02 -0.36314052401E+03  0.37521122727E+03  0.00000000000E+00 0. -1.
        -11    1    5    5    0    0 -0.61101708490E+00  0.52746648941E+02  0.40369063458E+03  0.40712247636E+03  0.00000000000E+00 0.  1.
         12    1    5    5    0    0  0.14554326464E+02  0.10262037213E+02  0.11669500597E+02  0.21291197025E+02  0.00000000000E+00 0. -1.
          5    1    4    4  501    0 -0.43215327714E+00 -0.35381012998E+02 -0.63265069617E+02  0.72639946799E+02  0.47000000000E+01 0.  1.
         -5    1    4    4    0  501  0.24770595064E+02 -0.60848304939E+02  0.57018039145E+02  0.87116275068E+02  0.47000000000E+01 0.  1.
          1    1    1    2  502    0  0.47081196292E+02  0.37281392845E+02 -0.51997450996E+03  0.52343101962E+03  0.00000000000E+00 0. -1.
          1    1    1    2  503    0 -0.72608970438E+02 -0.80843561995E+02  0.12438490048E+04  0.12485864371E+04  0.00000000000E+00 0. -1.
<mgrwt>
<rscale>  0 0.69831332E+02</rscale>
<asrwt>0</asrwt>
<pdfrwt beam="1">  1        2 0.25797666E+00 0.81199845E+02</pdfrwt>
<pdfrwt beam="2">  1        2 0.15077567E+00 0.60054486E+02</pdfrwt>
<totfact> 0.55673749E+01</totfact>
</mgrwt>
</event>
<event>
13    1  0.2038932E-008  0.4617180E+02  0.7546771E-02  0.1533260E+00
          2   -1    0    0  502    0  0.00000000000E+00  0.00000000000E+00  0.36105649525E+04  0.36105649525E+04  0.00000000000E+00 0. -1.
          2   -1    0    0  503    0 -0.00000000000E+00 -0.00000000000E+00 -0.26904080385E+04  0.26904080385E+04  0.00000000000E+00 0. -1.
         24    2    1    2    0    0  0.26489710095E+02  0.21435821782E+02 -0.11091115092E+04  0.11126324521E+04  0.81617610698E+02 0.  0.
         25    2    1    2    0    0 -0.15971053024E+02 -0.11496669557E+03  0.13039747878E+03  0.21470569187E+03  0.12499046374E+03 0.  0.
         24    2    1    2    0    0 -0.83532984162E+02  0.82209799153E+02 -0.37203767353E+03  0.39820801360E+03  0.80133520131E+02 0.  0.
        -11    1    3    3    0    0 -0.23179153163E+02  0.21584203803E+01 -0.12968202920E+03  0.13175492635E+03  0.00000000000E+00 0.  1.
         12    1    3    3    0    0  0.49668863258E+02  0.19277401402E+02 -0.97942948005E+03  0.98087752577E+03  0.00000000000E+00 0. -1.
        -11    1    5    5    0    0 -0.22377937972E+02  0.21971652519E+02 -0.23322207715E+02  0.39082617556E+02  0.00000000000E+00 0.  1.
         12    1    5    5    0    0 -0.61155046190E+02  0.60238146634E+02 -0.34871546582E+03  0.35912539605E+03  0.00000000000E+00 0. -1.
          5    1    4    4  501    0  0.27959757562E+02 -0.12249525487E+03  0.97597564706E+02  0.15916723955E+03  0.47000000000E+01 0.  1.
         -5    1    4    4    0  501 -0.43930810586E+02  0.75285592961E+01  0.32799914071E+02  0.55538452327E+02  0.47000000000E+01 0.  1.
          1    1    1    2  502    0  0.43863477947E+02  0.14407649953E+02  0.34228255807E+04  0.34231369446E+04  0.00000000000E+00 0. -1.
          1    1    1    2  503    0  0.29150849145E+02 -0.30865753150E+01 -0.11519169627E+04  0.11522898889E+04  0.00000000000E+00 0. -1.
<mgrwt>
<rscale>  0 0.36789549E+02</rscale>
<asrwt>0</asrwt>
<pdfrwt beam="1">  1        2 0.53096543E+00 0.46171798E+02</pdfrwt>
<pdfrwt beam="2">  1        2 0.39564824E+00 0.29313801E+02</pdfrwt>
<totfact> 0.11941459E+00</totfact>
</mgrwt>
</event>
<event>
13    1  0.2038932E-008  0.9515262E+02  0.7546771E-02  0.1337274E+00
          2   -1    0    0  503    0  0.00000000000E+00  0.00000000000E+00  0.95934087197E+02  0.95934087197E+02  0.00000000000E+00 0. -1.
          2   -1    0    0  502    0 -0.00000000000E+00 -0.00000000000E+00 -0.20954464218E+04  0.20954464218E+04  0.00000000000E+00 0. -1.
         24    2    1    2    0    0 -0.16526393023E+02  0.24416993496E+02 -0.10306521363E+04  0.10341625238E+04  0.79868569326E+02 0.  0.
         25    2    1    2    0    0  0.57178187185E+02  0.57138067555E+02 -0.57666299632E+02  0.15963060604E+03  0.12498969724E+03 0.  0.
         24    2    1    2    0    0  0.10173633646E+02 -0.13632537175E+02 -0.73487035882E+02  0.11132933173E+03  0.81881174699E+02 0.  0.
        -11    1    5    5    0    0 -0.28568388332E+02  0.17725152707E+02 -0.26184146681E+02  0.42613887265E+02  0.00000000000E+00 0.  1.
         12    1    5    5    0    0  0.38742021979E+02 -0.31357689882E+02 -0.47302889201E+02  0.68715444468E+02  0.00000000000E+00 0. -1.
        -11    1    3    3    0    0 -0.15264864599E+02  0.53638188197E+02 -0.64948426413E+03  0.65187412947E+03  0.00000000000E+00 0.  1.
         12    1    3    3    0    0 -0.12615284238E+01 -0.29221194701E+02 -0.38116787215E+03  0.38228839432E+03  0.00000000000E+00 0. -1.
          5    1    4    4  501    0  0.68575549626E+02  0.90137573594E+02 -0.39865398435E+02  0.12016125903E+03  0.47000000000E+01 0. -1.
         -5    1    4    4    0  501 -0.11397362441E+02 -0.32999506039E+02 -0.17800901197E+02  0.39469347003E+02  0.47000000000E+01 0. -1.
          1    1    1    2  502    0 -0.98569353057E+02 -0.27451378428E+02 -0.81228340854E+03  0.81870252921E+03  0.00000000000E+00 0. -1.
          1    1    1    2  503    0  0.47743925249E+02 -0.40471145447E+02 -0.25423454222E+02  0.67555518180E+02  0.00000000000E+00 0. -1.
<mgrwt>
<rscale>  0 0.77171997E+02</rscale>
<asrwt>0</asrwt>
<pdfrwt beam="1">  1        2 0.14107955E-01 0.62589105E+02</pdfrwt>
<pdfrwt beam="2">  1        2 0.30815385E+00 0.95152617E+02</pdfrwt>
<totfact> 0.50012595E+02</totfact>
</mgrwt>
</event>
<event>
13    1  0.2038932E-008  0.9077673E+02  0.7546771E-02  0.1368204E+00
          2   -1    0    0  503    0  0.00000000000E+00  0.00000000000E+00  0.23999572229E+04  0.23999572229E+04  0.00000000000E+00 0. -1.
          2   -1    0    0  502    0 -0.00000000000E+00 -0.00000000000E+00 -0.25311446156E+04  0.25311446156E+04  0.00000000000E+00 0. -1.
         24    2    1    2    0    0  0.76408700828E+02 -0.29507620114E+01 -0.25838766360E+03  0.28143831480E+03  0.81217878447E+02 0.  0.
         25    2    1    2    0    0 -0.12744998810E+03  0.92225156612E+02  0.28003647530E+03  0.34466764388E+03  0.12500551293E+03 0.  0.
         24    2    1    2    0    0  0.14891550953E+01 -0.41375143493E+02 -0.93703615584E+02  0.13011915888E+03  0.80227849610E+02 0.  0.
        -11    1    3    3    0    0 -0.26829339859E+01 -0.13008091660E+02 -0.26275237970E+01  0.13539293361E+02  0.00000000000E+00 0.  1.
         12    1    3    3    0    0  0.79091634814E+02  0.10057329649E+02 -0.25576013980E+03  0.26789902144E+03  0.00000000000E+00 0. -1.
        -13    1    5    5    0    0 -0.11363548465E+01 -0.13865770701E+01 -0.89840878018E+02  0.89858762852E+02  0.00000000000E+00 0.  1.
         14    1    5    5    0    0  0.26255099418E+01 -0.39988566423E+02 -0.38627375658E+01  0.40260396031E+02  0.00000000000E+00 0. -1.
          5    1    4    4  501    0 -0.94842840088E+02  0.82818075115E+02  0.98515872676E+02  0.15994206780E+03  0.47000000000E+01 0.  1.
         -5    1    4    4    0  501 -0.32607148011E+02  0.94070814970E+01  0.18152060262E+03  0.18472557608E+03  0.47000000000E+01 0.  1.
          1    1    1    2  502    0  0.29824108656E+02  0.40682497028E+02 -0.21157033394E+04  0.21163046008E+04  0.00000000000E+00 0. -1.
          1    1    1    2  503    0  0.19728023520E+02 -0.88581748135E+02  0.20565707507E+04  0.20585721201E+04  0.00000000000E+00 0. -1.
<mgrwt>
<rscale>  0 0.67668992E+02</rscale>
<asrwt>0</asrwt>
<pdfrwt beam="1">  1        2 0.35293489E+00 0.90776726E+02</pdfrwt>
<pdfrwt beam="2">  1        2 0.37222715E+00 0.50443464E+02</pdfrwt>
<totfact> 0.51135987E+00</totfact>
</mgrwt>
</event>
<event>
13    1  0.2038932E-008  0.3962168E+02  0.7546771E-02  0.1591563E+00
          2   -1    0    0  502    0  0.00000000000E+00  0.00000000000E+00  0.29717645610E+04  0.29717645610E+04  0.00000000000E+00 0. -1.
          2   -1    0    0  503    0 -0.00000000000E+00 -0.00000000000E+00 -0.60203538040E+03  0.60203538040E+03  0.00000000000E+00 0. -1.
         24    2    1    2    0    0 -0.37670847567E+03  0.45232171500E+03 -0.35854925694E+02  0.59335071144E+03  0.65385637262E+02 0.  0.
         25    2    1    2    0    0  0.16910308385E+03  0.74473725602E+02  0.44720265131E+03  0.49975826331E+03  0.12500368649E+03 0.  0.
         24    2    1    2    0    0  0.24133186437E+03 -0.50829046705E+03  0.14576371719E+04  0.15645530998E+04  0.80746576091E+02 0.  0.
        -11    1    3    3    0    0 -0.88323104069E+02  0.12178197143E+03  0.17519268206E+02  0.15145541930E+03  0.00000000000E+00 0.  1.
         12    1    3    3    0    0 -0.28838537161E+03  0.33053974357E+03 -0.53374193900E+02  0.44189529213E+03  0.00000000000E+00 0. -1.
        -11    1    5    5    0    0  0.31447401715E+02 -0.50822446461E+02  0.23246730127E+03  0.24002688662E+03  0.00000000000E+00 0.  1.
         12    1    5    5    0    0  0.20988446265E+03 -0.45746802058E+03  0.12251698707E+04  0.13245262132E+04  0.00000000000E+00 0. -1.
          5    1    4    4  501    0  0.13966754286E+03  0.31118162369E+02  0.19378173900E+03  0.24093321674E+03  0.47000000000E+01 0. -1.
         -5    1    4    4    0  501  0.29435540984E+02  0.43355563233E+02  0.25342091231E+03  0.25882504657E+03  0.47000000000E+01 0. -1.
          1    1    1    2  502    0 -0.39383866494E+02  0.44384594680E+01  0.70721229266E+03  0.70832197181E+03  0.00000000000E+00 0. -1.
          1    1    1    2  503    0  0.56573939543E+01 -0.22943433026E+02 -0.20646800961E+03  0.20781589501E+03  0.00000000000E+00 0. -1.
<mgrwt>
<rscale>  0 0.30598787E+02</rscale>
<asrwt>0</asrwt>
<pdfrwt beam="1">  1        2 0.43702419E+00 0.39621682E+02</pdfrwt>
<pdfrwt beam="2">  1        2 0.88534616E-01 0.23630642E+02</pdfrwt>
<totfact> 0.30122247E+01</totfact>
</mgrwt>
</event>
<event>
13    1  0.2038932E-008  0.6232866E+02  0.7546771E-02  0.1423244E+00
          2   -1    0    0  503    0  0.00000000000E+00  0.00000000000E+00  0.25118843483E+04  0.25118843483E+04  0.00000000000E+00 0. -1.
          2   -1    0    0  502    0 -0.00000000000E+00 -0.00000000000E+00 -0.38276340304E+04  0.38276340304E+04  0.00000000000E+00 0. -1.
         24    2    1    2    0    0  0.60350965808E+03 -0.10522262538E+04 -0.53177125852E+03  0.13275097652E+04  0.89986157254E+02 0.  0.
         25    2    1    2    0    0  0.47064200710E+03  0.16312777915E+03  0.52063477725E+03  0.73130062221E+03  0.12500183030E+03 0.  0.
         24    2    1    2    0    0 -0.10644070232E+04  0.84316390349E+03 -0.14155610381E+04  0.19642635876E+04  0.10310533401E+03 0.  0.
        -13    1    5    5    0    0 -0.15902760382E+03  0.10485506150E+03 -0.24662863257E+03  0.31162484674E+03  0.00000000000E+00 0.  1.
         14    1    5    5    0    0 -0.90537941934E+03  0.73830884199E+03 -0.11689324055E+04  0.16526387409E+04  0.00000000000E+00 0. -1.
        -13    1    3    3    0    0  0.39218515419E+03 -0.59503541876E+03 -0.31577027863E+03  0.77947880896E+03  0.00000000000E+00 0.  1.
         14    1    3    3    0    0  0.21132450389E+03 -0.45719083509E+03 -0.21600097988E+03  0.54803095619E+03  0.00000000000E+00 0. -1.
          5    1    4    4  501    0  0.12101542341E+03 -0.13148108289E+02  0.11587656275E+03  0.16812814532E+03  0.47000000000E+01 0.  1.
         -5    1    4    4    0  501  0.34962658369E+03  0.17627588743E+03  0.40475821451E+03  0.56317247689E+03  0.47000000000E+01 0.  1.
          1    1    1    2  502    0  0.37470522023E+02  0.49834588478E+02 -0.11014039268E+04  0.11031673201E+04  0.00000000000E+00 0. -1.
          1    1    1    2  503    0 -0.47215164059E+02 -0.39000172635E+01  0.12123517641E+04  0.12132770837E+04  0.00000000000E+00 0. -1.
<mgrwt>
<rscale>  0 0.54340411E+02</rscale>
<asrwt>0</asrwt>
<pdfrwt beam="1">  1        2 0.36939476E+00 0.47375963E+02</pdfrwt>
<pdfrwt beam="2">  1        2 0.56288735E+00 0.62328660E+02</pdfrwt>
<totfact> 0.93726055E-01</totfact>
</mgrwt>
</event>
<event>
13    1  0.2038932E-008  0.7899137E+02  0.7546771E-02  0.1366661E+00
          2   -1    0    0  503    0  0.00000000000E+00  0.00000000000E+00  0.28683209295E+04  0.28683209295E+04  0.00000000000E+00 0. -1.
          2   -1    0    0  502    0 -0.00000000000E+00 -0.00000000000E+00 -0.20510966593E+04  0.20510966593E+04  0.00000000000E+00 0. -1.
         24    2    1    2    0    0 -0.61880256026E+02 -0.64543656845E+01 -0.38253711629E+03  0.39538940604E+03  0.78277149561E+02 0.  0.
         25    2    1    2    0    0  0.21987432416E+03  0.57012798143E+02  0.25083418491E+04  0.25217052230E+04  0.12499288876E+03 0.  0.
         24    2    1    2    0    0 -0.94493531001E+02 -0.35396995985E+02  0.14350687236E+02  0.12945135995E+03  0.79810636150E+02 0.  0.
        -13    1    3    3    0    0 -0.34075932120E+02  0.31343380907E+02 -0.26165629796E+03  0.26572089670E+03  0.00000000000E+00 0.  1.
         14    1    3    3    0    0 -0.27804323906E+02 -0.37797746591E+02 -0.12088081833E+03  0.12966850934E+03  0.00000000000E+00 0. -1.
        -13    1    5    5    0    0 -0.25442885373E+02  0.14226344975E+02 -0.22454263508E+02  0.36795696177E+02  0.00000000000E+00 0.  1.
         14    1    5    5    0    0 -0.69050645628E+02 -0.49623340961E+02  0.36804950744E+02  0.92655663772E+02  0.00000000000E+00 0. -1.
          5    1    4    4  501    0  0.10785058721E+03  0.45602955374E+02  0.69056990252E+03  0.70044290200E+03  0.47000000000E+01 0. -1.
         -5    1    4    4    0  501  0.11202373695E+03  0.11409842770E+02  0.18177719465E+04  0.18212623210E+04  0.47000000000E+01 0. -1.
          1    1    1    2  502    0 -0.65946821533E+02  0.43505167536E+02 -0.15937770484E+04  0.15957339887E+04  0.00000000000E+00 0. -1.
          1    1    1    2  503    0  0.24462844001E+01 -0.58666604009E+02  0.27084589851E+03  0.27713761107E+03  0.00000000000E+00 0. -1.
<mgrwt>
<rscale>  0 0.68104203E+02</rscale>
<asrwt>0</asrwt>
<pdfrwt beam="1">  1        2 0.42181190E+00 0.58717585E+02</pdfrwt>
<pdfrwt beam="2">  1        2 0.30163186E+00 0.78991369E+02</pdfrwt>
<totfact> 0.50948683E+00</totfact>
</mgrwt>
</event>
<event>
13    1  0.2038932E-008  0.7531636E+02  0.7546771E-02  0.1447149E+00
          2   -1    0    0  503    0  0.00000000000E+00  0.00000000000E+00  0.26905303842E+04  0.26905303842E+04  0.00000000000E+00 0. -1.
          2   -1    0    0  502    0 -0.00000000000E+00 -0.00000000000E+00 -0.13014259203E+04  0.13014259203E+04  0.00000000000E+00 0. -1.
         24    2    1    2    0    0 -0.15251248666E+02  0.61654489438E+02 -0.13771095006E+03  0.17156388404E+03  0.80224584055E+02 0.  0.
         25    2    1    2    0    0 -0.12351102925E+03 -0.11736885350E+03  0.15759934356E+03  0.26362076828E+03  0.12501173648E+03 0.  0.
         24    2    1    2    0    0  0.39093959391E+02  0.56662558809E+02 -0.37574203583E+02  0.11254047003E+03  0.80712783297E+02 0.  0.
        -11    1    3    3    0    0 -0.35912780401E+02  0.63549401768E+02 -0.13062917640E+03  0.14964035548E+03  0.00000000000E+00 0.  1.
         12    1    3    3    0    0  0.20661531735E+02 -0.18949123299E+01 -0.70817736607E+01  0.21923528561E+02  0.00000000000E+00 0. -1.
        -13    1    5    5    0    0  0.64222261145E+02  0.39949581494E+02 -0.30443085504E+02  0.81530665048E+02  0.00000000000E+00 0.  1.
         14    1    5    5    0    0 -0.25128301755E+02  0.16712977315E+02 -0.71311180794E+01  0.31009804979E+02  0.00000000000E+00 0. -1.
          5    1    4    4  501    0 -0.14770463350E+03 -0.11080769149E+03  0.12896781946E+03  0.22527714422E+03  0.47000000000E+01 0. -1.
         -5    1    4    4    0  501  0.24193604252E+02 -0.65611620098E+01  0.28631524101E+02  0.38343624059E+02  0.47000000000E+01 0. -1.
          1    1    1    2  502    0  0.72645520698E+02 -0.19453736153E+02 -0.10172217056E+04  0.10199979499E+04  0.00000000000E+00 0. -1.
          1    1    1    2  503    0  0.27022797826E+02  0.18505541408E+02  0.24240119797E+04  0.24242332322E+04  0.00000000000E+00 0. -1.
<mgrwt>
<rscale>  0 0.49666424E+02</rscale>
<asrwt>0</asrwt>
<pdfrwt beam="1">  1        2 0.39566623E+00 0.32751896E+02</pdfrwt>
<pdfrwt beam="2">  1        2 0.19138617E+00 0.75316362E+02</pdfrwt>
<totfact> 0.15861581E+01</totfact>
</mgrwt>
</event>
<event>
13    1  0.2038932E-008  0.1443531E+03  0.7546771E-02  0.1403949E+00
          2   -1    0    0  502    0  0.00000000000E+00  0.00000000000E+00  0.86694200448E+03  0.86694200448E+03  0.00000000000E+00 0. -1.
          4   -1    0    0  503    0 -0.00000000000E+00 -0.00000000000E+00 -0.18493854129E+04  0.18493854129E+04  0.00000000000E+00 0. -1.
         24    2    1    2    0    0 -0.18387724293E+03  0.84608508403E+02 -0.10256014151E+04  0.10483471304E+04  0.78765493969E+02 0.  0.
         25    2    1    2    0    0  0.22126571109E+03 -0.44390018758E+02  0.41186857607E+03  0.48599454107E+03  0.12500392526E+03 0.  0.
         24    2    1    2    0    0 -0.10330729533E+03 -0.15067273273E+03 -0.15777827901E+03  0.25421827622E+03  0.79738804748E+02 0.  0.
        -11    1    5    5    0    0 -0.61789489843E+02 -0.53091998886E+02 -0.11252772770E+03  0.13892152786E+03  0.00000000000E+00 0.  1.
         12    1    5    5    0    0 -0.41517805483E+02 -0.97580733840E+02 -0.45250551301E+02  0.11529674836E+03  0.00000000000E+00 0. -1.
        -13    1    3    3    0    0 -0.10597438009E+03  0.54369492982E+01 -0.49640087948E+03  0.50761595996E+03  0.00000000000E+00 0.  1.
         14    1    3    3    0    0 -0.77902862838E+02  0.79171559104E+02 -0.52920053560E+03  0.54073117045E+03  0.00000000000E+00 0. -1.
          5    1    4    4  501    0  0.10893177116E+03 -0.31377014756E+02  0.32221175072E+03  0.34160379114E+03  0.47000000000E+01 0. -1.
         -5    1    4    4    0  501  0.11233393993E+03 -0.13013004002E+02  0.89656825353E+02  0.14439074993E+03  0.47000000000E+01 0. -1.
          1    1    1    2  502    0  0.83407243846E+01 -0.22249291242E+02  0.34881856411E+03  0.34962692876E+03  0.00000000000E+00 0. -1.
          3    1    1    2  503    0  0.57578102783E+02  0.13270353432E+03 -0.55975085454E+03  0.57814054096E+03  0.00000000000E+00 0. -1.
<mgrwt>
<rscale>  0 0.58566337E+02</rscale>
<asrwt>0</asrwt>
<pdfrwt beam="1">  1        2 0.12749147E+00 0.23761285E+02</pdfrwt>
<pdfrwt beam="2">  1        4 0.27196844E+00 0.14435313E+03</pdfrwt>
<totfact> 0.10793141E+00</totfact>
</mgrwt>
</event>
<event>
13    1  0.2038932E-008  0.8473139E+02  0.7546771E-02  0.1330740E+00
          4   -1    0    0  503    0 -0.00000000000E+00  0.00000000000E+00  0.12084392085E+04  0.12084392085E+04  0.00000000000E+00 0. -1.
          2   -1    0    0  502    0  0.00000000000E+00 -0.00000000000E+00 -0.80345692734E+03  0.80345692734E+03  0.00000000000E+00 0. -1.
         24    2    1    2    0    0  0.15231616763E+03  0.30619250944E+02  0.36079579795E+02  0.17880517216E+03  0.80819552486E+02 0.  0.
         25    2    1    2    0    0 -0.18482152777E+03 -0.10769496039E+03  0.14565429242E+03  0.28739574765E+03  0.12499576490E+03 0.  0.
         24    2    1    2    0    0 -0.11831025430E+03  0.29085412771E+02 -0.57780758194E+02  0.15694160574E+03  0.80304259444E+02 0.  0.
        -13    1    3    3    0    0 -0.33715486731E+01 -0.69720931020E+01 -0.95260707557E+01  0.12276947777E+02  0.00000000000E+00 0.  1.
         14    1    3    3    0    0  0.15568771630E+03  0.37591344046E+02  0.45605650551E+02  0.16652822438E+03  0.00000000000E+00 0. -1.
        -13    1    5    5    0    0  0.78300392417E+01  0.14398708678E+02 -0.16873117120E+02  0.23523061184E+02  0.00000000000E+00 0.  1.
         14    1    5    5    0    0 -0.12614029355E+03  0.14686704093E+02 -0.40907641073E+02  0.13341854455E+03  0.00000000000E+00 0. -1.
          5    1    4    4  501    0 -0.43907110959E+02  0.19107652983E+01  0.90121035743E+02  0.10037617496E+03  0.47000000000E+01 0. -1.
         -5    1    4    4    0  501 -0.14091441681E+03 -0.10960572569E+03  0.55533256675E+02  0.18701957268E+03  0.47000000000E+01 0. -1.
          1    1    1    2  502    0  0.78669106181E+02  0.29739982045E+02 -0.54899513969E+03  0.55539981833E+03  0.00000000000E+00 0. -1.
          3    1    1    2  503    0  0.72146508267E+02  0.18250314633E+02  0.83002430686E+03  0.83335379199E+03  0.00000000000E+00 0. -1.
<mgrwt>
<rscale>  0 0.79407983E+02</rscale>
<asrwt>0</asrwt>
<pdfrwt beam="2">  1        2 0.11815543E+00 0.84731385E+02</pdfrwt>
<pdfrwt beam="1">  1        4 0.17771165E+00 0.74419034E+02</pdfrwt>
<totfact> 0.41637025E+00</totfact>
</mgrwt>
</event>
<event>
13    1  0.2038932E-008  0.4866817E+02  0.7546771E-02  0.1522605E+00
          2   -1    0    0  503    0  0.00000000000E+00  0.00000000000E+00  0.17367949944E+04  0.17367949944E+04  0.00000000000E+00 0. -1.
          2   -1    0    0  502    0 -0.00000000000E+00 -0.00000000000E+00 -0.89351913590E+03  0.89351913590E+03  0.00000000000E+00 0. -1.
         24    2    1    2    0    0  0.93692933907E+02 -0.15456100307E+03 -0.26099710574E+03  0.32811412980E+03  0.82897065302E+02 0.  0.
         25    2    1    2    0    0 -0.24803285757E+03  0.90168179746E+02  0.36041596081E+03  0.46386979755E+03  0.12499970078E+03 0.  0.
         24    2    1    2    0    0  0.14261669444E+03 -0.93483679010E+01 -0.18878541615E+02  0.16473515501E+03  0.79714229901E+02 0.  0.
        -13    1    5    5    0    0  0.24082307106E+02 -0.26658903884E+02 -0.26590062173E+02  0.44695481631E+02  0.00000000000E+00 0.  1.
         14    1    5    5    0    0  0.11853438733E+03  0.17310535983E+02  0.77115205585E+01  0.12003967338E+03  0.00000000000E+00 0. -1.
        -13    1    3    3    0    0 -0.46155445952E+01 -0.54492433296E+01  0.42728719387E+01  0.83219552618E+01  0.00000000000E+00 0.  1.
         14    1    3    3    0    0  0.98308478502E+02 -0.14911175974E+03 -0.26526997768E+03  0.31979217454E+03  0.00000000000E+00 0. -1.
          5    1    4    4  501    0 -0.22326400803E+03  0.32123223460E+02  0.30743702775E+03  0.38133756017E+03  0.47000000000E+01 0.  1.
         -5    1    4    4    0  501 -0.24768849540E+02  0.58044956285E+02  0.52978933064E+02  0.82532237376E+02  0.47000000000E+01 0.  1.
          1    1    1    2  502    0 -0.40925047106E+01  0.48435960004E+02 -0.45394927095E+03  0.45654433674E+03  0.00000000000E+00 0. -1.
          1    1    1    2  503    0  0.15815733932E+02  0.25305231223E+02  0.12166848160E+04  0.12170507112E+04  0.00000000000E+00 0. -1.
<mgrwt>
<rscale>  0 0.38109218E+02</rscale>
<asrwt>0</asrwt>
<pdfrwt beam="1">  1        2 0.25541103E+00 0.29841115E+02</pdfrwt>
<pdfrwt beam="2">  1        2 0.13139987E+00 0.48668172E+02</pdfrwt>
<totfact> 0.75144414E+01</totfact>
</mgrwt>
</event>
<event>
13    1  0.2038932E-008  0.2012986E+03  0.7546771E-02  0.1242336E+00
          2   -1    0    0  502    0  0.00000000000E+00  0.00000000000E+00  0.17120458875E+04  0.17120458875E+04  0.00000000000E+00 0. -1.
          4   -1    0    0  503    0 -0.00000000000E+00 -0.00000000000E+00 -0.24114808785E+04  0.24114808785E+04  0.00000000000E+00 0. -1.
         24    2    1    2    0    0  0.11958915925E+03  0.85342767990E+02 -0.84918077416E+03  0.86587812654E+03  0.83976114305E+02 0.  0.
         25    2    1    2    0    0  0.19878078681E+03 -0.44548364792E+02  0.10459078555E+04  0.10728686053E+04  0.12500177555E+03 0.  0.
         24    2    1    2    0    0 -0.21087009502E+03 -0.12795189505E+03  0.26829142228E+03  0.37167004596E+03  0.72941424239E+02 0.  0.
        -11    1    3    3    0    0  0.92231721704E+02  0.99813071775E+02 -0.74091400742E+03  0.75327478796E+03  0.00000000000E+00 0.  1.
         12    1    3    3    0    0  0.27357437550E+02 -0.14470303785E+02 -0.10826676674E+03  0.11260333859E+03  0.00000000000E+00 0. -1.
        -11    1    5    5    0    0  0.15899383588E+01  0.25360898981E+01 -0.22602453421E+01  0.37507819135E+01  0.00000000000E+00 0.  1.
         12    1    5    5    0    0 -0.21246003338E+03 -0.13048798495E+03  0.27055166763E+03  0.36791926404E+03  0.00000000000E+00 0. -1.
          5    1    4    4  501    0  0.19364525726E+03 -0.39356304377E+01  0.92682640859E+03  0.94685968153E+03  0.47000000000E+01 0. -1.
         -5    1    4    4    0  501  0.51355295505E+01 -0.40612734354E+02  0.11908144696E+03  0.12600892375E+03  0.47000000000E+01 0. -1.
          1    1    1    2  502    0  0.13609410506E+01 -0.72075003945E+02  0.31397878093E+03  0.32214799895E+03  0.00000000000E+00 0. -1.
          3    1    1    2  503    0 -0.10886079210E+03  0.15923249580E+03 -0.14784322756E+04  0.14909619892E+04  0.00000000000E+00 0. -1.
<mgrwt>
<rscale>  0 0.12046238E+03</rscale>
<asrwt>0</asrwt>
<pdfrwt beam="1">  1        2 0.25177145E+00 0.72087852E+02</pdfrwt>
<pdfrwt beam="2">  1        4 0.35462954E+00 0.20129861E+03</pdfrwt>
<totfact> 0.11809746E-01</totfact>
</mgrwt>
</event>
<event>
13    1  0.2038932E-008  0.1185404E+03  0.7546771E-02  0.1268831E+00
          2   -1    0    0  502    0  0.00000000000E+00  0.00000000000E+00  0.16335599249E+04  0.16335599249E+04  0.00000000000E+00 0. -1.
          4   -1    0    0  503    0 -0.00000000000E+00 -0.00000000000E+00 -0.22352607138E+03  0.22352607138E+03  0.00000000000E+00 0. -1.
         24    2    1    2    0    0 -0.96513762533E+02 -0.28037955643E+02  0.19641201302E+01  0.12867698731E+03  0.80329795094E+02 0.  0.
         25    2    1    2    0    0  0.67935170913E+02  0.10771161581E+03  0.24148518394E+03  0.30026153543E+03  0.12499966386E+03 0.  0.
         24    2    1    2    0    0  0.75089800529E+02  0.46946287406E+02  0.91878025251E+02  0.14910737396E+03  0.77129795794E+02 0.  0.
        -11    1    3    3    0    0 -0.36664403160E+02 -0.51801565072E+02  0.81538126647E+01  0.63985664520E+02  0.00000000000E+00 0.  1.
         12    1    3    3    0    0 -0.59849359372E+02  0.23763609429E+02 -0.61896925345E+01  0.64691322788E+02  0.00000000000E+00 0. -1.
        -13    1    5    5    0    0  0.83624158328E+02  0.58755104671E+02  0.74748507745E+02  0.12661951505E+03  0.00000000000E+00 0.  1.
         14    1    5    5    0    0 -0.85343577994E+01 -0.11808817265E+02  0.17129517506E+02  0.22487858907E+02  0.00000000000E+00 0. -1.
          5    1    4    4  501    0  0.31055257525E+02  0.61732012934E+02  0.22976968924E+03  0.23998222962E+03  0.47000000000E+01 0.  1.
         -5    1    4    4    0  501  0.36879913388E+02  0.45979602875E+02  0.11715494702E+02  0.60279305804E+02  0.47000000000E+01 0.  1.
          1    1    1    2  502    0 -0.93190903746E+02 -0.13565133515E+02  0.11376092677E+04  0.11415005052E+04  0.00000000000E+00 0. -1.
          3    1    1    2  503    0  0.46679694837E+02 -0.11305481406E+03 -0.62902743491E+02  0.13753959441E+03  0.00000000000E+00 0. -1.
<mgrwt>
<rscale>  0 0.10565654E+03</rscale>
<asrwt>0</asrwt>
<pdfrwt beam="1">  1        2 0.24022939E+00 0.94173018E+02</pdfrwt>
<pdfrwt beam="2">  1        4 0.32871482E-01 0.11854037E+03</pdfrwt>
<totfact> 0.62347756E+01</totfact>
</mgrwt>
</event>
<event>
13    1  0.2038932E-008  0.8322905E+02  0.7546771E-02  0.1364574E+00
          2   -1    0    0  503    0  0.00000000000E+00  0.00000000000E+00  0.26560145627E+03  0.26560145627E+03  0.00000000000E+00 0. -1.
          2   -1    0    0  502    0 -0.00000000000E+00 -0.00000000000E+00 -0.19227815560E+04  0.19227815560E+04  0.00000000000E+00 0. -1.
         24    2    1    2    0    0  0.12499190877E+03  0.20190125948E+02 -0.17133087755E+03  0.22397783098E+03  0.69146082515E+02 0.  0.
         25    2    1    2    0    0 -0.24543738455E+03  0.15940091971E+03 -0.43656678294E+03  0.54024403555E+03  0.12499959615E+03 0.  0.
         24    2    1    2    0    0  0.90048458882E+02 -0.64832801738E+02  0.68568915787E+02  0.15312143179E+03  0.80202615503E+02 0.  0.
        -11    1    5    5    0    0  0.16018213667E+02  0.18026159551E+02  0.35266314407E+01  0.24371350528E+02  0.00000000000E+00 0.  1.
         12    1    5    5    0    0  0.74030245215E+02 -0.82858961289E+02  0.65042284346E+02  0.12875008126E+03  0.00000000000E+00 0. -1.
        -13    1    3    3    0    0  0.11164095710E+03  0.31020294125E+02 -0.17127367634E+03  0.20678644578E+03  0.00000000000E+00 0.  1.
         14    1    3    3    0    0  0.13350951672E+02 -0.10830168178E+02 -0.57201204214E-01  0.17191385206E+02  0.00000000000E+00 0. -1.
          5    1    4    4  501    0 -0.19540145093E+03  0.12389547906E+03 -0.41477623551E+03  0.47496655913E+03  0.47000000000E+01 0. -1.
         -5    1    4    4    0  501 -0.50035933624E+02  0.35505440644E+02 -0.21790547435E+02  0.65277476410E+02  0.47000000000E+01 0. -1.
          1    1    1    2  502    0 -0.15581832066E+02 -0.81569885412E+02 -0.11822902855E+04  0.11852032564E+04  0.00000000000E+00 0. -1.
          1    1    1    2  503    0  0.45978848967E+02 -0.33188358504E+02  0.64438930465E+02  0.85836457592E+02  0.00000000000E+00 0. -1.
<mgrwt>
<rscale>  0 0.68698985E+02</rscale>
<asrwt>0</asrwt>
<pdfrwt beam="1">  1        2 0.39059038E-01 0.56705570E+02</pdfrwt>
<pdfrwt beam="2">  1        2 0.28276199E+00 0.83229047E+02</pdfrwt>
<totfact> 0.20269803E+02</totfact>
</mgrwt>
</event>
<event>
13    1  0.2038932E-008  0.1023215E+03  0.7546771E-02  0.1394143E+00
          2   -1    0    0  502    0  0.00000000000E+00  0.00000000000E+00  0.24182246173E+04  0.24182246173E+04  0.00000000000E+00 0. -1.
          4   -1    0    0  503    0 -0.00000000000E+00 -0.00000000000E+00 -0.13077326500E+04  0.13077326500E+04  0.00000000000E+00 0. -1.
         24    2    1    2    0    0  0.59827766255E+02  0.47733597557E+02 -0.20313745200E+03  0.23074767673E+03  0.78241983342E+02 0.  0.
         25    2    1    2    0    0  0.30720238124E+02 -0.89839532741E+02 -0.26110050063E+03  0.30465036888E+03  0.12499400449E+03 0.  0.
         24    2    1    2    0    0 -0.21424220188E+01 -0.22433499424E+02  0.30897732407E+02  0.88867807398E+02  0.80218236426E+02 0.  0.
        -13    1    5    5    0    0  0.26175762775E+02 -0.63513061387E+01 -0.16331170712E+02  0.31499472747E+02  0.00000000000E+00 0.  1.
         14    1    5    5    0    0 -0.28318184794E+02 -0.16082193286E+02  0.47228903119E+02  0.57368334651E+02  0.00000000000E+00 0. -1.
        -13    1    3    3    0    0  0.74473620725E+02  0.24999447490E+02 -0.17445509862E+03  0.19132661601E+03  0.00000000000E+00 0.  1.
         14    1    3    3    0    0 -0.14645854470E+02  0.22734150067E+02 -0.28682353380E+02  0.39421060714E+02  0.00000000000E+00 0. -1.
          5    1    4    4  501    0  0.53797349227E+02 -0.60997800416E+02 -0.25399827084E+03  0.26674350607E+03  0.47000000000E+01 0. -1.
         -5    1    4    4    0  501 -0.23077111102E+02 -0.28841732325E+02 -0.71022297865E+01  0.37906862812E+02  0.47000000000E+01 0. -1.
          1    1    1    2  502    0 -0.58046716024E+02  0.84315776495E+02  0.23212118351E+04  0.23234678725E+04  0.00000000000E+00 0. -1.
          3    1    1    2  503    0 -0.30358866336E+02 -0.19776341887E+02 -0.77737964760E+03  0.77822354177E+03  0.00000000000E+00 0. -1.
<mgrwt>
<rscale>  0 0.60887772E+02</rscale>
<asrwt>0</asrwt>
<pdfrwt beam="1">  1        2 0.35562127E+00 0.10232147E+03</pdfrwt>
<pdfrwt beam="2">  1        4 0.19231362E+00 0.36232092E+02</pdfrwt>
<totfact> 0.49124788E-01</totfact>
</mgrwt>
</event>
<event>
13    1  0.2038932E-008  0.8518771E+02  0.7546771E-02  0.1339304E+00
          2   -1    0    0  503    0  0.00000000000E+00  0.00000000000E+00  0.31575689179E+04  0.31575689179E+04  0.00000000000E+00 0. -1.
          2   -1    0    0  502    0 -0.00000000000E+00 -0.00000000000E+00 -0.38114658413E+03  0.38114658413E+03  0.00000000000E+00 0. -1.
         24    2    1    2    0    0 -0.69710339156E+02 -0.27518078884E+02 -0.61564648729E+02  0.12654654216E+03  0.81283733358E+02 0.  0.
         25    2    1    2    0    0  0.97067229263E+02  0.11652398361E+03  0.11987840050E+03  0.23020751224E+03  0.12499912813E+03 0.  0.
         24    2    1    2    0    0  0.93081348028E+02 -0.68965511925E+02  0.44675923178E+03  0.46863311804E+03  0.81257670135E+02 0.  0.
        -13    1    3    3    0    0 -0.48827098034E+02 -0.48630857595E+02 -0.13766841375E+02  0.70274972318E+02  0.00000000000E+00 0.  1.
         14    1    3    3    0    0 -0.20883241122E+02  0.21112778711E+02 -0.47797807354E+02  0.56271569842E+02  0.00000000000E+00 0. -1.
        -13    1    5    5    0    0  0.10214732649E+03 -0.51988726023E+02  0.42191669408E+03  0.43720773174E+03  0.00000000000E+00 0.  1.
         14    1    5    5    0    0 -0.90659784643E+01 -0.16976785902E+02  0.24842537697E+02  0.31425386303E+02  0.00000000000E+00 0. -1.
          5    1    4    4  501    0  0.20218289940E+02  0.35604981609E+02  0.11071528846E+03  0.11813745833E+03  0.47000000000E+01 0.  1.
         -5    1    4    4    0  501  0.76848939323E+02  0.80919002004E+02  0.91631120417E+01  0.11207005391E+03  0.47000000000E+01 0.  1.
          1    1    1    2  502    0 -0.57622974975E+02  0.37385748259E+02 -0.21490622938E+03  0.22561646404E+03  0.00000000000E+00 0. -1.
          1    1    1    2  503    0 -0.62815263160E+02 -0.57426141062E+02  0.24862555796E+04  0.24877118656E+04  0.00000000000E+00 0. -1.
<mgrwt>
<rscale>  0 0.76494514E+02</rscale>
<asrwt>0</asrwt>
<pdfrwt beam="1">  1        2 0.46434836E+00 0.85187710E+02</pdfrwt>
<pdfrwt beam="2">  1        2 0.56050970E-01 0.68688437E+02</pdfrwt>
<totfact> 0.33598526E+01</totfact>
</mgrwt>
</event>
<event>
13    1  0.2038932E-008  0.9104692E+02  0.7546771E-02  0.1431201E+00
          2   -1    0    0  503    0  0.00000000000E+00  0.00000000000E+00  0.38848219277E+04  0.38848219277E+04  0.00000000000E+00 0. -1.
          2   -1    0    0  502    0 -0.00000000000E+00 -0.00000000000E+00 -0.26098150937E+04  0.26098150937E+04  0.00000000000E+00 0. -1.
         24    2    1    2    0    0  0.72910722072E+02 -0.12099596695E+03 -0.10974913713E+03  0.19624611483E+03  0.80694901165E+02 0.  0.
         25    2    1    2    0    0 -0.23780353082E+03  0.19227905370E+03  0.16178181740E+04  0.16512065381E+04  0.12500253406E+03 0.  0.
         24    2    1    2    0    0  0.71446754706E+02 -0.40325495965E+01 -0.82852097729E+02  0.13653871590E+03  0.81593202089E+02 0.  0.
        -13    1    5    5    0    0  0.53391513574E+02 -0.40761703161E+02 -0.57284596492E+02  0.88281907329E+02  0.00000000000E+00 0.  1.
         14    1    5    5    0    0  0.18055241132E+02  0.36729153565E+02 -0.25567501237E+02  0.48256808571E+02  0.00000000000E+00 0. -1.
        -13    1    3    3    0    0  0.71259538166E+02 -0.13015300692E+03 -0.11286858540E+03  0.18643241284E+03  0.00000000000E+00 0.  1.
         14    1    3    3    0    0  0.16511839060E+01  0.91570399659E+01  0.31194482660E+01  0.98137019881E+01  0.00000000000E+00 0. -1.
          5    1    4    4  501    0 -0.69275033782E+02  0.26099127568E+02  0.19126820322E+03  0.20514826426E+03  0.47000000000E+01 0.  1.
         -5    1    4    4    0  501 -0.16852849704E+03  0.16617992613E+03  0.14265499708E+04  0.14460582739E+04  0.47000000000E+01 0.  1.
          1    1    1    2  502    0  0.82346724967E+02 -0.38813075129E+02 -0.23294318909E+04  0.23312100661E+04  0.00000000000E+00 0. -1.
          1    1    1    2  503    0  0.11099329075E+02 -0.28437462021E+02  0.21792217857E+04  0.21794355865E+04  0.00000000000E+00 0. -1.
<mgrwt>
<rscale>  0 0.52719725E+02</rscale>
<asrwt>0</asrwt>
<pdfrwt beam="1">  1        2 0.57129734E+00 0.30526781E+02</pdfrwt>
<pdfrwt beam="2">  1        2 0.38379634E+00 0.91046921E+02</pdfrwt>
<totfact> 0.82815539E-01</totfact>
</mgrwt>
</event>
<event>
13    1  0.2038932E-008  0.9485152E+02  0.7546771E-02  0.1377922E+00
          2   -1    0    0  503    0  0.00000000000E+00  0.00000000000E+00  0.12809698737E+04  0.12809698737E+04  0.00000000000E+00 0. -1.
          2   -1    0    0  502    0 -0.00000000000E+00 -0.00000000000E+00 -0.23612173187E+04  0.23612173187E+04  0.00000000000E+00 0. -1.
         24    2    1    2    0    0  0.31943303258E+03  0.14822861362E+03 -0.52607867278E+03  0.63797992036E+03  0.79059627055E+02 0.  0.
         25    2    1    2    0    0 -0.22709586491E+03 -0.10369171035E+03 -0.10289777383E+04  0.10661816682E+04  0.12499464395E+03 0.  0.
         24    2    1    2    0    0 -0.29073533973E+02 -0.84463950008E+02 -0.18939501564E+03  0.22389335220E+03  0.79235926088E+02 0.  0.
        -11    1    5    5    0    0 -0.43535640158E+02 -0.55036830945E+02 -0.66423412073E+02  0.96625433483E+02  0.00000000000E+00 0.  1.
         12    1    5    5    0    0  0.14462106184E+02 -0.29427119064E+02 -0.12297160357E+03  0.12726791872E+03  0.00000000000E+00 0. -1.
        -13    1    3    3    0    0  0.61141589779E+02  0.28460701309E+01 -0.60503292827E+02  0.86064176978E+02  0.00000000000E+00 0.  1.
         14    1    3    3    0    0  0.25829144280E+03  0.14538254349E+03 -0.46557537995E+03  0.55191574338E+03  0.00000000000E+00 0. -1.
          5    1    4    4  501    0 -0.81177933243E+02  0.24454820323E+02 -0.30662281214E+03  0.31816274767E+03  0.47000000000E+01 0.  1.
         -5    1    4    4    0  501 -0.14591793167E+03 -0.12814653067E+03 -0.72235492615E+03  0.74801892051E+03  0.47000000000E+01 0.  1.
          1    1    1    2  502    0 -0.49670929748E+02  0.82364580569E+02 -0.52013600646E+03  0.52895424245E+03  0.00000000000E+00 0. -1.
          1    1    1    2  503    0 -0.13592703946E+02 -0.42437533832E+02  0.11843399882E+04  0.11851780092E+04  0.00000000000E+00 0. -1.
<mgrwt>
<rscale>  0 0.65013100E+02</rscale>
<asrwt>0</asrwt>
<pdfrwt beam="1">  1        2 0.18837792E+00 0.44561260E+02</pdfrwt>
<pdfrwt beam="2">  1        2 0.34723784E+00 0.94851519E+02</pdfrwt>
<totfact> 0.20930985E+01</totfact>
</mgrwt>
</event>
<event>
13    1  0.2038932E-008  0.1527521E+03  0.7546771E-02  0.1230694E+00
          2   -1    0    0  503    0  0.00000000000E+00  0.00000000000E+00  0.11822929817E+04  0.11822929817E+04  0.00000000000E+00 0. -1.
          2   -1    0    0  502    0 -0.00000000000E+00 -0.00000000000E+00 -0.33180187494E+04  0.33180187494E+04  0.00000000000E+00 0. -1.
         24    2    1    2    0    0 -0.45187134474E+02  0.85969402150E+02 -0.90123483733E+03  0.90995336169E+03  0.79738781054E+02 0.  0.
         25    2    1    2    0    0  0.11998340956E+03 -0.17444994108E+03  0.54541870498E+03  0.59827655050E+03  0.12499786647E+03 0.  0.
         24    2    1    2    0    0  0.71024565336E+02  0.31504163915E+01  0.24355362528E+03  0.26629636019E+03  0.80876257713E+02 0.  0.
        -11    1    3    3    0    0 -0.66436497076E+02  0.53555247921E+02 -0.68211825207E+03  0.68743529334E+03  0.00000000000E+00 0.  1.
         12    1    3    3    0    0  0.21249362602E+02  0.32414154229E+02 -0.21911658526E+03  0.22251806835E+03  0.00000000000E+00 0. -1.
        -13    1    5    5    0    0  0.18931124855E+02 -0.25666195357E+02  0.16322906008E+03  0.16631556490E+03  0.00000000000E+00 0.  1.
         14    1    5    5    0    0  0.52093440481E+02  0.28816611748E+02  0.80324565195E+02  0.99980795293E+02  0.00000000000E+00 0. -1.
          5    1    4    4  501    0  0.13299756824E+02 -0.12793762599E+03  0.26399622137E+03  0.29370225497E+03  0.47000000000E+01 0.  1.
         -5    1    4    4    0  501  0.10668365274E+03 -0.46512315087E+02  0.28142248361E+03  0.30457429553E+03  0.47000000000E+01 0.  1.
          1    1    1    2  502    0 -0.12956610327E+03 -0.20421175887E+02 -0.23646146244E+04  0.23682497169E+04  0.00000000000E+00 0. -1.
          1    1    1    2  503    0 -0.16254737155E+02  0.10575129843E+03  0.34115136380E+03  0.35753574174E+03  0.00000000000E+00 0. -1.
<mgrwt>
<rscale>  0 0.12784145E+03</rscale>
<asrwt>0</asrwt>
<pdfrwt beam="1">  1        2 0.17386662E+00 0.10699324E+03</pdfrwt>
<pdfrwt beam="2">  1        2 0.48794393E+00 0.15275206E+03</pdfrwt>
<totfact> 0.65185943E+00</totfact>
</mgrwt>
</event>
<event>
13    1  0.2038932E-008  0.1106080E+03  0.7546771E-02  0.1347562E+00
          2   -1    0    0  503    0  0.00000000000E+00  0.00000000000E+00  0.30381230889E+04  0.30381230889E+04  0.00000000000E+00 0. -1.
          2   -1    0    0  502    0 -0.00000000000E+00 -0.00000000000E+00 -0.50044998963E+03  0.50044998963E+03  0.00000000000E+00 0. -1.
         24    2    1    2    0    0  0.61896379723E+02 -0.13408687856E+03  0.10158122829E+03  0.19578425228E+03  0.78754521598E+02 0.  0.
         25    2    1    2    0    0 -0.30276457382E+02  0.22835331252E+02  0.21343690135E+02  0.13235715570E+03  0.12499898932E+03 0.  0.
         24    2    1    2    0    0 -0.27885492123E+02 -0.28296564312E+02  0.95868556950E+03  0.96288121673E+03  0.80522792655E+02 0.  0.
        -13    1    5    5    0    0 -0.40937417901E+02  0.14266516511E+02  0.57222493294E+03  0.57386477462E+03  0.00000000000E+00 0.  1.
         14    1    5    5    0    0  0.13051925778E+02 -0.42563080823E+02  0.38646063656E+03  0.38901644210E+03  0.00000000000E+00 0. -1.
        -13    1    3    3    0    0  0.27309839921E+02 -0.12740157616E+03  0.67384219056E+02  0.14668886100E+03  0.00000000000E+00 0.  1.
         14    1    3    3    0    0  0.34586539802E+02 -0.66853024064E+01  0.34197009238E+02  0.49095391276E+02  0.00000000000E+00 0. -1.
          5    1    4    4  501    0 -0.66203919132E+01  0.45559082904E+01 -0.52098712644E+02  0.52924018636E+02  0.47000000000E+01 0.  1.
         -5    1    4    4    0  501 -0.23656065469E+02  0.18279422961E+02  0.73442402779E+02  0.79433137060E+02  0.47000000000E+01 0.  1.
          1    1    1    2  502    0  0.49179087751E+02  0.29695186594E+01 -0.39130044621E+03  0.39438995920E+03  0.00000000000E+00 0. -1.
          1    1    1    2  503    0 -0.52913517969E+02  0.13657859296E+03  0.18473630575E+04  0.18531604946E+04  0.00000000000E+00 0. -1.
<mgrwt>
<rscale>  0 0.73820768E+02</rscale>
<asrwt>0</asrwt>
<pdfrwt beam="1">  1        2 0.44678280E+00 0.11060796E+03</pdfrwt>
<pdfrwt beam="2">  1        2 0.73595588E-01 0.49268659E+02</pdfrwt>
<totfact> 0.28221688E+01</totfact>
</mgrwt>
</event>
<event>
13    1  0.2038932E-008  0.9023732E+02  0.7546771E-02  0.1322052E+00
          2   -1    0    0  503    0  0.00000000000E+00  0.00000000000E+00  0.13235550800E+04  0.13235550800E+04  0.00000000000E+00 0. -1.
          2   -1    0    0  502    0 -0.00000000000E+00 -0.00000000000E+00 -0.20344169680E+04  0.20344169680E+04  0.00000000000E+00 0. -1.
         24    2    1    2    0    0  0.37536380485E+03  0.11681300014E+03 -0.10499714176E+04  0.11239966898E+04  0.79908184485E+02 0.  0.
         25    2    1    2    0    0 -0.25458709931E+03 -0.21353866187E+02  0.46369738286E+02  0.28817660434E+03  0.12500009569E+03 0.  0.
         24    2    1    2    0    0 -0.21969699952E+03 -0.35884402624E+02 -0.49810700112E+03  0.55210473784E+03  0.84584839218E+02 0.  0.
        -13    1    5    5    0    0 -0.18770739203E+03 -0.55146347833E+02 -0.36834711235E+03  0.41707886530E+03  0.00000000000E+00 0.  1.
         14    1    5    5    0    0 -0.31989607489E+02  0.19261945209E+02 -0.12975988877E+03  0.13502587254E+03  0.00000000000E+00 0. -1.
        -13    1    3    3    0    0  0.12523161698E+03  0.72434144248E+02 -0.44239609795E+03  0.46545028803E+03  0.00000000000E+00 0.  1.
         14    1    3    3    0    0  0.25013218788E+03  0.44378855895E+02 -0.60757531962E+03  0.65854640176E+03  0.00000000000E+00 0. -1.
          5    1    4    4  501    0 -0.19832503863E+03  0.45501797045E+01 -0.17349229829E+02  0.19918988644E+03  0.47000000000E+01 0. -1.
         -5    1    4    4    0  501 -0.56262060681E+02 -0.25904045891E+02  0.63718968114E+02  0.88986717903E+02  0.47000000000E+01 0. -1.
          1    1    1    2  502    0  0.70778573075E+02  0.26165301463E+02 -0.29479932383E+03  0.30430391181E+03  0.00000000000E+00 0. -1.
          1    1    1    2  503    0  0.28141720902E+02 -0.85740032795E+02  0.10856461162E+04  0.10893901043E+04  0.00000000000E+00 0. -1.
<mgrwt>
<rscale>  0 0.82518595E+02</rscale>
<asrwt>0</asrwt>
<pdfrwt beam="1">  1        2 0.19464045E+00 0.90237317E+02</pdfrwt>
<pdfrwt beam="2">  1        2 0.29917897E+00 0.75460118E+02</pdfrwt>
<totfact> 0.28004513E+01</totfact>
</mgrwt>
</event>
<event>
13    1  0.2038932E-008  0.1027584E+03  0.7546771E-02  0.1381513E+00
          2   -1    0    0  502    0  0.00000000000E+00  0.00000000000E+00  0.14078222113E+04  0.14078222113E+04  0.00000000000E+00 0. -1.
          2   -1    0    0  503    0 -0.00000000000E+00 -0.00000000000E+00 -0.25110809199E+04  0.25110809199E+04  0.00000000000E+00 0. -1.
         24    2    1    2    0    0  0.31021967072E+03 -0.36995993380E+02 -0.11885214596E+04  0.12315974401E+04  0.81511022659E+02 0.  0.
         25    2    1    2    0    0 -0.21892263174E+03 -0.19510154285E+02  0.49292184481E+03  0.55399874877E+03  0.12503960869E+03 0.  0.
         24    2    1    2    0    0 -0.13424400350E+03  0.15096089412E+03  0.19433417665E+02  0.21906137975E+03  0.82459604343E+02 0.  0.
        -11    1    3    3    0    0  0.11699378661E+03 -0.40333474934E+02 -0.35451232000E+03  0.37549077264E+03  0.00000000000E+00 0.  1.
         12    1    3    3    0    0  0.19322588411E+03  0.33374815538E+01 -0.83400913959E+03  0.85610666741E+03  0.00000000000E+00 0. -1.
        -13    1    5    5    0    0 -0.59252990068E+02  0.12005690216E+03  0.30183266460E+02  0.13724287290E+03  0.00000000000E+00 0.  1.
         14    1    5    5    0    0 -0.74991013429E+02  0.30903991962E+02 -0.10749848795E+02  0.81818506851E+02  0.00000000000E+00 0. -1.
          5    1    4    4  501    0 -0.87951420273E+02 -0.21827792406E+02  0.34326587743E+03  0.35505697777E+03  0.47000000000E+01 0.  1.
         -5    1    4    4    0  501 -0.13097121147E+03  0.23176381215E+01  0.14965596737E+03  0.19894177100E+03  0.47000000000E+01 0.  1.
          1    1    1    2  502    0  0.39082862612E+02  0.82538322508E+01  0.74078142362E+03  0.74185760997E+03  0.00000000000E+00 0. -1.
          1    1    1    2  503    0  0.38641019081E+01 -0.10270857871E+03 -0.11678739350E+04  0.11723879527E+04  0.00000000000E+00 0. -1.
<mgrwt>
<rscale>  0 0.64067730E+02</rscale>
<asrwt>0</asrwt>
<pdfrwt beam="1">  1        2 0.20703268E+00 0.39944911E+02</pdfrwt>
<pdfrwt beam="2">  1        2 0.36927660E+00 0.10275837E+03</pdfrwt>
<totfact> 0.15281315E+01</totfact>
</mgrwt>
</event>
<event>
13    1  0.2038932E-008  0.7830593E+02  0.7546771E-02  0.1414961E+00
          2   -1    0    0  503    0  0.00000000000E+00  0.00000000000E+00  0.25761619645E+04  0.25761619645E+04  0.00000000000E+00 0. -1.
          2   -1    0    0  502    0 -0.00000000000E+00 -0.00000000000E+00 -0.96328207883E+03  0.96328207883E+03  0.00000000000E+00 0. -1.
         24    2    1    2    0    0  0.27137350659E+03 -0.17479170791E+03  0.38309742332E+03  0.50722047444E+03  0.79455979667E+02 0.  0.
         25    2    1    2    0    0 -0.21218534619E+03  0.16008355970E+03  0.43128631796E+03  0.52180351563E+03  0.12498661385E+03 0.  0.
         24    2    1    2    0    0 -0.79604205420E+02 -0.18815897073E+02  0.27877577840E+02  0.11873665922E+03  0.81427067946E+02 0.  0.
        -11    1    5    5    0    0 -0.50688867711E+01 -0.35152307543E+02  0.22923663264E+02  0.42271416775E+02  0.00000000000E+00 0.  1.
         12    1    5    5    0    0 -0.74535318649E+02  0.16336410471E+02  0.49539145756E+01  0.76465242449E+02  0.00000000000E+00 0. -1.
        -13    1    3    3    0    0  0.14952805080E+03 -0.82480059001E+02  0.25946144146E+03  0.31061525673E+03  0.00000000000E+00 0.  1.
         14    1    3    3    0    0  0.12184545579E+03 -0.92311648912E+02  0.12363598187E+03  0.19660521772E+03  0.00000000000E+00 0. -1.
          5    1    4    4  501    0 -0.67092275849E+02 -0.86740874727E+01  0.70130569093E+02  0.97555112594E+02  0.47000000000E+01 0.  1.
         -5    1    4    4    0  501 -0.14509307035E+03  0.16875764717E+03  0.36115574886E+03  0.42424840303E+03  0.47000000000E+01 0.  1.
          1    1    1    2  502    0 -0.30091438033E+02 -0.26645780651E+02 -0.80905744508E+03  0.81005520905E+03  0.00000000000E+00 0. -1.
          1    1    1    2  503    0  0.50507483056E+02  0.60169825937E+02  0.15796760117E+04  0.15816281850E+04  0.00000000000E+00 0. -1.
<mgrwt>
<rscale>  0 0.56101379E+02</rscale>
<asrwt>0</asrwt>
<pdfrwt beam="1">  1        2 0.37884735E+00 0.78305928E+02</pdfrwt>
<pdfrwt beam="2">  1        2 0.14165913E+00 0.40193187E+02</pdfrwt>
<totfact> 0.24810459E+01</totfact>
</mgrwt>
</event>
<event>
13    1  0.2038932E-008  0.2303066E+03  0.7546771E-02  0.1281231E+00
         -1   -1    0    0    0  501 -0.00000000000E+00  0.00000000000E+00  0.49633205029E+03  0.49633205029E+03  0.00000000000E+00 0.  1.
          2   -1    0    0  503    0  0.00000000000E+00 -0.00000000000E+00 -0.15347847677E+04  0.15347847677E+04  0.00000000000E+00 0. -1.
         24    2    1    2    0    0 -0.15459223661E+03  0.19941107686E+03 -0.12484356063E+03  0.29282903151E+03  0.80618793544E+02 0.  0.
         25    2    1    2    0    0  0.14811658543E+03 -0.45652328003E+03 -0.75139880799E+03  0.90032055266E+03  0.12499960325E+03 0.  0.
         24    2    1    2    0    0 -0.93229686027E+02  0.95545137109E+02 -0.97940600125E+02  0.18398746037E+03  0.80239496750E+02 0.  0.
        -11    1    5    5    0    0 -0.71767018239E+02  0.83326529361E+02 -0.33476316029E+02  0.11495424802E+03  0.00000000000E+00 0.  1.
         12    1    5    5    0    0 -0.21462667788E+02  0.12218607748E+02 -0.64464284095E+02  0.69033212353E+02  0.00000000000E+00 0. -1.
        -11    1    3    3    0    0 -0.57311312074E+02  0.12905935215E+03 -0.43304539788E+02  0.14770303326E+03  0.00000000000E+00 0.  1.
         12    1    3    3    0    0 -0.97280924536E+02  0.70351724707E+02 -0.81539020844E+02  0.14512599825E+03  0.00000000000E+00 0. -1.
          5    1    4    4  502    0  0.12771549123E+03 -0.22296762768E+03 -0.33234992068E+03  0.42012423099E+03  0.47000000000E+01 0.  1.
         -5    1    4    4    0  502  0.20401094198E+02 -0.23355565235E+03 -0.41904888731E+03  0.48019632167E+03  0.47000000000E+01 0.  1.
          1    1    1    2  503    0 -0.33355117986E+02 -0.27194926975E+02 -0.31219869518E+03  0.31515100067E+03  0.00000000000E+00 0. -1.
         -2    1    1    2    0  501  0.13306045520E+03  0.18876199304E+03  0.24792894651E+03  0.33882877279E+03  0.00000000000E+00 0.  1.
<mgrwt>
<rscale>  0 0.99556797E+02</rscale>
<asrwt>0</asrwt>
<pdfrwt beam="2">  1        2 0.22570364E+00 0.43036356E+02</pdfrwt>
<pdfrwt beam="1">  1       -1 0.72990009E-01 0.23030657E+03</pdfrwt>
<totfact> 0.37654599E+01</totfact>
</mgrwt>
</event>
<event>
13    1  0.2038932E-008  0.3198297E+03  0.7546771E-02  0.1121811E+00
         -1   -1    0    0    0  501 -0.00000000000E+00  0.00000000000E+00  0.50384078971E+03  0.50384078971E+03  0.00000000000E+00 0.  1.
          2   -1    0    0  503    0  0.00000000000E+00 -0.00000000000E+00 -0.38968801494E+04  0.38968801494E+04  0.00000000000E+00 0. -1.
         24    2    1    2    0    0  0.23042360830E+03 -0.32625739961E+01 -0.32323904053E+03  0.40500309062E+03  0.80239282351E+02 0.  0.
         25    2    1    2    0    0 -0.48852118084E+03 -0.65219183048E+03 -0.58168949009E+03  0.10089537728E+04  0.12497169602E+03 0.  0.
         24    2    1    2    0    0 -0.92859121505E+02  0.92888851317E+02 -0.13217562806E+03  0.21567238790E+03  0.10859570481E+03 0.  0.
        -13    1    5    5    0    0 -0.10520687364E+03  0.41025126014E+02 -0.66378452504E+02  0.13098719854E+03  0.00000000000E+00 0.  1.
         14    1    5    5    0    0  0.12347752132E+02  0.51863725304E+02 -0.65797175553E+02  0.84685189353E+02  0.00000000000E+00 0. -1.
        -13    1    3    3    0    0  0.24981449037E+02  0.20476315869E+02 -0.76602335032E+02  0.83134048620E+02  0.00000000000E+00 0.  1.
         14    1    3    3    0    0  0.20544215927E+03 -0.23738889865E+02 -0.24663670550E+03  0.32186904200E+03  0.00000000000E+00 0. -1.
          5    1    4    4  502    0 -0.31772320173E+03 -0.37495901155E+03 -0.28346484850E+03  0.56737703830E+03  0.47000000000E+01 0.  1.
         -5    1    4    4    0  502 -0.17079797911E+03 -0.27723281894E+03 -0.29822464158E+03  0.44157673446E+03  0.47000000000E+01 0.  1.
          1    1    1    2  503    0  0.98383367244E+02  0.14524599055E+03 -0.22687976091E+04  0.22755698793E+04  0.00000000000E+00 0. -1.
         -2    1    1    2    0  501  0.25257332680E+03  0.41731956262E+03 -0.87137591889E+02  0.49552180847E+03  0.00000000000E+00 0.  1.
<mgrwt>
<rscale>  0 0.23699520E+03</rscale>
<asrwt>0</asrwt>
<pdfrwt beam="2">  1        2 0.57307063E+00 0.17561449E+03</pdfrwt>
<pdfrwt beam="1">  1       -1 0.74094231E-01 0.31982966E+03</pdfrwt>
<totfact> 0.16994885E+00</totfact>
</mgrwt>
</event>
<event>
13    1  0.2038932E-008  0.6102121E+02  0.7546771E-02  0.1445446E+00
          2   -1    0    0  502    0  0.00000000000E+00  0.00000000000E+00  0.12364732570E+04  0.12364732570E+04  0.00000000000E+00 0. -1.
          2   -1    0    0  503    0 -0.00000000000E+00 -0.00000000000E+00 -0.14947404695E+04  0.14947404695E+04  0.00000000000E+00 0. -1.
         24    2    1    2    0    0 -0.42607214310E+02  0.88294581143E+02 -0.57687670619E+03  0.59085191780E+03  0.81902056432E+02 0.  0.
         25    2    1    2    0    0 -0.90341236511E+02  0.12582758589E+03  0.22571465976E+03  0.30094041018E+03  0.12499560978E+03 0.  0.
         24    2    1    2    0    0  0.11699546785E+03 -0.19700232835E+03  0.88541823441E+02  0.26206809142E+03  0.91335497854E+02 0.  0.
        -11    1    5    5    0    0 -0.73264192566E+01 -0.14872374643E+02 -0.11237380940E+02  0.20028546553E+02  0.00000000000E+00 0.  1.
         12    1    5    5    0    0  0.12432188711E+03 -0.18212995371E+03  0.99779204381E+02  0.24203954487E+03  0.00000000000E+00 0. -1.
        -11    1    3    3    0    0 -0.36316983956E+02  0.84091338187E+02 -0.29544724087E+03  0.30932078595E+03  0.00000000000E+00 0.  1.
         12    1    3    3    0    0 -0.62902303542E+01  0.42032429564E+01 -0.28142946532E+03  0.28153113185E+03  0.00000000000E+00 0. -1.
          5    1    4    4  501    0 -0.54641395913E+02  0.85256682131E+02  0.42600387908E+02  0.10996029759E+03  0.47000000000E+01 0. -1.
         -5    1    4    4    0  501 -0.35699840598E+02  0.40570903758E+02  0.18311427185E+03  0.19098011260E+03  0.47000000000E+01 0. -1.
          1    1    1    2  502    0 -0.40413254437E+02  0.65310429494E+01  0.78913408448E+03  0.79019522205E+03  0.00000000000E+00 0. -1.
          1    1    1    2  503    0  0.56366237408E+02 -0.23650881630E+02 -0.78478107396E+03  0.78715808512E+03  0.00000000000E+00 0. -1.
<mgrwt>
<rscale>  0 0.49980606E+02</rscale>
<asrwt>0</asrwt>
<pdfrwt beam="1">  1        2 0.18183430E+00 0.40937582E+02</pdfrwt>
<pdfrwt beam="2">  1        2 0.21981478E+00 0.61021213E+02</pdfrwt>
<totfact> 0.60242560E+01</totfact>
</mgrwt>
</event>
<event>
13    1  0.2038932E-008  0.2254915E+03  0.7546771E-02  0.1184322E+00
          2   -1    0    0  503    0  0.00000000000E+00  0.00000000000E+00  0.55663584953E+03  0.55663584953E+03  0.00000000000E+00 0. -1.
          2   -1    0    0  502    0 -0.00000000000E+00 -0.00000000000E+00 -0.16380939933E+04  0.16380939933E+04  0.00000000000E+00 0. -1.
         24    2    1    2    0    0 -0.11478934203E+03 -0.85008591941E+02 -0.36378751952E+03  0.39847172275E+03  0.77687197979E+02 0.  0.
         25    2    1    2    0    0  0.29240263721E+03  0.10707896393E+03 -0.31104844215E+03  0.45753874128E+03  0.12500143856E+03 0.  0.
         24    2    1    2    0    0  0.51925174028E+02  0.17485286041E+03 -0.14565982564E+03  0.24714871582E+03  0.81215493814E+02 0.  0.
        -13    1    5    5    0    0  0.71930873111E+02  0.15221367414E+03 -0.11359713284E+03  0.20309446495E+03  0.00000000000E+00 0.  1.
         14    1    5    5    0    0 -0.20005699083E+02  0.22639186269E+02 -0.32062692798E+02  0.44054250875E+02  0.00000000000E+00 0. -1.
        -13    1    3    3    0    0 -0.50857846243E+01 -0.10664593401E+02 -0.12349492155E+03  0.12405883445E+03  0.00000000000E+00 0.  1.
         14    1    3    3    0    0 -0.10970355741E+03 -0.74343998540E+02 -0.24029259797E+03  0.27441288830E+03  0.00000000000E+00 0. -1.
          5    1    4    4  501    0  0.17597997275E+03  0.12285977576E+03 -0.23066865606E+03  0.31510886087E+03  0.47000000000E+01 0. -1.
         -5    1    4    4    0  501  0.11642266446E+03 -0.15780811826E+02 -0.80379786091E+02  0.14242988041E+03  0.47000000000E+01 0. -1.
          1    1    1    2  502    0 -0.11916952196E+03 -0.19725247066E+01 -0.64014960306E+03  0.65115035139E+03  0.00000000000E+00 0. -1.
          1    1    1    2  503    0 -0.11036894725E+03 -0.19495070769E+03  0.37918724656E+03  0.44042031163E+03  0.00000000000E+00 0. -1.
<mgrwt>
<rscale>  0 0.16393718E+03</rscale>
<asrwt>0</asrwt>
<pdfrwt beam="1">  1        2 0.81858214E-01 0.22549153E+03</pdfrwt>
<pdfrwt beam="2">  1        2 0.24089617E+00 0.11918585E+03</pdfrwt>
<totfact> 0.12217177E+02</totfact>
</mgrwt>
</event>
<event>
13    1  0.2038932E-008  0.9329170E+02  0.7546771E-02  0.1377510E+00
          2   -1    0    0  502    0  0.00000000000E+00  0.00000000000E+00  0.37186773375E+03  0.37186773375E+03  0.00000000000E+00 0. -1.
          2   -1    0    0  503    0 -0.00000000000E+00 -0.00000000000E+00 -0.13385345514E+04  0.13385345514E+04  0.00000000000E+00 0. -1.
         24    2    1    2    0    0  0.46886259463E+02 -0.61383467829E+02 -0.23748856079E+03  0.26285962765E+03  0.82025093089E+02 0.  0.
         25    2    1    2    0    0 -0.42746779254E+01  0.86063674938E+02  0.12215477524E+03  0.19486015677E+03  0.12499385011E+03 0.  0.
         24    2    1    2    0    0 -0.32944144490E+02  0.29801372951E+02 -0.68391767256E+02  0.11510536477E+03  0.81230367988E+02 0.  0.
        -13    1    5    5    0    0 -0.52104769139E+01  0.51193949479E+02 -0.60084034296E+02  0.79107905485E+02  0.00000000000E+00 0.  1.
         14    1    5    5    0    0 -0.27733667576E+02 -0.21392576528E+02 -0.83077329596E+01  0.35997459280E+02  0.00000000000E+00 0. -1.
        -13    1    3    3    0    0  0.57117595831E+02 -0.75655605918E+01 -0.11261726927E+03  0.12650022450E+03  0.00000000000E+00 0.  1.
         14    1    3    3    0    0 -0.10231336369E+02 -0.53817907238E+02 -0.12487129151E+03  0.13635940315E+03  0.00000000000E+00 0. -1.
          5    1    4    4  501    0 -0.42835006178E+02  0.31092934854E+02 -0.24954017599E+01  0.53197042982E+02  0.47000000000E+01 0.  1.
         -5    1    4    4    0  501  0.38560328253E+02  0.54970740085E+02  0.12465017700E+03  0.14166311378E+03  0.47000000000E+01 0.  1.
          1    1    1    2  502    0  0.36140394332E+02  0.27576161154E+02  0.17205945745E+03  0.17796356275E+03  0.00000000000E+00 0. -1.
          1    1    1    2  503    0 -0.45807831380E+02 -0.82057741214E+02 -0.95500072226E+03  0.95961357318E+03  0.00000000000E+00 0. -1.
<mgrwt>
<rscale>  0 0.65122968E+02</rscale>
<asrwt>0</asrwt>
<pdfrwt beam="1">  1        2 0.54686431E-01 0.45459573E+02</pdfrwt>
<pdfrwt beam="2">  1        2 0.19684332E+00 0.93291703E+02</pdfrwt>
<totfact> 0.27338939E+02</totfact>
</mgrwt>
</event>
<event>
13    1  0.2038932E-008  0.6889374E+03  0.7546771E-02  0.1159310E+00
          2   -1    0    0  503    0  0.00000000000E+00  0.00000000000E+00  0.17139710867E+04  0.17139710867E+04  0.00000000000E+00 0. -1.
         -1   -1    0    0    0  501 -0.00000000000E+00 -0.00000000000E+00 -0.78414930353E+03  0.78414930353E+03  0.00000000000E+00 0.  1.
         24    2    1    2    0    0  0.26456983227E+02 -0.40224725939E+02  0.18995681733E+03  0.21181182997E+03  0.80390660690E+02 0.  0.
         25    2    1    2    0    0 -0.21324652286E+02  0.19520761636E+03  0.94873988855E+02  0.25136878185E+03  0.12499774577E+03 0.  0.
         24    2    1    2    0    0 -0.11248002595E+03 -0.10462220604E+03 -0.54197927343E+03  0.56872264490E+03  0.78143149177E+02 0.  0.
        -13    1    3    3    0    0 -0.28485889241E+02 -0.21374346567E+02  0.73286691641E+02  0.81481579199E+02  0.00000000000E+00 0.  1.
         14    1    3    3    0    0  0.54942872468E+02 -0.18850379372E+02  0.11667012569E+03  0.13033025077E+03  0.00000000000E+00 0. -1.
        -13    1    5    5    0    0 -0.12433937335E+03 -0.92335352829E+02 -0.47556685186E+03  0.50014990527E+03  0.00000000000E+00 0.  1.
         14    1    5    5    0    0  0.11859347405E+02 -0.12286853212E+02 -0.66412421566E+02  0.68572739635E+02  0.00000000000E+00 0. -1.
          5    1    4    4  502    0  0.32226968548E+01  0.16387394808E+03  0.12077185526E+03  0.20364917789E+03  0.47000000000E+01 0.  1.
         -5    1    4    4    0  502 -0.24547349141E+02  0.31333668286E+02 -0.25897866404E+02  0.47719603963E+02  0.47000000000E+01 0.  1.
          1    1    1    2  503    0 -0.40372720367E+02  0.32587813955E+02  0.12744794563E+04  0.12755351060E+04  0.00000000000E+00 0. -1.
         -2    1    1    2    0  501  0.14772041537E+03 -0.82948498336E+02 -0.87509205879E+02  0.19068202749E+03  0.00000000000E+00 0.  1.
<mgrwt>
<rscale>  0 0.18906254E+03</rscale>
<asrwt>0</asrwt>
<pdfrwt beam="1">  1        2 0.25205457E+00 0.51883737E+02</pdfrwt>
<pdfrwt beam="2">  1       -1 0.11531607E+00 0.68893737E+03</pdfrwt>
<totfact> 0.10734617E+01</totfact>
</mgrwt>
</event>
<event>
13    1  0.2038932E-008  0.4191260E+02  0.7546771E-02  0.1552867E+00
          2   -1    0    0  503    0  0.00000000000E+00  0.00000000000E+00  0.39119455143E+03  0.39119455143E+03  0.00000000000E+00 0. -1.
          2   -1    0    0  502    0 -0.00000000000E+00 -0.00000000000E+00 -0.12207358495E+04  0.12207358495E+04  0.00000000000E+00 0. -1.
         24    2    1    2    0    0 -0.40984745558E+02  0.87037918569E+02 -0.32233144749E+03  0.34573638606E+03  0.79879521595E+02 0.  0.
         25    2    1    2    0    0  0.14082899608E+03 -0.14221125340E+03 -0.98266518319E+02  0.25561410140E+03  0.12500165391E+03 0.  0.
         24    2    1    2    0    0 -0.31067963022E+02  0.62742572260E+02 -0.43335330621E+03  0.44609803013E+03  0.79413574284E+02 0.  0.
        -11    1    3    3    0    0 -0.61697254150E+01 -0.10782682811E+02 -0.81889060486E+01  0.14879178155E+02  0.00000000000E+00 0.  1.
         12    1    3    3    0    0 -0.34815020143E+02  0.97820601380E+02 -0.31414254144E+03  0.33085720791E+03  0.00000000000E+00 0. -1.
        -11    1    5    5    0    0 -0.56750122388E+02  0.32622867883E+02 -0.29622697050E+03  0.30337311343E+03  0.00000000000E+00 0.  1.
         12    1    5    5    0    0  0.25682159366E+02  0.30119704377E+02 -0.13712633571E+03  0.14272491670E+03  0.00000000000E+00 0. -1.
          5    1    4    4  501    0  0.14535662744E+02 -0.29909238283E+01 -0.62251560716E+02  0.64168356129E+02  0.47000000000E+01 0. -1.
         -5    1    4    4    0  501  0.12629333334E+03 -0.13922032957E+03 -0.36014957604E+02  0.19144574527E+03  0.47000000000E+01 0. -1.
          1    1    1    2  502    0 -0.40395742497E+02 -0.93792920309E+01 -0.26774929174E+03  0.27094182098E+03  0.00000000000E+00 0. -1.
          1    1    1    2  503    0 -0.28380545005E+02  0.18100546000E+01  0.29215926573E+03  0.29354006232E+03  0.00000000000E+00 0. -1.
<mgrwt>
<rscale>  0 0.34524182E+02</rscale>
<asrwt>0</asrwt>
<pdfrwt beam="1">  1        2 0.57528610E-01 0.28438207E+02</pdfrwt>
<pdfrwt beam="2">  1        2 0.17951998E+00 0.41912598E+02</pdfrwt>
<totfact> 0.31361672E+02</totfact>
</mgrwt>
</event>
<event>
13    1  0.2038932E-008  0.1393018E+03  0.7546771E-02  0.1323833E+00
          2   -1    0    0  503    0  0.00000000000E+00  0.00000000000E+00  0.27607453246E+04  0.27607453246E+04  0.00000000000E+00 0. -1.
         -1   -1    0    0    0  501 -0.00000000000E+00 -0.00000000000E+00 -0.17978631382E+03  0.17978631382E+03  0.00000000000E+00 0.  1.
         24    2    1    2    0    0 -0.70625520367E+01  0.87376584236E+02  0.69328321970E+02  0.13770709043E+03  0.80450478018E+02 0.  0.
         25    2    1    2    0    0  0.12266366629E+03 -0.63713323965E+02  0.20735610902E+03  0.27879794335E+03  0.12500389830E+03 0.  0.
         24    2    1    2    0    0  0.23951779341E+02  0.19740648767E+02 -0.31877084346E+02  0.90171169099E+02  0.78430289320E+02 0.  0.
        -11    1    5    5    0    0  0.41491839950E+02  0.11647767952E+02 -0.48361108817E+02  0.64776848694E+02  0.00000000000E+00 0.  1.
         12    1    5    5    0    0 -0.17540060609E+02  0.80928808155E+01  0.16484024471E+02  0.25394320405E+02  0.00000000000E+00 0. -1.
        -13    1    3    3    0    0 -0.39524026627E+02  0.73554520381E+02  0.52334956446E+02  0.98546252163E+02  0.00000000000E+00 0.  1.
         14    1    3    3    0    0  0.32461474591E+02  0.13822063855E+02  0.16993365525E+02  0.39160838266E+02  0.00000000000E+00 0. -1.
          5    1    4    4  502    0  0.57806020223E+02  0.34917449150E+02  0.65587086551E+02  0.94257732582E+02  0.47000000000E+01 0. -1.
         -5    1    4    4    0  502  0.64857646068E+02 -0.98630773115E+02  0.14176902247E+03  0.18454021077E+03  0.47000000000E+01 0. -1.
          1    1    1    2  503    0 -0.11277611676E+03 -0.83378329996E+02  0.23705592434E+04  0.23747045131E+04  0.00000000000E+00 0. -1.
         -2    1    1    2    0  501 -0.26776776836E+02  0.39974420957E+02 -0.34407579256E+02  0.59150922384E+02  0.00000000000E+00 0.  1.
<mgrwt>
<rscale>  0 0.81867918E+02</rscale>
<asrwt>0</asrwt>
<pdfrwt beam="1">  1        2 0.40599193E+00 0.13930178E+03</pdfrwt>
<pdfrwt beam="2">  1       -1 0.26439165E-01 0.48113928E+02</pdfrwt>
<totfact> 0.51374652E+01</totfact>
</mgrwt>
</event>
<event>
13    1  0.2038932E-008  0.1005919E+03  0.7546771E-02  0.1471181E+00
         -1   -1    0    0    0  501 -0.00000000000E+00  0.00000000000E+00  0.14983199762E+04  0.14983199762E+04  0.00000000000E+00 0.  1.
          2   -1    0    0  503    0  0.00000000000E+00 -0.00000000000E+00 -0.28665428166E+04  0.28665428166E+04  0.00000000000E+00 0. -1.
         24    2    1    2    0    0 -0.36387965581E+02  0.13616602324E+02  0.76661383498E+03  0.77209562381E+03  0.83218894605E+02 0.  0.
         25    2    1    2    0    0  0.23835433417E+03  0.19916828026E+03 -0.21635873592E+04  0.21893419327E+04  0.12500817901E+03 0.  0.
         24    2    1    2    0    0 -0.17274099416E+03 -0.12219789835E+03 -0.30811325291E+03  0.38221713889E+03  0.79902360534E+02 0.  0.
        -11    1    3    3    0    0 -0.34638800977E+02 -0.28395755063E+02  0.51974150465E+03  0.52166789924E+03  0.00000000000E+00 0.  1.
         12    1    3    3    0    0 -0.17491646037E+01  0.42012357387E+02  0.24687233033E+03  0.25042772457E+03  0.00000000000E+00 0. -1.
        -13    1    5    5    0    0 -0.14215854425E+02  0.11902091538E+02 -0.25294063363E+02  0.31361440360E+02  0.00000000000E+00 0.  1.
         14    1    5    5    0    0 -0.15852513973E+03 -0.13409998989E+03 -0.28281918955E+03  0.35085569853E+03  0.00000000000E+00 0. -1.
          5    1    4    4  502    0  0.23705389724E+03  0.20927502163E+03 -0.19515521563E+04  0.19770099882E+04  0.47000000000E+01 0. -1.
         -5    1    4    4    0  502  0.13004369326E+01 -0.10106741369E+02 -0.21203520290E+03  0.21233194443E+03  0.47000000000E+01 0. -1.
          1    1    1    2  503    0  0.19878321213E+02 -0.53666693893E+01 -0.33829588309E+03  0.33892189854E+03  0.00000000000E+00 0. -1.
         -2    1    1    2    0  501 -0.49103695642E+02 -0.85220314840E+02  0.67515981974E+03  0.68228619887E+03  0.00000000000E+00 0.  1.
<mgrwt>
<rscale>  0 0.45510307E+02</rscale>
<asrwt>0</asrwt>
<pdfrwt beam="2">  1        2 0.42155041E+00 0.20590017E+02</pdfrwt>
<pdfrwt beam="1">  1       -1 0.22034118E+00 0.10059186E+03</pdfrwt>
<totfact> 0.68624713E-01</totfact>
</mgrwt>
</event>
<event>
13    1  0.2038932E-008  0.1591605E+03  0.7546771E-02  0.1262321E+00
          2   -1    0    0  502    0  0.00000000000E+00  0.00000000000E+00  0.96299155909E+03  0.96299155909E+03  0.00000000000E+00 0. -1.
          2   -1    0    0  503    0 -0.00000000000E+00 -0.00000000000E+00 -0.79385418944E+03  0.79385418944E+03  0.00000000000E+00 0. -1.
         24    2    1    2    0    0  0.35366225314E+02 -0.18232736129E+02 -0.45644998214E+03  0.46550393342E+03  0.82244290218E+02 0.  0.
         25    2    1    2    0    0  0.13675129031E+03  0.57825698236E+02  0.11268823859E+03  0.22442762327E+03  0.12499756874E+03 0.  0.
         24    2    1    2    0    0  0.38324133253E+02  0.23099665853E+02 -0.47067297391E+02  0.10365694042E+03  0.80790451551E+02 0.  0.
        -11    1    5    5    0    0  0.20687774847E+02 -0.24609461749E+02 -0.41488761463E+02  0.52487398139E+02  0.00000000000E+00 0.  1.
         12    1    5    5    0    0  0.17636358406E+02  0.47709127602E+02 -0.55785359281E+01  0.51169542283E+02  0.00000000000E+00 0. -1.
        -13    1    3    3    0    0  0.33637407431E+02  0.27698849688E+02 -0.26865300030E+03  0.27216380366E+03  0.00000000000E+00 0.  1.
         14    1    3    3    0    0  0.17288178827E+01 -0.45931585817E+02 -0.18779698184E+03  0.19334012976E+03  0.00000000000E+00 0. -1.
          5    1    4    4  501    0 -0.21526037331E+02  0.19180973771E+02  0.29165206724E+02  0.41279284408E+02  0.47000000000E+01 0.  1.
         -5    1    4    4    0  501  0.15827732764E+03  0.38644724465E+02  0.83523031867E+02  0.18314833886E+03  0.47000000000E+01 0.  1.
          1    1    1    2  502    0 -0.13834059694E+03 -0.82339038354E+02  0.74579095850E+03  0.76296919452E+03  0.00000000000E+00 0. -1.
          1    1    1    2  503    0 -0.72101051942E+02  0.19646410395E+02 -0.18582454791E+03  0.20028805690E+03  0.00000000000E+00 0. -1.
<mgrwt>
<rscale>  0 0.10905975E+03</rscale>
<asrwt>0</asrwt>
<pdfrwt beam="1">  1        2 0.14161641E+00 0.15916047E+03</pdfrwt>
<pdfrwt beam="2">  1        2 0.11674326E+00 0.74729801E+02</pdfrwt>
<totfact> 0.18673721E+02</totfact>
</mgrwt>
</event>
<event>
13    1  0.4357484E-008  0.1357523E+03  0.7546771E-02  0.1371493E+00
          2   -1    0    0  503    0  0.00000000000E+00  0.00000000000E+00  0.33109868165E+04  0.33109868165E+04  0.00000000000E+00 0. -1.
          2   -1    0    0  502    0 -0.00000000000E+00 -0.00000000000E+00 -0.18102399105E+04  0.18102399105E+04  0.00000000000E+00 0. -1.
         24    2    1    2    0    0  0.49871723251E+02  0.44462576429E+02 -0.64196502541E+03  0.65039711104E+03  0.80207223580E+02 0.  0.
         25    2    1    2    0    0  0.11087083799E+03 -0.13627789513E+03  0.30107348747E+04  0.30184451774E+04  0.12499118257E+03 0.  0.
         24    2    1    2    0    0 -0.57172738197E+02 -0.14645360701E+02  0.95189188945E+02  0.13726477541E+03  0.79356337447E+02 0.  0.
        -11    1    3    3    0    0 -0.21034176465E+02  0.10218584329E+02 -0.21155908903E+03  0.21284760792E+03  0.00000000000E+00 0.  1.
         12    1    3    3    0    0  0.70905899716E+02  0.34243992100E+02 -0.43040593638E+03  0.43754950312E+03  0.00000000000E+00 0. -1.
        -13    1    5    5    0    0 -0.42685127348E+02  0.28742075056E+02  0.37668627768E+02  0.63773446615E+02  0.00000000000E+00 0.  1.
         14    1    5    5    0    0 -0.14487610849E+02 -0.43387435757E+02  0.57520561177E+02  0.73491328794E+02  0.00000000000E+00 0. -1.
          5    1    4    4  501    0  0.12827301413E+03 -0.89894374274E+02  0.25978762769E+04  0.26025983564E+04  0.47000000000E+01 0.  1.
         -5    1    4    4    0  501 -0.17402176139E+02 -0.46383520854E+02  0.41285859775E+03  0.41584682093E+03  0.47000000000E+01 0.  1.
          1    1    1    2  502    0 -0.81033652012E+02  0.13032694563E+03 -0.11324128251E+04  0.11427643554E+04  0.00000000000E+00 0. -1.
          1    1    1    2  503    0 -0.22536171028E+02 -0.23866266232E+02  0.16920069289E+03  0.17235530785E+03  0.00000000000E+00 0. -1.
<mgrwt>
<rscale>  0 0.66753762E+02</rscale>
<asrwt>0</asrwt>
<pdfrwt beam="1">  1        2 0.48690983E+00 0.32824955E+02</pdfrwt>
<pdfrwt beam="2">  1        2 0.26621175E+00 0.13575235E+03</pdfrwt>
<totfact> 0.41067061E+00</totfact>
</mgrwt>
</event>
<event>
13    1  0.2038932E-008  0.9702794E+02  0.7546771E-02  0.1413277E+00
          2   -1    0    0  502    0  0.00000000000E+00  0.00000000000E+00  0.59088481666E+03  0.59088481666E+03  0.00000000000E+00 0. -1.
          2   -1    0    0  503    0 -0.00000000000E+00 -0.00000000000E+00 -0.25268806106E+04  0.25268806106E+04  0.00000000000E+00 0. -1.
         24    2    1    2    0    0  0.11196950679E+03 -0.11784932556E+03 -0.11038405507E+04  0.11187345262E+04  0.81715021473E+02 0.  0.
         25    2    1    2    0    0 -0.25571823752E+03  0.10088525045E+03  0.24136260026E+01  0.30199696465E+03  0.12500676106E+03 0.  0.
         24    2    1    2    0    0  0.20474356386E+02 -0.16375094955E+02 -0.72750794797E+02  0.11064766513E+03  0.79138389235E+02 0.  0.
        -11    1    5    5    0    0  0.21602724759E+02  0.28180326893E+02 -0.47875971188E+02  0.59606351659E+02  0.00000000000E+00 0.  1.
         12    1    5    5    0    0 -0.11283683729E+01 -0.44555421848E+02 -0.24874823608E+02  0.51041313470E+02  0.00000000000E+00 0. -1.
        -13    1    3    3    0    0  0.51593804404E+02 -0.10905447289E+03 -0.76214710174E+03  0.77163657469E+03  0.00000000000E+00 0.  1.
         14    1    3    3    0    0  0.60375702390E+02 -0.87948526650E+01 -0.34169344895E+03  0.34709795149E+03  0.00000000000E+00 0. -1.
          5    1    4    4  501    0 -0.14794764244E+03  0.70007344746E+02  0.61834517655E+02  0.17502894274E+03  0.47000000000E+01 0.  1.
         -5    1    4    4    0  501 -0.10777059507E+03  0.30877905706E+02 -0.59420891652E+02  0.12696802191E+03  0.47000000000E+01 0.  1.
          1    1    1    2  502    0  0.95527405701E+02  0.15727571812E+02  0.40636633043E+03  0.41773967523E+03  0.00000000000E+00 0. -1.
          1    1    1    2  503    0  0.27746968635E+02  0.17611598250E+02 -0.11681844049E+04  0.11686465961E+04  0.00000000000E+00 0. -1.
<mgrwt>
<rscale>  0 0.56469071E+02</rscale>
<asrwt>0</asrwt>
<pdfrwt beam="1">  1        2 0.86894826E-01 0.97027940E+02</pdfrwt>
<pdfrwt beam="2">  1        2 0.37160009E+00 0.32864307E+02</pdfrwt>
<totfact> 0.50974525E+01</totfact>
</mgrwt>
</event>
<event>
13    1  0.2038932E-008  0.9684295E+02  0.7546771E-02  0.1360223E+00
          2   -1    0    0  502    0  0.00000000000E+00  0.00000000000E+00  0.14933825549E+04  0.14933825549E+04  0.00000000000E+00 0. -1.
          2   -1    0    0  503    0 -0.00000000000E+00 -0.00000000000E+00 -0.15280239412E+04  0.15280239412E+04  0.00000000000E+00 0. -1.
         24    2    1    2    0    0 -0.15009764500E+03  0.75332455134E+02 -0.48980393925E+03  0.52472405491E+03  0.84989134988E+02 0.  0.
         25    2    1    2    0    0  0.77010869947E+02 -0.19398631026E+03  0.93941474697E+02  0.26078928716E+03  0.12499875588E+03 0.  0.
         24    2    1    2    0    0 -0.47772553786E+01  0.22961715454E+02 -0.74527584031E+02  0.11195286705E+03  0.80181176804E+02 0.  0.
        -11    1    3    3    0    0 -0.31968762176E+02  0.24511879756E+02 -0.39504144444E+02  0.56421728372E+02  0.00000000000E+00 0.  1.
         12    1    3    3    0    0 -0.11812888282E+03  0.50820575377E+02 -0.45029979481E+03  0.46830232654E+03  0.00000000000E+00 0. -1.
        -11    1    5    5    0    0 -0.29624470972E+02 -0.64888667984E+01 -0.27052319313E+01  0.30447215842E+02  0.00000000000E+00 0.  1.
         12    1    5    5    0    0  0.24847215593E+02  0.29450582252E+02 -0.71822352100E+02  0.81505651208E+02  0.00000000000E+00 0. -1.
          5    1    4    4  501    0 -0.28947974017E+02 -0.87947601902E+02  0.44797090367E+02  0.10296424227E+03  0.47000000000E+01 0. -1.
         -5    1    4    4    0  501  0.10595884396E+03 -0.10603870836E+03  0.49144384330E+02  0.15782504489E+03  0.47000000000E+01 0. -1.
          1    1    1    2  502    0 -0.71535400344E+01  0.50033277137E+02  0.12765845808E+04  0.12775847110E+04  0.00000000000E+00 0. -1.
          1    1    1    2  503    0  0.85017570465E+02  0.45658862535E+02 -0.84083591856E+03  0.84635557596E+03  0.00000000000E+00 0. -1.
<mgrwt>
<rscale>  0 0.69961732E+02</rscale>
<asrwt>0</asrwt>
<pdfrwt beam="1">  1        2 0.21961508E+00 0.50542081E+02</pdfrwt>
<pdfrwt beam="2">  1        2 0.22470940E+00 0.96842946E+02</pdfrwt>
<totfact> 0.41263361E+01</totfact>
</mgrwt>
</event>
<event>
13    1  0.2038932E-008  0.2160471E+03  0.7546771E-02  0.1240182E+00
          2   -1    0    0  502    0  0.00000000000E+00  0.00000000000E+00  0.65433111574E+03  0.65433111574E+03  0.00000000000E+00 0. -1.
          2   -1    0    0  503    0 -0.00000000000E+00 -0.00000000000E+00 -0.58145436078E+03  0.58145436078E+03  0.00000000000E+00 0. -1.
         24    2    1    2    0    0  0.50270603271E+02 -0.37863784951E+02 -0.27091242479E+03  0.28998772351E+03  0.82088599175E+02 0.  0.
         25    2    1    2    0    0  0.15712676870E+03  0.22415725412E+03  0.28221460650E+03  0.41255925231E+03  0.12499902611E+03 0.  0.
         24    2    1    2    0    0 -0.35911194313E+02 -0.24755054296E+01  0.23784025057E+01  0.88985401751E+02  0.81344962488E+02 0.  0.
        -11    1    5    5    0    0  0.25894286943E+02  0.35576206982E+01 -0.44435689254E+01  0.26512564307E+02  0.00000000000E+00 0.  1.
         12    1    5    5    0    0 -0.61805481256E+02 -0.60331261279E+01  0.68219714311E+01  0.62472837445E+02  0.00000000000E+00 0. -1.
        -13    1    3    3    0    0 -0.20334602343E+02 -0.45994254677E+01 -0.99237535205E+02  0.10140384194E+03  0.00000000000E+00 0.  1.
         14    1    3    3    0    0  0.70605205614E+02 -0.33264359484E+02 -0.17167488958E+03  0.18858388156E+03  0.00000000000E+00 0. -1.
          5    1    4    4  501    0  0.13577464169E+03  0.16849937186E+03  0.27839864543E+03  0.35263959990E+03  0.47000000000E+01 0. -1.
         -5    1    4    4    0  501  0.21352127013E+02  0.55657882262E+02  0.38159610716E+01  0.59919652408E+02  0.47000000000E+01 0. -1.
          1    1    1    2  502    0 -0.11460697924E+03 -0.14538080433E+03  0.20916357699E+03  0.27932013873E+03  0.00000000000E+00 0. -1.
          1    1    1    2  503    0 -0.56879198418E+02 -0.38437159411E+02 -0.14996740624E+03  0.16493296023E+03  0.00000000000E+00 0. -1.
<mgrwt>
<rscale>  0 0.12178414E+03</rscale>
<asrwt>0</asrwt>
<pdfrwt beam="1">  1        2 0.96225164E-01 0.21604714E+03</pdfrwt>
<pdfrwt beam="2">  1        2 0.85507994E-01 0.68648805E+02</pdfrwt>
<totfact> 0.42546164E+02</totfact>
</mgrwt>
</event>
<event>
13    1  0.2038932E-008  0.5800322E+02  0.7546771E-02  0.1454366E+00
          2   -1    0    0  502    0  0.00000000000E+00  0.00000000000E+00  0.72860997474E+03  0.72860997474E+03  0.00000000000E+00 0. -1.
          4   -1    0    0  503    0 -0.00000000000E+00 -0.00000000000E+00 -0.12804357109E+04  0.12804357109E+04  0.00000000000E+00 0. -1.
         24    2    1    2    0    0  0.23264679978E+02  0.11059165831E+03 -0.29360214189E+03  0.32444369756E+03  0.79307849167E+02 0.  0.
         25    2    1    2    0    0 -0.14633339923E+03 -0.91532607869E+02  0.30012700142E+02  0.21521642089E+03  0.12500265444E+03 0.  0.
         24    2    1    2    0    0  0.60159654611E+02 -0.24612920123E+01 -0.70210696189E+01  0.94767782627E+02  0.72845008094E+02 0.  0.
        -11    1    3    3    0    0  0.14589319800E+02  0.20921147991E+01 -0.11014858180E+03  0.11113026262E+03  0.00000000000E+00 0.  1.
         12    1    3    3    0    0  0.86753601776E+01  0.10849954351E+03 -0.18345356009E+03  0.21331343494E+03  0.00000000000E+00 0. -1.
        -13    1    5    5    0    0  0.11958171159E-01  0.71447400488E+01  0.24966945332E+02  0.25969131918E+02  0.00000000000E+00 0.  1.
         14    1    5    5    0    0  0.60147696439E+02 -0.96060320611E+01 -0.31988014951E+02  0.68798650709E+02  0.00000000000E+00 0. -1.
          5    1    4    4  501    0 -0.16747786128E+03 -0.91789122483E+02  0.30967539270E+02  0.19353334471E+03  0.47000000000E+01 0. -1.
         -5    1    4    4    0  501  0.21144462049E+02  0.25651461429E+00 -0.95483912759E+00  0.21683076185E+02  0.47000000000E+01 0. -1.
          1    1    1    2  502    0  0.53441749708E+02  0.22603422316E+02  0.54466821661E+03  0.54775030944E+03  0.00000000000E+00 0. -1.
          3    1    1    2  503    0  0.94673149365E+01 -0.39201180746E+02 -0.82588344135E+03  0.82686747507E+03  0.00000000000E+00 0. -1.
<mgrwt>
<rscale>  0 0.48364912E+02</rscale>
<asrwt>0</asrwt>
<pdfrwt beam="1">  1        2 0.10714853E+00 0.58003222E+02</pdfrwt>
<pdfrwt beam="2">  1        4 0.18829937E+00 0.40328186E+02</pdfrwt>
<totfact> 0.40220988E+00</totfact>
</mgrwt>
</event>
<event>
13    1  0.2038932E-008  0.7124607E+02  0.7546771E-02  0.1389508E+00
          2   -1    0    0  502    0  0.00000000000E+00  0.00000000000E+00  0.26163746615E+04  0.26163746615E+04  0.00000000000E+00 0. -1.
          2   -1    0    0  503    0 -0.00000000000E+00 -0.00000000000E+00 -0.40233480541E+03  0.40233480541E+03  0.00000000000E+00 0. -1.
         24    2    1    2    0    0 -0.33733165437E+02  0.40227293488E+02 -0.57872475331E+02  0.11150967221E+03  0.79555150698E+02 0.  0.
         25    2    1    2    0    0  0.35372702231E+01  0.44914038038E+02  0.46468400364E+03  0.48330615783E+03  0.12499534336E+03 0.  0.
         24    2    1    2    0    0  0.30020625301E+02 -0.98606304207E+01 -0.15085412484E+02  0.88634868826E+02  0.81425428007E+02 0.  0.
        -13    1    3    3    0    0 -0.53796582928E+02  0.39596222177E+02 -0.21865460150E+02  0.70285357600E+02  0.00000000000E+00 0.  1.
         14    1    3    3    0    0  0.20063417491E+02  0.63107131120E+00 -0.36007015181E+02  0.41224314605E+02  0.00000000000E+00 0. -1.
        -13    1    5    5    0    0 -0.26450153774E+02  0.83343918075E+01 -0.15178799053E+01  0.27773668841E+02  0.00000000000E+00 0.  1.
         14    1    5    5    0    0  0.56470779076E+02 -0.18195022228E+02 -0.13567532579E+02  0.60861199985E+02  0.00000000000E+00 0. -1.
          5    1    4    4  501    0  0.49917673805E+02 -0.92137326844E+01  0.10654992319E+03  0.11811707396E+03  0.47000000000E+01 0.  1.
         -5    1    4    4    0  501 -0.46380403581E+02  0.54127770722E+02  0.35813408045E+03  0.36518908387E+03  0.47000000000E+01 0.  1.
          1    1    1    2  502    0 -0.48630505257E+02 -0.52161176611E+02  0.20753240758E+04  0.20765489963E+04  0.00000000000E+00 0. -1.
          1    1    1    2  503    0  0.48805775169E+02 -0.23119524494E+02 -0.25301033555E+03  0.25870977175E+03  0.00000000000E+00 0. -1.
<mgrwt>
<rscale>  0 0.62029251E+02</rscale>
<asrwt>0</asrwt>
<pdfrwt beam="1">  1        2 0.38476097E+00 0.71246066E+02</pdfrwt>
<pdfrwt beam="2">  1        2 0.59166885E-01 0.54004779E+02</pdfrwt>
<totfact> 0.62320647E+01</totfact>
</mgrwt>
</event>
<event>
13    1  0.2038932E-008  0.9087707E+02  0.7546771E-02  0.1465296E+00
          2   -1    0    0  503    0  0.00000000000E+00  0.00000000000E+00  0.16000893867E+04  0.16000893867E+04  0.00000000000E+00 0. -1.
          2   -1    0    0  502    0 -0.00000000000E+00 -0.00000000000E+00 -0.15151328102E+04  0.15151328102E+04  0.00000000000E+00 0. -1.
         24    2    1    2    0    0  0.46897793357E+02  0.25890477219E+03  0.64667181407E+03  0.70301325939E+03  0.82535590357E+02 0.  0.
         25    2    1    2    0    0 -0.21674601911E+02 -0.61426804129E+02  0.99998527697E+02  0.17282196922E+03  0.12499874747E+03 0.  0.
         24    2    1    2    0    0 -0.19994844073E+02 -0.12498284035E+03  0.69620814128E+03  0.71213280790E+03  0.80042838050E+02 0.  0.
        -11    1    3    3    0    0  0.10249279672E+02  0.87940596660E+02  0.12778558379E+03  0.15545980735E+03  0.00000000000E+00 0.  1.
         12    1    3    3    0    0  0.36648513685E+02  0.17096417553E+03  0.51888623028E+03  0.54755345204E+03  0.00000000000E+00 0. -1.
        -11    1    5    5    0    0  0.84556346916E+01 -0.12020977354E+03  0.53994847779E+03  0.55323254250E+03  0.00000000000E+00 0.  1.
         12    1    5    5    0    0 -0.28450478765E+02 -0.47730668138E+01  0.15625966349E+03  0.15890026540E+03  0.00000000000E+00 0. -1.
          5    1    4    4  501    0 -0.14089637050E+02 -0.93960488994E+02  0.10142750842E+03  0.13905653825E+03  0.47000000000E+01 0.  1.
         -5    1    4    4    0  501 -0.75849648608E+01  0.32533684865E+02 -0.14289807272E+01  0.33765430972E+02  0.47000000000E+01 0.  1.
          1    1    1    2  502    0  0.10547756542E+02 -0.90281424448E+02 -0.14394567814E+04  0.14423237557E+04  0.00000000000E+00 0. -1.
          1    1    1    2  503    0 -0.15776103914E+02  0.17786296737E+02  0.81534874857E+02  0.84930404593E+02  0.00000000000E+00 0. -1.
<mgrwt>
<rscale>  0 0.46482016E+02</rscale>
<asrwt>0</asrwt>
<pdfrwt beam="1">  1        2 0.23530726E+00 0.23774730E+02</pdfrwt>
<pdfrwt beam="2">  1        2 0.22281365E+00 0.90877069E+02</pdfrwt>
<totfact> 0.40157953E+01</totfact>
</mgrwt>
</event>
<event>
13    1  0.2038932E-008  0.1595574E+03  0.7546771E-02  0.1318614E+00
          2   -1    0    0  502    0  0.00000000000E+00  0.00000000000E+00  0.16394960781E+04  0.16394960781E+04  0.00000000000E+00 0. -1.
          2   -1    0    0  503    0 -0.00000000000E+00 -0.00000000000E+00 -0.24210056192E+04  0.24210056192E+04  0.00000000000E+00 0. -1.
         24    2    1    2    0    0 -0.89719339966E+02 -0.16311199256E+03 -0.46553639550E+03  0.50761807949E+03  0.79352989965E+02 0.  0.
         25    2    1    2    0    0  0.34615835264E+02 -0.25875901528E+03 -0.57417341215E+03  0.64300370125E+03  0.12499667422E+03 0.  0.
         24    2    1    2    0    0  0.98061466073E+02  0.22842570531E+03  0.32914084310E+03  0.41643143147E+03  0.57333136492E+02 0.  0.
        -13    1    5    5    0    0  0.51968433786E+02  0.14684373157E+03  0.16149319081E+03  0.22437435302E+03  0.00000000000E+00 0.  1.
         14    1    5    5    0    0  0.46093032287E+02  0.81581973733E+02  0.16764765229E+03  0.19205707845E+03  0.00000000000E+00 0. -1.
        -13    1    3    3    0    0 -0.28192205183E+02 -0.90785336483E+02 -0.32018228476E+03  0.33399621739E+03  0.00000000000E+00 0.  1.
         14    1    3    3    0    0 -0.61527134783E+02 -0.72326656080E+02 -0.14535411073E+03  0.17362186211E+03  0.00000000000E+00 0. -1.
          5    1    4    4  501    0  0.96976568416E+01 -0.10664924590E+03 -0.10874963311E+03  0.15269799901E+03  0.47000000000E+01 0. -1.
         -5    1    4    4    0  501  0.24918178422E+02 -0.15210976937E+03 -0.46542377904E+03  0.49030570224E+03  0.47000000000E+01 0. -1.
          1    1    1    2  502    0 -0.52510292899E+02  0.15048762855E+03  0.12056298679E+04  0.12161197456E+04  0.00000000000E+00 0. -1.
          1    1    1    2  503    0  0.95523315275E+01  0.42957673984E+02 -0.12765704445E+04  0.12773287395E+04  0.00000000000E+00 0. -1.
<mgrwt>
<rscale>  0 0.83795170E+02</rscale>
<asrwt>0</asrwt>
<pdfrwt beam="1">  1        2 0.24110237E+00 0.15955743E+03</pdfrwt>
<pdfrwt beam="2">  1        2 0.35603023E+00 0.44006918E+02</pdfrwt>
<totfact> 0.13064917E+01</totfact>
</mgrwt>
</event>
<event>
13    1  0.2038932E-008  0.2350914E+03  0.7546771E-02  0.1216780E+00
          2   -1    0    0  502    0  0.00000000000E+00  0.00000000000E+00  0.16532455265E+04  0.16532455265E+04  0.00000000000E+00 0. -1.
          2   -1    0    0  503    0 -0.00000000000E+00 -0.00000000000E+00 -0.59774224306E+03  0.59774224306E+03  0.00000000000E+00 0. -1.
         24    2    1    2    0    0 -0.59154743516E+02  0.74255656538E+01 -0.92837632335E+02  0.13889010160E+03  0.84363568196E+02 0.  0.
         25    2    1    2    0    0  0.17804930639E+03 -0.34755629015E+03  0.70327737588E+02  0.41601501697E+03  0.12500229334E+03 0.  0.
         24    2    1    2    0    0 -0.15699390250E+01 -0.10641033336E+03  0.29369842189E+03  0.32257669063E+03  0.80444605543E+02 0.  0.
        -11    1    3    3    0    0 -0.38448353601E+02 -0.32341417614E+02 -0.75775342877E+02  0.90918346751E+02  0.00000000000E+00 0.  1.
         12    1    3    3    0    0 -0.20706389915E+02  0.39766983268E+02 -0.17062289458E+02  0.47971754847E+02  0.00000000000E+00 0. -1.
        -11    1    5    5    0    0 -0.11334182343E+02  0.18503605608E+01  0.98381097752E+02  0.99049118717E+02  0.00000000000E+00 0.  1.
         12    1    5    5    0    0  0.97642433183E+01 -0.10826069392E+03  0.19531732414E+03  0.22352757191E+03  0.00000000000E+00 0. -1.
          5    1    4    4  501    0  0.10375110287E+03 -0.77527633167E+02  0.29926098304E+02  0.13301310691E+03  0.47000000000E+01 0. -1.
         -5    1    4    4    0  501  0.74298203524E+02 -0.27002865699E+03  0.40401639285E+02  0.28300191006E+03  0.47000000000E+01 0. -1.
          1    1    1    2  502    0 -0.52170443397E+02  0.49361562862E+03  0.10146467051E+04  0.11295512738E+04  0.00000000000E+00 0. -1.
          1    1    1    2  503    0 -0.65154180455E+02 -0.47074570764E+02 -0.23033194881E+03  0.24395468655E+03  0.00000000000E+00 0. -1.
<mgrwt>
<rscale>  0 0.13746581E+03</rscale>
<asrwt>0</asrwt>
<pdfrwt beam="1">  1        2 0.24312434E+00 0.23509141E+03</pdfrwt>
<pdfrwt beam="2">  1        2 0.87903271E-01 0.80380859E+02</pdfrwt>
<totfact> 0.10702556E+02</totfact>
</mgrwt>
</event>
<event>
13    1  0.2038932E-008  0.9468970E+02  0.7546771E-02  0.1347576E+00
          2   -1    0    0  503    0  0.00000000000E+00  0.00000000000E+00  0.16336667003E+03  0.16336667003E+03  0.00000000000E+00 0. -1.
          2   -1    0    0  502    0 -0.00000000000E+00 -0.00000000000E+00 -0.26331347409E+04  0.26331347409E+04  0.00000000000E+00 0. -1.
         24    2    1    2    0    0  0.65876816908E+02 -0.35797280293E+02 -0.10002016725E+03  0.14876176591E+03  0.80652519240E+02 0.  0.
         25    2    1    2    0    0 -0.17101787330E+03 -0.37534454488E+02 -0.30730966761E+02  0.21731241717E+03  0.12499738429E+03 0.  0.
         24    2    1    2    0    0 -0.43235362260E+02  0.42828049459E+02 -0.97650550494E+03  0.98175189111E+03  0.81056993204E+02 0.  0.
        -13    1    5    5    0    0 -0.20799572246E+02 -0.21564816601E+02 -0.19644391071E+03  0.19871555947E+03  0.00000000000E+00 0.  1.
         14    1    5    5    0    0 -0.22435790014E+02  0.64392866059E+02 -0.78006159423E+03  0.78303633163E+03  0.00000000000E+00 0. -1.
        -13    1    3    3    0    0  0.69310154646E+02 -0.73449325143E+01 -0.35620154738E+02  0.78272862438E+02  0.00000000000E+00 0.  1.
         14    1    3    3    0    0 -0.34333377385E+01 -0.28452347779E+02 -0.64400012509E+02  0.70488903476E+02  0.00000000000E+00 0. -1.
          5    1    4    4  501    0 -0.13539389533E+03  0.82736968369E+01  0.23500559007E+02  0.13774733111E+03  0.47000000000E+01 0. -1.
         -5    1    4    4    0  501 -0.35623977965E+02 -0.45808151325E+02 -0.54231525768E+02  0.79565086068E+02  0.47000000000E+01 0. -1.
          1    1    1    2  502    0  0.92104931567E+02  0.18467234344E+02 -0.13840484636E+04  0.13872326794E+04  0.00000000000E+00 0. -1.
          1    1    1    2  503    0  0.56271487085E+02  0.12036450978E+02  0.21537031659E+02  0.61442657361E+02  0.00000000000E+00 0. -1.
<mgrwt>
<rscale>  0 0.73816400E+02</rscale>
<asrwt>0</asrwt>
<pdfrwt beam="1">  1        2 0.24024513E-01 0.57544386E+02</pdfrwt>
<pdfrwt beam="2">  1        2 0.38722565E+00 0.94689705E+02</pdfrwt>
<totfact> 0.15015302E+02</totfact>
</mgrwt>
</event>
<event>
13    1  0.2038932E-008  0.1822995E+03  0.7546771E-02  0.1388407E+00
         -1   -1    0    0    0  501 -0.00000000000E+00  0.00000000000E+00  0.85991941295E+03  0.85991941295E+03  0.00000000000E+00 0.  1.
          2   -1    0    0  503    0  0.00000000000E+00 -0.00000000000E+00 -0.21016037311E+04  0.21016037311E+04  0.00000000000E+00 0. -1.
         24    2    1    2    0    0  0.96189895288E+02 -0.21332001787E+02  0.10722717420E+03  0.16635914049E+03  0.80437220747E+02 0.  0.
         25    2    1    2    0    0  0.13091234743E+03  0.18812374343E+03 -0.10897848078E+04  0.11206182785E+04  0.12500325350E+03 0.  0.
         24    2    1    2    0    0  0.57811943615E+02  0.17376261817E+02 -0.70321940071E+02  0.12209708901E+03  0.79488166359E+02 0.  0.
        -13    1    5    5    0    0  0.53317791507E+02  0.43625505089E+02 -0.33367256392E+02  0.76546361015E+02  0.00000000000E+00 0.  1.
         14    1    5    5    0    0  0.44941521082E+01 -0.26249243272E+02 -0.36954683678E+02  0.45550727999E+02  0.00000000000E+00 0. -1.
        -13    1    3    3    0    0  0.82226010849E+02  0.18453573699E+02  0.79798062646E+02  0.11605766689E+03  0.00000000000E+00 0.  1.
         14    1    3    3    0    0  0.13963884440E+02 -0.39785575486E+02  0.27429111555E+02  0.50301473597E+02  0.00000000000E+00 0. -1.
          5    1    4    4  502    0  0.20154337878E+02  0.13326658921E+03 -0.64546454031E+03  0.65940332417E+03  0.47000000000E+01 0. -1.
         -5    1    4    4    0  502  0.11075800955E+03  0.54857154224E+02 -0.44432026747E+03  0.46121495437E+03  0.47000000000E+01 0. -1.
          1    1    1    2  503    0 -0.18165187194E+02 -0.11111135931E+02 -0.83341214540E+03  0.83368413411E+03  0.00000000000E+00 0. -1.
         -2    1    1    2    0  501 -0.26674899914E+03 -0.17305686753E+03  0.64460740088E+03  0.71876450192E+03  0.00000000000E+00 0.  1.
<mgrwt>
<rscale>  0 0.62304667E+02</rscale>
<asrwt>0</asrwt>
<pdfrwt beam="2">  1        2 0.30905937E+00 0.21293928E+02</pdfrwt>
<pdfrwt beam="1">  1       -1 0.12645874E+00 0.18229946E+03</pdfrwt>
<totfact> 0.67829757E+00</totfact>
</mgrwt>
</event>
<event>
13    1  0.2038932E-008  0.1125824E+03  0.7546771E-02  0.1284680E+00
          2   -1    0    0  503    0  0.00000000000E+00  0.00000000000E+00  0.12595393838E+04  0.12595393838E+04  0.00000000000E+00 0. -1.
          2   -1    0    0  502    0 -0.00000000000E+00 -0.00000000000E+00 -0.23271674754E+04  0.23271674754E+04  0.00000000000E+00 0. -1.
         24    2    1    2    0    0  0.12390695649E+02 -0.21372898305E+02 -0.31233993208E+03  0.32252873061E+03  0.76539001665E+02 0.  0.
         25    2    1    2    0    0 -0.17898519425E+03  0.12727970892E+03 -0.53094364047E+03  0.58801485925E+03  0.12499800512E+03 0.  0.
         24    2    1    2    0    0  0.72099652491E+02 -0.92727317900E+02  0.21364287422E+03  0.25772244481E+03  0.83551573760E+02 0.  0.
        -13    1    5    5    0    0  0.38616311065E+02 -0.65388147349E+02  0.19747112172E+03  0.21156954698E+03  0.00000000000E+00 0.  1.
         14    1    5    5    0    0  0.33483341426E+02 -0.27339170551E+02  0.16171752504E+02  0.46152897835E+02  0.00000000000E+00 0. -1.
        -13    1    3    3    0    0 -0.19931742980E+02  0.19232574075E+02 -0.87622204271E+02  0.91895685236E+02  0.00000000000E+00 0.  1.
         14    1    3    3    0    0  0.32322438629E+02 -0.40605472380E+02 -0.22471772781E+03  0.23063304537E+03  0.00000000000E+00 0. -1.
          5    1    4    4  501    0 -0.80353282978E+02  0.13098468147E+03 -0.33313964207E+03  0.36690291357E+03  0.47000000000E+01 0.  1.
         -5    1    4    4    0  501 -0.98631911272E+02 -0.37049725457E+01 -0.19780399840E+03  0.22111194569E+03  0.47000000000E+01 0.  1.
          1    1    1    2  502    0  0.14573637112E+03  0.54888938371E+02 -0.14221229261E+04  0.14306241653E+04  0.00000000000E+00 0. -1.
          1    1    1    2  503    0 -0.51241525006E+02 -0.68068431089E+02  0.98413553288E+03  0.98781665924E+03  0.00000000000E+00 0. -1.
<mgrwt>
<rscale>  0 0.97943795E+02</rscale>
<asrwt>0</asrwt>
<pdfrwt beam="1">  1        2 0.18522638E+00 0.85208612E+02</pdfrwt>
<pdfrwt beam="2">  1        2 0.34223050E+00 0.11258236E+03</pdfrwt>
<totfact> 0.20917359E+01</totfact>
</mgrwt>
</event>
<event>
13    1  0.2038932E-008  0.9432738E+02  0.7546771E-02  0.1330716E+00
          2   -1    0    0  502    0  0.00000000000E+00  0.00000000000E+00  0.14939698250E+04  0.14939698250E+04  0.00000000000E+00 0. -1.
          2   -1    0    0  503    0 -0.00000000000E+00 -0.00000000000E+00 -0.31040324932E+04  0.31040324932E+04  0.00000000000E+00 0. -1.
         24    2    1    2    0    0 -0.35303712066E+03  0.27507033905E+02 -0.12142186632E+04  0.12673830490E+04  0.80876358615E+02 0.  0.
         25    2    1    2    0    0 -0.61680819009E+02  0.19166840957E+03  0.10611301401E+02  0.23722937732E+03  0.12499550026E+03 0.  0.
         24    2    1    2    0    0  0.40079133513E+03 -0.17766098094E+03  0.23173210244E+03  0.50389058657E+03  0.89492108450E+02 0.  0.
        -11    1    3    3    0    0 -0.38282879455E+02  0.25437438982E+02 -0.11099464116E+03  0.12013514277E+03  0.00000000000E+00 0.  1.
         12    1    3    3    0    0 -0.31475424120E+03  0.20695949227E+01 -0.11032240220E+04  0.11472479062E+04  0.00000000000E+00 0. -1.
        -13    1    5    5    0    0  0.27549168298E+03 -0.12222502328E+03  0.11070306462E+03  0.32107599136E+03  0.00000000000E+00 0.  1.
         14    1    5    5    0    0  0.12529965215E+03 -0.55435957653E+02  0.12102903782E+03  0.18281459522E+03  0.00000000000E+00 0. -1.
          5    1    4    4  501    0 -0.10809120304E+02  0.80335635708E+01  0.41726717162E+02  0.44097439274E+02  0.47000000000E+01 0. -1.
         -5    1    4    4    0  501 -0.50871698705E+02  0.18363484600E+03 -0.31115415761E+02  0.19313193805E+03  0.47000000000E+01 0. -1.
          1    1    1    2  502    0  0.80287313252E+02 -0.49690610756E+02  0.97267638830E+03  0.97724846678E+03  0.00000000000E+00 0. -1.
          1    1    1    2  503    0 -0.66360708713E+02  0.81761482129E+01 -0.16108637972E+04  0.16122508385E+04  0.00000000000E+00 0. -1.
<mgrwt>
<rscale>  0 0.79416393E+02</rscale>
<asrwt>0</asrwt>
<pdfrwt beam="1">  1        2 0.21970145E+00 0.94327375E+02</pdfrwt>
<pdfrwt beam="2">  1        2 0.45647536E+00 0.66862494E+02</pdfrwt>
<totfact> 0.68554668E+00</totfact>
</mgrwt>
</event>
<event>
13    1  0.2038932E-008  0.4049980E+02  0.7546771E-02  0.1600074E+00
          2   -1    0    0  503    0  0.00000000000E+00  0.00000000000E+00  0.21138683388E+04  0.21138683388E+04  0.00000000000E+00 0. -1.
          2   -1    0    0  502    0 -0.00000000000E+00 -0.00000000000E+00 -0.35964200302E+04  0.35964200302E+04  0.00000000000E+00 0. -1.
         24    2    1    2    0    0 -0.24738216893E+03 -0.11643238823E+04 -0.15028521357E+04  0.19193555981E+04  0.92267707089E+02 0.  0.
         25    2    1    2    0    0  0.43982232028E+03  0.78249003776E+03 -0.58012491851E+02  0.90814371633E+03  0.12500091077E+03 0.  0.
         24    2    1    2    0    0 -0.15835313552E+03  0.35876902624E+03 -0.13253501953E+03  0.42162378720E+03  0.80063454920E+02 0.  0.
        -11    1    5    5    0    0 -0.89393360117E+02  0.27114337381E+03 -0.70713589918E+02  0.29412635685E+03  0.00000000000E+00 0.  1.
         12    1    5    5    0    0 -0.68959775404E+02  0.87625652432E+02 -0.61821429608E+02  0.12749743035E+03  0.00000000000E+00 0. -1.
        -11    1    3    3    0    0 -0.15193276763E+03 -0.52210893913E+03 -0.64900822799E+03  0.84669533493E+03  0.00000000000E+00 0.  1.
         12    1    3    3    0    0 -0.95449401305E+02 -0.64221494316E+03 -0.85384390767E+03  0.10726602631E+04  0.00000000000E+00 0. -1.
          5    1    4    4  501    0  0.51164013133E+02  0.56746975998E+02  0.25399427856E+02  0.80654798123E+02  0.47000000000E+01 0. -1.
         -5    1    4    4    0  501  0.38865830714E+03  0.72574306176E+03 -0.83411919708E+02  0.82748891821E+03  0.47000000000E+01 0. -1.
          1    1    1    2  502    0 -0.16944897197E+02  0.36787296721E+02 -0.11247038885E+04  0.11254329263E+04  0.00000000000E+00 0. -1.
          1    1    1    2  503    0 -0.17142118625E+02 -0.13722478433E+02  0.13355518442E+04  0.13357323411E+04  0.00000000000E+00 0. -1.
<mgrwt>
<rscale>  0 0.29821120E+02</rscale>
<asrwt>0</asrwt>
<pdfrwt beam="1">  1        2 0.31086299E+00 0.21958111E+02</pdfrwt>
<pdfrwt beam="2">  1        2 0.52888530E+00 0.40499803E+02</pdfrwt>
<totfact> 0.24043412E+00</totfact>
</mgrwt>
</event>
<event>
13    1  0.2038932E-008  0.5424361E+02  0.7546771E-02  0.1552763E+00
          2   -1    0    0  502    0  0.00000000000E+00  0.00000000000E+00  0.77855323827E+03  0.77855323827E+03  0.00000000000E+00 0. -1.
          2   -1    0    0  503    0 -0.00000000000E+00 -0.00000000000E+00 -0.29393481233E+04  0.29393481233E+04  0.00000000000E+00 0. -1.
         24    2    1    2    0    0 -0.90325100416E+02 -0.13503558618E+03 -0.44199710233E+03  0.47810087663E+03  0.82618257463E+02 0.  0.
         25    2    1    2    0    0  0.34334757923E+03  0.34656278297E+03  0.10208994149E+02  0.50370862127E+03  0.12499931549E+03 0.  0.
         24    2    1    2    0    0 -0.28372751518E+03 -0.22773446113E+03 -0.18268377648E+04  0.18644105851E+04  0.79538187994E+02 0.  0.
        -11    1    5    5    0    0 -0.11190401431E+03 -0.13529299519E+03 -0.77624109576E+03  0.79584982359E+03  0.00000000000E+00 0.  1.
         12    1    5    5    0    0 -0.17182350087E+03 -0.92441465941E+02 -0.10505966691E+04  0.10685607615E+04  0.00000000000E+00 0. -1.
        -11    1    3    3    0    0 -0.11778128293E+02 -0.90063989183E+02 -0.24537272889E+03  0.26164484045E+03  0.00000000000E+00 0.  1.
         12    1    3    3    0    0 -0.78546972123E+02 -0.44971596997E+02 -0.19662437344E+03  0.21645603618E+03  0.00000000000E+00 0. -1.
          5    1    4    4  501    0  0.47868369626E+02  0.15362666263E+02  0.31173769503E+02  0.59340426611E+02  0.47000000000E+01 0. -1.
         -5    1    4    4    0  501  0.29547920961E+03  0.33120011671E+03 -0.20964775354E+02  0.44436819466E+03  0.47000000000E+01 0. -1.
          1    1    1    2  502    0  0.40836517358E+02  0.35722117324E+02  0.48292340575E+03  0.48596163083E+03  0.00000000000E+00 0. -1.
          1    1    1    2  503    0 -0.10131480997E+02 -0.19514852989E+02 -0.38509241776E+03  0.38571964769E+03  0.00000000000E+00 0. -1.
<mgrwt>
<rscale>  0 0.34535689E+02</rscale>
<asrwt>0</asrwt>
<pdfrwt beam="1">  1        2 0.11449312E+00 0.54243613E+02</pdfrwt>
<pdfrwt beam="2">  1        2 0.43225708E+00 0.21988097E+02</pdfrwt>
<totfact> 0.25713349E+01</totfact>
</mgrwt>
</event>
<event>
13    1  0.2038932E-008  0.6475628E+02  0.7546771E-02  0.1427277E+00
          4   -1    0    0  503    0 -0.00000000000E+00  0.00000000000E+00  0.61494463639E+03  0.61494463639E+03  0.00000000000E+00 0. -1.
          2   -1    0    0  502    0  0.00000000000E+00 -0.00000000000E+00 -0.86112452960E+03  0.86112452960E+03  0.00000000000E+00 0. -1.
         24    2    1    2    0    0  0.33568668368E+02 -0.11877275681E+03  0.29474695561E+03  0.32808944717E+03  0.74384771569E+02 0.  0.
         25    2    1    2    0    0 -0.17763920771E+02  0.83942336983E+02 -0.15965201155E+02  0.15245341002E+03  0.12500112703E+03 0.  0.
         24    2    1    2    0    0 -0.59156573059E+02  0.21291047245E+02 -0.16395344032E+03  0.19289290283E+03  0.79838164684E+02 0.  0.
        -11    1    5    5    0    0 -0.58263851422E+02  0.26309702307E+02 -0.17192777264E+03  0.18342855782E+03  0.00000000000E+00 0.  1.
         12    1    5    5    0    0 -0.89272163678E+00 -0.50186550622E+01  0.79743323197E+01  0.94643450116E+01  0.00000000000E+00 0. -1.
        -13    1    3    3    0    0  0.25021473659E+02 -0.28814737793E+01  0.80613351662E+02  0.84456435524E+02  0.00000000000E+00 0.  1.
         14    1    3    3    0    0  0.85471947094E+01 -0.11589128303E+03  0.21413360395E+03  0.24363301164E+03  0.00000000000E+00 0. -1.
          5    1    4    4  501    0  0.40514088600E+02  0.73060751654E+01  0.24248451362E+02  0.48008827343E+02  0.47000000000E+01 0.  1.
         -5    1    4    4    0  501 -0.58278009371E+02  0.76636261817E+02 -0.40213652517E+02  0.10444458268E+03  0.47000000000E+01 0.  1.
          1    1    1    2  502    0 -0.15740031022E+02  0.41321366459E+02 -0.57612776763E+03  0.57782212534E+03  0.00000000000E+00 0. -1.
          3    1    1    2  503    0  0.59091856483E+02 -0.27781993872E+02  0.21511956028E+03  0.22481128064E+03  0.00000000000E+00 0. -1.
<mgrwt>
<rscale>  0 0.53510494E+02</rscale>
<asrwt>0</asrwt>
<pdfrwt beam="2">  1        2 0.12663596E+00 0.44217688E+02</pdfrwt>
<pdfrwt beam="1">  1        4 0.90433035E-01 0.64756281E+02</pdfrwt>
<totfact> 0.19790452E+01</totfact>
</mgrwt>
</event>
<event>
13    1  0.2038932E-008  0.1520743E+03  0.7546771E-02  0.1221674E+00
          2   -1    0    0  503    0  0.00000000000E+00  0.00000000000E+00  0.16600613822E+04  0.16600613822E+04  0.00000000000E+00 0. -1.
          2   -1    0    0  502    0 -0.00000000000E+00 -0.00000000000E+00 -0.41266905264E+04  0.41266905264E+04  0.00000000000E+00 0. -1.
         24    2    1    2    0    0  0.69928821774E+02 -0.55192864782E+02 -0.14922680027E+04  0.14970596096E+04  0.79921150288E+02 0.  0.
         25    2    1    2    0    0 -0.26287905834E+03  0.15050869695E+03  0.35104293856E+03  0.48022543581E+03  0.12500822897E+03 0.  0.
         24    2    1    2    0    0  0.45761166181E+02 -0.35076271766E+02  0.16056029005E+03  0.18832993165E+03  0.79775480204E+02 0.  0.
        -11    1    5    5    0    0  0.60295700448E+02  0.17517882346E+00  0.99209361077E+02  0.11609521741E+03  0.00000000000E+00 0.  1.
         12    1    5    5    0    0 -0.14534534267E+02 -0.35251450589E+02  0.61350928978E+02  0.72234714241E+02  0.00000000000E+00 0. -1.
        -13    1    3    3    0    0  0.61689363356E+02 -0.74298992596E+02 -0.10962330606E+04  0.11004784600E+04  0.00000000000E+00 0.  1.
         14    1    3    3    0    0  0.82394584181E+01  0.19106127814E+02 -0.39603494209E+03  0.39658114951E+03  0.00000000000E+00 0. -1.
          5    1    4    4  501    0 -0.16979993614E+03  0.15139927057E+03  0.20107869798E+03  0.30365850922E+03  0.47000000000E+01 0. -1.
         -5    1    4    4    0  501 -0.93079122199E+02 -0.89057361475E+00  0.14996424058E+03  0.17656692658E+03  0.47000000000E+01 0. -1.
          1    1    1    2  502    0  0.58105769882E+02  0.10274532307E+03 -0.25440929273E+04  0.25468297361E+04  0.00000000000E+00 0. -1.
          1    1    1    2  503    0  0.89083300503E+02 -0.16298488348E+03  0.10581285572E+04  0.10743071955E+04  0.00000000000E+00 0. -1.
<mgrwt>
<rscale>  0 0.13397525E+03</rscale>
<asrwt>0</asrwt>
<pdfrwt beam="1">  1        2 0.24412668E+00 0.15207427E+03</pdfrwt>
<pdfrwt beam="2">  1        2 0.60686625E+00 0.11803027E+03</pdfrwt>
<totfact> 0.11744414E+00</totfact>
</mgrwt>
</event>
<event>
13    1  0.2038932E-008  0.1796737E+03  0.7546771E-02  0.1312797E+00
         -1   -1    0    0    0  501 -0.00000000000E+00  0.00000000000E+00  0.70546445271E+03  0.70546445271E+03  0.00000000000E+00 0.  1.
          2   -1    0    0  503    0  0.00000000000E+00 -0.00000000000E+00 -0.10856792460E+04  0.10856792460E+04  0.00000000000E+00 0. -1.
         24    2    1    2    0    0  0.39145900177E+02 -0.34323889996E+02  0.62561164758E+02  0.11463757538E+03  0.80730065207E+02 0.  0.
         25    2    1    2    0    0  0.20082229159E+03 -0.18943692572E+02  0.31736712769E+03  0.39627659032E+03  0.12499914402E+03 0.  0.
         24    2    1    2    0    0 -0.89744928239E+02  0.27184219762E+02 -0.48736330658E+03  0.50258806605E+03  0.79237854465E+02 0.  0.
        -13    1    5    5    0    0 -0.67057113626E+02 -0.20354326005E+02 -0.28197657641E+03  0.29055420272E+03  0.00000000000E+00 0.  1.
         14    1    5    5    0    0 -0.22687814612E+02  0.47538545767E+02 -0.20538673017E+03  0.21203386333E+03  0.00000000000E+00 0. -1.
        -13    1    3    3    0    0  0.30926514613E+02  0.22173903962E+02  0.17404525573E+02  0.41845535406E+02  0.00000000000E+00 0.  1.
         14    1    3    3    0    0  0.82193855646E+01 -0.56497793959E+02  0.45156639185E+02  0.72792039975E+02  0.00000000000E+00 0. -1.
          5    1    4    4  502    0  0.21011293992E+03 -0.39352010824E+02  0.29422256213E+03  0.36371009656E+03  0.47000000000E+01 0. -1.
         -5    1    4    4    0  502 -0.92906483275E+01  0.20408318252E+02  0.23144565562E+02  0.32566493751E+02  0.47000000000E+01 0. -1.
          1    1    1    2  503    0 -0.19137854511E+03  0.24689020114E+02 -0.50561880033E+03  0.54118912266E+03  0.00000000000E+00 0. -1.
         -2    1    1    2    0  501  0.41155281581E+02  0.13943426923E+01  0.23283902113E+03  0.23645234436E+03  0.00000000000E+00 0.  1.
<mgrwt>
<rscale>  0 0.86016065E+02</rscale>
<asrwt>0</asrwt>
<pdfrwt beam="2">  1        2 0.15965871E+00 0.17967367E+03</pdfrwt>
<pdfrwt beam="1">  1       -1 0.10374477E+00 0.41178895E+02</pdfrwt>
<totfact> 0.29645913E+01</totfact>
</mgrwt>
</event>
<event>
13    1  0.2038932E-008  0.2097850E+03  0.7546771E-02  0.1325715E+00
          2   -1    0    0  502    0  0.00000000000E+00  0.00000000000E+00  0.73980309039E+03  0.73980309039E+03  0.00000000000E+00 0. -1.
          2   -1    0    0  503    0 -0.00000000000E+00 -0.00000000000E+00 -0.46926870345E+03  0.46926870345E+03  0.00000000000E+00 0. -1.
         24    2    1    2    0    0  0.29773591575E+02 -0.40938405773E+01 -0.10595680427E+02  0.85495379785E+02  0.79334514778E+02 0.  0.
         25    2    1    2    0    0  0.16573986996E+03  0.14008828749E+03  0.89117643019E+02  0.26582476260E+03  0.12500566918E+03 0.  0.
         24    2    1    2    0    0 -0.10242068198E+01 -0.21368107943E+02  0.41663537796E+02  0.92910549958E+02  0.80242600127E+02 0.  0.
        -11    1    5    5    0    0  0.19453540992E+02 -0.44110393576E+02  0.39332017058E+02  0.62218764408E+02  0.00000000000E+00 0.  1.
         12    1    5    5    0    0 -0.20477747812E+02  0.22742285634E+02  0.23315207380E+01  0.30691785550E+02  0.00000000000E+00 0. -1.
        -13    1    3    3    0    0 -0.11952749939E+02 -0.24966611079E+02  0.15818384923E+02  0.31881361349E+02  0.00000000000E+00 0.  1.
         14    1    3    3    0    0  0.41726341514E+02  0.20872770502E+02 -0.26414065350E+02  0.53614018436E+02  0.00000000000E+00 0. -1.
          5    1    4    4  501    0  0.13282499623E+03  0.11466336117E+03  0.93985147515E+01  0.17578563109E+03  0.47000000000E+01 0.  1.
         -5    1    4    4    0  501  0.32914873723E+02  0.25424926321E+02  0.79719128267E+02  0.90039131506E+02  0.47000000000E+01 0.  1.
          1    1    1    2  502    0 -0.16525939067E+03 -0.12615111627E+03  0.43306451786E+03  0.48038489462E+03  0.00000000000E+00 0. -1.
          1    1    1    2  503    0 -0.29229864042E+02  0.11524777301E+02 -0.28271563132E+03  0.28445620688E+03  0.00000000000E+00 0. -1.
<mgrwt>
<rscale>  0 0.81187485E+02</rscale>
<asrwt>0</asrwt>
<pdfrwt beam="1">  1        2 0.10879457E+00 0.20978499E+03</pdfrwt>
<pdfrwt beam="2">  1        2 0.69010103E-01 0.31419826E+02</pdfrwt>
<totfact> 0.46473948E+02</totfact>
</mgrwt>
</event>
<event>
13    1  0.2038932E-008  0.1494313E+03  0.7546771E-02  0.1234698E+00
          2   -1    0    0  503    0  0.00000000000E+00  0.00000000000E+00  0.98583398171E+03  0.98583398171E+03  0.00000000000E+00 0. -1.
          2   -1    0    0  502    0 -0.00000000000E+00 -0.00000000000E+00 -0.12723898744E+04  0.12723898744E+04  0.00000000000E+00 0. -1.
         24    2    1    2    0    0  0.87136349830E+02  0.57626052932E+01 -0.30846036190E+03  0.33109841955E+03  0.82779330042E+02 0.  0.
         25    2    1    2    0    0  0.22407343357E+03  0.40341656978E+02  0.57431930128E+02  0.26600732611E+03  0.12500047210E+03 0.  0.
         24    2    1    2    0    0 -0.41744264877E+02 -0.44148863488E+02  0.14692141330E+02  0.10344414422E+03  0.82420423189E+02 0.  0.
        -11    1    3    3    0    0  0.96149283207E+02 -0.54437347819E+01 -0.20326249390E+03  0.22492212060E+03  0.00000000000E+00 0.  1.
         12    1    3    3    0    0 -0.90129333778E+01  0.11206340075E+02 -0.10519786801E+03  0.10617629895E+03  0.00000000000E+00 0. -1.
        -13    1    5    5    0    0 -0.63728261193E+02 -0.46071085152E+02  0.19138470290E+02  0.80932794384E+02  0.00000000000E+00 0.  1.
         14    1    5    5    0    0  0.21983996315E+02  0.19222216641E+01 -0.44463289600E+01  0.22511349834E+02  0.00000000000E+00 0. -1.
          5    1    4    4  501    0  0.14260375313E+03 -0.36108706430E+02  0.22724601582E+02  0.14892335816E+03  0.47000000000E+01 0. -1.
         -5    1    4    4    0  501  0.81469680437E+02  0.76450363408E+02  0.34707328546E+02  0.11708396795E+03  0.47000000000E+01 0. -1.
          1    1    1    2  502    0 -0.11239417642E+03  0.78364739010E+02 -0.78762774046E+03  0.79945665346E+03  0.00000000000E+00 0. -1.
          1    1    1    2  503    0 -0.15707134211E+03 -0.80320137793E+02  0.73740813823E+03  0.75821731276E+03  0.00000000000E+00 0. -1.
<mgrwt>
<rscale>  0 0.12523794E+03</rscale>
<asrwt>0</asrwt>
<pdfrwt beam="1">  1        2 0.14497559E+00 0.14943130E+03</pdfrwt>
<pdfrwt beam="2">  1        2 0.18711616E+00 0.10496156E+03</pdfrwt>
<totfact> 0.95204165E+01</totfact>
</mgrwt>
</event>
<event>
13    1  0.2038932E-008  0.2042181E+03  0.7546771E-02  0.1254462E+00
          2   -1    0    0  502    0  0.00000000000E+00  0.00000000000E+00  0.37195302628E+04  0.37195302628E+04  0.00000000000E+00 0. -1.
          2   -1    0    0  503    0 -0.00000000000E+00 -0.00000000000E+00 -0.36859596393E+04  0.36859596393E+04  0.00000000000E+00 0. -1.
         24    2    1    2    0    0  0.75943417713E+02 -0.12134143362E+03 -0.80499297982E+03  0.82134558014E+03  0.78126296690E+02 0.  0.
         25    2    1    2    0    0 -0.22931384180E+03 -0.18774742026E+03  0.25856508470E+04  0.26055802175E+04  0.12499614222E+03 0.  0.
         24    2    1    2    0    0 -0.55149069272E+02  0.56940590383E+02  0.21188894300E+03  0.24333884320E+03  0.89628219709E+02 0.  0.
        -13    1    5    5    0    0 -0.61122004227E+02 -0.99956710854E+00  0.11674398787E+03  0.13178033707E+03  0.00000000000E+00 0.  1.
         14    1    5    5    0    0  0.59729349553E+01  0.57940157491E+02  0.95144955131E+02  0.11155850613E+03  0.00000000000E+00 0. -1.
        -13    1    3    3    0    0 -0.40719793081E+01 -0.51205882147E+02 -0.17324728923E+03  0.18070209354E+03  0.00000000000E+00 0.  1.
         14    1    3    3    0    0  0.80015397022E+02 -0.70135551478E+02 -0.63174569059E+03  0.64064348660E+03  0.00000000000E+00 0. -1.
          5    1    4    4  501    0 -0.88341043573E+01 -0.68907229753E+02  0.67334133778E+03  0.67693197211E+03  0.47000000000E+01 0.  1.
         -5    1    4    4    0  501 -0.22047973744E+03 -0.11884019050E+03  0.19123095092E+04  0.19286482454E+04  0.47000000000E+01 0.  1.
          1    1    1    2  502    0  0.62853726128E+02  0.31236182220E+01  0.87968912152E+03  0.88193724176E+03  0.00000000000E+00 0. -1.
          1    1    1    2  503    0  0.14566576723E+03  0.24902464528E+03 -0.28386653082E+04  0.28532880194E+04  0.00000000000E+00 0. -1.
<mgrwt>
<rscale>  0 0.11336539E+03</rscale>
<asrwt>0</asrwt>
<pdfrwt beam="1">  1        2 0.54698974E+00 0.62931295E+02</pdfrwt>
<pdfrwt beam="2">  1        2 0.54205289E+00 0.20421812E+03</pdfrwt>
<totfact> 0.19731256E-01</totfact>
</mgrwt>
</event>
<event>
13    1  0.2038932E-008  0.8811734E+02  0.7546771E-02  0.1308469E+00
         -1   -1    0    0    0  501 -0.00000000000E+00  0.00000000000E+00  0.20971386749E+03  0.20971386749E+03  0.00000000000E+00 0.  1.
          2   -1    0    0  503    0  0.00000000000E+00 -0.00000000000E+00 -0.37740910086E+04  0.37740910086E+04  0.00000000000E+00 0. -1.
         24    2    1    2    0    0 -0.13742588392E+02 -0.53209558907E+02 -0.18684115227E+03  0.21080215265E+03  0.80671032504E+02 0.  0.
         25    2    1    2    0    0 -0.94118401840E+02  0.12805596144E+03 -0.15538897676E+03  0.25500442024E+03  0.12499966967E+03 0.  0.
         24    2    1    2    0    0  0.13818474527E+03  0.25956689026E+02 -0.12861339292E+04  0.12963023358E+04  0.80563568248E+02 0.  0.
        -13    1    3    3    0    0 -0.26127426609E+02  0.10364973253E+01 -0.14929188377E+02  0.30109756119E+02  0.00000000000E+00 0.  1.
         14    1    3    3    0    0  0.12384838217E+02 -0.54246056232E+02 -0.17191196390E+03  0.18069239653E+03  0.00000000000E+00 0. -1.
        -13    1    5    5    0    0  0.58964615002E+02  0.34582858940E+02 -0.33908590125E+03  0.34590757202E+03  0.00000000000E+00 0.  1.
         14    1    5    5    0    0  0.79220130268E+02 -0.86261699142E+01 -0.94704802794E+03  0.95039476381E+03  0.00000000000E+00 0. -1.
          5    1    4    4  502    0 -0.12408615649E+03  0.11255765841E+03 -0.13580543270E+03  0.21571232290E+03  0.47000000000E+01 0.  1.
         -5    1    4    4    0  502  0.29967754650E+02  0.15498303032E+02 -0.19583544061E+02  0.39292097344E+02  0.47000000000E+01 0.  1.
          1    1    1    2  503    0  0.51965560078E+02 -0.71580498466E+02 -0.20644723270E+04  0.20663664186E+04  0.00000000000E+00 0. -1.
         -2    1    1    2    0  501 -0.82289315115E+02 -0.29222593094E+02  0.12845924408E+03  0.15532954876E+03  0.00000000000E+00 0.  1.
<mgrwt>
<rscale>  0 0.87719804E+02</rscale>
<asrwt>0</asrwt>
<pdfrwt beam="2">  1        2 0.55501335E+00 0.88117343E+02</pdfrwt>
<pdfrwt beam="1">  1       -1 0.30840277E-01 0.87324059E+02</pdfrwt>
<totfact> 0.11675731E+01</totfact>
</mgrwt>
</event>
<event>
13    1  0.2038932E-008  0.9592902E+02  0.7546771E-02  0.1301359E+00
         -1   -1    0    0    0  501 -0.00000000000E+00  0.00000000000E+00  0.11355266615E+04  0.11355266615E+04  0.00000000000E+00 0.  1.
          2   -1    0    0  503    0  0.00000000000E+00 -0.00000000000E+00 -0.19957304369E+04  0.19957304369E+04  0.00000000000E+00 0. -1.
         24    2    1    2    0    0 -0.99618609139E+02  0.62942506278E+02  0.21519281853E+03  0.26293304831E+03  0.94552696226E+02 0.  0.
         25    2    1    2    0    0  0.10400619902E+03 -0.22754550881E+03 -0.68057481036E+03  0.73579934825E+03  0.12499744147E+03 0.  0.
         24    2    1    2    0    0  0.48135198344E+02  0.94457337416E+02  0.46581508854E+02  0.14101874981E+03  0.80481457001E+02 0.  0.
        -13    1    5    5    0    0 -0.10500174612E+02  0.13959563603E+02 -0.15759801887E+02  0.23526462513E+02  0.00000000000E+00 0.  1.
         14    1    5    5    0    0  0.58635372956E+02  0.80497773813E+02  0.62341310741E+02  0.11749228730E+03  0.00000000000E+00 0. -1.
        -13    1    3    3    0    0 -0.64068321664E+02  0.67028219123E+02  0.20612155699E+03  0.22601687604E+03  0.00000000000E+00 0.  1.
         14    1    3    3    0    0 -0.35550287475E+02 -0.40857128451E+01  0.90712615393E+01  0.36916172268E+02  0.00000000000E+00 0. -1.
          5    1    4    4  502    0  0.12398826434E+03 -0.14148382895E+03 -0.40994322812E+03  0.45107239311E+03  0.47000000000E+01 0.  1.
         -5    1    4    4    0  502 -0.19982065319E+02 -0.86061679864E+02 -0.27063158225E+03  0.28472695514E+03  0.47000000000E+01 0.  1.
          1    1    1    2  503    0 -0.82986631387E+02 -0.21003272331E+02 -0.12119598902E+04  0.12149792977E+04  0.00000000000E+00 0. -1.
         -2    1    1    2    0  501  0.30463843162E+02  0.91148937451E+02  0.77055659779E+03  0.77652665436E+03  0.00000000000E+00 0.  1.
<mgrwt>
<rscale>  0 0.90619187E+02</rscale>
<asrwt>0</asrwt>
<pdfrwt beam="2">  1        2 0.29348977E+00 0.85603262E+02</pdfrwt>
<pdfrwt beam="1">  1       -1 0.16698922E+00 0.95929020E+02</pdfrwt>
<totfact> 0.32955305E+00</totfact>
</mgrwt>
</event>
<event>
13    1  0.2038932E-008  0.1281927E+03  0.7546771E-02  0.1316593E+00
          2   -1    0    0  502    0  0.00000000000E+00  0.00000000000E+00  0.17786462223E+04  0.17786462223E+04  0.00000000000E+00 0. -1.
          2   -1    0    0  503    0 -0.00000000000E+00 -0.00000000000E+00 -0.18666794010E+04  0.18666794010E+04  0.00000000000E+00 0. -1.
         24    2    1    2    0    0  0.59792081602E+02  0.13974348555E+02 -0.13456813655E+03  0.16860891403E+03  0.80932114003E+02 0.  0.
         25    2    1    2    0    0 -0.13420281539E+03  0.10399403223E+03  0.19518976514E+03  0.28731321291E+03  0.12499873399E+03 0.  0.
         24    2    1    2    0    0 -0.84726364548E+02 -0.12872314169E+03 -0.42931506449E+02  0.17688990597E+03  0.75489870400E+02 0.  0.
        -11    1    3    3    0    0 -0.12585320878E+02 -0.30733093054E+01  0.20011824097E+01  0.13108785707E+02  0.00000000000E+00 0.  1.
         12    1    3    3    0    0  0.72377402480E+02  0.17047657861E+02 -0.13656931896E+03  0.15550012832E+03  0.00000000000E+00 0. -1.
        -13    1    5    5    0    0 -0.24528844776E+02 -0.50268106948E+02 -0.53547672944E+02  0.77433197531E+02  0.00000000000E+00 0.  1.
         14    1    5    5    0    0 -0.60197519773E+02 -0.78455034739E+02  0.10616166494E+02  0.99456708440E+02  0.00000000000E+00 0. -1.
          5    1    4    4  501    0 -0.11108733961E+03  0.10328076394E+03  0.21026620074E+03  0.25930923314E+03  0.47000000000E+01 0.  1.
         -5    1    4    4    0  501 -0.23115475788E+02  0.71326828998E+00 -0.15076435597E+02  0.28003979768E+02  0.47000000000E+01 0.  1.
          1    1    1    2  502    0  0.52329184599E+02  0.19302327225E+02  0.14510177771E+04  0.14520893612E+04  0.00000000000E+00 0. -1.
          1    1    1    2  503    0  0.10680791374E+03 -0.85475663200E+01 -0.15567410779E+04  0.15604242292E+04  0.00000000000E+00 0. -1.
<mgrwt>
<rscale>  0 0.84557875E+02</rscale>
<asrwt>0</asrwt>
<pdfrwt beam="1">  1        2 0.26156562E+00 0.55775652E+02</pdfrwt>
<pdfrwt beam="2">  1        2 0.27451168E+00 0.12819275E+03</pdfrwt>
<totfact> 0.20001426E+01</totfact>
</mgrwt>
</event>
<event>
13    1  0.2038932E-008  0.6101628E+02  0.7546771E-02  0.1437458E+00
          2   -1    0    0  503    0  0.00000000000E+00  0.00000000000E+00  0.11695511382E+04  0.11695511382E+04  0.00000000000E+00 0. -1.
         -3   -1    0    0    0  501 -0.00000000000E+00 -0.00000000000E+00 -0.16333876663E+04  0.16333876663E+04  0.00000000000E+00 0.  1.
         24    2    1    2    0    0 -0.13773517428E+03 -0.98451535907E+02 -0.92231537791E+02  0.20905330921E+03  0.80826643947E+02 0.  0.
         25    2    1    2    0    0  0.21007963142E+03  0.11663146411E+03  0.27584204632E+03  0.38658699316E+03  0.12499727517E+03 0.  0.
         24    2    1    2    0    0 -0.57810765012E+02 -0.51967060133E+01  0.52190970051E+03  0.53120171561E+03  0.80102664597E+02 0.  0.
        -11    1    5    5    0    0  0.13990366555E+02  0.11109467618E+02  0.41492290988E+02  0.45174781001E+02  0.00000000000E+00 0.  1.
         12    1    5    5    0    0 -0.71801131567E+02 -0.16306173631E+02  0.48041740952E+03  0.48602693461E+03  0.00000000000E+00 0. -1.
        -11    1    3    3    0    0 -0.34376948426E+02 -0.65955179290E+02 -0.14677687615E+02  0.75810914597E+02  0.00000000000E+00 0.  1.
         12    1    3    3    0    0 -0.10335822585E+03 -0.32496356617E+02 -0.77553850176E+02  0.13324239461E+03  0.00000000000E+00 0. -1.
          5    1    4    4  502    0 -0.12285479259E+02 -0.41173962823E+01  0.33349650653E+02  0.36085664071E+02  0.47000000000E+01 0.  1.
         -5    1    4    4    0  502  0.22236511068E+03  0.12074886039E+03  0.24249239567E+03  0.35050132909E+03  0.47000000000E+01 0.  1.
          1    1    1    2  503    0  0.13200028837E+02  0.41400329592E+02  0.25084635955E+03  0.25458225420E+03  0.00000000000E+00 0. -1.
         -4    1    1    2    0  501 -0.27733720972E+02 -0.54383551779E+02 -0.14202030967E+04  0.14215145324E+04  0.00000000000E+00 0.  1.
<mgrwt>
<rscale>  0 0.51491612E+02</rscale>
<asrwt>0</asrwt>
<pdfrwt beam="1">  1        2 0.17199282E+00 0.43453746E+02</pdfrwt>
<pdfrwt beam="2">  1       -3 0.24020407E+00 0.61016283E+02</pdfrwt>
<totfact> 0.15343738E+00</totfact>
</mgrwt>
</event>
<event>
13    1  0.2038932E-008  0.9041059E+02  0.7546771E-02  0.1336546E+00
          2   -1    0    0  502    0  0.00000000000E+00  0.00000000000E+00  0.96691600356E+03  0.96691600356E+03  0.00000000000E+00 0. -1.
          2   -1    0    0  503    0 -0.00000000000E+00 -0.00000000000E+00 -0.29539722081E+04  0.29539722081E+04  0.00000000000E+00 0. -1.
         24    2    1    2    0    0  0.48478190394E+02 -0.12323385054E+03 -0.15272237085E+04  0.15351219735E+04  0.81550603307E+02 0.  0.
         25    2    1    2    0    0 -0.15558830083E+03  0.81701912527E+02 -0.31986733491E+03  0.38577573479E+03  0.12499953499E+03 0.  0.
         24    2    1    2    0    0  0.42014038665E+02 -0.39137696817E+02  0.31338308057E+03  0.32858558095E+03  0.80390236118E+02 0.  0.
        -11    1    3    3    0    0  0.63613615467E+02 -0.66850351198E+02 -0.11107111158E+04  0.11145379511E+04  0.00000000000E+00 0.  1.
         12    1    3    3    0    0 -0.15135425073E+02 -0.56383499339E+02 -0.41651259268E+03  0.42058402247E+03  0.00000000000E+00 0. -1.
        -13    1    5    5    0    0 -0.12056397146E+02 -0.32491486764E+02  0.58921694121E+02  0.68358024126E+02  0.00000000000E+00 0.  1.
         14    1    5    5    0    0  0.54070435811E+02 -0.66462100526E+01  0.25446138645E+03  0.26022755682E+03  0.00000000000E+00 0. -1.
          5    1    4    4  501    0 -0.58623960339E+02  0.87150492514E+02 -0.98821639085E+02  0.14429062140E+03  0.47000000000E+01 0. -1.
         -5    1    4    4    0  501 -0.96964340491E+02 -0.54485799866E+01 -0.22104569582E+03  0.24148511340E+03  0.47000000000E+01 0. -1.
          1    1    1    2  502    0  0.88485970134E+02  0.18642322206E+02  0.60462851478E+03  0.61135337079E+03  0.00000000000E+00 0. -1.
          1    1    1    2  503    0 -0.23389898363E+02  0.62027312621E+02 -0.10579767564E+04  0.10600515516E+04  0.00000000000E+00 0. -1.
<mgrwt>
<rscale>  0 0.77417013E+02</rscale>
<asrwt>0</asrwt>
<pdfrwt beam="1">  1        2 0.14219353E+00 0.90410595E+02</pdfrwt>
<pdfrwt beam="2">  1        2 0.43440768E+00 0.66290835E+02</pdfrwt>
<totfact> 0.15676361E+01</totfact>
</mgrwt>
</event>
<event>
13    1  0.2038932E-008  0.7730923E+02  0.7546771E-02  0.1395173E+00
          2   -1    0    0  502    0  0.00000000000E+00  0.00000000000E+00  0.15946638541E+04  0.15946638541E+04  0.00000000000E+00 0. -1.
          2   -1    0    0  503    0 -0.00000000000E+00 -0.00000000000E+00 -0.14381437292E+04  0.14381437292E+04  0.00000000000E+00 0. -1.
         24    2    1    2    0    0  0.79695683804E+01 -0.56197441168E+02 -0.53858552781E+03  0.54742229632E+03  0.79844432011E+02 0.  0.
         25    2    1    2    0    0  0.24883479134E+01  0.11455996973E+03  0.21626317386E+03  0.27481652938E+03  0.12499674360E+03 0.  0.
         24    2    1    2    0    0 -0.11047307181E+01 -0.87105545894E+02 -0.18565086982E+03  0.22472590401E+03  0.91906963366E+02 0.  0.
        -13    1    5    5    0    0  0.23291930802E+02 -0.89668925113E+01 -0.11155483807E+03  0.11431273375E+03  0.00000000000E+00 0.  1.
         14    1    5    5    0    0 -0.24396661520E+02 -0.78138653383E+02 -0.74096031748E+02  0.11041317026E+03  0.00000000000E+00 0. -1.
        -13    1    3    3    0    0  0.43580282354E+01  0.10692781914E+02 -0.28200807868E+03  0.28224437007E+03  0.00000000000E+00 0.  1.
         14    1    3    3    0    0  0.36115401451E+01 -0.66890223082E+02 -0.25657744914E+03  0.26517792625E+03  0.00000000000E+00 0. -1.
          5    1    4    4  501    0  0.10571284609E+02  0.13773763794E+03  0.14988766387E+03  0.20389166423E+03  0.47000000000E+01 0. -1.
         -5    1    4    4    0  501 -0.80829366953E+01 -0.23177668206E+02  0.66375509999E+02  0.70924865151E+02  0.47000000000E+01 0. -1.
          1    1    1    2  502    0  0.18840271531E+02 -0.43671311608E+02  0.13224540668E+04  0.13233090713E+04  0.00000000000E+00 0. -1.
          1    1    1    2  503    0 -0.28193457106E+02  0.72414328940E+02 -0.65796071817E+03  0.66253378232E+03  0.00000000000E+00 0. -1.
<mgrwt>
<rscale>  0 0.60638089E+02</rscale>
<asrwt>0</asrwt>
<pdfrwt beam="1">  1        2 0.23450939E+00 0.47561952E+02</pdfrwt>
<pdfrwt beam="2">  1        2 0.21149172E+00 0.77309229E+02</pdfrwt>
<totfact> 0.41847513E+01</totfact>
</mgrwt>
</event>
<event>
13    1  0.2038932E-008  0.5487411E+02  0.7546771E-02  0.1427139E+00
          2   -1    0    0  503    0  0.00000000000E+00  0.00000000000E+00  0.22620592039E+04  0.22620592039E+04  0.00000000000E+00 0. -1.
         -1   -1    0    0    0  501 -0.00000000000E+00 -0.00000000000E+00 -0.55525251398E+03  0.55525251398E+03  0.00000000000E+00 0.  1.
         24    2    1    2    0    0 -0.20604874278E+03 -0.29112336330E+03  0.25824512027E+03  0.45075981511E+03  0.96358558101E+02 0.  0.
         25    2    1    2    0    0 -0.14542546373E+02  0.38934934626E+03  0.31126110390E+03  0.51411555240E+03  0.12500770907E+03 0.  0.
         24    2    1    2    0    0  0.20003281061E+03 -0.78651182089E+02  0.63602946973E+03  0.67622172200E+03  0.80890031437E+02 0.  0.
        -11    1    3    3    0    0 -0.68546434233E+02 -0.81861119969E+02  0.27490305223E+02  0.11025231739E+03  0.00000000000E+00 0.  1.
         12    1    3    3    0    0 -0.13750230854E+03 -0.20926224333E+03  0.23075481505E+03  0.34050749772E+03  0.00000000000E+00 0. -1.
        -13    1    5    5    0    0  0.14548343137E+03 -0.17360686726E+02  0.37525518424E+03  0.40284398412E+03  0.00000000000E+00 0.  1.
         14    1    5    5    0    0  0.54549379240E+02 -0.61290495363E+02  0.26077428549E+03  0.27337773788E+03  0.00000000000E+00 0. -1.
          5    1    4    4  502    0 -0.65507715175E+00  0.37458439094E+03  0.25246483384E+03  0.45174603195E+03  0.47000000000E+01 0. -1.
         -5    1    4    4    0  502 -0.13887469221E+02  0.14764955322E+02  0.58796270066E+02  0.62369520446E+02  0.47000000000E+01 0. -1.
          1    1    1    2  503    0 -0.21353009897E+02 -0.50751265602E+02  0.83581024337E+03  0.83762187466E+03  0.00000000000E+00 0. -1.
         -2    1    1    2    0  501  0.41911488441E+02  0.31176464730E+02 -0.33453924736E+03  0.33859275368E+03  0.00000000000E+00 0.  1.
<mgrwt>
<rscale>  0 0.53538537E+02</rscale>
<asrwt>0</asrwt>
<pdfrwt beam="1">  1        2 0.33265576E+00 0.54874106E+02</pdfrwt>
<pdfrwt beam="2">  1       -1 0.81654782E-01 0.52235475E+02</pdfrwt>
<totfact> 0.13967401E+01</totfact>
</mgrwt>
</event>
<event>
13    1  0.2038932E-008  0.1195373E+03  0.7546771E-02  0.1275651E+00
          2   -1    0    0  503    0  0.00000000000E+00  0.00000000000E+00  0.31575378443E+04  0.31575378443E+04  0.00000000000E+00 0. -1.
          2   -1    0    0  502    0 -0.00000000000E+00 -0.00000000000E+00 -0.34114108658E+03  0.34114108658E+03  0.00000000000E+00 0. -1.
         24    2    1    2    0    0 -0.10060862530E+03  0.48535197844E+01 -0.16354509173E+02  0.12823143592E+03  0.77654227498E+02 0.  0.
         25    2    1    2    0    0  0.12000021373E+03  0.31928196139E+02  0.64757947939E+03  0.67112142174E+03  0.12500127833E+03 0.  0.
         24    2    1    2    0    0  0.13270803402E+03  0.95703657456E+02  0.18717226706E+03  0.26310758938E+03  0.86148323773E+02 0.  0.
        -13    1    3    3    0    0 -0.43373984330E+02  0.39091999998E+02  0.39247628920E+01  0.58522566111E+02  0.00000000000E+00 0.  1.
         14    1    3    3    0    0 -0.57234640968E+02 -0.34238480213E+02 -0.20279272065E+02  0.69708869806E+02  0.00000000000E+00 0. -1.
        -13    1    5    5    0    0  0.37828380939E+01  0.20016488153E+02 -0.36507815601E+01  0.20695358611E+02  0.00000000000E+00 0.  1.
         14    1    5    5    0    0  0.12892519593E+03  0.75687169303E+02  0.19082304862E+03  0.24241223077E+03  0.00000000000E+00 0. -1.
          5    1    4    4  501    0  0.95848062963E+02  0.77079907270E+02  0.49655958960E+03  0.51158741121E+03  0.47000000000E+01 0.  1.
         -5    1    4    4    0  501  0.24152150765E+02 -0.45151711131E+02  0.15101988979E+03  0.15953401053E+03  0.47000000000E+01 0.  1.
          1    1    1    2  502    0 -0.10084322890E+03 -0.61632903830E+02 -0.20224027501E+03  0.23424154304E+03  0.00000000000E+00 0. -1.
          1    1    1    2  503    0 -0.51256393550E+02 -0.70852469551E+02  0.22002397954E+04  0.22019769408E+04  0.00000000000E+00 0. -1.
<mgrwt>
<rscale>  0 0.10224183E+03</rscale>
<asrwt>0</asrwt>
<pdfrwt beam="1">  1        2 0.46434378E+00 0.87448787E+02</pdfrwt>
<pdfrwt beam="2">  1        2 0.50167809E-01 0.11953731E+03</pdfrwt>
<totfact> 0.37605477E+01</totfact>
</mgrwt>
</event>
<event>
13    1  0.2038932E-008  0.4341142E+02  0.7546771E-02  0.1547414E+00
          2   -1    0    0  503    0  0.00000000000E+00  0.00000000000E+00  0.70667632433E+02  0.70667632433E+02  0.00000000000E+00 0. -1.
          2   -1    0    0  502    0 -0.00000000000E+00 -0.00000000000E+00 -0.14404892689E+04  0.14404892689E+04  0.00000000000E+00 0. -1.
         24    2    1    2    0    0  0.28571345094E+02  0.35851661797E+02 -0.27945907031E+03  0.29471794821E+03  0.81606578220E+02 0.  0.
         25    2    1    2    0    0 -0.48784826286E+02 -0.29026130111E+02 -0.28829051918E+03  0.31931677472E+03  0.12501721346E+03 0.  0.
         24    2    1    2    0    0 -0.28103099753E+02  0.72213534506E+01 -0.36779464202E+02  0.92323938273E+02  0.79555316792E+02 0.  0.
        -11    1    3    3    0    0  0.55936572533E+02  0.15740956362E+02 -0.14953289815E+03  0.16042682283E+03  0.00000000000E+00 0.  1.
         12    1    3    3    0    0 -0.27365227439E+02  0.20110705435E+02 -0.12992617216E+03  0.13429112538E+03  0.00000000000E+00 0. -1.
        -13    1    5    5    0    0  0.94701278127E+01 -0.28583762232E+02 -0.24917046307E+02  0.39084190931E+02  0.00000000000E+00 0.  1.
         14    1    5    5    0    0 -0.37573227565E+02  0.35805115682E+02 -0.11862417896E+02  0.53239747342E+02  0.00000000000E+00 0. -1.
          5    1    4    4  501    0  0.13912195980E+02 -0.22555956758E+02 -0.29686366637E+01  0.27078094207E+02  0.47000000000E+01 0.  1.
         -5    1    4    4    0  501 -0.62697022266E+02 -0.64701733531E+01 -0.28532188252E+03  0.29223868051E+03  0.47000000000E+01 0.  1.
          1    1    1    2  502    0  0.41279822662E+02  0.13503422389E+02 -0.77387785818E+03  0.77509567510E+03  0.00000000000E+00 0. -1.
          1    1    1    2  503    0  0.70367582824E+01 -0.27550307526E+02  0.85852754504E+01  0.29702564981E+02  0.00000000000E+00 0. -1.
<mgrwt>
<rscale>  0 0.35133933E+02</rscale>
<asrwt>0</asrwt>
<pdfrwt beam="1">  1        2 0.10392299E-01 0.28434757E+02</pdfrwt>
<pdfrwt beam="2">  1        2 0.21183665E+00 0.43411423E+02</pdfrwt>
<totfact> 0.14846007E+03</totfact>
</mgrwt>
</event>
<event>
13    1  0.2038932E-008  0.2736068E+03  0.7546771E-02  0.1336065E+00
         -1   -1    0    0    0  501 -0.00000000000E+00  0.00000000000E+00  0.11386231804E+04  0.11386231804E+04  0.00000000000E+00 0.  1.
          2   -1    0    0  503    0  0.00000000000E+00 -0.00000000000E+00 -0.17350895065E+04  0.17350895065E+04  0.00000000000E+00 0. -1.
         24    2    1    2    0    0 -0.19707944899E+02  0.71397616117E+02 -0.42652914867E+02  0.11707362983E+03  0.80005880880E+02 0.  0.
         25    2    1    2    0    0  0.31405577650E+02 -0.34018691021E+03 -0.34788391221E+03  0.50335042619E+03  0.12499996392E+03 0.  0.
         24    2    1    2    0    0  0.59461318098E+02 -0.13727622382E+02 -0.12174866298E+03  0.15896510384E+03  0.81994337210E+02 0.  0.
        -11    1    5    5    0    0  0.11644223095E+02 -0.43636277131E+02 -0.63104712871E+02  0.77601014168E+02  0.00000000000E+00 0.  1.
         12    1    5    5    0    0  0.47817095004E+02  0.29908654749E+02 -0.58643950112E+02  0.81364089672E+02  0.00000000000E+00 0. -1.
        -13    1    3    3    0    0 -0.47867556085E+02  0.30475552394E+02 -0.35374106772E+02  0.66868450327E+02  0.00000000000E+00 0.  1.
         14    1    3    3    0    0  0.28159611186E+02  0.40922063723E+02 -0.72788080949E+01  0.50205179502E+02  0.00000000000E+00 0. -1.
          5    1    4    4  502    0  0.70332445029E+02 -0.25268424911E+03 -0.29130571009E+03  0.39201669518E+03  0.47000000000E+01 0. -1.
         -5    1    4    4    0  502 -0.38926867379E+02 -0.87502661099E+02 -0.56578202126E+02  0.11133373100E+03  0.47000000000E+01 0. -1.
          1    1    1    2  503    0  0.26367593238E+01  0.21838362889E+02 -0.10708799912E+04  0.10711058875E+04  0.00000000000E+00 0. -1.
         -2    1    1    2    0  501 -0.73795710173E+02  0.26067855359E+03  0.98669915517E+03  0.10232176396E+04  0.00000000000E+00 0.  1.
<mgrwt>
<rscale>  0 0.77579116E+02</rscale>
<asrwt>0</asrwt>
<pdfrwt beam="2">  1        2 0.25516022E+00 0.21996968E+02</pdfrwt>
<pdfrwt beam="1">  1       -1 0.16744459E+00 0.27360677E+03</pdfrwt>
<totfact> 0.46281414E+00</totfact>
</mgrwt>
</event>
<event>
13    1  0.2038932E-008  0.2618287E+03  0.7546771E-02  0.1159320E+00
          2   -1    0    0  502    0  0.00000000000E+00  0.00000000000E+00  0.12007183619E+04  0.12007183619E+04  0.00000000000E+00 0. -1.
          2   -1    0    0  503    0 -0.00000000000E+00 -0.00000000000E+00 -0.22204045400E+04  0.22204045400E+04  0.00000000000E+00 0. -1.
         24    2    1    2    0    0 -0.56376068751E+02  0.24709361403E+03 -0.92783989709E+03  0.96529098507E+03  0.81647388311E+02 0.  0.
         25    2    1    2    0    0  0.59718096121E+02 -0.14124404104E+03  0.17359714746E+03  0.26320595925E+03  0.12500110898E+03 0.  0.
         24    2    1    2    0    0  0.23524858717E+02  0.63978154712E+02  0.14152260945E+01  0.10567651758E+03  0.80739706739E+02 0.  0.
        -11    1    5    5    0    0  0.45044269183E+02  0.98987991390E+01 -0.77186670356E+01  0.46760562779E+02  0.00000000000E+00 0.  1.
         12    1    5    5    0    0 -0.21519410466E+02  0.54079355573E+02  0.91338931301E+01  0.58915954798E+02  0.00000000000E+00 0. -1.
        -13    1    3    3    0    0 -0.63919486294E+02  0.11921445579E+03 -0.54727836530E+03  0.56374763532E+03  0.00000000000E+00 0.  1.
         14    1    3    3    0    0  0.75434175431E+01  0.12787915824E+03 -0.38056153178E+03  0.40154334976E+03  0.00000000000E+00 0. -1.
          5    1    4    4  501    0  0.35155127168E+02 -0.15950827696E+03  0.16211340177E+03  0.23017736296E+03  0.47000000000E+01 0. -1.
         -5    1    4    4    0  501  0.24562968953E+02  0.18264235926E+02  0.11483745686E+02  0.33028596288E+02  0.47000000000E+01 0. -1.
          1    1    1    2  502    0 -0.14146313171E+03  0.76359408788E+02  0.88706020901E+03  0.90150895245E+03  0.00000000000E+00 0. -1.
          1    1    1    2  503    0  0.11459624562E+03 -0.24618713649E+03 -0.11539188636E+04  0.11854404875E+04  0.00000000000E+00 0. -1.
<mgrwt>
<rscale>  0 0.18905105E+03</rscale>
<asrwt>0</asrwt>
<pdfrwt beam="1">  1        2 0.17657623E+00 0.13650260E+03</pdfrwt>
<pdfrwt beam="2">  1        2 0.32653008E+00 0.26182870E+03</pdfrwt>
<totfact> 0.22467049E+01</totfact>
</mgrwt>
</event>
<event>
13    1  0.2038932E-008  0.2176279E+03  0.7546771E-02  0.1312903E+00
          4   -1    0    0  503    0 -0.00000000000E+00  0.00000000000E+00  0.15066207645E+04  0.15066207645E+04  0.00000000000E+00 0. -1.
          2   -1    0    0  502    0  0.00000000000E+00 -0.00000000000E+00 -0.60804775495E+03  0.60804775495E+03  0.00000000000E+00 0. -1.
         24    2    1    2    0    0 -0.68893271192E+02  0.64869462801E+02  0.77403240188E+03  0.78392386415E+03  0.80350081492E+02 0.  0.
         25    2    1    2    0    0  0.13226112547E+03 -0.32480417242E+03 -0.11425737505E+03  0.38944320858E+03  0.12498203562E+03 0.  0.
         24    2    1    2    0    0  0.39108095659E+02  0.61044004871E+02  0.19462144300E+03  0.22292411193E+03  0.81005184575E+02 0.  0.
        -11    1    5    5    0    0 -0.21150100279E+02  0.39329739460E+02  0.79310935209E+02  0.91018567290E+02  0.00000000000E+00 0.  1.
         12    1    5    5    0    0  0.60258195938E+02  0.21714265411E+02  0.11531050779E+03  0.13190554464E+03  0.00000000000E+00 0. -1.
        -13    1    3    3    0    0 -0.14912362769E+02  0.35720732183E+01  0.18677689754E+02  0.24165975357E+02  0.00000000000E+00 0.  1.
         14    1    3    3    0    0 -0.53980908423E+02  0.61297389583E+02  0.75535471213E+03  0.75975788879E+03  0.00000000000E+00 0. -1.
          5    1    4    4  501    0  0.30781627040E+02 -0.10073115455E+03  0.22721486942E+02  0.10785467087E+03  0.47000000000E+01 0. -1.
         -5    1    4    4    0  501  0.10147949843E+03 -0.22407301787E+03 -0.13697886199E+03  0.28158853772E+03  0.47000000000E+01 0. -1.
          1    1    1    2  502    0 -0.97020325124E+02  0.16536697257E+03 -0.30895823675E+03  0.36361294140E+03  0.00000000000E+00 0. -1.
          3    1    1    2  503    0 -0.54556248160E+01  0.33523732178E+02  0.35313477648E+03  0.35476439339E+03  0.00000000000E+00 0. -1.
<mgrwt>
<rscale>  0 0.85974871E+02</rscale>
<asrwt>0</asrwt>
<pdfrwt beam="2">  1        2 0.89418788E-01 0.21762792E+03</pdfrwt>
<pdfrwt beam="1">  1        4 0.22156188E+00 0.33964753E+02</pdfrwt>
<totfact> 0.30614152E+00</totfact>
</mgrwt>
</event>
<event>
13    1  0.2038932E-008  0.9928393E+02  0.7546771E-02  0.1371347E+00
          2   -1    0    0  503    0  0.00000000000E+00  0.00000000000E+00  0.72432919763E+03  0.72432919763E+03  0.00000000000E+00 0. -1.
          2   -1    0    0  502    0 -0.00000000000E+00 -0.00000000000E+00 -0.31303715862E+04  0.31303715862E+04  0.00000000000E+00 0. -1.
         24    2    1    2    0    0  0.14252851336E+03  0.47955720807E+02 -0.77096398543E+03  0.78965595035E+03  0.80974840622E+02 0.  0.
         25    2    1    2    0    0 -0.11478553509E+03  0.40189465149E+02  0.23395420036E+03  0.29181001668E+03  0.12501042275E+03 0.  0.
         24    2    1    2    0    0 -0.44204893122E+02 -0.16570027080E+03 -0.13786030195E+03  0.23497528567E+03  0.82445555986E+02 0.  0.
        -11    1    5    5    0    0 -0.18860650880E+00 -0.49574862448E+02 -0.19951932654E+00  0.49575622710E+02  0.00000000000E+00 0.  1.
         12    1    5    5    0    0 -0.44016286613E+02 -0.11612540835E+03 -0.13766078263E+03  0.18539966296E+03  0.00000000000E+00 0. -1.
        -13    1    3    3    0    0 -0.25857830282E+01  0.16425902482E+02 -0.16182265808E+03  0.16267473441E+03  0.00000000000E+00 0.  1.
         14    1    3    3    0    0  0.14511429639E+03  0.31529818325E+02 -0.60914132735E+03  0.62698121594E+03  0.00000000000E+00 0. -1.
          5    1    4    4  501    0  0.12662484033E+01 -0.22947100176E+02  0.10334494252E+03  0.10597377004E+03  0.47000000000E+01 0. -1.
         -5    1    4    4    0  501 -0.11605178350E+03  0.63136565325E+02  0.13060925784E+03  0.18583624664E+03  0.47000000000E+01 0. -1.
          1    1    1    2  502    0  0.61394204514E+02  0.78154948186E+02 -0.21323039127E+04  0.21346187998E+04  0.00000000000E+00 0. -1.
          1    1    1    2  503    0 -0.44932289657E+02 -0.59986334078E+00  0.40113161118E+03  0.40364073132E+03  0.00000000000E+00 0. -1.
<mgrwt>
<rscale>  0 0.66794099E+02</rscale>
<asrwt>0</asrwt>
<pdfrwt beam="1">  1        2 0.10651900E+00 0.44936294E+02</pdfrwt>
<pdfrwt beam="2">  1        2 0.46034876E+00 0.99283927E+02</pdfrwt>
<totfact> 0.17204800E+01</totfact>
</mgrwt>
</event>
<event>
13    1  0.2038932E-008  0.7004286E+02  0.7546771E-02  0.1405286E+00
          2   -1    0    0  502    0  0.00000000000E+00  0.00000000000E+00  0.31298860511E+04  0.31298860511E+04  0.00000000000E+00 0. -1.
          2   -1    0    0  503    0 -0.00000000000E+00 -0.00000000000E+00 -0.24533755837E+04  0.24533755837E+04  0.00000000000E+00 0. -1.
         24    2    1    2    0    0 -0.28139613603E+03  0.31736385237E+03  0.55681520827E+02  0.43740523914E+03  0.91210258748E+02 0.  0.
         25    2    1    2    0    0 -0.32272358968E+03  0.31701573234E+03 -0.54025571280E+03  0.71564716049E+03  0.12500053286E+03 0.  0.
         24    2    1    2    0    0  0.61112779449E+03 -0.60187127834E+03  0.59961325413E+03  0.10495939432E+04  0.79907285191E+02 0.  0.
        -11    1    5    5    0    0  0.22431980302E+03 -0.17949674550E+03  0.22918131833E+03  0.36750854730E+03  0.00000000000E+00 0.  1.
         12    1    5    5    0    0  0.38680799147E+03 -0.42237453285E+03  0.37043193580E+03  0.68208539592E+03  0.00000000000E+00 0. -1.
        -13    1    3    3    0    0 -0.11264310004E+03  0.10004588132E+03  0.60157901833E+02  0.16222397945E+03  0.00000000000E+00 0.  1.
         14    1    3    3    0    0 -0.16875303599E+03  0.21731797105E+03 -0.44763810063E+01  0.27518125969E+03  0.00000000000E+00 0. -1.
          5    1    4    4  501    0 -0.37290160958E+02  0.90047490164E+02 -0.67875425024E+02  0.11886239906E+03  0.47000000000E+01 0. -1.
         -5    1    4    4    0  501 -0.28543342873E+03  0.22696824217E+03 -0.47238028778E+03  0.59678476142E+03  0.47000000000E+01 0. -1.
          1    1    1    2  502    0 -0.37641263230E+02  0.30517328113E+02  0.19698742568E+04  0.19704701874E+04  0.00000000000E+00 0. -1.
          1    1    1    2  503    0  0.30633194461E+02 -0.63025634482E+02 -0.14084028516E+04  0.14101451044E+04  0.00000000000E+00 0. -1.
<mgrwt>
<rscale>  0 0.58259188E+02</rscale>
<asrwt>0</asrwt>
<pdfrwt beam="1">  1        2 0.46027736E+00 0.48457941E+02</pdfrwt>
<pdfrwt beam="2">  1        2 0.36079053E+00 0.70042864E+02</pdfrwt>
<totfact> 0.25031398E+00</totfact>
</mgrwt>
</event>
<event>
13    1  0.2038932E-008  0.1589931E+03  0.7546771E-02  0.1225920E+00
          4   -1    0    0  503    0 -0.00000000000E+00  0.00000000000E+00  0.44617760545E+03  0.44617760545E+03  0.00000000000E+00 0. -1.
          2   -1    0    0  502    0  0.00000000000E+00 -0.00000000000E+00 -0.13692394068E+04  0.13692394068E+04  0.00000000000E+00 0. -1.
         24    2    1    2    0    0 -0.22592900610E+03  0.29900286901E+03 -0.20855407425E+03  0.43636217601E+03  0.80439513283E+02 0.  0.
         25    2    1    2    0    0  0.42139622815E+03 -0.24442285294E+03 -0.56487412975E+03  0.75632335624E+03  0.12499969834E+03 0.  0.
         24    2    1    2    0    0  0.39305258859E+02 -0.13934162184E+01 -0.11053091479E+03  0.14407346042E+03  0.83625557645E+02 0.  0.
        -11    1    3    3    0    0 -0.78295705211E+02  0.57743854053E+02 -0.29724147007E+02  0.10172558700E+03  0.00000000000E+00 0.  1.
         12    1    3    3    0    0 -0.14763330088E+03  0.24125901495E+03 -0.17882992724E+03  0.33463658901E+03  0.00000000000E+00 0. -1.
        -13    1    5    5    0    0 -0.18590234534E+02 -0.23667546903E+02 -0.30925632598E+02  0.43152570585E+02  0.00000000000E+00 0.  1.
         14    1    5    5    0    0  0.57895493394E+02  0.22274130685E+02 -0.79605282189E+02  0.10092088984E+03  0.00000000000E+00 0. -1.
          5    1    4    4  501    0  0.14801976998E+03 -0.44414417521E+02 -0.11270115493E+03  0.19132729317E+03  0.47000000000E+01 0.  1.
         -5    1    4    4    0  501  0.27337645817E+03 -0.20000843542E+03 -0.45217297483E+03  0.56499606307E+03  0.47000000000E+01 0.  1.
          1    1    1    2  502    0 -0.83368215606E+02 -0.10039680604E+03 -0.20890281751E+03  0.24631314460E+03  0.00000000000E+00 0. -1.
          3    1    1    2  503    0 -0.15140426531E+03  0.47210206195E+02  0.16980013493E+03  0.23234487501E+03  0.00000000000E+00 0. -1.
<mgrwt>
<rscale>  0 0.13104046E+03</rscale>
<asrwt>0</asrwt>
<pdfrwt beam="2">  1        2 0.20135873E+00 0.10800220E+03</pdfrwt>
<pdfrwt beam="1">  1        4 0.65614354E-01 0.15899307E+03</pdfrwt>
<totfact> 0.21118747E+01</totfact>
</mgrwt>
</event>
<event>
13    1  0.2038932E-008  0.6533267E+02  0.7546771E-02  0.1401582E+00
          2   -1    0    0  503    0  0.00000000000E+00  0.00000000000E+00  0.82298458190E+03  0.82298458190E+03  0.00000000000E+00 0. -1.
          2   -1    0    0  502    0 -0.00000000000E+00 -0.00000000000E+00 -0.71639213765E+03  0.71639213765E+03  0.00000000000E+00 0. -1.
         24    2    1    2    0    0 -0.44320234602E+02  0.12157928736E+03  0.64962465284E+02  0.16519928590E+03  0.79529088110E+02 0.  0.
         25    2    1    2    0    0  0.14459084653E+03 -0.25216892929E+03 -0.28087389317E+03  0.42309646995E+03  0.12499918888E+03 0.  0.
         24    2    1    2    0    0 -0.39128414625E+02  0.29542876880E+02  0.22152353646E+03  0.24078496070E+03  0.80628194132E+02 0.  0.
        -11    1    3    3    0    0 -0.21427582795E+00 -0.21666009887E+01 -0.12501803730E+02  0.12689963376E+02  0.00000000000E+00 0.  1.
         12    1    3    3    0    0 -0.44105958774E+02  0.12374588835E+03  0.77464269014E+02  0.15250932252E+03  0.00000000000E+00 0. -1.
        -13    1    5    5    0    0  0.17773606657E+02  0.25978818923E+02  0.12290768114E+03  0.12687434023E+03  0.00000000000E+00 0.  1.
         14    1    5    5    0    0 -0.56902021282E+02  0.35640579566E+01  0.98615855315E+02  0.11391062046E+03  0.00000000000E+00 0. -1.
          5    1    4    4  501    0  0.15130460844E+03 -0.25787601852E+03 -0.28423548528E+03  0.41255911886E+03  0.47000000000E+01 0.  1.
         -5    1    4    4    0  501 -0.67137619035E+01  0.57070892326E+01  0.33615921132E+01  0.10537351088E+02  0.47000000000E+01 0.  1.
          1    1    1    2  502    0 -0.36993165753E+02  0.53318552103E+02 -0.29940311659E+03  0.30635533051E+03  0.00000000000E+00 0. -1.
          1    1    1    2  503    0 -0.24149031555E+02  0.47728212945E+02  0.40038345227E+03  0.40394067249E+03  0.00000000000E+00 0. -1.
<mgrwt>
<rscale>  0 0.59115404E+02</rscale>
<asrwt>0</asrwt>
<pdfrwt beam="1">  1        2 0.12102715E+00 0.53489794E+02</pdfrwt>
<pdfrwt beam="2">  1        2 0.10535178E+00 0.65332669E+02</pdfrwt>
<totfact> 0.26908087E+02</totfact>
</mgrwt>
</event>
<event>
13    1  0.2038932E-008  0.1494328E+03  0.7546771E-02  0.1299926E+00
          2   -1    0    0  503    0  0.00000000000E+00  0.00000000000E+00  0.86711146469E+03  0.86711146469E+03  0.00000000000E+00 0. -1.
          2   -1    0    0  502    0 -0.00000000000E+00 -0.00000000000E+00 -0.65039564164E+03  0.65039564164E+03  0.00000000000E+00 0. -1.
         24    2    1    2    0    0  0.96908529219E+02  0.50676870479E+02 -0.46860086122E+01  0.13372502977E+03  0.76818075171E+02 0.  0.
         25    2    1    2    0    0 -0.11763252130E+03  0.13786617716E+03  0.44655883780E+03  0.49787855222E+03  0.12499505700E+03 0.  0.
         24    2    1    2    0    0  0.36781036045E+01 -0.70384454113E+02 -0.11327176940E+03  0.15663286954E+03  0.82072298923E+02 0.  0.
        -11    1    3    3    0    0  0.92686570386E+02  0.22806774859E+02 -0.25366416762E+02  0.98764388363E+02  0.00000000000E+00 0.  1.
         12    1    3    3    0    0  0.42219588325E+01  0.27870095620E+02  0.20680408149E+02  0.34960641405E+02  0.00000000000E+00 0. -1.
        -13    1    5    5    0    0 -0.15039025487E+02 -0.64124841507E+01 -0.80896903781E+02  0.82532425640E+02  0.00000000000E+00 0.  1.
         14    1    5    5    0    0  0.18717129091E+02 -0.63971969963E+02 -0.32374865616E+02  0.74100443899E+02  0.00000000000E+00 0. -1.
          5    1    4    4  501    0 -0.13561051202E+03  0.76213042405E+02  0.32361127145E+03  0.35908910289E+03  0.47000000000E+01 0.  1.
         -5    1    4    4    0  501  0.17977990720E+02  0.61653134754E+02  0.12294756635E+03  0.13878944933E+03  0.47000000000E+01 0.  1.
          1    1    1    2  502    0 -0.21387171252E+02 -0.15845201246E+03 -0.40264385709E+03  0.43322803118E+03  0.00000000000E+00 0. -1.
          1    1    1    2  503    0  0.38433059731E+02  0.40293418932E+02  0.29075862036E+03  0.29604262362E+03  0.00000000000E+00 0. -1.
<mgrwt>
<rscale>  0 0.91219248E+02</rscale>
<asrwt>0</asrwt>
<pdfrwt beam="1">  1        2 0.12751639E+00 0.55683568E+02</pdfrwt>
<pdfrwt beam="2">  1        2 0.95646417E-01 0.14943280E+03</pdfrwt>
<totfact> 0.27586626E+02</totfact>
</mgrwt>
</event>
<event>
13    1  0.2038932E-008  0.1619923E+03  0.7546771E-02  0.1271275E+00
          2   -1    0    0  502    0  0.00000000000E+00  0.00000000000E+00  0.18858266214E+04  0.18858266214E+04  0.00000000000E+00 0. -1.
          2   -1    0    0  503    0 -0.00000000000E+00 -0.00000000000E+00 -0.32056590170E+03  0.32056590170E+03  0.00000000000E+00 0. -1.
         24    2    1    2    0    0  0.71362164376E+02 -0.75123438304E+02 -0.11237781617E+03  0.17156268430E+03  0.77903091024E+02 0.  0.
         25    2    1    2    0    0 -0.19798116952E+03 -0.76578790823E+02  0.48087462349E+03  0.54030471753E+03  0.12501171776E+03 0.  0.
         24    2    1    2    0    0 -0.34947030833E+02  0.24967771210E+02  0.95408820797E+02  0.13179767988E+03  0.80144249781E+02 0.  0.
        -11    1    5    5    0    0  0.36702795998E+01 -0.23147425138E+02  0.49911658157E+02  0.55140256282E+02  0.00000000000E+00 0.  1.
         12    1    5    5    0    0 -0.38617310433E+02  0.48115196348E+02  0.45497162640E+02  0.76657423600E+02  0.00000000000E+00 0. -1.
        -13    1    3    3    0    0  0.21064940214E+02 -0.75356142300E+02 -0.79046299875E+02  0.11122318739E+03  0.00000000000E+00 0.  1.
         14    1    3    3    0    0  0.50297224162E+02  0.23270399652E+00 -0.33331516296E+02  0.60339496917E+02  0.00000000000E+00 0. -1.
          5    1    4    4  501    0 -0.13649481417E+03 -0.29312697693E+02  0.17081218769E+03  0.22065575453E+03  0.47000000000E+01 0. -1.
         -5    1    4    4    0  501 -0.61486355347E+02 -0.47266093130E+02  0.31006243580E+03  0.31964896300E+03  0.47000000000E+01 0. -1.
          1    1    1    2  502    0  0.50518742014E+02 -0.44470734160E+02  0.11507924924E+04  0.11527589297E+04  0.00000000000E+00 0. -1.
          1    1    1    2  503    0  0.11104729396E+03  0.17120519208E+03 -0.49437400814E+02  0.20996851166E+03  0.00000000000E+00 0. -1.
<mgrwt>
<rscale>  0 0.10441591E+03</rscale>
<asrwt>0</asrwt>
<pdfrwt beam="1">  1        2 0.27732744E+00 0.67303711E+02</pdfrwt>
<pdfrwt beam="2">  1        2 0.47142045E-01 0.16199229E+03</pdfrwt>
<totfact> 0.17891081E+02</totfact>
</mgrwt>
</event>
<event>
13    1  0.2038932E-008  0.1042013E+03  0.7546771E-02  0.1417454E+00
          2   -1    0    0  502    0  0.00000000000E+00  0.00000000000E+00  0.26053770264E+04  0.26053770264E+04  0.00000000000E+00 0. -1.
          2   -1    0    0  503    0 -0.00000000000E+00 -0.00000000000E+00 -0.22869021055E+04  0.22869021055E+04  0.00000000000E+00 0. -1.
         24    2    1    2    0    0 -0.21251515630E+03  0.24057111648E+03 -0.13778125586E+04  0.14170783194E+04  0.81892386772E+02 0.  0.
         25    2    1    2    0    0  0.13697484160E+03 -0.76270837445E+02  0.49220630885E+03  0.53148046174E+03  0.12500033145E+03 0.  0.
         24    2    1    2    0    0  0.19211901604E+01 -0.61711796768E+02 -0.20283933973E+03  0.22685637165E+03  0.80672044637E+02 0.  0.
        -13    1    3    3    0    0 -0.29131798798E+02  0.61167391630E+02 -0.18567948225E+03  0.19765369116E+03  0.00000000000E+00 0.  1.
         14    1    3    3    0    0 -0.18338335750E+03  0.17940372485E+03 -0.11921330763E+04  0.12194246282E+04  0.00000000000E+00 0. -1.
        -13    1    5    5    0    0  0.40463117597E+02 -0.38563058077E+02 -0.98746326413E+02  0.11346898393E+03  0.00000000000E+00 0.  1.
         14    1    5    5    0    0 -0.38541927437E+02 -0.23148738691E+02 -0.10409301332E+03  0.11338738772E+03  0.00000000000E+00 0. -1.
          5    1    4    4  501    0  0.61960666878E+02 -0.10762627272E+02  0.57021272345E+02  0.85020432166E+02  0.47000000000E+01 0.  1.
         -5    1    4    4    0  501  0.75014174727E+02 -0.65508210173E+02  0.43518503651E+03  0.44646002958E+03  0.47000000000E+01 0.  1.
          1    1    1    2  502    0  0.45343430265E+02 -0.93739415739E+02  0.20602415929E+04  0.20628714274E+04  0.00000000000E+00 0. -1.
          1    1    1    2  503    0  0.28275694267E+02 -0.88490665300E+01 -0.65332108252E+03  0.65399255174E+03  0.00000000000E+00 0. -1.
<mgrwt>
<rscale>  0 0.55563303E+02</rscale>
<asrwt>0</asrwt>
<pdfrwt beam="1">  1        2 0.38314368E+00 0.10420131E+03</pdfrwt>
<pdfrwt beam="2">  1        2 0.33630913E+00 0.29628042E+02</pdfrwt>
<totfact> 0.55771110E+00</totfact>
</mgrwt>
</event>
<event>
13    1  0.2038932E-008  0.1251389E+03  0.7546771E-02  0.1243235E+00
          2   -1    0    0  503    0  0.00000000000E+00  0.00000000000E+00  0.25583752608E+04  0.25583752608E+04  0.00000000000E+00 0. -1.
          2   -1    0    0  502    0 -0.00000000000E+00 -0.00000000000E+00 -0.13714656399E+04  0.13714656399E+04  0.00000000000E+00 0. -1.
         24    2    1    2    0    0  0.91839416634E+02 -0.49396117446E+02  0.43271875977E+03  0.45226433626E+03  0.80143932617E+02 0.  0.
         25    2    1    2    0    0 -0.72532015582E+02 -0.43930413160E+02 -0.50080007363E+02  0.15913382145E+03  0.12499916603E+03 0.  0.
         24    2    1    2    0    0 -0.32785493239E+02  0.16723889588E+02  0.95040805030E+02  0.12871974289E+03  0.78622137717E+02 0.  0.
        -13    1    5    5    0    0  0.96317129910E+01  0.33700689151E+02  0.65572789421E+02  0.74352518833E+02  0.00000000000E+00 0.  1.
         14    1    5    5    0    0 -0.42417206230E+02 -0.16976799563E+02  0.29468015609E+02  0.54367224057E+02  0.00000000000E+00 0. -1.
        -13    1    3    3    0    0  0.10231805941E+03 -0.30299148310E+02  0.31602295902E+03  0.33355289580E+03  0.00000000000E+00 0.  1.
         14    1    3    3    0    0 -0.10478642776E+02 -0.19096969136E+02  0.11669580075E+03  0.11871144047E+03  0.00000000000E+00 0. -1.
          5    1    4    4  501    0 -0.10487072167E+03 -0.26771106025E+02 -0.17180013370E+02  0.10968957672E+03  0.47000000000E+01 0.  1.
         -5    1    4    4    0  501  0.32338706085E+02 -0.17159307135E+02 -0.32899993993E+02  0.49444244735E+02  0.47000000000E+01 0.  1.
          1    1    1    2  502    0 -0.24178359118E+02 -0.11234998938E+03 -0.12328070726E+04  0.12381520066E+04  0.00000000000E+00 0. -1.
          1    1    1    2  503    0  0.37656451305E+02  0.18895263040E+03  0.19420371361E+04  0.19515709936E+04  0.00000000000E+00 0. -1.
<mgrwt>
<rscale>  0 0.11991641E+03</rscale>
<asrwt>0</asrwt>
<pdfrwt beam="1">  1        2 0.37623166E+00 0.12513889E+03</pdfrwt>
<pdfrwt beam="2">  1        2 0.20168612E+00 0.11491189E+03</pdfrwt>
<totfact> 0.13599962E+01</totfact>
</mgrwt>
</event>
<event>
13    1  0.2038932E-008  0.1265360E+03  0.7546771E-02  0.1241159E+00
          2   -1    0    0  503    0  0.00000000000E+00  0.00000000000E+00  0.12011552904E+04  0.12011552904E+04  0.00000000000E+00 0. -1.
          2   -1    0    0  502    0 -0.00000000000E+00 -0.00000000000E+00 -0.24757561081E+04  0.24757561081E+04  0.00000000000E+00 0. -1.
         24    2    1    2    0    0 -0.27335273898E+03 -0.96839290236E+02 -0.47995128166E+03  0.56688633820E+03  0.83110285928E+02 0.  0.
         25    2    1    2    0    0  0.42047709856E+03  0.12039272644E+03  0.13974460028E+03  0.47587059657E+03  0.12501548856E+03 0.  0.
         24    2    1    2    0    0  0.21188025410E+02 -0.65110419164E+02 -0.82342181678E+02  0.13349940886E+03  0.79709210123E+02 0.  0.
        -11    1    3    3    0    0 -0.49689930217E+02 -0.51969634671E+01 -0.36619105356E+02  0.61943978491E+02  0.00000000000E+00 0.  1.
         12    1    3    3    0    0 -0.22366280876E+03 -0.91642326769E+02 -0.44333217631E+03  0.50494235971E+03  0.00000000000E+00 0. -1.
        -13    1    5    5    0    0  0.37210870948E+02 -0.62758689382E+02 -0.30311816384E+02  0.79007013753E+02  0.00000000000E+00 0.  1.
         14    1    5    5    0    0 -0.16022845538E+02 -0.23517297821E+01 -0.52030365294E+02  0.54492395109E+02  0.00000000000E+00 0. -1.
          5    1    4    4  501    0  0.32665926943E+03  0.36108882416E+02  0.10160265605E+03  0.34402807939E+03  0.47000000000E+01 0. -1.
         -5    1    4    4    0  501  0.93817829129E+02  0.84283844025E+02  0.38141944234E+02  0.13184251718E+03  0.47000000000E+01 0. -1.
          1    1    1    2  502    0 -0.97538030643E+02  0.14634442831E+03 -0.16668505490E+04  0.16761029538E+04  0.00000000000E+00 0. -1.
          1    1    1    2  503    0 -0.70774354346E+02 -0.10478744535E+03  0.81479859438E+03  0.82455210105E+03  0.00000000000E+00 0. -1.
<mgrwt>
<rscale>  0 0.12118260E+03</rscale>
<asrwt>0</asrwt>
<pdfrwt beam="1">  1        2 0.17664049E+00 0.12653602E+03</pdfrwt>
<pdfrwt beam="2">  1        2 0.36408178E+00 0.11605566E+03</pdfrwt>
<totfact> 0.18426273E+01</totfact>
</mgrwt>
</event>
<event>
13    1  0.2038932E-008  0.1009222E+03  0.7546771E-02  0.1288616E+00
          2   -1    0    0  502    0  0.00000000000E+00  0.00000000000E+00  0.39089687290E+04  0.39089687290E+04  0.00000000000E+00 0. -1.
          2   -1    0    0  503    0 -0.00000000000E+00 -0.00000000000E+00 -0.95820299598E+03  0.95820299598E+03  0.00000000000E+00 0. -1.
         24    2    1    2    0    0  0.14915363282E+03  0.12956651557E+03 -0.37280128585E+03  0.42960739443E+03  0.80916169430E+02 0.  0.
         25    2    1    2    0    0 -0.45321829208E+02 -0.40893531213E+02  0.63197386386E+03  0.64710090965E+03  0.12498909381E+03 0.  0.
         24    2    1    2    0    0 -0.17556852228E+02 -0.13354207969E+03 -0.11610832568E+03  0.20257375402E+03  0.97021917209E+02 0.  0.
        -11    1    5    5    0    0 -0.42635136618E+02 -0.97016836141E+02 -0.37634143421E+02  0.11245599193E+03  0.00000000000E+00 0.  1.
         12    1    5    5    0    0  0.25078284390E+02 -0.36525243549E+02 -0.78474182255E+02  0.90117762094E+02  0.00000000000E+00 0. -1.
        -13    1    3    3    0    0  0.29879481997E+02 -0.84824035035E+01 -0.54185478106E+02  0.62456389995E+02  0.00000000000E+00 0.  1.
         14    1    3    3    0    0  0.11927415083E+03  0.13804891907E+03 -0.31861580775E+03  0.36715100444E+03  0.00000000000E+00 0. -1.
          5    1    4    4  501    0 -0.80262602322E+02 -0.14260523289E+02  0.26022273520E+03  0.27273322087E+03  0.47000000000E+01 0. -1.
         -5    1    4    4    0  501  0.34940773114E+02 -0.26633007923E+02  0.37175112867E+03  0.37436768878E+03  0.47000000000E+01 0. -1.
          1    1    1    2  502    0 -0.72812997346E+02 -0.55569325790E+02  0.31905460471E+04  0.31918605485E+04  0.00000000000E+00 0. -1.
          1    1    1    2  503    0 -0.13461954042E+02  0.10043842113E+03 -0.38284456635E+03  0.39602911841E+03  0.00000000000E+00 0. -1.
<mgrwt>
<rscale>  0 0.96145674E+02</rscale>
<asrwt>0</asrwt>
<pdfrwt beam="1">  1        2 0.57484833E+00 0.91595210E+02</pdfrwt>
<pdfrwt beam="2">  1        2 0.14091221E+00 0.10092220E+03</pdfrwt>
<totfact> 0.41751140E+00</totfact>
</mgrwt>
</event>
<event>
13    1  0.2038932E-008  0.1369013E+03  0.7546771E-02  0.1257368E+00
         -1   -1    0    0    0  501 -0.00000000000E+00  0.00000000000E+00  0.15806656656E+03  0.15806656656E+03  0.00000000000E+00 0.  1.
          2   -1    0    0  503    0  0.00000000000E+00 -0.00000000000E+00 -0.41669106679E+04  0.41669106679E+04  0.00000000000E+00 0. -1.
         24    2    1    2    0    0  0.61392100671E+02  0.22350925274E+02  0.33203017358E+02  0.12470652166E+03  0.10089956540E+03 0.  0.
         25    2    1    2    0    0 -0.60917322954E+02  0.84590367249E+02 -0.53109552212E+03  0.55547656737E+03  0.12500125124E+03 0.  0.
         24    2    1    2    0    0 -0.18487015351E+02 -0.56000264116E+02 -0.17260868531E+03  0.19908616248E+03  0.79773068937E+02 0.  0.
        -11    1    3    3    0    0 -0.68699789886E+01  0.15017825132E+02  0.51145664502E+02  0.53745796862E+02  0.00000000000E+00 0.  1.
         12    1    3    3    0    0  0.68262079660E+02  0.73331001424E+01 -0.17942647144E+02  0.70960724797E+02  0.00000000000E+00 0. -1.
        -11    1    5    5    0    0  0.10428638085E-01 -0.73495207010E+02 -0.12182096232E+03  0.14227400474E+03  0.00000000000E+00 0.  1.
         12    1    5    5    0    0 -0.18497443989E+02  0.17494942894E+02 -0.50787722986E+02  0.56812157740E+02  0.00000000000E+00 0. -1.
          5    1    4    4  502    0 -0.27485600474E+01 -0.16953284758E+02 -0.25430214105E+03  0.25492476809E+03  0.47000000000E+01 0. -1.
         -5    1    4    4    0  502 -0.58168762906E+02  0.10154365201E+03 -0.27679338107E+03  0.30055179927E+03  0.47000000000E+01 0. -1.
          1    1    1    2  503    0  0.86490533108E+02 -0.11119790174E+03 -0.33506997466E+04  0.33536598482E+04  0.00000000000E+00 0. -1.
         -2    1    1    2    0  501 -0.68478295475E+02  0.60256873328E+02  0.12356835311E+02  0.92048134763E+02  0.00000000000E+00 0.  1.
<mgrwt>
<rscale>  0 0.11174724E+03</rscale>
<asrwt>0</asrwt>
<pdfrwt beam="2">  1        2 0.61278093E+00 0.13690131E+03</pdfrwt>
<pdfrwt beam="1">  1       -1 0.23245085E-01 0.91214953E+02</pdfrwt>
<totfact> 0.92865967E+00</totfact>
</mgrwt>
</event>
<event>
13    1  0.2038932E-008  0.1215511E+03  0.7546771E-02  0.1381959E+00
          2   -1    0    0  502    0  0.00000000000E+00  0.00000000000E+00  0.10755135563E+04  0.10755135563E+04  0.00000000000E+00 0. -1.
          2   -1    0    0  503    0 -0.00000000000E+00 -0.00000000000E+00 -0.17531508373E+04  0.17531508373E+04  0.00000000000E+00 0. -1.
         24    2    1    2    0    0  0.76464659172E+02 -0.40986636731E+02 -0.36889389531E+03  0.38729148229E+03  0.79907682790E+02 0.  0.
         25    2    1    2    0    0 -0.12254737695E+03  0.23113410610E+03  0.22660828340E+03  0.36799375120E+03  0.12500900852E+03 0.  0.
         24    2    1    2    0    0  0.19811876179E+03 -0.14976096009E+03  0.31616515599E+03  0.40857350043E+03  0.72749642270E+02 0.  0.
        -11    1    5    5    0    0  0.69144390659E+02 -0.17510841601E+02  0.11616403207E+03  0.13631455784E+03  0.00000000000E+00 0.  1.
         12    1    5    5    0    0  0.12897437114E+03 -0.13225011849E+03  0.20000112392E+03  0.27225894259E+03  0.00000000000E+00 0. -1.
        -13    1    3    3    0    0 -0.12352220354E+02 -0.24100655874E+02 -0.10021165210E+03  0.10380652281E+03  0.00000000000E+00 0.  1.
         14    1    3    3    0    0  0.88816879526E+02 -0.16885980857E+02 -0.26868224321E+03  0.28348495948E+03  0.00000000000E+00 0. -1.
          5    1    4    4  501    0  0.11761501050E+02  0.10356861643E+03  0.89878928774E+02  0.13771384482E+03  0.47000000000E+01 0. -1.
         -5    1    4    4    0  501 -0.13430887800E+03  0.12756548967E+03  0.13672935463E+03  0.23027990638E+03  0.47000000000E+01 0. -1.
          1    1    1    2  502    0 -0.16298528249E+02  0.29435850268E+02  0.40130805753E+03  0.40271611383E+03  0.00000000000E+00 0. -1.
          1    1    1    2  503    0 -0.13573751576E+03 -0.69822359549E+02 -0.12528248826E+04  0.12620895458E+04  0.00000000000E+00 0. -1.
<mgrwt>
<rscale>  0 0.63951651E+02</rscale>
<asrwt>0</asrwt>
<pdfrwt beam="1">  1        2 0.15816376E+00 0.33646862E+02</pdfrwt>
<pdfrwt beam="2">  1        2 0.25781630E+00 0.12155112E+03</pdfrwt>
<totfact> 0.52082438E+01</totfact>
</mgrwt>
</event>
<event>
13    1  0.4875998E-008  0.1292849E+03  0.7546771E-02  0.1385136E+00
          2   -1    0    0  503    0  0.00000000000E+00  0.00000000000E+00  0.33510061653E+04  0.33510061653E+04  0.00000000000E+00 0. -1.
          2   -1    0    0  502    0 -0.00000000000E+00 -0.00000000000E+00 -0.20329414209E+04  0.20329414209E+04  0.00000000000E+00 0. -1.
         24    2    1    2    0    0 -0.28491731759E+02 -0.17195455457E+02  0.24019305613E+03  0.25644824949E+03  0.83459798638E+02 0.  0.
         25    2    1    2    0    0 -0.10344693400E+03  0.13417524051E+03 -0.15916075604E+03  0.26393118656E+03  0.12499304642E+03 0.  0.
         24    2    1    2    0    0  0.35777739195E+02  0.13207847123E+02  0.14234318447E+03  0.16798627660E+03  0.80643121907E+02 0.  0.
        -11    1    5    5    0    0  0.58423019516E+02 -0.12196238037E+01  0.11829389434E+03  0.13194007022E+03  0.00000000000E+00 0.  1.
         12    1    5    5    0    0 -0.22645280321E+02  0.14427470927E+02  0.24049290134E+02  0.36046206376E+02  0.00000000000E+00 0. -1.
        -11    1    3    3    0    0 -0.56618043064E+02  0.16579137971E+00  0.14373490814E+03  0.15448415487E+03  0.00000000000E+00 0.  1.
         12    1    3    3    0    0  0.28126311305E+02 -0.17361246837E+02  0.96458147988E+02  0.10196409462E+03  0.00000000000E+00 0. -1.
          5    1    4    4  501    0 -0.81538910480E+02  0.15288183417E+03 -0.10568943772E+03  0.20301181342E+03  0.47000000000E+01 0.  1.
         -5    1    4    4    0  501 -0.21908023520E+02 -0.18706593659E+02 -0.53471318320E+02  0.60919373140E+02  0.47000000000E+01 0.  1.
          1    1    1    2  502    0 -0.27279838579E+02  0.14361274109E+02 -0.17971939011E+04  0.17974583038E+04  0.00000000000E+00 0. -1.
          1    1    1    2  503    0  0.12344076514E+03 -0.14454890628E+03  0.28918831610E+04  0.28981235698E+04  0.00000000000E+00 0. -1.
<mgrwt>
<rscale>  0 0.63132726E+02</rscale>
<asrwt>0</asrwt>
<pdfrwt beam="1">  1        2 0.49279503E+00 0.12928487E+03</pdfrwt>
<pdfrwt beam="2">  1        2 0.29896197E+00 0.30829139E+02</pdfrwt>
<totfact> 0.27914304E+00</totfact>
</mgrwt>
</event>
<event>
13    1  0.2038932E-008  0.1195835E+03  0.7546771E-02  0.1288242E+00
          2   -1    0    0  502    0  0.00000000000E+00  0.00000000000E+00  0.17360149273E+04  0.17360149273E+04  0.00000000000E+00 0. -1.
          2   -1    0    0  503    0 -0.00000000000E+00 -0.00000000000E+00 -0.76129587677E+03  0.76129587677E+03  0.00000000000E+00 0. -1.
         24    2    1    2    0    0  0.14870284973E+03  0.73511228953E+02 -0.21576435489E+03  0.28479981850E+03  0.83906146838E+02 0.  0.
         25    2    1    2    0    0 -0.30895039826E+03  0.82234028839E+02  0.26427234727E+03  0.43321714233E+03  0.12499773916E+03 0.  0.
         24    2    1    2    0    0 -0.31099059626E+02 -0.18373365912E+02 -0.10081032756E+03  0.13343080796E+03  0.79601044499E+02 0.  0.
        -11    1    5    5    0    0  0.14873796802E+02 -0.12857600668E+02  0.28812555198E+01  0.19870816783E+02  0.00000000000E+00 0.  1.
         12    1    5    5    0    0 -0.45972856428E+02 -0.55157652440E+01 -0.10369158308E+03  0.11355999117E+03  0.00000000000E+00 0. -1.
        -11    1    3    3    0    0  0.47062042339E+02 -0.82653885923E+01 -0.98111078529E+02  0.10912807250E+03  0.00000000000E+00 0.  1.
         12    1    3    3    0    0  0.10164080739E+03  0.81776617545E+02 -0.11765327636E+03  0.17567174600E+03  0.00000000000E+00 0. -1.
          5    1    4    4  501    0 -0.49370867186E+02 -0.26631558398E+02  0.75852610544E+02  0.94458620336E+02  0.47000000000E+01 0.  1.
         -5    1    4    4    0  501 -0.25957953107E+03  0.10886558724E+03  0.18841973672E+03  0.33875852199E+03  0.47000000000E+01 0.  1.
          1    1    1    2  502    0  0.38523231571E+02 -0.67331966581E+02  0.13123786095E+04  0.13146692541E+04  0.00000000000E+00 0. -1.
          1    1    1    2  503    0  0.15282337658E+03 -0.70039925299E+02 -0.28535722373E+03  0.33119378119E+03  0.00000000000E+00 0. -1.
<mgrwt>
<rscale>  0 0.96314598E+02</rscale>
<asrwt>0</asrwt>
<pdfrwt beam="1">  1        2 0.25529631E+00 0.77573405E+02</pdfrwt>
<pdfrwt beam="2">  1        2 0.11195528E+00 0.11958353E+03</pdfrwt>
<totfact> 0.80370672E+01</totfact>
</mgrwt>
</event>
<event>
13    1  0.2038932E-008  0.1066660E+03  0.7546771E-02  0.1303075E+00
         -1   -1    0    0    0  501 -0.00000000000E+00  0.00000000000E+00  0.14163295866E+04  0.14163295866E+04  0.00000000000E+00 0.  1.
          2   -1    0    0  503    0  0.00000000000E+00 -0.00000000000E+00 -0.31086917535E+03  0.31086917535E+03  0.00000000000E+00 0. -1.
         24    2    1    2    0    0  0.15168639872E+03 -0.14990128693E+03  0.21787308996E+02  0.22878001034E+03  0.79915248335E+02 0.  0.
         25    2    1    2    0    0 -0.10861411253E+03  0.18356558075E+03  0.49451536843E+03  0.55286848360E+03  0.12499905069E+03 0.  0.
         24    2    1    2    0    0 -0.50135381363E+02  0.20299240125E+02  0.33596638617E+02  0.10300427845E+03  0.80966237641E+02 0.  0.
        -13    1    3    3    0    0  0.74428979606E+02 -0.12032402888E+03 -0.57258292395E+01  0.14159918803E+03  0.00000000000E+00 0.  1.
         14    1    3    3    0    0  0.77257419119E+02 -0.29577258053E+02  0.27513138235E+02  0.87180822309E+02  0.00000000000E+00 0. -1.
        -13    1    5    5    0    0  0.21814643442E+02  0.10478491353E+02  0.37365135950E+01  0.24487527098E+02  0.00000000000E+00 0.  1.
         14    1    5    5    0    0 -0.71950024805E+02  0.98207487721E+01  0.29860125022E+02  0.78516751348E+02  0.00000000000E+00 0. -1.
          5    1    4    4  502    0  0.33331266079E+01  0.10049217140E+03  0.27440895829E+03  0.29228779077E+03  0.47000000000E+01 0. -1.
         -5    1    4    4    0  502 -0.11194723914E+03  0.83073409345E+02  0.22010641014E+03  0.26058069283E+03  0.47000000000E+01 0. -1.
          1    1    1    2  503    0  0.49092350863E+01 -0.12971561283E+03 -0.11154419003E+03  0.17115007196E+03  0.00000000000E+00 0. -1.
         -2    1    1    2    0  501  0.21538600792E+01  0.75752078897E+02  0.66710528528E+03  0.67139591763E+03  0.00000000000E+00 0.  1.
<mgrwt>
<rscale>  0 0.89907924E+02</rscale>
<asrwt>0</asrwt>
<pdfrwt beam="2">  1        2 0.45716056E-01 0.10666598E+03</pdfrwt>
<pdfrwt beam="1">  1       -1 0.20828376E+00 0.75782693E+02</pdfrwt>
<totfact> 0.20827053E+01</totfact>
</mgrwt>
</event>
<event>
13    1  0.2038932E-008  0.1491304E+03  0.7546771E-02  0.1359745E+00
          2   -1    0    0  502    0  0.00000000000E+00  0.00000000000E+00  0.13977141783E+04  0.13977141783E+04  0.00000000000E+00 0. -1.
          2   -1    0    0  503    0 -0.00000000000E+00 -0.00000000000E+00 -0.60556238410E+03  0.60556238410E+03  0.00000000000E+00 0. -1.
         24    2    1    2    0    0 -0.32920160570E+02  0.65158287947E+02 -0.24250559004E+03  0.26644561906E+03  0.82794729654E+02 0.  0.
         25    2    1    2    0    0  0.14885069259E+03  0.32697544887E+02  0.50151085627E+03  0.53885475052E+03  0.12500258025E+03 0.  0.
         24    2    1    2    0    0  0.87267604675E+02  0.74668083960E+01 -0.20953441924E+02  0.12021573728E+03  0.79632836870E+02 0.  0.
        -11    1    5    5    0    0  0.80503580101E+02  0.36363319418E+02 -0.11568300366E+02  0.89089522288E+02  0.00000000000E+00 0.  1.
         12    1    5    5    0    0  0.67640245745E+01 -0.28896511022E+02 -0.93851415584E+01  0.31126214992E+02  0.00000000000E+00 0. -1.
        -13    1    3    3    0    0 -0.17957853169E+02  0.80299702880E+02 -0.22252400560E+03  0.23724978365E+03  0.00000000000E+00 0.  1.
         14    1    3    3    0    0 -0.14962307401E+02 -0.15141414933E+02 -0.19981584439E+02  0.29195835416E+02  0.00000000000E+00 0. -1.
          5    1    4    4  501    0 -0.84479524185E+01  0.27293547739E+02  0.16250613411E+03  0.16506556052E+03  0.47000000000E+01 0. -1.
         -5    1    4    4    0  501  0.15729864501E+03  0.54039971480E+01  0.33900472217E+03  0.37378918999E+03  0.47000000000E+01 0. -1.
          1    1    1    2  502    0 -0.23705475585E+02 -0.22890713598E+02  0.77828193941E+03  0.77897927543E+03  0.00000000000E+00 0. -1.
          1    1    1    2  503    0 -0.17949266111E+03 -0.82431927632E+02 -0.22418196956E+03  0.29878118006E+03  0.00000000000E+00 0. -1.
<mgrwt>
<rscale>  0 0.70102569E+02</rscale>
<asrwt>0</asrwt>
<pdfrwt beam="1">  1        2 0.20554620E+00 0.32953518E+02</pdfrwt>
<pdfrwt beam="2">  1        2 0.89053292E-01 0.14913037E+03</pdfrwt>
<totfact> 0.16244821E+02</totfact>
</mgrwt>
</event>
<event>
13    1  0.2038932E-008  0.6298034E+02  0.7546771E-02  0.1524471E+00
          2   -1    0    0  502    0  0.00000000000E+00  0.00000000000E+00  0.88481783468E+03  0.88481783468E+03  0.00000000000E+00 0. -1.
          2   -1    0    0  503    0 -0.00000000000E+00 -0.00000000000E+00 -0.26360967611E+04  0.26360967611E+04  0.00000000000E+00 0. -1.
         24    2    1    2    0    0  0.42655346999E+02  0.31790847453E+03 -0.11392501603E+04  0.11871159963E+04  0.92022737062E+02 0.  0.
         25    2    1    2    0    0 -0.15719473154E+03  0.79902573345E+02 -0.55598326418E+03  0.59652096757E+03  0.12500107941E+03 0.  0.
         24    2    1    2    0    0  0.40599682863E+02 -0.35500050479E+03 -0.64084300463E+03  0.73796781539E+03  0.79012956599E+02 0.  0.
        -11    1    5    5    0    0  0.24334641906E+02 -0.34673145756E+03 -0.60465319560E+03  0.69743843127E+03  0.00000000000E+00 0.  1.
         12    1    5    5    0    0  0.16265040957E+02 -0.82690472337E+01 -0.36189809030E+02  0.40529384120E+02  0.00000000000E+00 0. -1.
        -13    1    3    3    0    0  0.29553359025E+01  0.26311656228E+03 -0.96368804804E+03  0.99896632240E+03  0.00000000000E+00 0.  1.
         14    1    3    3    0    0  0.39700011097E+02  0.54791912250E+02 -0.17556211223E+03  0.18814967388E+03  0.00000000000E+00 0. -1.
          5    1    4    4  501    0 -0.25564220042E+02 -0.33311867059E+02 -0.11957595932E+03  0.12682156709E+03  0.47000000000E+01 0. -1.
         -5    1    4    4    0  501 -0.13163051150E+03  0.11321444040E+03 -0.43640730486E+03  0.46969940048E+03  0.47000000000E+01 0. -1.
          1    1    1    2  502    0  0.52826518029E+02 -0.34269971688E+02  0.79017165923E+03  0.79267668253E+03  0.00000000000E+00 0. -1.
          1    1    1    2  503    0  0.21113183647E+02 -0.85405713892E+01 -0.20537415654E+03  0.20663313398E+03  0.00000000000E+00 0. -1.
<mgrwt>
<rscale>  0 0.37873306E+02</rscale>
<asrwt>0</asrwt>
<pdfrwt beam="1">  1        2 0.13012027E+00 0.62980342E+02</pdfrwt>
<pdfrwt beam="2">  1        2 0.38766128E+00 0.22775159E+02</pdfrwt>
<totfact> 0.30471563E+01</totfact>
</mgrwt>
</event>
<event>
13    1  0.2038932E-008  0.1119167E+03  0.7546771E-02  0.1288899E+00
          2   -1    0    0  502    0  0.00000000000E+00  0.00000000000E+00  0.12473962111E+04  0.12473962111E+04  0.00000000000E+00 0. -1.
          2   -1    0    0  503    0 -0.00000000000E+00 -0.00000000000E+00 -0.18359930902E+04  0.18359930902E+04  0.00000000000E+00 0. -1.
         24    2    1    2    0    0  0.13030629187E+03 -0.53565865623E+02 -0.80923491269E+03  0.82544923134E+03  0.81585893066E+02 0.  0.
         25    2    1    2    0    0  0.10123928609E+03  0.92019712779E+02  0.14412300697E+03  0.23476561830E+03  0.12500573510E+03 0.  0.
         24    2    1    2    0    0 -0.67067476719E+02 -0.62753148476E+02 -0.18435177976E+03  0.22197746354E+03  0.82779294172E+02 0.  0.
        -11    1    5    5    0    0  0.19122748356E+01 -0.72021936831E+01 -0.97994599874E+02  0.98277515198E+02  0.00000000000E+00 0.  1.
         12    1    5    5    0    0 -0.68979751555E+02 -0.55550954793E+02 -0.86357179881E+02  0.12369994834E+03  0.00000000000E+00 0. -1.
        -11    1    3    3    0    0  0.39687063929E+02  0.66920771224E+01 -0.98090499414E+02  0.10602637886E+03  0.00000000000E+00 0.  1.
         12    1    3    3    0    0  0.90619227940E+02 -0.60257942746E+02 -0.71114441327E+03  0.71942285248E+03  0.00000000000E+00 0. -1.
          5    1    4    4  501    0  0.59454429133E+02  0.84220238980E+02  0.22199442683E+02  0.10555938164E+03  0.47000000000E+01 0. -1.
         -5    1    4    4    0  501  0.41784856959E+02  0.77994737984E+01  0.12192356428E+03  0.12920623665E+03  0.47000000000E+01 0. -1.
          1    1    1    2  502    0 -0.92026626644E+02  0.63503048788E+02  0.10257825180E+04  0.10318581838E+04  0.00000000000E+00 0. -1.
          1    1    1    2  503    0 -0.72451474597E+02 -0.39203747468E+02 -0.76491571165E+03  0.76933880438E+03  0.00000000000E+00 0. -1.
<mgrwt>
<rscale>  0 0.96018130E+02</rscale>
<asrwt>0</asrwt>
<pdfrwt beam="1">  1        2 0.18344062E+00 0.11191667E+03</pdfrwt>
<pdfrwt beam="2">  1        2 0.26999898E+00 0.82378092E+02</pdfrwt>
<totfact> 0.37248711E+01</totfact>
</mgrwt>
</event>
<event>
13    1  0.2038932E-008  0.1286434E+03  0.7546771E-02  0.1421013E+00
          2   -1    0    0  503    0  0.00000000000E+00  0.00000000000E+00  0.31777770014E+04  0.31777770014E+04  0.00000000000E+00 0. -1.
          2   -1    0    0  502    0 -0.00000000000E+00 -0.00000000000E+00 -0.92172216127E+03  0.92172216127E+03  0.00000000000E+00 0. -1.
         24    2    1    2    0    0  0.87641075060E+01  0.51833608467E+02 -0.40138416855E+03  0.41285947607E+03  0.81118207996E+02 0.  0.
         25    2    1    2    0    0  0.10740255304E+02 -0.44773959806E+02  0.26149353974E+04  0.26183261951E+04  0.12499948328E+03 0.  0.
         24    2    1    2    0    0 -0.18144657764E+03  0.18235042662E+02  0.88249785943E+01  0.20864731369E+03  0.10099724721E+03 0.  0.
        -11    1    5    5    0    0 -0.49151062738E+02 -0.32317800669E+01  0.48241290650E+02  0.68945583573E+02  0.00000000000E+00 0.  1.
         12    1    5    5    0    0 -0.13229551491E+03  0.21466822729E+02 -0.39416312056E+02  0.13970173012E+03  0.00000000000E+00 0. -1.
        -11    1    3    3    0    0  0.28655481806E+02  0.28358372416E+02 -0.35446946113E+03  0.35675472358E+03  0.00000000000E+00 0.  1.
         12    1    3    3    0    0 -0.19891374300E+02  0.23475236051E+02 -0.46914707422E+02  0.56104752488E+02  0.00000000000E+00 0. -1.
          5    1    4    4  501    0 -0.11584067758E+02 -0.69146242307E+02  0.79896569824E+03  0.80204966830E+03  0.47000000000E+01 0. -1.
         -5    1    4    4    0  501  0.22324323061E+02  0.24372282502E+02  0.18159696992E+04  0.18162765268E+04  0.47000000000E+01 0. -1.
          1    1    1    2  502    0  0.15969377425E+03 -0.20531588274E+01 -0.39722596069E+03  0.42812939731E+03  0.00000000000E+00 0. -1.
          1    1    1    2  503    0  0.22484405900E+01 -0.23241532496E+02  0.43090459340E+03  0.43153678051E+03  0.00000000000E+00 0. -1.
<mgrwt>
<rscale>  0 0.54807185E+02</rscale>
<asrwt>0</asrwt>
<pdfrwt beam="1">  1        2 0.46732015E+00 0.23350039E+02</pdfrwt>
<pdfrwt beam="2">  1        2 0.13554738E+00 0.12864336E+03</pdfrwt>
<totfact> 0.15184550E+01</totfact>
</mgrwt>
</event>
<event>
13    1  0.2038932E-008  0.2569458E+03  0.7546771E-02  0.1306341E+00
          2   -1    0    0  502    0  0.00000000000E+00  0.00000000000E+00  0.21967633072E+04  0.21967633072E+04  0.00000000000E+00 0. -1.
          2   -1    0    0  503    0 -0.00000000000E+00 -0.00000000000E+00 -0.16641778219E+04  0.16641778219E+04  0.00000000000E+00 0. -1.
         24    2    1    2    0    0 -0.73471522692E+02 -0.96162545244E+02 -0.51726404740E+03  0.53735103377E+03  0.80862469658E+02 0.  0.
         25    2    1    2    0    0 -0.37273456340E+01 -0.10882416705E+02 -0.34318960996E+03  0.36542690454E+03  0.12500157629E+03 0.  0.
         24    2    1    2    0    0  0.18083976152E+03 -0.13137907396E+03  0.54943718266E+03  0.59863309531E+03  0.80727223960E+02 0.  0.
        -11    1    3    3    0    0 -0.87482094186E+02 -0.93962794600E+02 -0.49095106362E+03  0.50745942739E+03  0.00000000000E+00 0.  1.
         12    1    3    3    0    0  0.14010571493E+02 -0.21997506439E+01 -0.26312983781E+02  0.29891606379E+02  0.00000000000E+00 0. -1.
        -13    1    5    5    0    0  0.11625834921E+03 -0.12495387928E+03  0.43131888179E+03  0.46385930356E+03  0.00000000000E+00 0.  1.
         14    1    5    5    0    0  0.64581412303E+02 -0.64251946734E+01  0.11811830087E+03  0.13477379175E+03  0.00000000000E+00 0. -1.
          5    1    4    4  501    0 -0.56393647087E+02  0.23466590300E+02 -0.19452587975E+03  0.20394443406E+03  0.47000000000E+01 0.  1.
         -5    1    4    4    0  501  0.52666301453E+02 -0.34349007005E+02 -0.14866373021E+03  0.16148247047E+03  0.47000000000E+01 0.  1.
          1    1    1    2  502    0 -0.10364879621E+03  0.26895749567E+03  0.15882818959E+04  0.16142244541E+04  0.00000000000E+00 0. -1.
          1    1    1    2  503    0  0.79030215606E-02 -0.30533459765E+02 -0.74467993585E+03  0.74530564138E+03  0.00000000000E+00 0. -1.
<mgrwt>
<rscale>  0 0.88574522E+02</rscale>
<asrwt>0</asrwt>
<pdfrwt beam="1">  1        2 0.32305343E+00 0.25694584E+03</pdfrwt>
<pdfrwt beam="2">  1        2 0.24473203E+00 0.30533461E+02</pdfrwt>
<totfact> 0.15364869E+01</totfact>
</mgrwt>
</event>
<event>
13    1  0.2038932E-008  0.1127763E+03  0.7546771E-02  0.1264246E+00
          2   -1    0    0  502    0  0.00000000000E+00  0.00000000000E+00  0.35761937110E+04  0.35761937110E+04  0.00000000000E+00 0. -1.
          2   -1    0    0  503    0 -0.00000000000E+00 -0.00000000000E+00 -0.81186457818E+03  0.81186457818E+03  0.00000000000E+00 0. -1.
         24    2    1    2    0    0 -0.24942632204E+03  0.22164477644E+03  0.21411913400E+03  0.40357760456E+03  0.75418713256E+02 0.  0.
         25    2    1    2    0    0  0.56640280770E+03 -0.14193241889E+03  0.56381112784E+02  0.59980062701E+03  0.12500004073E+03 0.  0.
         24    2    1    2    0    0 -0.15060421593E+03 -0.14292972358E+03  0.48688655251E+03  0.53544028270E+03  0.80791370742E+02 0.  0.
        -11    1    3    3    0    0 -0.60535884365E+02  0.85323090831E+02  0.97778009135E+02  0.14319623667E+03  0.00000000000E+00 0.  1.
         12    1    3    3    0    0 -0.18889043768E+03  0.13632168561E+03  0.11634112486E+03  0.26038136790E+03  0.00000000000E+00 0. -1.
        -13    1    5    5    0    0  0.71819195880E-01 -0.26408295977E+02  0.11038008198E+03  0.11349522348E+03  0.00000000000E+00 0.  1.
         14    1    5    5    0    0 -0.15067603513E+03 -0.11652142761E+03  0.37650647052E+03  0.42194505922E+03  0.00000000000E+00 0. -1.
          5    1    4    4  501    0  0.45292261086E+02 -0.20593689551E+02  0.40778741930E+02  0.64501819796E+02  0.47000000000E+01 0.  1.
         -5    1    4    4    0  501  0.52111054662E+03 -0.12133872934E+03  0.15602370854E+02  0.53529880722E+03  0.47000000000E+01 0.  1.
          1    1    1    2  502    0 -0.66626214231E+02  0.90838672548E+02  0.24204021890E+04  0.24230223840E+04  0.00000000000E+00 0. -1.
          1    1    1    2  503    0 -0.99746055498E+02 -0.27621306519E+02 -0.41345985550E+03  0.42621739086E+03  0.00000000000E+00 0. -1.
<mgrwt>
<rscale>  0 0.10803852E+03</rscale>
<asrwt>0</asrwt>
<pdfrwt beam="1">  1        2 0.52591083E+00 0.11277626E+03</pdfrwt>
<pdfrwt beam="2">  1        2 0.11939185E+00 0.10349982E+03</pdfrwt>
<totfact> 0.79685980E+00</totfact>
</mgrwt>
</event>
<event>
13    1  0.2038932E-008  0.5706609E+02  0.7546771E-02  0.1461042E+00
          2   -1    0    0  502    0  0.00000000000E+00  0.00000000000E+00  0.28210470592E+04  0.28210470592E+04  0.00000000000E+00 0. -1.
          4   -1    0    0  503    0 -0.00000000000E+00 -0.00000000000E+00 -0.90493767838E+03  0.90493767838E+03  0.00000000000E+00 0. -1.
         24    2    1    2    0    0  0.74465753674E+03 -0.63102286712E+03  0.38959674327E+03  0.10540886150E+04  0.81317157045E+02 0.  0.
         25    2    1    2    0    0  0.47927384093E+02  0.18011450815E+03  0.34834504437E+03  0.41437992726E+03  0.12501273530E+03 0.  0.
         24    2    1    2    0    0 -0.71421247684E+03  0.49987851342E+03  0.43821678458E+03  0.97720852724E+03  0.54079248922E+02 0.  0.
        -11    1    3    3    0    0  0.36499444982E+03 -0.30470789454E+03  0.23339179728E+03  0.52965987241E+03  0.00000000000E+00 0.  1.
         12    1    3    3    0    0  0.37966308692E+03 -0.32631497258E+03  0.15620494598E+03  0.52442874258E+03  0.00000000000E+00 0. -1.
        -11    1    5    5    0    0 -0.31385633627E+03  0.22647695203E+03  0.22403528775E+03  0.44720176630E+03  0.00000000000E+00 0.  1.
         12    1    5    5    0    0 -0.40035614057E+03  0.27340156139E+03  0.21418149683E+03  0.53000676094E+03  0.00000000000E+00 0. -1.
          5    1    4    4  501    0  0.64240437396E+02  0.19175326750E+03  0.29989783801E+03  0.36174155503E+03  0.47000000000E+01 0. -1.
         -5    1    4    4    0  501 -0.16313053303E+02 -0.11638759345E+02  0.48447206355E+02  0.52638372228E+02  0.47000000000E+01 0. -1.
          1    1    1    2  502    0 -0.38075635404E+02 -0.86408913817E+01  0.10067390756E+04  0.10074958984E+04  0.00000000000E+00 0. -1.
          3    1    1    2  503    0 -0.40296808592E+02 -0.40329263070E+02 -0.26678826701E+03  0.27281176964E+03  0.00000000000E+00 0. -1.
<mgrwt>
<rscale>  0 0.47202516E+02</rscale>
<asrwt>0</asrwt>
<pdfrwt beam="1">  1        2 0.41485986E+00 0.39043809E+02</pdfrwt>
<pdfrwt beam="2">  1        4 0.13307907E+00 0.57066090E+02</pdfrwt>
<totfact> 0.91262645E-01</totfact>
</mgrwt>
</event>
<event>
13    1  0.2038932E-008  0.4471876E+02  0.7546771E-02  0.1553005E+00
          2   -1    0    0  502    0  0.00000000000E+00  0.00000000000E+00  0.12690809199E+04  0.12690809199E+04  0.00000000000E+00 0. -1.
          2   -1    0    0  503    0 -0.00000000000E+00 -0.00000000000E+00 -0.80944996718E+03  0.80944996718E+03  0.00000000000E+00 0. -1.
         24    2    1    2    0    0  0.28964667338E+02 -0.16500411774E+03  0.30966017290E+03  0.36171478035E+03  0.82962936426E+02 0.  0.
         25    2    1    2    0    0 -0.22890399237E+01 -0.36045303800E+02  0.26297509726E+03  0.29340131997E+03  0.12499571652E+03 0.  0.
         24    2    1    2    0    0 -0.94862903743E+02  0.20634099327E+03 -0.32805139028E+03  0.40762618504E+03  0.83461464478E+02 0.  0.
        -11    1    5    5    0    0 -0.64246176674E+02  0.13400856328E+03 -0.27579152395E+03  0.31328394618E+03  0.00000000000E+00 0.  1.
         12    1    5    5    0    0 -0.30616727068E+02  0.72332429988E+02 -0.52259866336E+02  0.94342238863E+02  0.00000000000E+00 0. -1.
        -13    1    3    3    0    0 -0.28612769024E+02 -0.39226817652E+02  0.84559707351E+02  0.97507834976E+02  0.00000000000E+00 0.  1.
         14    1    3    3    0    0  0.57577436362E+02 -0.12577730009E+03  0.22510046554E+03  0.26420694537E+03  0.00000000000E+00 0. -1.
          5    1    4    4  501    0 -0.19027502201E+02 -0.72536915256E+02  0.97682491188E+02  0.12323801767E+03  0.47000000000E+01 0. -1.
         -5    1    4    4    0  501  0.16738462277E+02  0.36491611456E+02  0.16529260608E+03  0.17016330230E+03  0.47000000000E+01 0. -1.
          1    1    1    2  502    0  0.42719406089E+02 -0.13073360790E+02  0.61416275864E+03  0.61578547768E+03  0.00000000000E+00 0. -1.
          1    1    1    2  503    0  0.25467870240E+02  0.77817890594E+01 -0.39911568576E+03  0.40000312408E+03  0.00000000000E+00 0. -1.
<mgrwt>
<rscale>  0 0.34508991E+02</rscale>
<asrwt>0</asrwt>
<pdfrwt beam="1">  1        2 0.18662955E+00 0.44718761E+02</pdfrwt>
<pdfrwt beam="2">  1        2 0.11903676E+00 0.26630221E+02</pdfrwt>
<totfact> 0.13853069E+02</totfact>
</mgrwt>
</event>
<event>
13    1  0.2038932E-008  0.1161990E+03  0.7546771E-02  0.1391360E+00
          2   -1    0    0  502    0  0.00000000000E+00  0.00000000000E+00  0.21058240672E+04  0.21058240672E+04  0.00000000000E+00 0. -1.
          4   -1    0    0  503    0 -0.00000000000E+00 -0.00000000000E+00 -0.22011849156E+04  0.22011849156E+04  0.00000000000E+00 0. -1.
         24    2    1    2    0    0 -0.14206344654E+02  0.21324499123E+02 -0.13544674900E+04  0.13571202001E+04  0.80848632997E+02 0.  0.
         25    2    1    2    0    0  0.13091078260E+03 -0.70217990767E+01  0.13784970667E+04  0.13903497033E+04  0.12502478074E+03 0.  0.
         24    2    1    2    0    0 -0.42136962422E+02 -0.92991548727E+02 -0.28128927130E+02  0.13598030823E+03  0.85302145037E+02 0.  0.
        -13    1    3    3    0    0  0.12520402575E+02  0.38408888173E+02 -0.38094312750E+03  0.38307919489E+03  0.00000000000E+00 0.  1.
         14    1    3    3    0    0 -0.26726747229E+02 -0.17084389050E+02 -0.97352436250E+03  0.97404100517E+03  0.00000000000E+00 0. -1.
        -13    1    5    5    0    0 -0.17966145193E+02 -0.10241048561E+03 -0.10257965981E+02  0.10447926015E+03  0.00000000000E+00 0.  1.
         14    1    5    5    0    0 -0.24170817228E+02  0.94189368835E+01 -0.17870961149E+02  0.31501048076E+02  0.00000000000E+00 0. -1.
          5    1    4    4  501    0  0.11881693953E+03 -0.86443812089E+00  0.13664211218E+04  0.13715855732E+04  0.47000000000E+01 0.  1.
         -5    1    4    4    0  501  0.12093843069E+02 -0.61573609558E+01  0.12075944937E+02  0.18764130149E+02  0.47000000000E+01 0.  1.
          1    1    1    2  502    0  0.31360540474E+02 -0.89897693353E+01  0.65950101182E+03  0.66030741632E+03  0.00000000000E+00 0. -1.
          3    1    1    2  503    0 -0.10592801600E+03  0.87678618016E+02 -0.75076250979E+03  0.76325135489E+03  0.00000000000E+00 0. -1.
<mgrwt>
<rscale>  0 0.61569719E+02</rscale>
<asrwt>0</asrwt>
<pdfrwt beam="1">  1        2 0.30968001E+00 0.32623603E+02</pdfrwt>
<pdfrwt beam="2">  1        4 0.32370366E+00 0.11619901E+03</pdfrwt>
<totfact> 0.13705443E-01</totfact>
</mgrwt>
</event>
<event>
13    1  0.2038932E-008  0.1071546E+03  0.7546771E-02  0.1462735E+00
         -1   -1    0    0    0  501  0.00000000000E+00  0.00000000000E+00  0.34761560087E+04  0.34761560087E+04  0.00000000000E+00 0.  1.
         -1   -1    0    0    0  502 -0.00000000000E+00 -0.00000000000E+00 -0.85842117564E+02  0.85842117564E+02  0.00000000000E+00 0.  1.
         24    2    1    2    0    0 -0.27695773304E+02  0.13171837464E+03  0.14101046073E+03  0.21088650291E+03  0.80451109350E+02 0.  0.
         25    2    1    2    0    0 -0.98379690049E+02 -0.85964595048E+02  0.15026971091E+04  0.15135362388E+04  0.12499947861E+03 0.  0.
         24    2    1    2    0    0  0.46375427422E+02  0.63252609314E+01  0.50864329258E+03  0.51700113156E+03  0.79884177117E+02 0.  0.
        -11    1    5    5    0    0  0.58155379631E+02  0.15859274333E+02  0.48618747638E+03  0.48991001924E+03  0.00000000000E+00 0.  1.
         12    1    5    5    0    0 -0.11779952209E+02 -0.95340134017E+01  0.22455816202E+02  0.27091112323E+02  0.00000000000E+00 0. -1.
        -13    1    3    3    0    0 -0.30459041859E+02  0.63875820431E+02  0.22418384624E+02  0.74232456754E+02  0.00000000000E+00 0.  1.
         14    1    3    3    0    0  0.27632685543E+01  0.67842554214E+02  0.11859207610E+03  0.13665404615E+03  0.00000000000E+00 0. -1.
          5    1    4    4  503    0 -0.37589329774E+01  0.14198172308E+02  0.24671992972E+02  0.29094929305E+02  0.47000000000E+01 0.  1.
         -5    1    4    4    0  503 -0.94620757071E+02 -0.10016276736E+03  0.14780251161E+04  0.14844413095E+04  0.47000000000E+01 0.  1.
         -2    1    1    2    0  501 -0.17784957908E+02 -0.10275006934E+02  0.12109421937E+04  0.12111163763E+04  0.00000000000E+00 0.  1.
         -2    1    1    2    0  502  0.97484993839E+02 -0.41804033594E+02  0.27020835159E+02  0.10945787674E+03  0.00000000000E+00 0.  1.
<mgrwt>
<rscale>  0 0.46914027E+02</rscale>
<asrwt>0</asrwt>
<pdfrwt beam="1">  1       -1 0.51119932E+00 0.20539730E+02</pdfrwt>
<pdfrwt beam="2">  1       -1 0.12623843E-01 0.10715457E+03</pdfrwt>
<totfact> 0.85905476E-01</totfact>
</mgrwt>
</event>
<event>
13    1  0.2038932E-008  0.4250549E+02  0.7546771E-02  0.1515479E+00
          2   -1    0    0  503    0  0.00000000000E+00  0.00000000000E+00  0.35430191467E+04  0.35430191467E+04  0.00000000000E+00 0. -1.
          2   -1    0    0  502    0 -0.00000000000E+00 -0.00000000000E+00 -0.18635223172E+04  0.18635223172E+04  0.00000000000E+00 0. -1.
         24    2    1    2    0    0  0.26557174405E+03 -0.61206850986E+02  0.72028931820E+02  0.29330203118E+03  0.81014101429E+02 0.  0.
         25    2    1    2    0    0  0.12316059150E+03  0.44006110829E+03  0.76772860789E+03  0.90215207959E+03  0.12509535965E+03 0.  0.
         24    2    1    2    0    0 -0.39781996321E+03 -0.38478902604E+03  0.55085746998E+03  0.78570374178E+03  0.86966084944E+02 0.  0.
        -11    1    3    3    0    0  0.19314685679E+03 -0.64410803887E+02  0.21076301436E+02  0.20469164719E+03  0.00000000000E+00 0.  1.
         12    1    3    3    0    0  0.72424887261E+02  0.32039529007E+01  0.50952630384E+02  0.88610383997E+02  0.00000000000E+00 0. -1.
        -11    1    5    5    0    0 -0.12447673041E+03 -0.13228070828E+03  0.23894760378E+03  0.30014762959E+03  0.00000000000E+00 0.  1.
         12    1    5    5    0    0 -0.27334323280E+03 -0.25250831776E+03  0.31190986621E+03  0.48555611220E+03  0.00000000000E+00 0. -1.
          5    1    4    4  501    0  0.67818298888E+01  0.63786585136E+02  0.43209892709E+02  0.77484879092E+02  0.47000000000E+01 0.  1.
         -5    1    4    4    0  501  0.11637876161E+03  0.37627452315E+03  0.72451871518E+03  0.82466720050E+03  0.47000000000E+01 0.  1.
          1    1    1    2  502    0  0.99955351553E+00 -0.35823482912E+02 -0.15678025560E+04  0.15682120953E+04  0.00000000000E+00 0. -1.
          1    1    1    2  503    0  0.80880741418E+01  0.41758251646E+02  0.18566843759E+04  0.18571715161E+04  0.00000000000E+00 0. -1.
<mgrwt>
<rscale>  0 0.39029314E+02</rscale>
<asrwt>0</asrwt>
<pdfrwt beam="1">  1        2 0.52103223E+00 0.42505491E+02</pdfrwt>
<pdfrwt beam="2">  1        2 0.27404740E+00 0.35837425E+02</pdfrwt>
<totfact> 0.31193074E+00</totfact>
</mgrwt>
</event>
<event>
13    1  0.2038932E-008  0.4422631E+02  0.7546771E-02  0.1526116E+00
          2   -1    0    0  502    0  0.00000000000E+00  0.00000000000E+00  0.15876484171E+04  0.15876484171E+04  0.00000000000E+00 0. -1.
          2   -1    0    0  503    0 -0.00000000000E+00 -0.00000000000E+00 -0.24382957795E+04  0.24382957795E+04  0.00000000000E+00 0. -1.
         24    2    1    2    0    0  0.26546168230E+02  0.10299236285E+02 -0.44189768791E+03  0.44955078878E+03  0.77534326591E+02 0.  0.
         25    2    1    2    0    0 -0.62545566492E+02  0.34408364524E+01  0.11558922330E+03  0.18141338516E+03  0.12500464203E+03 0.  0.
         24    2    1    2    0    0  0.46115856967E+02  0.33659335220E+02 -0.36705646550E+02  0.95252245797E+02  0.66828607119E+02 0.  0.
        -11    1    5    5    0    0  0.63551932490E+02  0.28452532333E+02 -0.27558793377E+02  0.74885791788E+02  0.00000000000E+00 0.  1.
         12    1    5    5    0    0 -0.17436075522E+02  0.52068028865E+01 -0.91468531737E+01  0.20366454009E+02  0.00000000000E+00 0. -1.
        -13    1    3    3    0    0  0.23272417938E+02  0.36544760419E+02 -0.14133480995E+03  0.14782643016E+03  0.00000000000E+00 0.  1.
         14    1    3    3    0    0  0.32737502918E+01 -0.26245524134E+02 -0.30056287796E+03  0.30172435862E+03  0.00000000000E+00 0. -1.
          5    1    4    4  501    0 -0.11259490527E+02 -0.21934635943E+01 -0.26996733340E+02  0.29706918731E+02  0.47000000000E+01 0.  1.
         -5    1    4    4    0  501 -0.51286075965E+02  0.56343000467E+01  0.14258595664E+03  0.15170646643E+03  0.47000000000E+01 0.  1.
          1    1    1    2  502    0 -0.34957338716E+02 -0.27099014521E+02  0.14055634849E+04  0.14062592514E+04  0.00000000000E+00 0. -1.
          1    1    1    2  503    0  0.24840880011E+02 -0.20300393436E+02 -0.18931967361E+04  0.18934685255E+04  0.00000000000E+00 0. -1.
<mgrwt>
<rscale>  0 0.37667143E+02</rscale>
<asrwt>0</asrwt>
<pdfrwt beam="1">  1        2 0.23347771E+00 0.44226307E+02</pdfrwt>
<pdfrwt beam="2">  1        2 0.35857291E+00 0.32080762E+02</pdfrwt>
<totfact> 0.15853219E+01</totfact>
</mgrwt>
</event>
<event>
13    1  0.2038932E-008  0.1640549E+03  0.7546771E-02  0.1332953E+00
          2   -1    0    0  502    0  0.00000000000E+00  0.00000000000E+00  0.19381328512E+04  0.19381328512E+04  0.00000000000E+00 0. -1.
          4   -1    0    0  503    0 -0.00000000000E+00 -0.00000000000E+00 -0.63765935708E+03  0.63765935708E+03  0.00000000000E+00 0. -1.
         24    2    1    2    0    0  0.83623100220E+02  0.64771711299E+02 -0.21887685522E+03  0.25591123774E+03  0.79970534443E+02 0.  0.
         25    2    1    2    0    0 -0.10068754253E+02  0.24294554441E+02  0.56081827108E+03  0.57518186425E+03  0.12500175438E+03 0.  0.
         24    2    1    2    0    0  0.50762657625E+02 -0.35997473989E+02 -0.47497130698E+02  0.10427321674E+03  0.68878594362E+02 0.  0.
        -11    1    3    3    0    0 -0.23331577062E+01  0.50149515090E+01  0.58169704216E+01  0.80268616785E+01  0.00000000000E+00 0.  1.
         12    1    3    3    0    0  0.85956257927E+02  0.59756759790E+02 -0.22469382564E+03  0.24788437607E+03  0.00000000000E+00 0. -1.
        -13    1    5    5    0    0  0.58958986863E+02 -0.48882097416E+02 -0.33629556377E+02  0.83645493853E+02  0.00000000000E+00 0.  1.
         14    1    5    5    0    0 -0.81963292380E+01  0.12884623427E+02 -0.13867574321E+02  0.20627722884E+02  0.00000000000E+00 0. -1.
          5    1    4    4  501    0  0.12273294369E+02  0.37852715988E+02  0.51883853008E+02  0.65555213868E+02  0.47000000000E+01 0.  1.
         -5    1    4    4    0  501 -0.22342048622E+02 -0.13558161547E+02  0.50893441807E+03  0.50962665038E+03  0.47000000000E+01 0.  1.
          1    1    1    2  502    0 -0.14053369065E+03 -0.87099748103E+02  0.13169198561E+04  0.13272580728E+04  0.00000000000E+00 0. -1.
          3    1    1    2  503    0  0.16216687052E+02  0.34030956353E+02 -0.31089064719E+03  0.31316781674E+03  0.00000000000E+00 0. -1.
<mgrwt>
<rscale>  0 0.78641141E+02</rscale>
<asrwt>0</asrwt>
<pdfrwt beam="1">  1        2 0.28501954E+00 0.16405493E+03</pdfrwt>
<pdfrwt beam="2">  1        4 0.93773435E-01 0.37697307E+02</pdfrwt>
<totfact> 0.44610367E+00</totfact>
</mgrwt>
</event>
<event>
13    1  0.2038932E-008  0.8795986E+02  0.7546771E-02  0.1319863E+00
          2   -1    0    0  502    0  0.00000000000E+00  0.00000000000E+00  0.16305019453E+04  0.16305019453E+04  0.00000000000E+00 0. -1.
          2   -1    0    0  503    0 -0.00000000000E+00 -0.00000000000E+00 -0.26521631463E+04  0.26521631463E+04  0.00000000000E+00 0. -1.
         24    2    1    2    0    0  0.18494213781E+03 -0.46886334210E+03 -0.22007830846E+03  0.55882245839E+03  0.99053774501E+02 0.  0.
         25    2    1    2    0    0 -0.18619873162E+03  0.30353738484E+03  0.11074967268E+03  0.39332455288E+03  0.12503520403E+03 0.  0.
         24    2    1    2    0    0  0.26539349487E+02  0.86704720388E+02 -0.16689433960E+03  0.20653755718E+03  0.81129503415E+02 0.  0.
        -11    1    3    3    0    0  0.36253382115E+02 -0.23505745699E+02 -0.94934642354E+01  0.44237468947E+02  0.00000000000E+00 0.  1.
         12    1    3    3    0    0  0.14868875570E+03 -0.44535759640E+03 -0.21058484422E+03  0.51458498944E+03  0.00000000000E+00 0. -1.
        -13    1    5    5    0    0  0.31692812258E+02  0.31322840176E+02 -0.18837569062E+02  0.48377770450E+02  0.00000000000E+00 0.  1.
         14    1    5    5    0    0 -0.51534627716E+01  0.55381880212E+02 -0.14805677054E+03  0.15815978673E+03  0.00000000000E+00 0. -1.
          5    1    4    4  501    0 -0.82110122041E+02  0.10166444888E+03  0.10223678591E+03  0.16598850172E+03  0.47000000000E+01 0. -1.
         -5    1    4    4    0  501 -0.10408860958E+03  0.20187293596E+03  0.85128867645E+01  0.22733605116E+03  0.47000000000E+01 0. -1.
          1    1    1    2  502    0 -0.84126017607E+02  0.25999355510E+02  0.11868343161E+04  0.11900961504E+04  0.00000000000E+00 0. -1.
          1    1    1    2  503    0  0.58843261934E+02  0.52621881357E+02 -0.19322725417E+04  0.19338843728E+04  0.00000000000E+00 0. -1.
<mgrwt>
<rscale>  0 0.83328202E+02</rscale>
<asrwt>0</asrwt>
<pdfrwt beam="1">  1        2 0.23977970E+00 0.87959858E+02</pdfrwt>
<pdfrwt beam="2">  1        2 0.39002399E+00 0.78940432E+02</pdfrwt>
<totfact> 0.98577798E+00</totfact>
</mgrwt>
</event>
<event>
13    1  0.2038932E-008  0.5638965E+02  0.7546771E-02  0.1470405E+00
          2   -1    0    0  502    0  0.00000000000E+00  0.00000000000E+00  0.42163987109E+03  0.42163987109E+03  0.00000000000E+00 0. -1.
          2   -1    0    0  503    0 -0.00000000000E+00 -0.00000000000E+00 -0.50434870383E+03  0.50434870383E+03  0.00000000000E+00 0. -1.
         24    2    1    2    0    0 -0.19073259422E+02 -0.55340224285E+02  0.21901105051E+02  0.10329157542E+03  0.82238442967E+02 0.  0.
         25    2    1    2    0    0  0.13604599876E+03 -0.79578273041E+01 -0.32005191989E+02  0.18767373073E+03  0.12500102438E+03 0.  0.
         24    2    1    2    0    0 -0.34953032261E+02  0.75629146620E+02  0.11326693342E+03  0.16526543390E+03  0.86843440473E+02 0.  0.
        -11    1    5    5    0    0 -0.34408904921E+02 -0.34229413602E+01  0.62158867028E+02  0.71129557960E+02  0.00000000000E+00 0.  1.
         12    1    5    5    0    0 -0.54412733973E+00  0.79052087980E+02  0.51108066390E+02  0.94135875939E+02  0.00000000000E+00 0. -1.
        -13    1    3    3    0    0  0.26753090625E+02 -0.18028195618E+02 -0.12861756282E+02  0.34729936221E+02  0.00000000000E+00 0.  1.
         14    1    3    3    0    0 -0.45826350047E+02 -0.37312028667E+02  0.34762861333E+02  0.68561639201E+02  0.00000000000E+00 0. -1.
          5    1    4    4  501    0  0.15089200176E+03 -0.19842975160E+02 -0.50811577410E+02  0.16051805586E+03  0.47000000000E+01 0. -1.
         -5    1    4    4    0  501 -0.14846003002E+02  0.11885147856E+02  0.18806385420E+02  0.27155674864E+02  0.47000000000E+01 0. -1.
          1    1    1    2  502    0 -0.27243263594E+02 -0.24939164603E+02  0.13707106454E+03  0.14195997350E+03  0.00000000000E+00 0. -1.
          1    1    1    2  503    0 -0.54776443484E+02  0.12608069572E+02 -0.32294274375E+03  0.32779786137E+03  0.00000000000E+00 0. -1.
<mgrwt>
<rscale>  0 0.45636868E+02</rscale>
<asrwt>0</asrwt>
<pdfrwt beam="1">  1        2 0.62005863E-01 0.36934501E+02</pdfrwt>
<pdfrwt beam="2">  1        2 0.74168927E-01 0.56389654E+02</pdfrwt>
<totfact> 0.81903229E+02</totfact>
</mgrwt>
</event>
<event>
13    1  0.2038932E-008  0.6614492E+02  0.7546771E-02  0.1482579E+00
          2   -1    0    0  503    0  0.00000000000E+00  0.00000000000E+00  0.12209693500E+04  0.12209693500E+04  0.00000000000E+00 0. -1.
          2   -1    0    0  502    0 -0.00000000000E+00 -0.00000000000E+00 -0.18643231132E+04  0.18643231132E+04  0.00000000000E+00 0. -1.
         24    2    1    2    0    0  0.14879876819E+03 -0.15929359915E+03 -0.13942868456E+04  0.14134829012E+04  0.79891050658E+02 0.  0.
         25    2    1    2    0    0 -0.24254912253E+03  0.80779282703E+02  0.49642600182E+03  0.57220566157E+03  0.12500069796E+03 0.  0.
         24    2    1    2    0    0  0.48042687719E+02 -0.15537552562E+01 -0.10959642429E+03  0.14253914179E+03  0.77430722101E+02 0.  0.
        -11    1    5    5    0    0 -0.20176438342E+02  0.89033267170E+01 -0.24223735879E+02  0.32758926581E+02  0.00000000000E+00 0.  1.
         12    1    5    5    0    0  0.68219126061E+02 -0.10457081973E+02 -0.85372688415E+02  0.10978021521E+03  0.00000000000E+00 0. -1.
        -11    1    3    3    0    0  0.11101590087E+03 -0.84130142936E+02 -0.66995659118E+03  0.68428374617E+03  0.00000000000E+00 0.  1.
         12    1    3    3    0    0  0.37782867322E+02 -0.75163456219E+02 -0.72433025446E+03  0.72919915506E+03  0.00000000000E+00 0. -1.
          5    1    4    4  501    0 -0.23448924126E+03  0.52325905845E+02  0.48282124812E+03  0.53931591143E+03  0.47000000000E+01 0.  1.
         -5    1    4    4    0  501 -0.80598812717E+01  0.28453376858E+02  0.13604753708E+02  0.32889750138E+02  0.47000000000E+01 0.  1.
          1    1    1    2  502    0  0.41193447895E+02  0.51542547559E+02 -0.29248825415E+03  0.29983814497E+03  0.00000000000E+00 0. -1.
          1    1    1    2  503    0  0.45142187232E+01  0.28525524148E+02  0.65659175904E+03  0.65722661369E+03  0.00000000000E+00 0. -1.
<mgrwt>
<rscale>  0 0.43706967E+02</rscale>
<asrwt>0</asrwt>
<pdfrwt beam="1">  1        2 0.17955432E+00 0.28880507E+02</pdfrwt>
<pdfrwt beam="2">  1        2 0.27416516E+00 0.66144925E+02</pdfrwt>
<totfact> 0.41579240E+01</totfact>
</mgrwt>
</event>
<event>
13    1  0.2038932E-008  0.7317558E+02  0.7546771E-02  0.1363194E+00
          2   -1    0    0  502    0  0.00000000000E+00  0.00000000000E+00  0.27031493299E+04  0.27031493299E+04  0.00000000000E+00 0. -1.
          2   -1    0    0  503    0 -0.00000000000E+00 -0.00000000000E+00 -0.10922142451E+04  0.10922142451E+04  0.00000000000E+00 0. -1.
         24    2    1    2    0    0 -0.46831182845E+02  0.41692551058E+03 -0.37000825068E+03  0.56551600265E+03  0.82959041845E+02 0.  0.
         25    2    1    2    0    0  0.12622284810E+02 -0.34363330904E+03  0.38331566979E+03  0.52990448720E+03  0.12499875874E+03 0.  0.
         24    2    1    2    0    0 -0.80068523443E+02 -0.24627300339E+02  0.11790764217E+04  0.11848458831E+04  0.81370056740E+02 0.  0.
        -11    1    5    5    0    0 -0.32425154608E+02 -0.49890281232E+02  0.47603371613E+03  0.47973798026E+03  0.00000000000E+00 0.  1.
         12    1    5    5    0    0 -0.47643368835E+02  0.25262980892E+02  0.70304270558E+03  0.70510790285E+03  0.00000000000E+00 0. -1.
        -13    1    3    3    0    0 -0.30424657986E+01  0.18652817199E+03 -0.11541618142E+03  0.21936934717E+03  0.00000000000E+00 0.  1.
         14    1    3    3    0    0 -0.43788717047E+02  0.23039733859E+03 -0.25459206926E+03  0.34614665548E+03  0.00000000000E+00 0. -1.
          5    1    4    4  501    0  0.73705508589E+00 -0.15500012358E+03  0.26449137509E+03  0.30659967230E+03  0.47000000000E+01 0. -1.
         -5    1    4    4    0  501  0.11885229724E+02 -0.18863318546E+03  0.11882429470E+03  0.22330481489E+03  0.47000000000E+01 0. -1.
          1    1    1    2  502    0  0.65022405440E+02  0.53759890283E+01  0.96327792675E+03  0.96548494480E+03  0.00000000000E+00 0. -1.
          1    1    1    2  503    0  0.49255016039E+02 -0.54040890232E+02 -0.54472668274E+03  0.54961225724E+03  0.00000000000E+00 0. -1.
<mgrwt>
<rscale>  0 0.69096216E+02</rscale>
<asrwt>0</asrwt>
<pdfrwt beam="1">  1        2 0.39752196E+00 0.65244268E+02</pdfrwt>
<pdfrwt beam="2">  1        2 0.16061974E+00 0.73175579E+02</pdfrwt>
<totfact> 0.18124579E+01</totfact>
</mgrwt>
</event>
<event>
13    1  0.2038932E-008  0.9181910E+02  0.7546771E-02  0.1318794E+00
          2   -1    0    0  502    0  0.00000000000E+00  0.00000000000E+00  0.21119702535E+04  0.21119702535E+04  0.00000000000E+00 0. -1.
          2   -1    0    0  503    0 -0.00000000000E+00 -0.00000000000E+00 -0.38806769438E+04  0.38806769438E+04  0.00000000000E+00 0. -1.
         24    2    1    2    0    0 -0.22687417093E+02  0.95094622350E+03 -0.25596282399E+04  0.27318546579E+04  0.80744699823E+02 0.  0.
         25    2    1    2    0    0 -0.30966515176E+03 -0.65909786676E+03 -0.50812908314E+03  0.89672843220E+03  0.12499684714E+03 0.  0.
         24    2    1    2    0    0  0.31959303142E+03 -0.30265342699E+03  0.50588957791E+03  0.67831994808E+03  0.10224912876E+03 0.  0.
        -11    1    3    3    0    0 -0.99546083069E+01  0.33176783664E+03 -0.78588707849E+03  0.85310461949E+03  0.00000000000E+00 0.  1.
         12    1    3    3    0    0 -0.12732808786E+02  0.61917838686E+03 -0.17737411614E+04  0.18787500384E+04  0.00000000000E+00 0. -1.
        -13    1    5    5    0    0  0.84774687371E+02 -0.39044786889E+02  0.15258426196E+03  0.17886643061E+03  0.00000000000E+00 0.  1.
         14    1    5    5    0    0  0.23481834405E+03 -0.26360864010E+03  0.35330531595E+03  0.49945351747E+03  0.00000000000E+00 0. -1.
          5    1    4    4  501    0 -0.21998779085E+03 -0.48128070138E+03 -0.43321130858E+03  0.68390048218E+03  0.47000000000E+01 0. -1.
         -5    1    4    4    0  501 -0.89677360917E+02 -0.17781716538E+03 -0.74917774562E+02  0.21282795002E+03  0.47000000000E+01 0. -1.
          1    1    1    2  502    0 -0.71646267035E+02 -0.26380846427E+02  0.12334942156E+04  0.12358548120E+04  0.00000000000E+00 0. -1.
          1    1    1    2  503    0  0.84405804467E+02  0.37185916679E+02 -0.44033316072E+03  0.44988934713E+03  0.00000000000E+00 0. -1.
<mgrwt>
<rscale>  0 0.83727393E+02</rscale>
<asrwt>0</asrwt>
<pdfrwt beam="1">  1        2 0.31058387E+00 0.76348783E+02</pdfrwt>
<pdfrwt beam="2">  1        2 0.57068777E+00 0.91819098E+02</pdfrwt>
<totfact> 0.11691318E+00</totfact>
</mgrwt>
</event>
<event>
13    1  0.2038932E-008  0.2930702E+03  0.7546771E-02  0.1284953E+00
         -3   -1    0    0    0  501 -0.00000000000E+00  0.00000000000E+00  0.23846240115E+04  0.23846240115E+04  0.00000000000E+00 0.  1.
          2   -1    0    0  503    0  0.00000000000E+00 -0.00000000000E+00 -0.21104112001E+04  0.21104112001E+04  0.00000000000E+00 0. -1.
         24    2    1    2    0    0 -0.22176599885E+03 -0.61876822616E+02  0.11904560337E+04  0.12151299386E+04  0.79663669599E+02 0.  0.
         25    2    1    2    0    0  0.10406204903E+03 -0.30658749970E+03 -0.45796033721E+03  0.57461097776E+03  0.12500120114E+03 0.  0.
         24    2    1    2    0    0  0.20918949312E+03  0.12196941869E+03  0.10585782748E+03  0.27621661802E+03  0.80330301285E+02 0.  0.
        -13    1    3    3    0    0 -0.15910551635E+03 -0.18082115506E+02  0.93004635717E+03  0.94373076389E+03  0.00000000000E+00 0.  1.
         14    1    3    3    0    0 -0.62660482500E+02 -0.43794707110E+02  0.26040967651E+03  0.27139917475E+03  0.00000000000E+00 0. -1.
        -13    1    5    5    0    0  0.10799884676E+03  0.36288317575E+02  0.13723389989E+02  0.11475593374E+03  0.00000000000E+00 0.  1.
         14    1    5    5    0    0  0.10119064636E+03  0.85681101111E+02  0.92134437492E+02  0.16146068429E+03  0.00000000000E+00 0. -1.
          5    1    4    4  502    0  0.18786719784E+01 -0.64559382084E+01  0.76954476819E+01  0.11248042567E+02  0.47000000000E+01 0.  1.
         -5    1    4    4    0  502  0.10218337705E+03 -0.30013156149E+03 -0.46565578489E+03  0.56336293519E+03  0.47000000000E+01 0.  1.
          1    1    1    2  503    0  0.30926039247E+02 -0.10464160791E+02 -0.14747043892E+04  0.14750657456E+04  0.00000000000E+00 0. -1.
         -4    1    1    2    0  501 -0.12241158256E+03  0.25695906442E+03  0.91056367657E+03  0.95401193149E+03  0.00000000000E+00 0.  1.
<mgrwt>
<rscale>  0 0.97817570E+02</rscale>
<asrwt>0</asrwt>
<pdfrwt beam="2">  1        2 0.31035459E+00 0.32648408E+02</pdfrwt>
<pdfrwt beam="1">  1       -3 0.35068000E+00 0.29307024E+03</pdfrwt>
<totfact> 0.13135436E-01</totfact>
</mgrwt>
</event>
<event>
13    1  0.2038932E-008  0.1551599E+03  0.7546771E-02  0.1321508E+00
         -1   -1    0    0    0  501 -0.00000000000E+00  0.00000000000E+00  0.66229783387E+03  0.66229783387E+03  0.00000000000E+00 0.  1.
          2   -1    0    0  503    0  0.00000000000E+00 -0.00000000000E+00 -0.70422450871E+03  0.70422450871E+03  0.00000000000E+00 0. -1.
         24    2    1    2    0    0 -0.77884738544E+02  0.45875030594E+02  0.23092737964E+03  0.26090569558E+03  0.81078828245E+02 0.  0.
         25    2    1    2    0    0  0.10112026954E+03  0.67702554545E+01 -0.20792555458E+02  0.16225619367E+03  0.12499438687E+03 0.  0.
         24    2    1    2    0    0  0.32791422268E+01  0.89922704334E+02  0.26935068291E+02  0.12539713241E+03  0.83078862438E+02 0.  0.
        -11    1    5    5    0    0 -0.33490050130E+02  0.12702797020E+02  0.30303424448E+00  0.35819496641E+02  0.00000000000E+00 0.  1.
         12    1    5    5    0    0  0.36769192357E+02  0.77219907314E+02  0.26632034047E+02  0.89577635768E+02  0.00000000000E+00 0. -1.
        -11    1    3    3    0    0 -0.82651128715E+02  0.54375956259E+02  0.23085299264E+03  0.25115942727E+03  0.00000000000E+00 0.  1.
         12    1    3    3    0    0  0.47663901703E+01 -0.85009256650E+01  0.74386992986E-01  0.97462683034E+01  0.00000000000E+00 0. -1.
          5    1    4    4  502    0  0.12072601863E+03  0.30019758069E+02 -0.33565994715E+02  0.12893689716E+03  0.47000000000E+01 0. -1.
         -5    1    4    4    0  502 -0.19605749087E+02 -0.23249502614E+02  0.12773439257E+02  0.33319296504E+02  0.47000000000E+01 0. -1.
          1    1    1    2  503    0 -0.64717120906E+02 -0.16459751043E+03 -0.53226708122E+03  0.56088224427E+03  0.00000000000E+00 0. -1.
         -2    1    1    2    0  501  0.38202447681E+02  0.22029520051E+02  0.25327051391E+03  0.25708107666E+03  0.00000000000E+00 0.  1.
<mgrwt>
<rscale>  0 0.82718843E+02</rscale>
<asrwt>0</asrwt>
<pdfrwt beam="2">  1        2 0.10356243E+00 0.15515994E+03</pdfrwt>
<pdfrwt beam="1">  1       -1 0.97396741E-01 0.44099056E+02</pdfrwt>
<totfact> 0.59327974E+01</totfact>
</mgrwt>
</event>
<event>
13    1  0.2038932E-008  0.1725698E+03  0.7546771E-02  0.1241147E+00
          2   -1    0    0  502    0  0.00000000000E+00  0.00000000000E+00  0.99554873950E+03  0.99554873950E+03  0.00000000000E+00 0. -1.
          2   -1    0    0  503    0 -0.00000000000E+00 -0.00000000000E+00 -0.34375793807E+04  0.34375793807E+04  0.00000000000E+00 0. -1.
         24    2    1    2    0    0  0.14344926034E+02  0.11424993648E+02 -0.10353184825E+04  0.10384064898E+04  0.77893328506E+02 0.  0.
         25    2    1    2    0    0  0.91166737892E+02  0.13695223312E+03  0.10142474075E+03  0.23017110200E+03  0.12499787961E+03 0.  0.
         24    2    1    2    0    0  0.56048537943E+02 -0.20331506185E+02 -0.43307728545E+02  0.10790780109E+03  0.78827187158E+02 0.  0.
        -11    1    3    3    0    0 -0.12208703188E+02 -0.25749629202E+02 -0.60478037157E+03  0.60545139662E+03  0.00000000000E+00 0.  1.
         12    1    3    3    0    0  0.26553629222E+02  0.37174622850E+02 -0.43053811091E+03  0.43295509323E+03  0.00000000000E+00 0. -1.
        -11    1    5    5    0    0  0.75111770720E+02 -0.67925947830E+01 -0.31815790201E+02  0.81854516984E+02  0.00000000000E+00 0.  1.
         12    1    5    5    0    0 -0.19063232777E+02 -0.13538911402E+02 -0.11491938345E+02  0.26053284107E+02  0.00000000000E+00 0. -1.
          5    1    4    4  501    0 -0.22222960403E+02 -0.31822770183E+01  0.26101022419E+02  0.34746801686E+02  0.47000000000E+01 0.  1.
         -5    1    4    4    0  501  0.11338969829E+03  0.14013451014E+03  0.75323718334E+02  0.19542430032E+03  0.47000000000E+01 0.  1.
          1    1    1    2  502    0 -0.68358376307E+02 -0.16014334845E+03  0.78529143696E+03  0.80436397273E+03  0.00000000000E+00 0. -1.
          1    1    1    2  503    0 -0.93201825562E+02  0.32097627871E+02 -0.22501206079E+04  0.22522787545E+04  0.00000000000E+00 0. -1.
<mgrwt>
<rscale>  0 0.12118972E+03</rscale>
<asrwt>0</asrwt>
<pdfrwt beam="1">  1        2 0.14640423E+00 0.17256979E+03</pdfrwt>
<pdfrwt beam="2">  1        2 0.50552636E+00 0.85107292E+02</pdfrwt>
<totfact> 0.76315477E+00</totfact>
</mgrwt>
</event>
<event>
13    1  0.2038932E-008  0.8454614E+02  0.7546771E-02  0.1380090E+00
          2   -1    0    0  503    0  0.00000000000E+00  0.00000000000E+00  0.28326642675E+04  0.28326642675E+04  0.00000000000E+00 0. -1.
          2   -1    0    0  502    0 -0.00000000000E+00 -0.00000000000E+00 -0.56803881565E+03  0.56803881565E+03  0.00000000000E+00 0. -1.
         24    2    1    2    0    0 -0.15191021946E+03 -0.84020697374E+02 -0.15874601787E+03  0.24839632226E+03  0.79776201685E+02 0.  0.
         25    2    1    2    0    0  0.16835990776E+03  0.25061909062E+03  0.17215698330E+03  0.36934826919E+03  0.12500051973E+03 0.  0.
         24    2    1    2    0    0 -0.26072603464E+02  0.37813890962E+01  0.16923943459E+03  0.17950111071E+03  0.53708313791E+02 0.  0.
        -11    1    5    5    0    0 -0.30607928748E+02 -0.38102207982E+01  0.16771480293E+03  0.17052747054E+03  0.00000000000E+00 0.  1.
         12    1    5    5    0    0  0.45353252842E+01  0.75916098944E+01  0.15246316560E+01  0.89736401705E+01  0.00000000000E+00 0. -1.
        -13    1    3    3    0    0 -0.11153437599E+03 -0.19859044395E+02 -0.11215755643E+03  0.15941648640E+03  0.00000000000E+00 0.  1.
         14    1    3    3    0    0 -0.40375843470E+02 -0.64161652979E+02 -0.46588461440E+02  0.88979835852E+02  0.00000000000E+00 0. -1.
          5    1    4    4  501    0  0.10409987537E+03  0.23357025313E+03  0.11070481153E+03  0.27869246939E+03  0.47000000000E+01 0.  1.
         -5    1    4    4    0  501  0.64260032385E+02  0.17048837487E+02  0.61452171771E+02  0.90655799799E+02  0.47000000000E+01 0.  1.
          1    1    1    2  502    0 -0.59449374447E+01 -0.48754264277E+02 -0.25680783413E+03  0.26146239545E+03  0.00000000000E+00 0. -1.
          1    1    1    2  503    0  0.15567852613E+02 -0.12162551806E+03  0.23387828860E+04  0.23419949855E+04  0.00000000000E+00 0. -1.
<mgrwt>
<rscale>  0 0.64440016E+02</rscale>
<asrwt>0</asrwt>
<pdfrwt beam="1">  1        2 0.41656827E+00 0.84546136E+02</pdfrwt>
<pdfrwt beam="2">  1        2 0.83535122E-01 0.49115380E+02</pdfrwt>
<totfact> 0.33002707E+01</totfact>
</mgrwt>
</event>
<event>
13    1  0.2038932E-008  0.2478819E+03  0.7546771E-02  0.1287781E+00
          2   -1    0    0  502    0  0.00000000000E+00  0.00000000000E+00  0.16751446930E+04  0.16751446930E+04  0.00000000000E+00 0. -1.
          2   -1    0    0  503    0 -0.00000000000E+00 -0.00000000000E+00 -0.65132500689E+03  0.65132500689E+03  0.00000000000E+00 0. -1.
         24    2    1    2    0    0  0.13055255973E+02  0.21190523197E+02  0.61027542154E+02  0.10079796278E+03  0.76265263503E+02 0.  0.
         25    2    1    2    0    0  0.12715562912E+03  0.19796368608E+03  0.13270452440E+04  0.13535234394E+04  0.12497378299E+03 0.  0.
         24    2    1    2    0    0  0.90615804426E+01  0.10890254774E+02  0.86307562754E+02  0.11834841705E+03  0.79728555367E+02 0.  0.
        -11    1    3    3    0    0  0.61933580377E+01  0.33523808760E+02  0.74096454374E+02  0.81562785560E+02  0.00000000000E+00 0.  1.
         12    1    3    3    0    0  0.68618979356E+01 -0.12333285563E+02 -0.13068912220E+02  0.19235177219E+02  0.00000000000E+00 0. -1.
        -11    1    5    5    0    0 -0.32100603928E+02 -0.17309281817E+01  0.59505170317E+02  0.67633646799E+02  0.00000000000E+00 0.  1.
         12    1    5    5    0    0  0.41162184371E+02  0.12621182956E+02  0.26802392437E+02  0.50714770252E+02  0.00000000000E+00 0. -1.
          5    1    4    4  501    0  0.41746445909E+02  0.60629974295E+02  0.76806541141E+03  0.77159920019E+03  0.47000000000E+01 0.  1.
         -5    1    4    4    0  501  0.85409183214E+02  0.13733371179E+03  0.55897983256E+03  0.58192423921E+03  0.47000000000E+01 0.  1.
          1    1    1    2  502    0  0.66427415922E+01 -0.36993814326E+02  0.12313099780E+03  0.12873970224E+03  0.00000000000E+00 0. -1.
          1    1    1    2  503    0 -0.15591520713E+03 -0.19305064973E+03 -0.57369166059E+03  0.62506017839E+03  0.00000000000E+00 0. -1.
<mgrwt>
<rscale>  0 0.96523370E+02</rscale>
<asrwt>0</asrwt>
<pdfrwt beam="1">  1        2 0.24634481E+00 0.37585480E+02</pdfrwt>
<pdfrwt beam="2">  1        2 0.95783089E-01 0.24788192E+03</pdfrwt>
<totfact> 0.10833695E+02</totfact>
</mgrwt>
</event>
<event>
13    1  0.2038932E-008  0.1876146E+03  0.7546771E-02  0.1287622E+00
          2   -1    0    0  503    0  0.00000000000E+00  0.00000000000E+00  0.17354601841E+04  0.17354601841E+04  0.00000000000E+00 0. -1.
          2   -1    0    0  502    0 -0.00000000000E+00 -0.00000000000E+00 -0.40628263062E+04  0.40628263062E+04  0.00000000000E+00 0. -1.
         24    2    1    2    0    0  0.95600913828E+02 -0.18706872507E+02 -0.15593980830E+04  0.15645052645E+04  0.80404350054E+02 0.  0.
         25    2    1    2    0    0  0.21819598853E+03 -0.11831324611E+03  0.38976875215E+03  0.47869859502E+03  0.12500060440E+03 0.  0.
         24    2    1    2    0    0 -0.26044229632E+02 -0.63202233532E+02 -0.11860343112E+03  0.15800822824E+03  0.78911355938E+02 0.  0.
        -13    1    5    5    0    0 -0.18333178667E+02 -0.46033800253E+01 -0.90699681850E+02  0.92648415180E+02  0.00000000000E+00 0.  1.
         14    1    5    5    0    0 -0.77110509643E+01 -0.58598853507E+02 -0.27903749271E+02  0.65359813056E+02  0.00000000000E+00 0. -1.
        -13    1    3    3    0    0  0.84802106173E+01 -0.78235291140E+00 -0.78028841943E+03  0.78033489192E+03  0.00000000000E+00 0.  1.
         14    1    3    3    0    0  0.87120703210E+02 -0.17924519595E+02 -0.77910966357E+03  0.78417037255E+03  0.00000000000E+00 0. -1.
          5    1    4    4  501    0  0.63744336404E+02 -0.10317355760E+03  0.19396800248E+03  0.22880952646E+03  0.47000000000E+01 0.  1.
         -5    1    4    4    0  501  0.15445165212E+03 -0.15139688509E+02  0.19580074968E+03  0.24988906856E+03  0.47000000000E+01 0.  1.
          1    1    1    2  502    0 -0.32455036190E+03  0.16676526429E+03 -0.23032527717E+04  0.23319770413E+04  0.00000000000E+00 0. -1.
          1    1    1    2  503    0  0.36797689172E+02  0.33457087866E+02  0.12641194116E+04  0.12650973612E+04  0.00000000000E+00 0. -1.
<mgrwt>
<rscale>  0 0.96595963E+02</rscale>
<asrwt>0</asrwt>
<pdfrwt beam="1">  1        2 0.25521473E+00 0.49733758E+02</pdfrwt>
<pdfrwt beam="2">  1        2 0.59747445E+00 0.18761462E+03</pdfrwt>
<totfact> 0.12052602E+00</totfact>
</mgrwt>
</event>
<event>
13    1  0.2038932E-008  0.9076927E+02  0.7546771E-02  0.1391553E+00
          2   -1    0    0  502    0  0.00000000000E+00  0.00000000000E+00  0.20158315086E+04  0.20158315086E+04  0.00000000000E+00 0. -1.
          2   -1    0    0  503    0 -0.00000000000E+00 -0.00000000000E+00 -0.15323049991E+04  0.15323049991E+04  0.00000000000E+00 0. -1.
         24    2    1    2    0    0  0.20562288844E+03 -0.18833496023E+03 -0.56683823715E+03  0.63644537369E+03  0.77500303891E+02 0.  0.
         25    2    1    2    0    0 -0.27852334455E+03  0.16593170546E+03  0.11419250704E+04  0.11936192359E+04  0.12500171854E+03 0.  0.
         24    2    1    2    0    0  0.57228744065E+02  0.95546593151E+02  0.24347494527E+03  0.27858979841E+03  0.76993156810E+02 0.  0.
        -11    1    3    3    0    0  0.15753721543E+03 -0.16018804181E+03 -0.50771314627E+03  0.55520340586E+03  0.00000000000E+00 0.  1.
         12    1    3    3    0    0  0.48085673012E+02 -0.28146918421E+02 -0.59125090880E+02  0.81241967832E+02  0.00000000000E+00 0. -1.
        -13    1    5    5    0    0  0.63090045482E+02  0.64959133791E+02  0.11488769829E+03  0.14628474329E+03  0.00000000000E+00 0.  1.
         14    1    5    5    0    0 -0.58613014168E+01  0.30587459359E+02  0.12858724698E+03  0.13230505512E+03  0.00000000000E+00 0. -1.
          5    1    4    4  501    0 -0.19692022591E+03  0.16859474812E+03  0.75914038359E+03  0.80219572204E+03  0.47000000000E+01 0.  1.
         -5    1    4    4    0  501 -0.81603118644E+02 -0.26630426591E+01  0.38278468683E+03  0.39142351390E+03  0.47000000000E+01 0.  1.
          1    1    1    2  502    0 -0.41612384828E+02 -0.26837641542E+01  0.54910738194E+03  0.55068839652E+03  0.00000000000E+00 0. -1.
          1    1    1    2  503    0  0.57284096873E+02 -0.70459574228E+02 -0.88414265105E+03  0.88879370315E+03  0.00000000000E+00 0. -1.
<mgrwt>
<rscale>  0 0.61522136E+02</rscale>
<asrwt>0</asrwt>
<pdfrwt beam="1">  1        2 0.29644581E+00 0.41698839E+02</pdfrwt>
<pdfrwt beam="2">  1        2 0.22533897E+00 0.90769272E+02</pdfrwt>
<totfact> 0.24020931E+01</totfact>
</mgrwt>
</event>
<event>
13    1  0.2038932E-008  0.4812022E+02  0.7546771E-02  0.1475088E+00
          2   -1    0    0  502    0  0.00000000000E+00  0.00000000000E+00  0.14188870967E+04  0.14188870967E+04  0.00000000000E+00 0. -1.
          2   -1    0    0  503    0 -0.00000000000E+00 -0.00000000000E+00 -0.12584841059E+04  0.12584841059E+04  0.00000000000E+00 0. -1.
         24    2    1    2    0    0  0.68309128992E+01 -0.36510507746E+02 -0.66076896204E+03  0.66738607023E+03  0.86074775635E+02 0.  0.
         25    2    1    2    0    0 -0.73246484473E+02  0.98449513152E+02  0.52136120123E+02  0.18275833151E+03  0.12500031435E+03 0.  0.
         24    2    1    2    0    0  0.59326653012E+02  0.21172631529E+02  0.45509767522E+02  0.11140055182E+03  0.79818618899E+02 0.  0.
        -13    1    5    5    0    0  0.11404820124E+02  0.35375360116E+02 -0.81680765422E+01  0.38055269015E+02  0.00000000000E+00 0.  1.
         14    1    5    5    0    0  0.47921832888E+02 -0.14202728588E+02  0.53677844064E+02  0.73345282807E+02  0.00000000000E+00 0. -1.
        -13    1    3    3    0    0  0.18560148820E+02 -0.61014298796E+02 -0.53013717004E+03  0.53395940186E+03  0.00000000000E+00 0.  1.
         14    1    3    3    0    0 -0.11729235921E+02  0.24503791050E+02 -0.13063179200E+03  0.13342666837E+03  0.00000000000E+00 0. -1.
          5    1    4    4  501    0 -0.63619977480E+02  0.10126899910E+03 -0.95669001515E+01  0.12006884397E+03  0.47000000000E+01 0.  1.
         -5    1    4    4    0  501 -0.96265069935E+01 -0.28194859449E+01  0.61703020275E+02  0.62689487547E+02  0.47000000000E+01 0.  1.
          1    1    1    2  502    0  0.20568554905E+02 -0.43482069309E+02  0.12183178120E+04  0.12192670121E+04  0.00000000000E+00 0. -1.
          1    1    1    2  503    0 -0.13479636342E+02 -0.39629567626E+02 -0.49479174673E+03  0.49655923701E+03  0.00000000000E+00 0. -1.
<mgrwt>
<rscale>  0 0.44880732E+02</rscale>
<asrwt>0</asrwt>
<pdfrwt beam="1">  1        2 0.20865987E+00 0.48120221E+02</pdfrwt>
<pdfrwt beam="2">  1        2 0.18507119E+00 0.41859327E+02</pdfrwt>
<totfact> 0.65029411E+01</totfact>
</mgrwt>
</event>
<event>
13    1  0.2038932E-008  0.3480308E+03  0.7546771E-02  0.1117194E+00
          2   -1    0    0  502    0  0.00000000000E+00  0.00000000000E+00  0.17791608614E+04  0.17791608614E+04  0.00000000000E+00 0. -1.
          2   -1    0    0  503    0 -0.00000000000E+00 -0.00000000000E+00 -0.16195177046E+04  0.16195177046E+04  0.00000000000E+00 0. -1.
         24    2    1    2    0    0  0.11266577210E+02 -0.75451263224E+02 -0.33551162170E+03  0.35360740075E+03  0.81549473847E+02 0.  0.
         25    2    1    2    0    0 -0.26893109657E+02  0.74733415780E+03  0.25369226831E+03  0.79950993652E+03  0.12499915529E+03 0.  0.
         24    2    1    2    0    0  0.26081286517E+03  0.39760786559E+03  0.12256145523E+02  0.48230230550E+03  0.79686481735E+02 0.  0.
        -11    1    3    3    0    0  0.54643227196E+01  0.13671857307E+02 -0.11118278008E+03  0.11215341765E+03  0.00000000000E+00 0.  1.
         12    1    3    3    0    0  0.58022544908E+01 -0.89123120531E+02 -0.22432884162E+03  0.24145398310E+03  0.00000000000E+00 0. -1.
        -13    1    5    5    0    0  0.21803810169E+03  0.27097769643E+03  0.20319124652E+02  0.34839975973E+03  0.00000000000E+00 0.  1.
         14    1    5    5    0    0  0.42774763479E+02  0.12663016916E+03 -0.80629791295E+01  0.13390254577E+03  0.00000000000E+00 0. -1.
          5    1    4    4  501    0  0.21352878361E+02  0.16609540340E+03  0.10459201267E+03  0.19749736090E+03  0.47000000000E+01 0. -1.
         -5    1    4    4    0  501 -0.48245988017E+02  0.58123875440E+03  0.14910025564E+03  0.60201257562E+03  0.47000000000E+01 0. -1.
          1    1    1    2  502    0  0.12324928433E+03 -0.11775142242E+03  0.64060434894E+03  0.66289495054E+03  0.00000000000E+00 0. -1.
          1    1    1    2  503    0 -0.36843561706E+03 -0.95173933775E+03 -0.41139798426E+03  0.11003639727E+04  0.00000000000E+00 0. -1.
<mgrwt>
<rscale>  0 0.24394265E+03</rscale>
<asrwt>0</asrwt>
<pdfrwt beam="1">  1        2 0.26164130E+00 0.17098490E+03</pdfrwt>
<pdfrwt beam="2">  1        2 0.23816437E+00 0.34803081E+03</pdfrwt>
<totfact> 0.22027182E+01</totfact>
</mgrwt>
</event>
<event>
13    1  0.2038932E-008  0.4993055E+02  0.7546771E-02  0.1542249E+00
          2   -1    0    0  503    0  0.00000000000E+00  0.00000000000E+00  0.21313326036E+04  0.21313326036E+04  0.00000000000E+00 0. -1.
         -1   -1    0    0    0  501 -0.00000000000E+00 -0.00000000000E+00 -0.12784848689E+04  0.12784848689E+04  0.00000000000E+00 0.  1.
         24    2    1    2    0    0  0.46855485135E+02 -0.37328224356E+00 -0.12972551884E+03  0.15965892441E+03  0.80415707916E+02 0.  0.
         25    2    1    2    0    0 -0.59828163026E+02 -0.26493053382E+02  0.69641452682E+03  0.71056317608E+03  0.12500217225E+03 0.  0.
         24    2    1    2    0    0 -0.10778526285E+02 -0.10174166635E+02  0.10861454454E+03  0.13570890572E+03  0.80000609437E+02 0.  0.
        -13    1    3    3    0    0  0.23250559809E+02  0.37799833179E+02 -0.41915570564E+02  0.61043680881E+02  0.00000000000E+00 0.  1.
         14    1    3    3    0    0  0.23604925326E+02 -0.38173115423E+02 -0.87809948272E+02  0.98615243529E+02  0.00000000000E+00 0. -1.
        -13    1    5    5    0    0 -0.17765091012E+02 -0.42636931442E+02  0.77401017520E+02  0.90135586172E+02  0.00000000000E+00 0.  1.
         14    1    5    5    0    0  0.69865647264E+01  0.32462764806E+02  0.31213527022E+02  0.45573319549E+02  0.00000000000E+00 0. -1.
          5    1    4    4  502    0 -0.45225331963E+02 -0.15629305620E+02  0.68848442140E+03  0.69016120896E+03  0.47000000000E+01 0.  1.
         -5    1    4    4    0  502 -0.14602831063E+02 -0.10863747761E+02  0.79301054251E+01  0.20401967124E+02  0.47000000000E+01 0.  1.
          1    1    1    2  503    0  0.16812780122E+01  0.49937649330E+02  0.12900848902E+04  0.12910521366E+04  0.00000000000E+00 0. -1.
         -2    1    1    2    0  501  0.22069926164E+02 -0.12897147069E+02 -0.11125407081E+04  0.11128343297E+04  0.00000000000E+00 0.  1.
<mgrwt>
<rscale>  0 0.35725719E+02</rscale>
<asrwt>0</asrwt>
<pdfrwt beam="1">  1        2 0.31343127E+00 0.49930554E+02</pdfrwt>
<pdfrwt beam="2">  1       -1 0.18801248E+00 0.25562043E+02</pdfrwt>
<totfact> 0.24278378E+00</totfact>
</mgrwt>
</event>
<event>
13    1  0.2038932E-008  0.1138324E+03  0.7546771E-02  0.1345150E+00
          2   -1    0    0  503    0  0.00000000000E+00  0.00000000000E+00  0.27509402507E+04  0.27509402507E+04  0.00000000000E+00 0. -1.
          2   -1    0    0  502    0 -0.00000000000E+00 -0.00000000000E+00 -0.89803195529E+03  0.89803195529E+03  0.00000000000E+00 0. -1.
         24    2    1    2    0    0  0.65721827750E+00 -0.75434888099E+02 -0.52779939163E+03  0.53930948665E+03  0.81189102133E+02 0.  0.
         25    2    1    2    0    0  0.31848373788E+02 -0.71100530790E+02  0.73791070633E+03  0.75246633699E+03  0.12499509350E+03 0.  0.
         24    2    1    2    0    0 -0.47926698522E+02 -0.47955716467E+02  0.14102488893E+03  0.17605191835E+03  0.80681717162E+02 0.  0.
        -13    1    3    3    0    0  0.38573691384E+02 -0.31110067004E+02 -0.30507906222E+03  0.30907766037E+03  0.00000000000E+00 0.  1.
         14    1    3    3    0    0 -0.37916473106E+02 -0.44324821096E+02 -0.22272032942E+03  0.23023182628E+03  0.00000000000E+00 0. -1.
        -13    1    5    5    0    0 -0.62820050174E+02 -0.20363874164E+02  0.60203920961E+02  0.89361950370E+02  0.00000000000E+00 0.  1.
         14    1    5    5    0    0  0.14893351651E+02 -0.27591842304E+02  0.80820967972E+02  0.86689967984E+02  0.00000000000E+00 0. -1.
          5    1    4    4  501    0 -0.47166161677E+01  0.27520450286E+02  0.59025926565E+02  0.65465805264E+02  0.47000000000E+01 0.  1.
         -5    1    4    4    0  501  0.36564989956E+02 -0.98620981076E+02  0.67888477976E+03  0.68700053173E+03  0.47000000000E+01 0.  1.
          1    1    1    2  502    0  0.59138119476E+02  0.17263926620E+03 -0.31482466137E+03  0.36389036922E+03  0.00000000000E+00 0. -1.
          1    1    1    2  503    0 -0.43717013019E+02  0.21851869156E+02  0.18165967532E+04  0.18172540948E+04  0.00000000000E+00 0. -1.
<mgrwt>
<rscale>  0 0.74588595E+02</rscale>
<asrwt>0</asrwt>
<pdfrwt beam="1">  1        2 0.40455003E+00 0.48874138E+02</pdfrwt>
<pdfrwt beam="2">  1        2 0.13206352E+00 0.11383236E+03</pdfrwt>
<totfact> 0.22707784E+01</totfact>
</mgrwt>
</event>
<event>
13    1  0.2038932E-008  0.7368537E+02  0.7546771E-02  0.1478528E+00
          2   -1    0    0  502    0  0.00000000000E+00  0.00000000000E+00  0.22177735159E+04  0.22177735159E+04  0.00000000000E+00 0. -1.
          2   -1    0    0  503    0 -0.00000000000E+00 -0.00000000000E+00 -0.88971466590E+03  0.88971466590E+03  0.00000000000E+00 0. -1.
         24    2    1    2    0    0  0.24834939074E+03  0.25323395339E+03  0.10109819124E+04  0.10743915877E+04  0.80174819055E+02 0.  0.
         25    2    1    2    0    0 -0.52306151577E+03 -0.13511232767E+03  0.61430396846E+02  0.55789610338E+03  0.12500271253E+03 0.  0.
         24    2    1    2    0    0  0.36433839317E+03 -0.78663654784E+02 -0.24450277248E+03  0.45555654881E+03  0.93913407397E+02 0.  0.
        -11    1    5    5    0    0  0.23592667596E+03 -0.87309066887E+02 -0.19241167962E+03  0.31671205226E+03  0.00000000000E+00 0.  1.
         12    1    5    5    0    0  0.12841171721E+03  0.86454121032E+01 -0.52091092866E+02  0.13884449656E+03  0.00000000000E+00 0. -1.
        -13    1    3    3    0    0  0.22589122144E+03  0.22135119933E+03  0.95620701266E+03  0.10071519490E+04  0.00000000000E+00 0.  1.
         14    1    3    3    0    0  0.22458169298E+02  0.31882754061E+02  0.54774899731E+02  0.67239638720E+02  0.00000000000E+00 0. -1.
          5    1    4    4  501    0 -0.30993492458E+03 -0.12127009998E+03  0.83411474993E+02  0.34314087309E+03  0.47000000000E+01 0.  1.
         -5    1    4    4    0  501 -0.21312659119E+03 -0.13842227690E+02 -0.21981078147E+02  0.21475523029E+03  0.47000000000E+01 0.  1.
          1    1    1    2  502    0 -0.19007066936E+02 -0.18718928535E+02  0.75444224556E+03  0.75491374922E+03  0.00000000000E+00 0. -1.
          1    1    1    2  503    0 -0.70619201212E+02 -0.20739042398E+02 -0.25429293232E+03  0.26473019263E+03  0.00000000000E+00 0. -1.
<mgrwt>
<rscale>  0 0.44336337E+02</rscale>
<asrwt>0</asrwt>
<pdfrwt beam="1">  1        2 0.32614316E+00 0.26677085E+02</pdfrwt>
<pdfrwt beam="2">  1        2 0.13084039E+00 0.73685366E+02</pdfrwt>
<totfact> 0.45694456E+01</totfact>
</mgrwt>
</event>
<event>
13    1  0.2038932E-008  0.1036650E+03  0.7546771E-02  0.1284977E+00
          2   -1    0    0  502    0  0.00000000000E+00  0.00000000000E+00  0.28005888467E+04  0.28005888467E+04  0.00000000000E+00 0. -1.
          2   -1    0    0  503    0 -0.00000000000E+00 -0.00000000000E+00 -0.11787011207E+04  0.11787011207E+04  0.00000000000E+00 0. -1.
         24    2    1    2    0    0  0.26721645068E+02  0.70466895349E+02 -0.59090881574E+03  0.60187104675E+03  0.85999411240E+02 0.  0.
         25    2    1    2    0    0  0.82913247538E+01 -0.47348103496E+02  0.60839921423E+03  0.62296479572E+03  0.12499977548E+03 0.  0.
         24    2    1    2    0    0 -0.22034890253E+02  0.38832383730E+01  0.28877404559E+03  0.30098120127E+03  0.81845086474E+02 0.  0.
        -11    1    5    5    0    0 -0.41849952847E+02 -0.25522511346E+02  0.18123481753E+03  0.18774684078E+03  0.00000000000E+00 0.  1.
         12    1    5    5    0    0  0.19815062594E+02  0.29405749719E+02  0.10753922806E+03  0.11323436048E+03  0.00000000000E+00 0. -1.
        -13    1    3    3    0    0  0.13100612315E+02  0.43303531123E+02 -0.97038425031E+02  0.10706669783E+03  0.00000000000E+00 0.  1.
         14    1    3    3    0    0  0.13621032753E+02  0.27163364226E+02 -0.49387039071E+03  0.49480434892E+03  0.00000000000E+00 0. -1.
          5    1    4    4  501    0  0.91888279484E+01  0.38517341955E+02  0.30558044423E+03  0.30817124798E+03  0.47000000000E+01 0.  1.
         -5    1    4    4    0  501 -0.89750319466E+00 -0.85865445451E+02  0.30281877000E+03  0.31479354774E+03  0.47000000000E+01 0.  1.
          1    1    1    2  502    0 -0.51927778484E+02 -0.11066811457E+03  0.18788059762E+04  0.18827787501E+04  0.00000000000E+00 0. -1.
          1    1    1    2  503    0  0.38949698915E+02  0.83666084341E+02 -0.56318269426E+03  0.57069417364E+03  0.00000000000E+00 0. -1.
<mgrwt>
<rscale>  0 0.97806692E+02</rscale>
<asrwt>0</asrwt>
<pdfrwt beam="1">  1        2 0.41185130E+00 0.10366501E+03</pdfrwt>
<pdfrwt beam="2">  1        2 0.17333840E+00 0.92279440E+02</pdfrwt>
<totfact> 0.13403978E+01</totfact>
</mgrwt>
</event>
<event>
13    1  0.2038932E-008  0.1154842E+03  0.7546771E-02  0.1285247E+00
          2   -1    0    0  503    0  0.00000000000E+00  0.00000000000E+00  0.19976128682E+04  0.19976128682E+04  0.00000000000E+00 0. -1.
          2   -1    0    0  502    0 -0.00000000000E+00 -0.00000000000E+00 -0.16730891198E+04  0.16730891198E+04  0.00000000000E+00 0. -1.
         24    2    1    2    0    0 -0.12576415896E+03 -0.18158398460E+02  0.55647054192E+02  0.15935118780E+03  0.78421013126E+02 0.  0.
         25    2    1    2    0    0  0.27204366255E+03  0.20212865551E+03 -0.15185715256E+02  0.36155105537E+03  0.12499924793E+03 0.  0.
         24    2    1    2    0    0 -0.62162387141E+02 -0.11170450641E+02  0.53800871663E+01  0.10274462787E+03  0.80861436272E+02 0.  0.
        -11    1    3    3    0    0 -0.51723514559E+02  0.31809707588E+01 -0.15896196932E+02  0.54204516511E+02  0.00000000000E+00 0.  1.
         12    1    3    3    0    0 -0.74040644405E+02 -0.21339369218E+02  0.71543251124E+02  0.10514667129E+03  0.00000000000E+00 0. -1.
        -11    1    5    5    0    0 -0.37746565973E+02  0.33119270832E+02  0.12296560410E+02  0.51700045852E+02  0.00000000000E+00 0.  1.
         12    1    5    5    0    0 -0.24415821167E+02 -0.44289721473E+02 -0.69164732435E+01  0.51044582019E+02  0.00000000000E+00 0. -1.
          5    1    4    4  501    0  0.28447877706E+02  0.83501120760E+02 -0.19777519883E+02  0.90526013979E+02  0.47000000000E+01 0.  1.
         -5    1    4    4    0  501  0.24359578484E+03  0.11862753475E+03  0.45918046271E+01  0.27102504139E+03  0.47000000000E+01 0.  1.
          1    1    1    2  502    0 -0.15457909263E+02 -0.81165175223E+02 -0.13809790458E+04  0.13834485381E+04  0.00000000000E+00 0. -1.
          1    1    1    2  503    0 -0.68659207178E+02 -0.91634631186E+02  0.16596613681E+04  0.16636065789E+04  0.00000000000E+00 0. -1.
<mgrwt>
<rscale>  0 0.97681988E+02</rscale>
<asrwt>0</asrwt>
<pdfrwt beam="1">  1        2 0.29376660E+00 0.11548419E+03</pdfrwt>
<pdfrwt beam="2">  1        2 0.24604252E+00 0.82624044E+02</pdfrwt>
<totfact> 0.18885090E+01</totfact>
</mgrwt>
</event>
<event>
13    1  0.2038932E-008  0.1028955E+03  0.7546771E-02  0.1375303E+00
          2   -1    0    0  503    0  0.00000000000E+00  0.00000000000E+00  0.40267591874E+04  0.40267591874E+04  0.00000000000E+00 0. -1.
         -1   -1    0    0    0  501 -0.00000000000E+00 -0.00000000000E+00 -0.16221090510E+04  0.16221090510E+04  0.00000000000E+00 0.  1.
         24    2    1    2    0    0 -0.10225334642E+04 -0.13981909474E+03 -0.99428387102E+03  0.14360791062E+04  0.92729274735E+02 0.  0.
         25    2    1    2    0    0 -0.10698817682E+03 -0.80044142259E+01  0.77245629275E+03  0.78982846209E+03  0.12501893734E+03 0.  0.
         24    2    1    2    0    0  0.10952231575E+04  0.36974811917E+02  0.10345614129E+04  0.15092430764E+04  0.81341535813E+02 0.  0.
        -11    1    3    3    0    0 -0.44762578272E+03 -0.78018175558E+02 -0.37845817399E+03  0.59134276569E+03  0.00000000000E+00 0.  1.
         12    1    3    3    0    0 -0.57490768150E+03 -0.61800919186E+02 -0.61582569703E+03  0.84473634051E+03  0.00000000000E+00 0. -1.
        -11    1    5    5    0    0  0.40959376910E+03  0.45989817726E+02  0.35737998431E+03  0.54552962542E+03  0.00000000000E+00 0.  1.
         12    1    5    5    0    0  0.68562938837E+03 -0.90150058090E+01  0.67718142855E+03  0.96371345103E+03  0.00000000000E+00 0. -1.
          5    1    4    4  502    0 -0.45282124548E+02  0.15267619991E+02  0.73769804348E+02  0.88020708116E+02  0.47000000000E+01 0. -1.
         -5    1    4    4    0  502 -0.61706052273E+02 -0.23272034217E+02  0.69868648840E+03  0.70180775397E+03  0.47000000000E+01 0. -1.
          1    1    1    2  503    0  0.63643648479E+02  0.80844384986E+02  0.17485419171E+04  0.17515664887E+04  0.00000000000E+00 0. -1.
         -2    1    1    2    0  501 -0.29345164913E+02  0.30004312068E+02 -0.15662561535E+03  0.16215110493E+03  0.00000000000E+00 0.  1.
<mgrwt>
<rscale>  0 0.65714701E+02</rscale>
<asrwt>0</asrwt>
<pdfrwt beam="1">  1        2 0.59217047E+00 0.10289550E+03</pdfrwt>
<pdfrwt beam="2">  1       -1 0.23854545E+00 0.41969006E+02</pdfrwt>
<totfact> 0.92313525E-02</totfact>
</mgrwt>
</event>
<event>
13    1  0.2038932E-008  0.8029206E+02  0.7546771E-02  0.1391823E+00
          2   -1    0    0  502    0  0.00000000000E+00  0.00000000000E+00  0.99071884867E+03  0.99071884867E+03  0.00000000000E+00 0. -1.
          2   -1    0    0  503    0 -0.00000000000E+00 -0.00000000000E+00 -0.66673864591E+03  0.66673864591E+03  0.00000000000E+00 0. -1.
         24    2    1    2    0    0 -0.65042917272E+02  0.95427889162E+01 -0.19229891450E+03  0.21858558796E+03  0.80493110484E+02 0.  0.
         25    2    1    2    0    0  0.17617141192E+03  0.45785094579E+01  0.33286564931E+03  0.39683866311E+03  0.12499621962E+03 0.  0.
         24    2    1    2    0    0 -0.60350296555E+01  0.49651287466E+02 -0.47068855973E+02  0.10793702197E+03  0.83266149057E+02 0.  0.
        -11    1    3    3    0    0 -0.31157474897E+02 -0.32775796461E+02 -0.11985395176E+03  0.12810156451E+03  0.00000000000E+00 0.  1.
         12    1    3    3    0    0 -0.33885442374E+02  0.42318585378E+02 -0.72444962742E+02  0.90484023451E+02  0.00000000000E+00 0. -1.
        -13    1    5    5    0    0  0.24770356465E+02  0.46880234204E+02 -0.17265001877E+01  0.53050049212E+02  0.00000000000E+00 0.  1.
         14    1    5    5    0    0 -0.30805386120E+02  0.27710532611E+01 -0.45342355786E+02  0.54886972757E+02  0.00000000000E+00 0. -1.
          5    1    4    4  501    0  0.18451445409E+03 -0.22320741240E+02  0.27031607008E+03  0.32808027524E+03  0.47000000000E+01 0.  1.
         -5    1    4    4    0  501 -0.83430421667E+01  0.26899250698E+02  0.62549579231E+02  0.68758387871E+02  0.47000000000E+01 0.  1.
          1    1    1    2  502    0 -0.45927546008E+02 -0.10161207525E+02  0.57678945795E+03  0.57870430137E+03  0.00000000000E+00 0. -1.
          1    1    1    2  503    0 -0.59165918988E+02 -0.53611378315E+02 -0.34630713402E+03  0.35539192018E+03  0.00000000000E+00 0. -1.
<mgrwt>
<rscale>  0 0.61455608E+02</rscale>
<asrwt>0</asrwt>
<pdfrwt beam="1">  1        2 0.14569395E+00 0.47038172E+02</pdfrwt>
<pdfrwt beam="2">  1        2 0.98049801E-01 0.80292061E+02</pdfrwt>
<totfact> 0.23265989E+02</totfact>
</mgrwt>
</event>
<event>
13    1  0.2038932E-008  0.4767185E+02  0.7546771E-02  0.1550585E+00
         -1   -1    0    0    0  501 -0.00000000000E+00  0.00000000000E+00  0.14916401320E+04  0.14916401320E+04  0.00000000000E+00 0.  1.
          2   -1    0    0  503    0  0.00000000000E+00 -0.00000000000E+00 -0.34009670789E+04  0.34009670789E+04  0.00000000000E+00 0. -1.
         24    2    1    2    0    0  0.61499640312E+02 -0.83505655609E+01  0.69671849096E+03  0.70421830332E+03  0.81577113054E+02 0.  0.
         25    2    1    2    0    0 -0.30094839714E+02 -0.97268762313E+02 -0.48277990711E+02  0.16829304206E+03  0.12499948848E+03 0.  0.
         24    2    1    2    0    0 -0.17070269529E+02  0.14916555056E+03 -0.15614105085E+03  0.23107431263E+03  0.80458403034E+02 0.  0.
        -13    1    5    5    0    0 -0.35151551254E+02  0.76169959335E+02 -0.12302304298E+03  0.14890320133E+03  0.00000000000E+00 0.  1.
         14    1    5    5    0    0  0.18081281725E+02  0.72995591225E+02 -0.33118007873E+02  0.82171111302E+02  0.00000000000E+00 0. -1.
        -13    1    3    3    0    0  0.75533566076E+02  0.13167667580E+02  0.53732634656E+03  0.54276911277E+03  0.00000000000E+00 0.  1.
         14    1    3    3    0    0 -0.14033925765E+02 -0.21518233141E+02  0.15939214441E+03  0.16144919055E+03  0.00000000000E+00 0. -1.
          5    1    4    4  502    0  0.31912468693E+02  0.11902463134E+02 -0.21384048033E+01  0.34449050231E+02  0.47000000000E+01 0. -1.
         -5    1    4    4    0  502 -0.62007308407E+02 -0.10917122545E+03 -0.46139585907E+02  0.13384399183E+03  0.47000000000E+01 0. -1.
          1    1    1    2  503    0 -0.36318948697E+02 -0.30882466831E+02 -0.30949083566E+04  0.30952755174E+04  0.00000000000E+00 0. -1.
         -2    1    1    2    0  501  0.21984417628E+02 -0.12663755854E+02  0.69328196028E+03  0.69374603551E+03  0.00000000000E+00 0.  1.
<mgrwt>
<rscale>  0 0.34777584E+02</rscale>
<asrwt>0</asrwt>
<pdfrwt beam="2">  1        2 0.50014222E+00 0.47671852E+02</pdfrwt>
<pdfrwt beam="1">  1       -1 0.21935884E+00 0.25370954E+02</pdfrwt>
<totfact> 0.35928419E-01</totfact>
</mgrwt>
</event>
<event>
13    1  0.2038932E-008  0.1341834E+03  0.7546771E-02  0.1373937E+00
          2   -1    0    0  503    0  0.00000000000E+00  0.00000000000E+00  0.12359237450E+04  0.12359237450E+04  0.00000000000E+00 0. -1.
          2   -1    0    0  502    0 -0.00000000000E+00 -0.00000000000E+00 -0.16731460202E+04  0.16731460202E+04  0.00000000000E+00 0. -1.
         24    2    1    2    0    0 -0.73627382822E+02 -0.72286788976E+02 -0.47916702296E+03  0.49674094763E+03  0.80648383740E+02 0.  0.
         25    2    1    2    0    0  0.20705778917E+03  0.18229288245E+03  0.10376490013E+03  0.32015117229E+03  0.12500398224E+03 0.  0.
         24    2    1    2    0    0 -0.13150772423E+02 -0.60507031873E+02 -0.18534912199E+03  0.21184528693E+03  0.81792938897E+02 0.  0.
        -11    1    3    3    0    0  0.70777927221E+01  0.12207197893E+02 -0.53020756130E+02  0.54866304877E+02  0.00000000000E+00 0.  1.
         12    1    3    3    0    0 -0.80705175544E+02 -0.84493986869E+02 -0.42614626683E+03  0.44187464275E+03  0.00000000000E+00 0. -1.
        -11    1    5    5    0    0 -0.39389861624E+02 -0.57882718397E+02 -0.96889869101E+02  0.11953918614E+03  0.00000000000E+00 0.  1.
         12    1    5    5    0    0  0.26239089201E+02 -0.26243134763E+01 -0.88459252887E+02  0.92306100799E+02  0.00000000000E+00 0. -1.
          5    1    4    4  501    0  0.20397283746E+03  0.14478368708E+03  0.51253557676E+02  0.25537472788E+03  0.47000000000E+01 0.  1.
         -5    1    4    4    0  501  0.30849517091E+01  0.37509195363E+02  0.52511342456E+02  0.64776444410E+02  0.47000000000E+01 0.  1.
          1    1    1    2  502    0 -0.14641640001E+03 -0.30104503153E+02 -0.87177448001E+03  0.88449691197E+03  0.00000000000E+00 0. -1.
          1    1    1    2  503    0  0.26136766083E+02 -0.19394558443E+02  0.99530344962E+03  0.99583544638E+03  0.00000000000E+00 0. -1.
<mgrwt>
<rscale>  0 0.66084863E+02</rscale>
<asrwt>0</asrwt>
<pdfrwt beam="1">  1        2 0.18175349E+00 0.32546573E+02</pdfrwt>
<pdfrwt beam="2">  1        2 0.24605088E+00 0.13418338E+03</pdfrwt>
<totfact> 0.46955136E+01</totfact>
</mgrwt>
</event>
<event>
13    1  0.2038932E-008  0.5821891E+02  0.7546771E-02  0.1523054E+00
          2   -1    0    0  502    0  0.00000000000E+00  0.00000000000E+00  0.13102906294E+04  0.13102906294E+04  0.00000000000E+00 0. -1.
          2   -1    0    0  503    0 -0.00000000000E+00 -0.00000000000E+00 -0.38008842513E+04  0.38008842513E+04  0.00000000000E+00 0. -1.
         24    2    1    2    0    0 -0.52587616818E+01  0.12319797447E+03 -0.16555621349E+04  0.16621567475E+04  0.81692565896E+02 0.  0.
         25    2    1    2    0    0 -0.90170227857E+02 -0.89931085673E+02  0.10155715998E+03  0.20532242442E+03  0.12500068426E+03 0.  0.
         24    2    1    2    0    0  0.14478036544E+03  0.27763115048E+02 -0.26807191672E+03  0.31621232460E+03  0.79972100884E+02 0.  0.
        -11    1    3    3    0    0  0.66138785169E+01  0.29159297042E+02 -0.11988990486E+03  0.12356211912E+03  0.00000000000E+00 0.  1.
         12    1    3    3    0    0 -0.11872640199E+02  0.94038677432E+02 -0.15356722300E+04  0.15385946284E+04  0.00000000000E+00 0. -1.
        -13    1    5    5    0    0  0.15361043549E+03  0.30313936499E+02 -0.26192419248E+03  0.30515468740E+03  0.00000000000E+00 0.  1.
         14    1    5    5    0    0 -0.88300700466E+01 -0.25508214506E+01 -0.61477242471E+01  0.11057637203E+02  0.00000000000E+00 0. -1.
          5    1    4    4  501    0 -0.36674552969E+02 -0.57117031324E+02  0.12154291955E+03  0.13929159844E+03  0.47000000000E+01 0. -1.
         -5    1    4    4    0  501 -0.53495674888E+02 -0.32814054349E+02 -0.19985759571E+02  0.66030825984E+02  0.47000000000E+01 0. -1.
          1    1    1    2  502    0 -0.26180168346E+02 -0.51992631727E+02  0.11286471837E+04  0.11301473799E+04  0.00000000000E+00 0. -1.
          1    1    1    2  503    0 -0.23171207557E+02 -0.90373721224E+01 -0.17971639139E+04  0.17973360043E+04  0.00000000000E+00 0. -1.
<mgrwt>
<rscale>  0 0.38052291E+02</rscale>
<asrwt>0</asrwt>
<pdfrwt beam="1">  1        2 0.19268980E+00 0.58218906E+02</pdfrwt>
<pdfrwt beam="2">  1        2 0.55895356E+00 0.24871248E+02</pdfrwt>
<totfact> 0.43430549E+00</totfact>
</mgrwt>
</event>
<event>
13    1  0.2038932E-008  0.9155100E+02  0.7546771E-02  0.1395533E+00
          2   -1    0    0  502    0  0.00000000000E+00  0.00000000000E+00  0.22184464565E+04  0.22184464565E+04  0.00000000000E+00 0. -1.
          2   -1    0    0  503    0 -0.00000000000E+00 -0.00000000000E+00 -0.32132929541E+04  0.32132929541E+04  0.00000000000E+00 0. -1.
         24    2    1    2    0    0 -0.10042176446E+03 -0.14404761093E+03 -0.54526681359E+03  0.57862837250E+03  0.81612808254E+02 0.  0.
         25    2    1    2    0    0 -0.63435167849E+02  0.85140602704E+02  0.59092593841E+03  0.61326359756E+03  0.12500333060E+03 0.  0.
         24    2    1    2    0    0  0.11672139555E+03  0.82866661307E+02  0.37894672057E+02  0.16836230367E+03  0.80119232347E+02 0.  0.
        -13    1    5    5    0    0 -0.78691999754E+01 -0.61993683010E+01 -0.17326546337E+01  0.10166541578E+02  0.00000000000E+00 0.  1.
         14    1    5    5    0    0  0.12459059552E+03  0.89066029608E+02  0.39627326691E+02  0.15819576209E+03  0.00000000000E+00 0. -1.
        -13    1    3    3    0    0  0.44935824223E+01  0.58005720120E+01 -0.70514293882E+01  0.10176520774E+02  0.00000000000E+00 0.  1.
         14    1    3    3    0    0 -0.10491534688E+03 -0.14984818294E+03 -0.53821538420E+03  0.56845185173E+03  0.00000000000E+00 0. -1.
          5    1    4    4  501    0 -0.76004037426E+02  0.27203143010E+02  0.48578094046E+03  0.49246506151E+03  0.47000000000E+01 0. -1.
         -5    1    4    4    0  501  0.12568869577E+02  0.57937459694E+02  0.10514499795E+03  0.12079853605E+03  0.47000000000E+01 0. -1.
          1    1    1    2  502    0  0.86825550966E+02 -0.29303642943E+02  0.14949836758E+04  0.14977895616E+04  0.00000000000E+00 0. -1.
          1    1    1    2  503    0 -0.39690014203E+02  0.53439898585E+01 -0.25733839703E+04  0.25736955753E+04  0.00000000000E+00 0. -1.
<mgrwt>
<rscale>  0 0.60551215E+02</rscale>
<asrwt>0</asrwt>
<pdfrwt beam="1">  1        2 0.32624213E+00 0.91551005E+02</pdfrwt>
<pdfrwt beam="2">  1        2 0.47254308E+00 0.40048164E+02</pdfrwt>
<totfact> 0.29429310E+00</totfact>
</mgrwt>
</event>
<event>
13    1  0.2038932E-008  0.1325956E+03  0.7546771E-02  0.1263725E+00
          2   -1    0    0  502    0  0.00000000000E+00  0.00000000000E+00  0.13047102332E+04  0.13047102332E+04  0.00000000000E+00 0. -1.
          2   -1    0    0  503    0 -0.00000000000E+00 -0.00000000000E+00 -0.25880578097E+03  0.25880578097E+03  0.00000000000E+00 0. -1.
         24    2    1    2    0    0 -0.53650173163E+02  0.13745611917E+03 -0.24197058930E+02  0.16659984459E+03  0.73467576390E+02 0.  0.
         25    2    1    2    0    0  0.14099004534E+03 -0.15777877715E+03  0.53518088600E+03  0.58891068585E+03  0.12499951907E+03 0.  0.
         24    2    1    2    0    0  0.60726073154E+02 -0.30787888411E+02  0.10542585310E+03  0.14941144618E+03  0.81077862041E+02 0.  0.
        -11    1    3    3    0    0  0.88599343220E+01  0.10711659500E+02 -0.21071973488E+02  0.25244131043E+02  0.00000000000E+00 0.  1.
         12    1    3    3    0    0 -0.62510107485E+02  0.12674445967E+03 -0.31250854418E+01  0.14135571355E+03  0.00000000000E+00 0. -1.
        -13    1    5    5    0    0  0.15008971478E+02  0.14296554506E+02 -0.53186233516E+01  0.21399730136E+02  0.00000000000E+00 0.  1.
         14    1    5    5    0    0  0.45717101677E+02 -0.45084442916E+02  0.11074447646E+03  0.12801171604E+03  0.00000000000E+00 0. -1.
          5    1    4    4  501    0  0.13374783041E+02 -0.92404099573E+02  0.13862107345E+03  0.16719836854E+03  0.47000000000E+01 0. -1.
         -5    1    4    4    0  501  0.12761526230E+03 -0.65374677574E+02  0.39655981255E+03  0.42171231731E+03  0.47000000000E+01 0. -1.
          1    1    1    2  502    0 -0.16735189669E+02  0.86881443952E+02  0.49828793315E+03  0.50608232157E+03  0.00000000000E+00 0. -1.
          1    1    1    2  503    0 -0.13133075566E+03 -0.35770897561E+02 -0.68793161101E+02  0.15251171597E+03  0.00000000000E+00 0. -1.
<mgrwt>
<rscale>  0 0.10831374E+03</rscale>
<asrwt>0</asrwt>
<pdfrwt beam="1">  1        2 0.19186915E+00 0.88478539E+02</pdfrwt>
<pdfrwt beam="2">  1        2 0.38059674E-01 0.13259562E+03</pdfrwt>
<totfact> 0.41995982E+02</totfact>
</mgrwt>
</event>
<event>
13    1  0.2038932E-008  0.7714990E+02  0.7546771E-02  0.1390034E+00
          2   -1    0    0  503    0  0.00000000000E+00  0.00000000000E+00  0.93976508923E+03  0.93976508923E+03  0.00000000000E+00 0. -1.
          2   -1    0    0  502    0 -0.00000000000E+00 -0.00000000000E+00 -0.23093327521E+04  0.23093327521E+04  0.00000000000E+00 0. -1.
         24    2    1    2    0    0  0.28844278093E+02  0.46420927215E+02  0.30940841241E+02  0.10133071049E+03  0.79521584294E+02 0.  0.
         25    2    1    2    0    0  0.12854442506E+03  0.28236478499E+02 -0.63101844794E+02  0.19216613869E+03  0.12500005645E+03 0.  0.
         24    2    1    2    0    0 -0.61818456584E+02 -0.15176076816E+02  0.74459426324E+03  0.75179853420E+03  0.82027948289E+02 0.  0.
        -11    1    5    5    0    0 -0.15776535347E+02  0.28707054996E+02  0.13598383507E+03  0.13987350527E+03  0.00000000000E+00 0.  1.
         12    1    5    5    0    0 -0.46041921237E+02 -0.43883131812E+02  0.60861042817E+03  0.61192502894E+03  0.00000000000E+00 0. -1.
        -13    1    3    3    0    0  0.35844483326E+02  0.42933704787E+02  0.53534733492E+02  0.77421558250E+02  0.00000000000E+00 0.  1.
         14    1    3    3    0    0 -0.70002052330E+01  0.34872224272E+01 -0.22593892251E+02  0.23909152236E+02  0.00000000000E+00 0. -1.
          5    1    4    4  501    0 -0.42407673633E+01  0.43800218518E+02 -0.32572541580E+02  0.54950011056E+02  0.47000000000E+01 0. -1.
         -5    1    4    4    0  501  0.13278519242E+03 -0.15563740018E+02 -0.30529303214E+02  0.13721612764E+03  0.47000000000E+01 0. -1.
          1    1    1    2  502    0 -0.24228169513E+02 -0.43350742065E+02 -0.21205441325E+04  0.21211255759E+04  0.00000000000E+00 0. -1.
          1    1    1    2  503    0 -0.71342077051E+02 -0.16130586833E+02  0.38543209919E+02  0.82676882019E+02  0.00000000000E+00 0. -1.
<mgrwt>
<rscale>  0 0.61898307E+02</rscale>
<asrwt>0</asrwt>
<pdfrwt beam="1">  1        2 0.13820075E+00 0.77149903E+02</pdfrwt>
<pdfrwt beam="2">  1        2 0.33960775E+00 0.49661766E+02</pdfrwt>
<totfact> 0.35537884E+01</totfact>
</mgrwt>
</event>
<event>
13    1  0.2038932E-008  0.7722495E+02  0.7546771E-02  0.1371701E+00
          2   -1    0    0  502    0  0.00000000000E+00  0.00000000000E+00  0.44528571850E+04  0.44528571850E+04  0.00000000000E+00 0. -1.
          2   -1    0    0  503    0 -0.00000000000E+00 -0.00000000000E+00 -0.28044287825E+04  0.28044287825E+04  0.00000000000E+00 0. -1.
         24    2    1    2    0    0  0.87038189555E+01  0.85741248636E+00 -0.41554443156E+03  0.42367057342E+03  0.82116311204E+02 0.  0.
         25    2    1    2    0    0  0.15448653990E+03 -0.31862704874E+02  0.83532966160E+03  0.85923294653E+03  0.12499715946E+03 0.  0.
         24    2    1    2    0    0 -0.58495071540E+02  0.29166121258E+02 -0.11567211677E+03  0.15555107930E+03  0.80893532799E+02 0.  0.
        -11    1    5    5    0    0  0.11684975904E+02 -0.16243067019E+02 -0.17212225393E+02  0.26393874119E+02  0.00000000000E+00 0.  1.
         12    1    5    5    0    0 -0.70180047444E+02  0.45409188277E+02 -0.98459891382E+02  0.12915720518E+03  0.00000000000E+00 0. -1.
        -13    1    3    3    0    0 -0.31476842132E+02  0.86625705466E+00 -0.29344608024E+03  0.29513072358E+03  0.00000000000E+00 0.  1.
         14    1    3    3    0    0  0.40180661087E+02 -0.88445683030E-02 -0.12209835132E+03  0.12853984985E+03  0.00000000000E+00 0. -1.
          5    1    4    4  501    0  0.38417408275E+02  0.46975956521E+02  0.25068072048E+03  0.25796424437E+03  0.47000000000E+01 0.  1.
         -5    1    4    4    0  501  0.11606913163E+03 -0.78838661395E+02  0.58464894112E+03  0.60126870216E+03  0.47000000000E+01 0.  1.
          1    1    1    2  502    0 -0.38990697139E+02  0.42401611030E+02  0.35806753400E+04  0.35811386544E+04  0.00000000000E+00 0. -1.
          1    1    1    2  503    0 -0.65704590181E+02 -0.40562439901E+02 -0.22363600508E+04  0.22376927138E+04  0.00000000000E+00 0. -1.
<mgrwt>
<rscale>  0 0.66696573E+02</rscale>
<asrwt>0</asrwt>
<pdfrwt beam="1">  1        2 0.65483194E+00 0.57603568E+02</pdfrwt>
<pdfrwt beam="2">  1        2 0.41241600E+00 0.77224954E+02</pdfrwt>
<totfact> 0.23605644E-01</totfact>
</mgrwt>
</event>
<event>
13    1  0.2038932E-008  0.2425954E+03  0.7546771E-02  0.1143189E+00
          2   -1    0    0  503    0  0.00000000000E+00  0.00000000000E+00  0.87312481878E+03  0.87312481878E+03  0.00000000000E+00 0. -1.
          2   -1    0    0  502    0 -0.00000000000E+00 -0.00000000000E+00 -0.28404683516E+04  0.28404683516E+04  0.00000000000E+00 0. -1.
         24    2    1    2    0    0 -0.36291227870E+02  0.19149498894E+03 -0.60107898479E+03  0.63711773991E+03  0.81459711147E+02 0.  0.
         25    2    1    2    0    0 -0.19846559086E+03  0.10351795169E+03 -0.16898666794E+03  0.30706297911E+03  0.12500648832E+03 0.  0.
         24    2    1    2    0    0  0.97854323589E+02  0.94469212310E+02  0.13652005008E+03  0.21043724493E+03  0.84535254536E+02 0.  0.
        -11    1    5    5    0    0 -0.63578504233E+01 -0.75662836711E+01 -0.10588635925E+01  0.99394216483E+01  0.00000000000E+00 0.  1.
         12    1    5    5    0    0  0.10421217401E+03  0.10203549598E+03  0.13757891367E+03  0.20049782328E+03  0.00000000000E+00 0. -1.
        -11    1    3    3    0    0 -0.14223559803E+02  0.18452434203E+03 -0.49310823660E+03  0.52669467005E+03  0.00000000000E+00 0.  1.
         12    1    3    3    0    0 -0.22067668067E+02  0.69706469064E+01 -0.10797074819E+03  0.11042306986E+03  0.00000000000E+00 0. -1.
          5    1    4    4  501    0 -0.13196507706E+03  0.64407252302E+02 -0.32898463199E+02  0.15055721368E+03  0.47000000000E+01 0.  1.
         -5    1    4    4    0  501 -0.66500513807E+02  0.39110699384E+02 -0.13608820474E+03  0.15650576543E+03  0.47000000000E+01 0.  1.
          1    1    1    2  502    0  0.27355639906E+02 -0.26588116314E+03 -0.19258544076E+04  0.19443138438E+04  0.00000000000E+00 0. -1.
          1    1    1    2  503    0  0.10954685524E+03 -0.12360098979E+03  0.59205647745E+03  0.61466136259E+03  0.00000000000E+00 0. -1.
<mgrwt>
<rscale>  0 0.20796306E+03</rscale>
<asrwt>0</asrwt>
<pdfrwt beam="1">  1        2 0.12840071E+00 0.17827477E+03</pdfrwt>
<pdfrwt beam="2">  1        2 0.41771593E+00 0.24259537E+03</pdfrwt>
<totfact> 0.16523914E+01</totfact>
</mgrwt>
</event>
<event>
13    1  0.2038932E-008  0.1099354E+03  0.7546771E-02  0.1321242E+00
          2   -1    0    0  503    0  0.00000000000E+00  0.00000000000E+00  0.24860047689E+04  0.24860047689E+04  0.00000000000E+00 0. -1.
          2   -1    0    0  502    0 -0.00000000000E+00 -0.00000000000E+00 -0.13896064812E+04  0.13896064812E+04  0.00000000000E+00 0. -1.
         24    2    1    2    0    0  0.52917894605E+03 -0.27860066379E+03 -0.48927074711E+03  0.77686348752E+03  0.80512902435E+02 0.  0.
         25    2    1    2    0    0 -0.11819031663E+03  0.32556211925E+03  0.50182460369E+03  0.62242825503E+03  0.12501742020E+03 0.  0.
         24    2    1    2    0    0 -0.32738105219E+03 -0.68268143855E+02  0.58317588941E+02  0.34914288049E+03  0.81614441253E+02 0.  0.
        -11    1    5    5    0    0 -0.23156834551E+03 -0.27104310777E+02  0.71893151503E+02  0.24398190002E+03  0.00000000000E+00 0.  1.
         12    1    5    5    0    0 -0.95812706679E+02 -0.41163833078E+02 -0.13575562562E+02  0.10516098047E+03  0.00000000000E+00 0. -1.
        -13    1    3    3    0    0  0.29744732851E+03 -0.19574445617E+03 -0.31376498888E+03  0.47459379853E+03  0.00000000000E+00 0.  1.
         14    1    3    3    0    0  0.23173161754E+03 -0.82856207617E+02 -0.17550575823E+03  0.30226968899E+03  0.00000000000E+00 0. -1.
          5    1    4    4  501    0  0.18704723672E+00  0.13109944934E+03  0.25399262076E+03  0.28586962414E+03  0.47000000000E+01 0. -1.
         -5    1    4    4    0  501 -0.11837736387E+03  0.19446266990E+03  0.24783198294E+03  0.33655863089E+03  0.47000000000E+01 0. -1.
          1    1    1    2  502    0 -0.11049636315E+02 -0.61401674841E+02 -0.54713015268E+03  0.55067564329E+03  0.00000000000E+00 0. -1.
          1    1    1    2  503    0 -0.72557940917E+02  0.82708363233E+02  0.15726569949E+04  0.15765009838E+04  0.00000000000E+00 0. -1.
<mgrwt>
<rscale>  0 0.82816956E+02</rscale>
<asrwt>0</asrwt>
<pdfrwt beam="1">  1        2 0.36558894E+00 0.10993541E+03</pdfrwt>
<pdfrwt beam="2">  1        2 0.20435389E+00 0.62387981E+02</pdfrwt>
<totfact> 0.15377052E+01</totfact>
</mgrwt>
</event>
<event>
13    1  0.2038932E-008  0.6498650E+02  0.7546771E-02  0.1387412E+00
         -3   -1    0    0    0  501 -0.00000000000E+00  0.00000000000E+00  0.22613771840E+03  0.22613771840E+03  0.00000000000E+00 0.  1.
          2   -1    0    0  503    0  0.00000000000E+00 -0.00000000000E+00 -0.32400361099E+04  0.32400361099E+04  0.00000000000E+00 0. -1.
         24    2    1    2    0    0  0.63378102538E+02  0.85547105861E+02 -0.42500343882E+02  0.13988342221E+03  0.80162343885E+02 0.  0.
         25    2    1    2    0    0 -0.13594190583E+03  0.12619534122E+01 -0.30486775205E+03  0.35644172906E+03  0.12499826274E+03 0.  0.
         24    2    1    2    0    0  0.60669892174E+02 -0.90536958244E+02 -0.89885399242E+02  0.16271642004E+03  0.80743245716E+02 0.  0.
        -13    1    5    5    0    0  0.98590557534E+01  0.40796586853E+01  0.11030053427E+02  0.15346226701E+02  0.00000000000E+00 0.  1.
         14    1    5    5    0    0  0.50810836420E+02 -0.94616616930E+02 -0.10091545267E+03  0.14737019334E+03  0.00000000000E+00 0. -1.
        -13    1    3    3    0    0  0.11202380028E+02  0.79079398941E+02 -0.17961509810E+02  0.81863670146E+02  0.00000000000E+00 0.  1.
         14    1    3    3    0    0  0.52175722510E+02  0.64677069207E+01 -0.24538834072E+02  0.58019752066E+02  0.00000000000E+00 0. -1.
          5    1    4    4  502    0 -0.54671416789E+02 -0.54208682798E+02 -0.80958257937E+02  0.11182072542E+03  0.47000000000E+01 0. -1.
         -5    1    4    4    0  502 -0.81270489038E+02  0.55470636210E+02 -0.22390949411E+03  0.24462100364E+03  0.47000000000E+01 0. -1.
          1    1    1    2  503    0  0.46971630560E+02 -0.45214313934E+02 -0.26836000558E+04  0.26843919102E+04  0.00000000000E+00 0. -1.
         -4    1    1    2    0  501 -0.35077719446E+02  0.48942212905E+02  0.10695515942E+03  0.12274034680E+03  0.00000000000E+00 0.  1.
<mgrwt>
<rscale>  0 0.62555016E+02</rscale>
<asrwt>0</asrwt>
<pdfrwt beam="2">  1        2 0.47647584E+00 0.64986502E+02</pdfrwt>
<pdfrwt beam="1">  1       -3 0.33255551E-01 0.60214505E+02</pdfrwt>
<totfact> 0.11612948E+01</totfact>
</mgrwt>
</event>
<event>
13    1  0.2038932E-008  0.1396555E+03  0.7546771E-02  0.1257755E+00
         -1   -1    0    0    0  501 -0.00000000000E+00  0.00000000000E+00  0.74725584518E+03  0.74725584518E+03  0.00000000000E+00 0.  1.
          2   -1    0    0  503    0  0.00000000000E+00 -0.00000000000E+00 -0.26812009240E+04  0.26812009240E+04  0.00000000000E+00 0. -1.
         24    2    1    2    0    0 -0.14325095434E+03  0.10516578961E+03 -0.32301297427E+02  0.19654037847E+03  0.77485916976E+02 0.  0.
         25    2    1    2    0    0  0.13809068412E+03  0.37533920277E+02 -0.12444964131E+04  0.12589176858E+04  0.12499834097E+03 0.  0.
         24    2    1    2    0    0  0.34166731040E+02 -0.28610210107E+02 -0.41554153479E+02  0.10006589103E+03  0.79375847993E+02 0.  0.
        -13    1    5    5    0    0  0.49060255938E+01 -0.51326015470E+02 -0.35330875552E+02  0.62503597644E+02  0.00000000000E+00 0.  1.
         14    1    5    5    0    0  0.29260705446E+02  0.22715805363E+02 -0.62232779269E+01  0.37562293389E+02  0.00000000000E+00 0. -1.
        -13    1    3    3    0    0 -0.60909533544E+02  0.80962764458E+02 -0.42976595813E+02  0.11005420616E+03  0.00000000000E+00 0.  1.
         14    1    3    3    0    0 -0.82341420799E+02  0.24203025148E+02  0.10675298386E+02  0.86486172312E+02  0.00000000000E+00 0. -1.
          5    1    4    4  502    0  0.64755444657E+02 -0.44438015309E+02 -0.59086963141E+03  0.59608473906E+03  0.47000000000E+01 0.  1.
         -5    1    4    4    0  502  0.73335239464E+02  0.81971935586E+02 -0.65362678167E+03  0.66283294674E+03  0.47000000000E+01 0.  1.
          1    1    1    2  503    0 -0.88200805986E+02  0.12451672546E+02 -0.12348778401E+04  0.12380863081E+04  0.00000000000E+00 0. -1.
         -2    1    1    2    0  501  0.59194345168E+02 -0.12654117232E+03  0.61928462528E+03  0.63484650578E+03  0.00000000000E+00 0.  1.
<mgrwt>
<rscale>  0 0.11153418E+03</rscale>
<asrwt>0</asrwt>
<pdfrwt beam="2">  1        2 0.39429426E+00 0.89075397E+02</pdfrwt>
<pdfrwt beam="1">  1       -1 0.10989056E+00 0.13965555E+03</pdfrwt>
<totfact> 0.41726709E+00</totfact>
</mgrwt>
</event>
<event>
13    1  0.2038932E-008  0.1038535E+03  0.7546771E-02  0.1353909E+00
          2   -1    0    0  502    0  0.00000000000E+00  0.00000000000E+00  0.66148587483E+03  0.66148587483E+03  0.00000000000E+00 0. -1.
          2   -1    0    0  503    0 -0.00000000000E+00 -0.00000000000E+00 -0.18249415797E+04  0.18249415797E+04  0.00000000000E+00 0. -1.
         24    2    1    2    0    0  0.23811698533E+03  0.11956839678E+03 -0.74802667431E+03  0.79818387149E+03  0.80977077101E+02 0.  0.
         25    2    1    2    0    0 -0.63806365884E+01  0.36632913440E+02 -0.46873405637E+03  0.48653857419E+03  0.12500194282E+03 0.  0.
         24    2    1    2    0    0 -0.25225654634E+03 -0.97528210107E+02  0.13400838730E+03  0.31234063863E+03  0.80332494906E+02 0.  0.
        -11    1    5    5    0    0 -0.11950699931E+03 -0.39249703812E+02  0.10640869091E+03  0.16475822175E+03  0.00000000000E+00 0.  1.
         12    1    5    5    0    0 -0.13274954703E+03 -0.58278506294E+02  0.27599696393E+02  0.14758241689E+03  0.00000000000E+00 0. -1.
        -13    1    3    3    0    0  0.60894186103E+01  0.20994863551E+02 -0.11013504832E+03  0.11228354369E+03  0.00000000000E+00 0.  1.
         14    1    3    3    0    0  0.23202756672E+03  0.98573533233E+02 -0.63789162599E+03  0.68590032780E+03  0.00000000000E+00 0. -1.
          5    1    4    4  501    0  0.88446619213E+01  0.81707482987E+02 -0.28066221273E+03  0.29248539873E+03  0.47000000000E+01 0.  1.
         -5    1    4    4    0  501 -0.15225298510E+02 -0.45074569547E+02 -0.18807184364E+03  0.19405317546E+03  0.47000000000E+01 0.  1.
          1    1    1    2  502    0  0.64641789985E+02 -0.81572297438E+02  0.39631961782E+03  0.40975827043E+03  0.00000000000E+00 0. -1.
          1    1    1    2  503    0 -0.44121592384E+02  0.22899197321E+02 -0.47702297933E+03  0.47960609980E+03  0.00000000000E+00 0. -1.
<mgrwt>
<rscale>  0 0.71850984E+02</rscale>
<asrwt>0</asrwt>
<pdfrwt beam="1">  1        2 0.97277337E-01 0.10385354E+03</pdfrwt>
<pdfrwt beam="2">  1        2 0.26837376E+00 0.49710041E+02</pdfrwt>
<totfact> 0.90151807E+01</totfact>
</mgrwt>
</event>
<event>
13    1  0.2038932E-008  0.4462851E+02  0.7546771E-02  0.1499277E+00
          2   -1    0    0  503    0  0.00000000000E+00  0.00000000000E+00  0.13196021820E+04  0.13196021820E+04  0.00000000000E+00 0. -1.
          2   -1    0    0  502    0 -0.00000000000E+00 -0.00000000000E+00 -0.36371672111E+04  0.36371672111E+04  0.00000000000E+00 0. -1.
         24    2    1    2    0    0 -0.28636985884E+03 -0.46694706108E+03 -0.16365639128E+04  0.17276852541E+04  0.80669961663E+02 0.  0.
         25    2    1    2    0    0  0.37327289723E+03 -0.55385352153E+02 -0.39120607064E+03  0.55772666543E+03  0.12496659787E+03 0.  0.
         24    2    1    2    0    0 -0.11706178078E+02  0.53866986452E+03  0.33905570588E+03  0.64241883475E+03  0.86260825501E+02 0.  0.
        -11    1    3    3    0    0 -0.24283309676E+03 -0.42882361514E+03 -0.14020379096E+04  0.14861251313E+04  0.00000000000E+00 0.  1.
         12    1    3    3    0    0 -0.43536762085E+02 -0.38123445949E+02 -0.23452600318E+03  0.24156012285E+03  0.00000000000E+00 0. -1.
        -13    1    5    5    0    0  0.35239915712E+02  0.15522740596E+03  0.10639375448E+03  0.19146025753E+03  0.00000000000E+00 0.  1.
         14    1    5    5    0    0 -0.46946093791E+02  0.38344245855E+03  0.23266195139E+03  0.45095857722E+03  0.00000000000E+00 0. -1.
          5    1    4    4  501    0  0.29565402723E+03 -0.33748845427E+02 -0.22545097232E+03  0.37336378950E+03  0.47000000000E+01 0.  1.
         -5    1    4    4    0  501  0.77618870000E+02 -0.21636506726E+02 -0.16575509832E+03  0.18436287593E+03  0.47000000000E+01 0.  1.
          1    1    1    2  502    0 -0.30965582648E+02 -0.22214089076E+02 -0.13279100434E+04  0.13284567801E+04  0.00000000000E+00 0. -1.
          1    1    1    2  503    0 -0.44231277664E+02  0.58766377963E+01  0.69905929186E+03  0.70048185867E+03  0.00000000000E+00 0. -1.
<mgrwt>
<rscale>  0 0.41240391E+02</rscale>
<asrwt>0</asrwt>
<pdfrwt beam="1">  1        2 0.19405915E+00 0.44628515E+02</pdfrwt>
<pdfrwt beam="2">  1        2 0.53487752E+00 0.38109488E+02</pdfrwt>
<totfact> 0.49642736E+00</totfact>
</mgrwt>
</event>
<event>
13    1  0.2038932E-008  0.1300779E+03  0.7546771E-02  0.1423152E+00
          2   -1    0    0  503    0  0.00000000000E+00  0.00000000000E+00  0.32569201890E+04  0.32569201890E+04  0.00000000000E+00 0. -1.
          2   -1    0    0  502    0 -0.00000000000E+00 -0.00000000000E+00 -0.21762762031E+04  0.21762762031E+04  0.00000000000E+00 0. -1.
         24    2    1    2    0    0  0.10737574622E+03  0.43926025084E+02 -0.12463785313E+03  0.18827515589E+03  0.80336127231E+02 0.  0.
         25    2    1    2    0    0 -0.13755242129E+03  0.17862726749E+03  0.13300182014E+04  0.13547697823E+04  0.12499751051E+03 0.  0.
         24    2    1    2    0    0  0.11857501341E+03 -0.59939661351E+02  0.49303805110E+03  0.51657387285E+03  0.78161687992E+02 0.  0.
        -11    1    3    3    0    0 -0.85290944880E+01 -0.77313784674E+01 -0.22902622833E+02  0.25632982629E+02  0.00000000000E+00 0.  1.
         12    1    3    3    0    0  0.11590484071E+03  0.51657403551E+02 -0.10173523029E+03  0.16264217326E+03  0.00000000000E+00 0. -1.
        -13    1    5    5    0    0  0.67348876115E+01  0.15652227465E+02  0.33002165095E+02  0.37141537888E+02  0.00000000000E+00 0.  1.
         14    1    5    5    0    0  0.11184012580E+03 -0.75591888816E+02  0.46003588601E+03  0.47943233496E+03  0.00000000000E+00 0. -1.
          5    1    4    4  501    0 -0.15805703321E+03  0.13883601043E+03  0.10178982237E+04  0.10394211598E+04  0.47000000000E+01 0. -1.
         -5    1    4    4    0  501  0.20504611923E+02  0.39791257055E+02  0.31211997766E+03  0.31534862248E+03  0.47000000000E+01 0. -1.
          1    1    1    2  502    0 -0.11111228228E+03 -0.16297333792E+03 -0.19907079870E+04  0.20004560824E+04  0.00000000000E+00 0. -1.
          1    1    1    2  503    0  0.22713943936E+02  0.35970670573E+00  0.13729335735E+04  0.13731214986E+04  0.00000000000E+00 0. -1.
<mgrwt>
<rscale>  0 0.54359486E+02</rscale>
<asrwt>0</asrwt>
<pdfrwt beam="1">  1        2 0.47895885E+00 0.22716792E+02</pdfrwt>
<pdfrwt beam="2">  1        2 0.32004062E+00 0.13007795E+03</pdfrwt>
<totfact> 0.31470601E+00</totfact>
</mgrwt>
</event>
<event>
13    1  0.2038932E-008  0.6953857E+02  0.7546771E-02  0.1517887E+00
         -3   -1    0    0    0  501 -0.00000000000E+00  0.00000000000E+00  0.41828827207E+03  0.41828827207E+03  0.00000000000E+00 0.  1.
          2   -1    0    0  503    0  0.00000000000E+00 -0.00000000000E+00 -0.25493312402E+04  0.25493312402E+04  0.00000000000E+00 0. -1.
         24    2    1    2    0    0 -0.74977160126E+02 -0.22935443789E+02  0.25688024599E+03  0.28036099270E+03  0.80419004768E+02 0.  0.
         25    2    1    2    0    0  0.10411926794E+03 -0.34974074943E+02 -0.26640887178E+03  0.31410591884E+03  0.12499933366E+03 0.  0.
         24    2    1    2    0    0  0.43067459242E+02  0.25050630881E+02 -0.28312569190E+03  0.29858222403E+03  0.80677425216E+02 0.  0.
        -13    1    3    3    0    0 -0.76404413852E+01 -0.36683071180E+02  0.13848247473E+03  0.14346225936E+03  0.00000000000E+00 0.  1.
         14    1    3    3    0    0 -0.67336718741E+02  0.13747627391E+02  0.11839777126E+03  0.13689873334E+03  0.00000000000E+00 0. -1.
        -13    1    5    5    0    0 -0.27460661271E+01 -0.25136037251E+01  0.46075569693E+01  0.59235685264E+01  0.00000000000E+00 0.  1.
         14    1    5    5    0    0  0.45813525369E+02  0.27564234606E+02 -0.28773324887E+03  0.29265865550E+03  0.00000000000E+00 0. -1.
          5    1    4    4  502    0  0.27681918113E+02  0.44410427390E+02 -0.57671699224E+02  0.78017238754E+02  0.47000000000E+01 0. -1.
         -5    1    4    4    0  502  0.76437349828E+02 -0.79384502334E+02 -0.20873717255E+03  0.23608868009E+03  0.47000000000E+01 0. -1.
          1    1    1    2  503    0 -0.53788270023E+02  0.44049827157E+02 -0.19548728669E+04  0.19561087626E+04  0.00000000000E+00 0. -1.
         -4    1    1    2    0  501 -0.18421297034E+02 -0.11190939306E+02  0.11648421652E+03  0.11846161406E+03  0.00000000000E+00 0.  1.
<mgrwt>
<rscale>  0 0.38714915E+02</rscale>
<asrwt>0</asrwt>
<pdfrwt beam="2">  1        2 0.37490164E+00 0.69538571E+02</pdfrwt>
<pdfrwt beam="1">  1       -3 0.61512984E-01 0.21554148E+02</pdfrwt>
<totfact> 0.73784520E+00</totfact>
</mgrwt>
</event>
<event>
13    1  0.2038932E-008  0.2019444E+03  0.7546771E-02  0.1246050E+00
          2   -1    0    0  503    0  0.00000000000E+00  0.00000000000E+00  0.98427511142E+03  0.98427511142E+03  0.00000000000E+00 0. -1.
         -1   -1    0    0    0  501 -0.00000000000E+00 -0.00000000000E+00 -0.63043608715E+03  0.63043608715E+03  0.00000000000E+00 0.  1.
         24    2    1    2    0    0  0.76738918572E+02  0.13936571800E+02 -0.11252158239E+03  0.15826974921E+03  0.79404769093E+02 0.  0.
         25    2    1    2    0    0 -0.26711747147E+03 -0.17680260108E+03  0.11506603923E+03  0.36259655423E+03  0.12500065777E+03 0.  0.
         24    2    1    2    0    0 -0.60068270561E+02 -0.50449543303E+02  0.12762763525E+02  0.11480610334E+03  0.82850465802E+02 0.  0.
        -11    1    5    5    0    0 -0.10548205133E+02  0.11657356763E+02  0.29685117601E+02  0.33591141767E+02  0.00000000000E+00 0.  1.
         12    1    5    5    0    0 -0.49520065428E+02 -0.62106900066E+02 -0.16922354076E+02  0.81214961573E+02  0.00000000000E+00 0. -1.
        -13    1    3    3    0    0  0.19223170265E+02  0.42757414652E+02 -0.44309500724E+02  0.64506268201E+02  0.00000000000E+00 0.  1.
         14    1    3    3    0    0  0.57515748307E+02 -0.28820842852E+02 -0.68212081670E+02  0.93763481013E+02  0.00000000000E+00 0. -1.
          5    1    4    4  502    0 -0.12649857452E+03 -0.15714867010E+03  0.67586028744E+02  0.21280872902E+03  0.47000000000E+01 0.  1.
         -5    1    4    4    0  502 -0.14061889696E+03 -0.19653930985E+02  0.47480010489E+02  0.14978782521E+03  0.47000000000E+01 0.  1.
          1    1    1    2  503    0 -0.68251150116E+02  0.11516603497E+02  0.54475369126E+03  0.54913334973E+03  0.00000000000E+00 0. -1.
         -2    1    1    2    0  501  0.31869797358E+03  0.20179896909E+03 -0.20622188735E+03  0.42990544206E+03  0.00000000000E+00 0.  1.
<mgrwt>
<rscale>  0 0.11822766E+03</rscale>
<asrwt>0</asrwt>
<pdfrwt beam="1">  1        2 0.14474634E+00 0.69215978E+02</pdfrwt>
<pdfrwt beam="2">  1       -1 0.92711189E-01 0.20194441E+03</pdfrwt>
<totfact> 0.42437113E+01</totfact>
</mgrwt>
</event>
<event>
13    1  0.2038932E-008  0.9230019E+02  0.7546771E-02  0.1485832E+00
          2   -1    0    0  503    0  0.00000000000E+00  0.00000000000E+00  0.19190906761E+04  0.19190906761E+04  0.00000000000E+00 0. -1.
          2   -1    0    0  502    0 -0.00000000000E+00 -0.00000000000E+00 -0.16100674896E+03  0.16100674896E+03  0.00000000000E+00 0. -1.
         24    2    1    2    0    0 -0.13938782916E+01 -0.10094700732E+03  0.33082233956E+02  0.13679482801E+03  0.86175109996E+02 0.  0.
         25    2    1    2    0    0 -0.44149626446E+02  0.15107534474E+03  0.76041631876E+03  0.78653144362E+03  0.12500313866E+03 0.  0.
         24    2    1    2    0    0  0.30427287388E+02  0.46083105874E+02  0.14784657274E+03  0.17740831238E+03  0.81028561424E+02 0.  0.
        -11    1    5    5    0    0  0.29981174702E+02 -0.42000195523E+01  0.12020862914E+02  0.32573181392E+02  0.00000000000E+00 0.  1.
         12    1    5    5    0    0  0.44611268615E+00  0.50283125427E+02  0.13582570983E+03  0.14483513099E+03  0.00000000000E+00 0. -1.
        -13    1    3    3    0    0  0.28610586424E+02 -0.18729652820E+01  0.21402563803E+01  0.28751597379E+02  0.00000000000E+00 0.  1.
         14    1    3    3    0    0 -0.30004464715E+02 -0.99074042038E+02  0.30941977576E+02  0.10804323063E+03  0.00000000000E+00 0. -1.
          5    1    4    4  501    0 -0.98588162402E+01  0.14755899685E+03  0.71014834444E+03  0.72539893501E+03  0.47000000000E+01 0. -1.
         -5    1    4    4    0  501 -0.34290810206E+02  0.35163478888E+01  0.50267974316E+02  0.61132508610E+02  0.47000000000E+01 0. -1.
          1    1    1    2  502    0  0.32709051656E+02 -0.86225897867E+02 -0.55008273014E+02  0.10738108597E+03  0.00000000000E+00 0. -1.
          1    1    1    2  503    0 -0.17592834306E+02 -0.99855454240E+01  0.87174707471E+03  0.87198175508E+03  0.00000000000E+00 0. -1.
<mgrwt>
<rscale>  0 0.43210593E+02</rscale>
<asrwt>0</asrwt>
<pdfrwt beam="1">  1        2 0.28221920E+00 0.20229161E+02</pdfrwt>
<pdfrwt beam="2">  1        2 0.23677464E-01 0.92300189E+02</pdfrwt>
<totfact> 0.40997621E+02</totfact>
</mgrwt>
</event>
<event>
13    1  0.2038932E-008  0.6906173E+02  0.7546771E-02  0.1469750E+00
          2   -1    0    0  503    0  0.00000000000E+00  0.00000000000E+00  0.36480344630E+03  0.36480344630E+03  0.00000000000E+00 0. -1.
          2   -1    0    0  502    0 -0.00000000000E+00 -0.00000000000E+00 -0.14955288263E+04  0.14955288263E+04  0.00000000000E+00 0. -1.
         24    2    1    2    0    0  0.27830820441E+02  0.10376386624E+02 -0.11434932786E+03  0.14025640529E+03  0.75590121558E+02 0.  0.
         25    2    1    2    0    0  0.12002783980E+03 -0.11304915660E+03 -0.12625926998E+03  0.24238962309E+03  0.12499812794E+03 0.  0.
         24    2    1    2    0    0 -0.72250395490E+02  0.42807291809E+02  0.18098264007E+03  0.21554166076E+03  0.81553097013E+02 0.  0.
        -13    1    5    5    0    0  0.13070628301E+02 -0.94169949826E+01  0.35508835486E+02  0.38992287907E+02  0.00000000000E+00 0.  1.
         14    1    5    5    0    0 -0.85321023791E+02  0.52224286791E+02  0.14547380459E+03  0.17654937285E+03  0.00000000000E+00 0. -1.
        -13    1    3    3    0    0  0.53083961386E+02  0.14253625481E+02 -0.86285015543E+02  0.10230433375E+03  0.00000000000E+00 0.  1.
         14    1    3    3    0    0 -0.25253140945E+02 -0.38772388575E+01 -0.28064312320E+02  0.37952071548E+02  0.00000000000E+00 0. -1.
          5    1    4    4  501    0  0.35086065820E+01 -0.85097989949E+02 -0.37404123272E+02  0.93140413630E+02  0.47000000000E+01 0.  1.
         -5    1    4    4    0  501  0.11651923322E+03 -0.27951166653E+02 -0.88855146710E+02  0.14924920946E+03  0.47000000000E+01 0.  1.
          1    1    1    2  502    0 -0.46721105573E+02  0.50724205349E+02 -0.11631721171E+04  0.11652146501E+04  0.00000000000E+00 0. -1.
          1    1    1    2  503    0 -0.28887159181E+02  0.91412728197E+01  0.92072694913E+02  0.96929933369E+02  0.00000000000E+00 0. -1.
<mgrwt>
<rscale>  0 0.45743884E+02</rscale>
<asrwt>0</asrwt>
<pdfrwt beam="1">  1        2 0.53647566E-01 0.30299024E+02</pdfrwt>
<pdfrwt beam="2">  1        2 0.21993071E+00 0.69061727E+02</pdfrwt>
<totfact> 0.23746721E+02</totfact>
</mgrwt>
</event>
<event>
13    1  0.2038932E-008  0.9348662E+02  0.7546771E-02  0.1387897E+00
          2   -1    0    0  502    0  0.00000000000E+00  0.00000000000E+00  0.11776819713E+04  0.11776819713E+04  0.00000000000E+00 0. -1.
          2   -1    0    0  503    0 -0.00000000000E+00 -0.00000000000E+00 -0.20382050881E+04  0.20382050881E+04  0.00000000000E+00 0. -1.
         24    2    1    2    0    0 -0.36178559085E+03  0.52677795262E+03 -0.76833803381E+03  0.10047292684E+04  0.10370025816E+03 0.  0.
         25    2    1    2    0    0  0.37326213113E+03  0.13747205343E+03 -0.87440434944E+02  0.42602341799E+03  0.12500775575E+03 0.  0.
         24    2    1    2    0    0  0.11801727866E+03 -0.68300143961E+03  0.53408639539E+03  0.87884848046E+03  0.81898286273E+02 0.  0.
        -11    1    3    3    0    0 -0.74521272024E+02  0.73752726879E+02 -0.18193046815E+03  0.20997995130E+03  0.00000000000E+00 0.  1.
         12    1    3    3    0    0 -0.28726431883E+03  0.45302522574E+03 -0.58640756566E+03  0.79474931714E+03  0.00000000000E+00 0. -1.
        -13    1    5    5    0    0  0.12447208016E+03 -0.59350643449E+03  0.44303249659E+03  0.75101330185E+03  0.00000000000E+00 0.  1.
         14    1    5    5    0    0 -0.64548015007E+01 -0.89495005123E+02  0.91053898795E+02  0.12783517861E+03  0.00000000000E+00 0. -1.
          5    1    4    4  501    0  0.14020731449E+02 -0.19431478455E+02 -0.32105829259E+00  0.24420408345E+02  0.47000000000E+01 0.  1.
         -5    1    4    4    0  501  0.35924139969E+03  0.15690353188E+03 -0.87119376651E+02  0.40160300964E+03  0.47000000000E+01 0.  1.
          1    1    1    2  502    0 -0.40552387168E+02 -0.96901991590E+01  0.17829538394E+03  0.18310554333E+03  0.00000000000E+00 0. -1.
          1    1    1    2  503    0 -0.88941431771E+02  0.28441632720E+02 -0.71712642728E+03  0.72318034919E+03  0.00000000000E+00 0. -1.
<mgrwt>
<rscale>  0 0.62432671E+02</rscale>
<asrwt>0</asrwt>
<pdfrwt beam="1">  1        2 0.17318853E+00 0.41694077E+02</pdfrwt>
<pdfrwt beam="2">  1        2 0.29973604E+00 0.93486622E+02</pdfrwt>
<totfact> 0.34018919E+01</totfact>
</mgrwt>
</event>
<event>
13    1  0.2038932E-008  0.1491037E+03  0.7546771E-02  0.1346188E+00
          2   -1    0    0  503    0  0.00000000000E+00  0.00000000000E+00  0.39901534215E+04  0.39901534215E+04  0.00000000000E+00 0. -1.
          2   -1    0    0  502    0 -0.00000000000E+00 -0.00000000000E+00 -0.24877477089E+04  0.24877477089E+04  0.00000000000E+00 0. -1.
         24    2    1    2    0    0  0.55718936371E+03 -0.48963398342E+02 -0.47043910690E+03  0.73892057332E+03  0.10878078399E+03 0.  0.
         25    2    1    2    0    0 -0.96924506668E+03 -0.94714701728E+02 -0.41754557147E+03  0.10669491467E+04  0.12501721259E+03 0.  0.
         24    2    1    2    0    0  0.50299475191E+03  0.27846512074E+02 -0.11360320318E+03  0.52272056389E+03  0.80944125541E+02 0.  0.
        -11    1    3    3    0    0  0.41182617160E+03 -0.50858217106E+02 -0.28550281724E+03  0.50368562866E+03  0.00000000000E+00 0.  1.
         12    1    3    3    0    0  0.14536319211E+03  0.18948187635E+01 -0.18493628965E+03  0.23523494466E+03  0.00000000000E+00 0. -1.
        -13    1    5    5    0    0  0.38411552161E+03  0.46504925489E+02 -0.62290965577E+02  0.39190254711E+03  0.00000000000E+00 0.  1.
         14    1    5    5    0    0  0.11887923030E+03 -0.18658413415E+02 -0.51312237602E+02  0.13081801678E+03  0.00000000000E+00 0. -1.
          5    1    4    4  501    0 -0.69323524681E+03 -0.17580564064E+02 -0.32414860320E+03  0.76549238442E+03  0.47000000000E+01 0.  1.
         -5    1    4    4    0  501 -0.27600981987E+03 -0.77134137664E+02 -0.93396968267E+02  0.30145676230E+03  0.47000000000E+01 0.  1.
          1    1    1    2  502    0 -0.30725908101E+02 -0.20580282981E+02 -0.82057107275E+03  0.82140399007E+03  0.00000000000E+00 0. -1.
          1    1    1    2  503    0 -0.60213140847E+02  0.13641187098E+03  0.33245646669E+04  0.33279068565E+04  0.00000000000E+00 0. -1.
<mgrwt>
<rscale>  0 0.74256807E+02</rscale>
<asrwt>0</asrwt>
<pdfrwt beam="1">  1        2 0.58678727E+00 0.14910366E+03</pdfrwt>
<pdfrwt beam="2">  1        2 0.36584525E+00 0.36981475E+02</pdfrwt>
<totfact> 0.65511207E-01</totfact>
</mgrwt>
</event>
<event>
13    1  0.2038932E-008  0.1178887E+03  0.7546771E-02  0.1271079E+00
          2   -1    0    0  503    0  0.00000000000E+00  0.00000000000E+00  0.20154141921E+04  0.20154141921E+04  0.00000000000E+00 0. -1.
         -1   -1    0    0    0  501 -0.00000000000E+00 -0.00000000000E+00 -0.41856723840E+03  0.41856723840E+03  0.00000000000E+00 0.  1.
         24    2    1    2    0    0  0.17750700861E+03  0.56284491118E+02 -0.93755586142E+02  0.22299622364E+03  0.79123471722E+02 0.  0.
         25    2    1    2    0    0 -0.23589454363E+03  0.12933344552E+03  0.60426818209E+03  0.67315717970E+03  0.12500870713E+03 0.  0.
         24    2    1    2    0    0  0.25207095929E+02 -0.43118236329E+02  0.18137431350E+02  0.96499517353E+02  0.80551911486E+02 0.  0.
        -11    1    5    5    0    0  0.48522220173E+02 -0.96091379024E+01  0.24474661803E+02  0.55188318076E+02  0.00000000000E+00 0.  1.
         12    1    5    5    0    0 -0.23315124244E+02 -0.33509098426E+02 -0.63372304537E+01  0.41311199276E+02  0.00000000000E+00 0. -1.
        -13    1    3    3    0    0  0.11674169219E+03  0.73083214868E+02 -0.76867540858E+02  0.15772887443E+03  0.00000000000E+00 0.  1.
         14    1    3    3    0    0  0.60765316416E+02 -0.16798723751E+02 -0.16888045285E+02  0.65267349205E+02  0.00000000000E+00 0. -1.
          5    1    4    4  502    0 -0.19709336996E+03  0.15262470017E+03  0.53554889630E+03  0.59074089575E+03  0.47000000000E+01 0. -1.
         -5    1    4    4    0  502 -0.38801173665E+02 -0.23291254652E+02  0.68719285796E+02  0.82416283957E+02  0.47000000000E+01 0. -1.
          1    1    1    2  503    0 -0.63108993441E+02 -0.67843338281E+02  0.12329444715E+04  0.12364212605E+04  0.00000000000E+00 0. -1.
         -2    1    1    2    0  501  0.96289432528E+02 -0.74656362024E+02 -0.16474754509E+03  0.20490724931E+03  0.00000000000E+00 0.  1.
<mgrwt>
<rscale>  0 0.10451463E+03</rscale>
<asrwt>0</asrwt>
<pdfrwt beam="1">  1        2 0.29638444E+00 0.92657777E+02</pdfrwt>
<pdfrwt beam="2">  1       -1 0.61554007E-01 0.11788874E+03</pdfrwt>
<totfact> 0.29362456E+01</totfact>
</mgrwt>
</event>
<event>
13    1  0.2038932E-008  0.6490002E+02  0.7546771E-02  0.1517041E+00
          2   -1    0    0  502    0  0.00000000000E+00  0.00000000000E+00  0.20241226930E+04  0.20241226930E+04  0.00000000000E+00 0. -1.
          2   -1    0    0  503    0 -0.00000000000E+00 -0.00000000000E+00 -0.24387466514E+04  0.24387466514E+04  0.00000000000E+00 0. -1.
         24    2    1    2    0    0 -0.34456477859E+03  0.35099296580E+03 -0.13485257723E+04  0.14363609485E+04  0.51865857236E+02 0.  0.
         25    2    1    2    0    0  0.14671278612E+03  0.61435986858E+03  0.82253465228E+03  0.10445813453E+04  0.12499697200E+03 0.  0.
         24    2    1    2    0    0  0.15391356750E+03 -0.96679900912E+03  0.56800999111E+02  0.98376171056E+03  0.78555963404E+02 0.  0.
        -11    1    5    5    0    0  0.57043891788E+02 -0.24170250444E+03  0.43360643340E+02  0.25209968591E+03  0.00000000000E+00 0.  1.
         12    1    5    5    0    0  0.96869675707E+02 -0.72509650467E+03  0.13440355771E+02  0.73166202465E+03  0.00000000000E+00 0. -1.
        -13    1    3    3    0    0 -0.32636776905E+03  0.32990056721E+03 -0.12306315768E+04  0.13152202792E+04  0.00000000000E+00 0.  1.
         14    1    3    3    0    0 -0.18197009537E+02  0.21092398589E+02 -0.11789419550E+03  0.12114066934E+03  0.00000000000E+00 0. -1.
          5    1    4    4  501    0  0.62321860282E+02  0.15068108406E+03  0.13907977322E+03  0.21436901988E+03  0.47000000000E+01 0.  1.
         -5    1    4    4    0  501  0.84390925842E+02  0.46367878452E+03  0.68345487906E+03  0.83021232542E+03  0.47000000000E+01 0.  1.
          1    1    1    2  502    0  0.64147030638E+02 -0.10002066247E+02  0.52407571388E+03  0.52808165728E+03  0.00000000000E+00 0. -1.
          1    1    1    2  503    0 -0.20208605668E+02  0.11448240983E+02 -0.46950955143E+03  0.47008368282E+03  0.00000000000E+00 0. -1.
<mgrwt>
<rscale>  0 0.38824889E+02</rscale>
<asrwt>0</asrwt>
<pdfrwt beam="1">  1        2 0.29766510E+00 0.64900023E+02</pdfrwt>
<pdfrwt beam="2">  1        2 0.35863922E+00 0.23226062E+02</pdfrwt>
<totfact> 0.99985770E+00</totfact>
</mgrwt>
</event>
<event>
13    1  0.2038932E-008  0.4386544E+02  0.7546771E-02  0.1557859E+00
          2   -1    0    0  503    0  0.00000000000E+00  0.00000000000E+00  0.17697772180E+03  0.17697772180E+03  0.00000000000E+00 0. -1.
          2   -1    0    0  502    0 -0.00000000000E+00 -0.00000000000E+00 -0.97637042873E+03  0.97637042873E+03  0.00000000000E+00 0. -1.
         24    2    1    2    0    0 -0.23987322660E+02  0.17509269316E+02 -0.36620542387E+03  0.37633540633E+03  0.81485946197E+02 0.  0.
         25    2    1    2    0    0 -0.74120229940E+02 -0.43602162461E+02 -0.18819739586E+02  0.15288193837E+03  0.12499498959E+03 0.  0.
         24    2    1    2    0    0  0.57561580300E+02  0.54355148742E+02 -0.29063505922E+03  0.31201802855E+03  0.81355361056E+02 0.  0.
        -11    1    5    5    0    0  0.25513678599E+02  0.70254861514E+02 -0.16042415619E+03  0.17698192917E+03  0.00000000000E+00 0.  1.
         12    1    5    5    0    0  0.32047901701E+02 -0.15899712772E+02 -0.13021090303E+03  0.13503609939E+03  0.00000000000E+00 0. -1.
        -13    1    3    3    0    0 -0.36196026407E+02  0.12401830449E+02 -0.69508558125E+02  0.79343540247E+02  0.00000000000E+00 0.  1.
         14    1    3    3    0    0  0.12208703747E+02  0.51074388662E+01 -0.29669686574E+03  0.29699186608E+03  0.00000000000E+00 0. -1.
          5    1    4    4  501    0  0.52816453417E+01  0.33092366153E+02  0.15445404669E+02  0.37197459598E+02  0.47000000000E+01 0.  1.
         -5    1    4    4    0  501 -0.79401875281E+02 -0.76694528615E+02 -0.34265144255E+02  0.11568447877E+03  0.47000000000E+01 0.  1.
          1    1    1    2  502    0  0.17194651524E+02 -0.40407012906E+02 -0.21380771216E+03  0.21827075048E+03  0.00000000000E+00 0. -1.
          1    1    1    2  503    0  0.23351320776E+02  0.12144757310E+02  0.90075227902E+02  0.93842026799E+02  0.00000000000E+00 0. -1.
<mgrwt>
<rscale>  0 0.33978951E+02</rscale>
<asrwt>0</asrwt>
<pdfrwt beam="1">  1        2 0.26026136E-01 0.26320701E+02</pdfrwt>
<pdfrwt beam="2">  1        2 0.14358389E+00 0.43865438E+02</pdfrwt>
<totfact> 0.93270483E+02</totfact>
</mgrwt>
</event>
<event>
13    1  0.2038932E-008  0.1128757E+03  0.7546771E-02  0.1278430E+00
          2   -1    0    0  503    0  0.00000000000E+00  0.00000000000E+00  0.14434900981E+04  0.14434900981E+04  0.00000000000E+00 0. -1.
         -3   -1    0    0    0  501 -0.00000000000E+00 -0.00000000000E+00 -0.10801513762E+04  0.10801513762E+04  0.00000000000E+00 0.  1.
         24    2    1    2    0    0  0.33178752597E+01  0.10466395896E+02 -0.75171929051E+03  0.75614903006E+03  0.80987098970E+02 0.  0.
         25    2    1    2    0    0 -0.11189175079E+03  0.93424455780E+02  0.58665984386E+03  0.61728660782E+03  0.12500036386E+03 0.  0.
         24    2    1    2    0    0  0.57372117338E+02  0.43239092989E+01  0.34092404445E+02  0.10396847336E+03  0.79604619045E+02 0.  0.
        -13    1    3    3    0    0  0.26416100459E+02 -0.25259319430E+02 -0.25418928010E+03  0.25680349238E+03  0.00000000000E+00 0.  1.
         14    1    3    3    0    0 -0.23098225199E+02  0.35725715327E+02 -0.49753001041E+03  0.49934553768E+03  0.00000000000E+00 0. -1.
        -13    1    5    5    0    0  0.41787151209E+01 -0.28796699972E+02  0.29029152277E+02  0.41102351164E+02  0.00000000000E+00 0.  1.
         14    1    5    5    0    0  0.53193402217E+02  0.33120609271E+02  0.50632521683E+01  0.62866122199E+02  0.00000000000E+00 0. -1.
          5    1    4    4  502    0 -0.13288182875E+03  0.47556104626E+02  0.44224892701E+03  0.46424709686E+03  0.47000000000E+01 0.  1.
         -5    1    4    4    0  502  0.20990077964E+02  0.45868351154E+02  0.14441091684E+03  0.15303951096E+03  0.47000000000E+01 0.  1.
          1    1    1    2  503    0 -0.96153402923E+02 -0.54336269102E+02  0.74355793687E+03  0.75171557954E+03  0.00000000000E+00 0. -1.
         -4    1    1    2    0  501  0.14735516111E+03 -0.53878491873E+02 -0.24925217268E+03  0.29452178354E+03  0.00000000000E+00 0.  1.
<mgrwt>
<rscale>  0 0.10089245E+03</rscale>
<asrwt>0</asrwt>
<pdfrwt beam="1">  1        2 0.21227796E+00 0.90181410E+02</pdfrwt>
<pdfrwt beam="2">  1       -3 0.15884579E+00 0.11287567E+03</pdfrwt>
<totfact> 0.31811743E+00</totfact>
</mgrwt>
</event>
<event>
13    1  0.2038932E-008  0.2688249E+02  0.7546771E-02  0.1684249E+00
          2   -1    0    0  502    0  0.00000000000E+00  0.00000000000E+00  0.10090671113E+04  0.10090671113E+04  0.00000000000E+00 0. -1.
          2   -1    0    0  503    0 -0.00000000000E+00 -0.00000000000E+00 -0.23628204613E+04  0.23628204613E+04  0.00000000000E+00 0. -1.
         24    2    1    2    0    0  0.34459355399E+03 -0.32570896915E+02 -0.55840514975E+03  0.65943921901E+03  0.56905109746E+02 0.  0.
         25    2    1    2    0    0 -0.46084358560E+02 -0.19460547679E+03 -0.60600332751E+03  0.65027698254E+03  0.12500024550E+03 0.  0.
         24    2    1    2    0    0 -0.30169090537E+03  0.23280484933E+03 -0.34037887700E+03  0.51702575704E+03  0.79008564631E+02 0.  0.
        -13    1    3    3    0    0  0.78719353300E+02 -0.17588009144E+02 -0.91879862801E+02  0.12226194763E+03  0.00000000000E+00 0.  1.
         14    1    3    3    0    0  0.26587420069E+03 -0.14982887771E+02 -0.46652528695E+03  0.53717727138E+03  0.00000000000E+00 0. -1.
        -13    1    5    5    0    0 -0.30631022368E+02  0.22245030288E+02 -0.69222678300E+01  0.38484005713E+02  0.00000000000E+00 0.  1.
         14    1    5    5    0    0 -0.27105988300E+03  0.21055981904E+03 -0.33345660917E+03  0.47854175133E+03  0.00000000000E+00 0. -1.
          5    1    4    4  501    0 -0.32263421826E+02 -0.14151948163E+02 -0.23259085458E+03  0.23529088733E+03  0.47000000000E+01 0.  1.
         -5    1    4    4    0  501 -0.13820936734E+02 -0.18045352862E+03 -0.37341247292E+03  0.41498609521E+03  0.47000000000E+01 0.  1.
          1    1    1    2  502    0 -0.11363604647E+02  0.17018287837E+02  0.84770646295E+03  0.84795341910E+03  0.00000000000E+00 0. -1.
          1    1    1    2  503    0  0.14545314589E+02 -0.22646763464E+02 -0.69667245860E+03  0.69719219491E+03  0.00000000000E+00 0. -1.
<mgrwt>
<rscale>  0 0.23454402E+02</rscale>
<asrwt>0</asrwt>
<pdfrwt beam="1">  1        2 0.14839222E+00 0.20463471E+02</pdfrwt>
<pdfrwt beam="2">  1        2 0.34747359E+00 0.26882486E+02</pdfrwt>
<totfact> 0.35658913E+01</totfact>
</mgrwt>
</event>
<event>
13    1  0.2038932E-008  0.8693331E+02  0.7546771E-02  0.1377046E+00
          2   -1    0    0  502    0  0.00000000000E+00  0.00000000000E+00  0.63793833735E+03  0.63793833735E+03  0.00000000000E+00 0. -1.
          2   -1    0    0  503    0 -0.00000000000E+00 -0.00000000000E+00 -0.10885172094E+04  0.10885172094E+04  0.00000000000E+00 0. -1.
         24    2    1    2    0    0 -0.74656930634E+02 -0.92402050055E+02 -0.74351020984E+03  0.75707115699E+03  0.78977898555E+02 0.  0.
         25    2    1    2    0    0 -0.84180304585E+01  0.16745649174E+03  0.22228345477E+03  0.30520056022E+03  0.12499963133E+03 0.  0.
         24    2    1    2    0    0  0.41615423838E+02 -0.75470403711E+02 -0.13045082091E+03  0.17593117768E+03  0.80664349417E+02 0.  0.
        -11    1    3    3    0    0 -0.96089965665E+01 -0.27704500383E+00 -0.27540529709E+03  0.27557301616E+03  0.00000000000E+00 0.  1.
         12    1    3    3    0    0 -0.65047934068E+02 -0.92125005051E+02 -0.46810491275E+03  0.48149814083E+03  0.00000000000E+00 0. -1.
        -13    1    5    5    0    0  0.41890862485E+02 -0.89511366981E+02 -0.12793871222E+03  0.16166460115E+03  0.00000000000E+00 0.  1.
         14    1    5    5    0    0 -0.27543864727E+00  0.14040963270E+02 -0.25121086875E+01  0.14266576536E+02  0.00000000000E+00 0. -1.
          5    1    4    4  501    0 -0.23238189888E+01  0.94499358894E+01 -0.15926697322E+02  0.19247106551E+02  0.47000000000E+01 0. -1.
         -5    1    4    4    0  501 -0.60942114697E+01  0.15800655585E+03  0.23821015209E+03  0.28595345367E+03  0.47000000000E+01 0. -1.
          1    1    1    2  502    0  0.83782306297E+02 -0.24218645061E+02  0.33474378573E+03  0.34591822690E+03  0.00000000000E+00 0. -1.
          1    1    1    2  503    0 -0.42322769043E+02  0.24634607085E+02 -0.13364508183E+03  0.14233442501E+03  0.00000000000E+00 0. -1.
<mgrwt>
<rscale>  0 0.65246777E+02</rscale>
<asrwt>0</asrwt>
<pdfrwt beam="1">  1        2 0.93814462E-01 0.86933313E+02</pdfrwt>
<pdfrwt beam="2">  1        2 0.16007606E+00 0.48970202E+02</pdfrwt>
<totfact> 0.21544873E+02</totfact>
</mgrwt>
</event>
<event>
13    1  0.2038932E-008  0.1495233E+03  0.7546771E-02  0.1311130E+00
          2   -1    0    0  503    0  0.00000000000E+00  0.00000000000E+00  0.60962736285E+03  0.60962736285E+03  0.00000000000E+00 0. -1.
          2   -1    0    0  502    0 -0.00000000000E+00 -0.00000000000E+00 -0.42527445158E+04  0.42527445158E+04  0.00000000000E+00 0. -1.
         24    2    1    2    0    0 -0.14447343706E+03 -0.88566540215E+02 -0.22886187980E+04  0.22963249196E+04  0.81335895029E+02 0.  0.
         25    2    1    2    0    0 -0.49989999622E+01  0.24219080404E+03 -0.14134805524E+03  0.30706018925E+03  0.12500124615E+03 0.  0.
         24    2    1    2    0    0  0.36085294304E+02 -0.50103045138E+02 -0.32352259285E+03  0.33909230209E+03  0.80648978048E+02 0.  0.
        -11    1    5    5    0    0  0.42590913847E+02 -0.11414208509E+02 -0.71272087243E+02  0.83809191132E+02  0.00000000000E+00 0.  1.
         12    1    5    5    0    0 -0.65056195430E+01 -0.38688836629E+02 -0.25225050560E+03  0.25528311096E+03  0.00000000000E+00 0. -1.
        -13    1    3    3    0    0  0.31392802232E+01 -0.20612431892E+02 -0.46934690866E+03  0.46980979992E+03  0.00000000000E+00 0.  1.
         14    1    3    3    0    0 -0.14761271728E+03 -0.67954108323E+02 -0.18192718894E+04  0.18265151197E+04  0.00000000000E+00 0. -1.
          5    1    4    4  501    0  0.50394240556E+02  0.89373017728E+02 -0.89911422363E+02  0.13650373493E+03  0.47000000000E+01 0. -1.
         -5    1    4    4    0  501 -0.55393240518E+02  0.15281778631E+03 -0.51436632881E+02  0.17055645432E+03  0.47000000000E+01 0. -1.
          1    1    1    2  502    0 -0.23680902704E+02 -0.44301997794E+02 -0.13934791927E+04  0.13943843489E+04  0.00000000000E+00 0. -1.
          1    1    1    2  503    0  0.13706804542E+03 -0.59219220891E+02  0.50385148579E+03  0.52551011877E+03  0.00000000000E+00 0. -1.
<mgrwt>
<rscale>  0 0.86666880E+02</rscale>
<asrwt>0</asrwt>
<pdfrwt beam="1">  1        2 0.89651084E-01 0.14952327E+03</pdfrwt>
<pdfrwt beam="2">  1        2 0.62540360E+00 0.50233974E+02</pdfrwt>
<totfact> 0.47541176E+00</totfact>
</mgrwt>
</event>
<event>
13    1  0.2038932E-008  0.6943057E+02  0.7546771E-02  0.1446357E+00
          2   -1    0    0  502    0  0.00000000000E+00  0.00000000000E+00  0.21783365798E+04  0.21783365798E+04  0.00000000000E+00 0. -1.
          2   -1    0    0  503    0 -0.00000000000E+00 -0.00000000000E+00 -0.26792373678E+04  0.26792373678E+04  0.00000000000E+00 0. -1.
         24    2    1    2    0    0 -0.37636996241E+02 -0.15730832588E+02 -0.36117472672E+03  0.37229036039E+03  0.80553874135E+02 0.  0.
         25    2    1    2    0    0  0.19606634238E+02  0.66671872196E+02  0.29048451599E+03  0.32378283957E+03  0.12499805806E+03 0.  0.
         24    2    1    2    0    0  0.24135018669E+02 -0.15392975184E+02 -0.71757675725E+01  0.85108361289E+02  0.79827931890E+02 0.  0.
        -11    1    5    5    0    0 -0.19954543158E+02 -0.26514960742E+01  0.22705628928E+02  0.30344024273E+02  0.00000000000E+00 0.  1.
         12    1    5    5    0    0  0.44089561826E+02 -0.12741479109E+02 -0.29881396501E+02  0.54764337016E+02  0.00000000000E+00 0. -1.
        -11    1    3    3    0    0  0.25636915214E+02 -0.47053217389E+01 -0.10509828448E+03  0.10828222788E+03  0.00000000000E+00 0.  1.
         12    1    3    3    0    0 -0.63273911455E+02 -0.11025510849E+02 -0.25607644225E+03  0.26400813251E+03  0.00000000000E+00 0. -1.
          5    1    4    4  501    0  0.14621614300E+02  0.46136521842E+02  0.29717303183E+03  0.30112500909E+03  0.47000000000E+01 0. -1.
         -5    1    4    4    0  501  0.49850199383E+01  0.20535350353E+02 -0.66885158363E+01  0.22657830479E+02  0.47000000000E+01 0. -1.
          1    1    1    2  502    0  0.22474536633E+02  0.27785574481E+02  0.18259674011E+04  0.18263170844E+04  0.00000000000E+00 0. -1.
          1    1    1    2  503    0 -0.28579193299E+02 -0.63333638905E+02 -0.22490022108E+04  0.22500753020E+04  0.00000000000E+00 0. -1.
<mgrwt>
<rscale>  0 0.49812145E+02</rscale>
<asrwt>0</asrwt>
<pdfrwt beam="1">  1        2 0.32034362E+00 0.35737137E+02</pdfrwt>
<pdfrwt beam="2">  1        2 0.39400549E+00 0.69430572E+02</pdfrwt>
<totfact> 0.59265445E+00</totfact>
</mgrwt>
</event>
<event>
13    1  0.2038932E-008  0.1028271E+03  0.7546771E-02  0.1294130E+00
          2   -1    0    0  503    0  0.00000000000E+00  0.00000000000E+00  0.12836139820E+04  0.12836139820E+04  0.00000000000E+00 0. -1.
          2   -1    0    0  502    0 -0.00000000000E+00 -0.00000000000E+00 -0.19564827918E+04  0.19564827918E+04  0.00000000000E+00 0. -1.
         24    2    1    2    0    0  0.32390575452E+02  0.20430228325E+03 -0.94387210453E+03  0.96941522435E+03  0.77992020024E+02 0.  0.
         25    2    1    2    0    0 -0.38669057375E+02 -0.18513872194E+03  0.29486456255E+03  0.37194423089E+03  0.12500303311E+03 0.  0.
         24    2    1    2    0    0  0.33660184111E+02  0.16827486558E+02 -0.50004280431E+03  0.50798601259E+03  0.81183807211E+02 0.  0.
        -11    1    5    5    0    0  0.28145752936E+02  0.10484859864E+02 -0.53424256636E+02  0.61288391166E+02  0.00000000000E+00 0.  1.
         12    1    5    5    0    0  0.55144311750E+01  0.63426266942E+01 -0.44661854767E+03  0.44669762143E+03  0.00000000000E+00 0. -1.
        -13    1    3    3    0    0  0.24377543000E+02  0.42983478904E+02 -0.11854394374E+03  0.12843095678E+03  0.00000000000E+00 0.  1.
         14    1    3    3    0    0  0.80130324525E+01  0.16131880435E+03 -0.82532816078E+03  0.84098426757E+03  0.00000000000E+00 0. -1.
          5    1    4    4  501    0 -0.42105298679E+02 -0.17440545624E+03  0.30643251484E+03  0.35512405648E+03  0.47000000000E+01 0. -1.
         -5    1    4    4    0  501  0.34362413035E+01 -0.10733265702E+02 -0.11567952291E+02  0.16820174409E+02  0.47000000000E+01 0. -1.
          1    1    1    2  502    0 -0.83182424912E+02 -0.10061824141E+03 -0.44595456008E+03  0.46467065323E+03  0.00000000000E+00 0. -1.
          1    1    1    2  503    0  0.55800722724E+02  0.64627193547E+02  0.92213609655E+03  0.92608065273E+03  0.00000000000E+00 0. -1.
<mgrwt>
<rscale>  0 0.93700405E+02</rscale>
<asrwt>0</asrwt>
<pdfrwt beam="1">  1        2 0.18876676E+00 0.85383809E+02</pdfrwt>
<pdfrwt beam="2">  1        2 0.28771805E+00 0.10282706E+03</pdfrwt>
<totfact> 0.31080434E+01</totfact>
</mgrwt>
</event>
<event>
13    1  0.2038932E-008  0.1062174E+03  0.7546771E-02  0.1411979E+00
          2   -1    0    0  503    0  0.00000000000E+00  0.00000000000E+00  0.22307715181E+04  0.22307715181E+04  0.00000000000E+00 0. -1.
          2   -1    0    0  502    0 -0.00000000000E+00 -0.00000000000E+00 -0.22383799213E+04  0.22383799213E+04  0.00000000000E+00 0. -1.
         24    2    1    2    0    0  0.18079803428E+02 -0.66801799213E+02 -0.18827463619E+03  0.21559560854E+03  0.79023845244E+02 0.  0.
         25    2    1    2    0    0 -0.11006961045E+03 -0.11372301923E+03 -0.29289267826E+03  0.35561004720E+03  0.12499656172E+03 0.  0.
         24    2    1    2    0    0  0.70380817021E+02  0.77064666943E+02  0.13061073103E+03  0.18587032848E+03  0.81216954219E+02 0.  0.
        -11    1    5    5    0    0  0.79411632441E+02  0.31910295874E+02  0.76210279726E+02  0.11459703786E+03  0.00000000000E+00 0.  1.
         12    1    5    5    0    0 -0.90308154193E+01  0.45154371069E+02  0.54400451308E+02  0.71273290624E+02  0.00000000000E+00 0. -1.
        -13    1    3    3    0    0 -0.22428369186E+02  0.34253560789E+01 -0.56413860018E+02  0.60805332091E+02  0.00000000000E+00 0.  1.
         14    1    3    3    0    0  0.40508172614E+02 -0.70227155292E+02 -0.13186077618E+03  0.15479027645E+03  0.00000000000E+00 0. -1.
          5    1    4    4  501    0  0.24692032684E+02 -0.41567535302E+02 -0.76832608736E+02  0.90900474335E+02  0.47000000000E+01 0. -1.
         -5    1    4    4    0  501 -0.13476164314E+03 -0.72155483923E+02 -0.21606006953E+03  0.26470957286E+03  0.47000000000E+01 0. -1.
          1    1    1    2  502    0 -0.28737498581E+02  0.96842260407E+01 -0.16830300800E+04  0.16833032639E+04  0.00000000000E+00 0. -1.
          1    1    1    2  503    0  0.50346488585E+02  0.93775925454E+02  0.20259782603E+04  0.20287721913E+04  0.00000000000E+00 0. -1.
<mgrwt>
<rscale>  0 0.56754584E+02</rscale>
<asrwt>0</asrwt>
<pdfrwt beam="1">  1        2 0.32805464E+00 0.10621743E+03</pdfrwt>
<pdfrwt beam="2">  1        2 0.32917352E+00 0.30325370E+02</pdfrwt>
<totfact> 0.89444282E+00</totfact>
</mgrwt>
</event>
<event>
13    1  0.2038932E-008  0.1984941E+03  0.7546771E-02  0.1239412E+00
          2   -1    0    0  503    0  0.00000000000E+00  0.00000000000E+00  0.91004487703E+03  0.91004487703E+03  0.00000000000E+00 0. -1.
         -1   -1    0    0    0  501 -0.00000000000E+00 -0.00000000000E+00 -0.11251072203E+04  0.11251072203E+04  0.00000000000E+00 0.  1.
         24    2    1    2    0    0 -0.92170275160E+01 -0.33076211701E+02 -0.52412254077E+02  0.10067968902E+03  0.78805875586E+02 0.  0.
         25    2    1    2    0    0 -0.24069027052E+03  0.27098728667E+03 -0.14777597933E+03  0.41088766150E+03  0.12500005777E+03 0.  0.
         24    2    1    2    0    0  0.10977646444E+03 -0.87187352765E+01 -0.13547801305E+03  0.19218806717E+03  0.80343466773E+02 0.  0.
        -13    1    5    5    0    0  0.10202345973E+03 -0.30935379691E+02 -0.84484196075E+02  0.13602706877E+03  0.00000000000E+00 0.  1.
         14    1    5    5    0    0  0.77530047023E+01  0.22216644415E+02 -0.50993816979E+02  0.56160998398E+02  0.00000000000E+00 0. -1.
        -13    1    3    3    0    0 -0.31606208820E+02 -0.20550898935E+01  0.46164139505E+01  0.32007610161E+02  0.00000000000E+00 0.  1.
         14    1    3    3    0    0  0.22389181304E+02 -0.31021121808E+02 -0.57028668028E+02  0.68672078858E+02  0.00000000000E+00 0. -1.
          5    1    4    4  502    0 -0.95202301386E+02  0.13778914334E+03 -0.55053338023E+01  0.16763569104E+03  0.47000000000E+01 0.  1.
         -5    1    4    4    0  502 -0.14548796914E+03  0.13319814333E+03 -0.14227064553E+03  0.24325197045E+03  0.47000000000E+01 0.  1.
          1    1    1    2  503    0  0.67435882849E+02 -0.33517597133E+02  0.70594429070E+03  0.70994955398E+03  0.00000000000E+00 0. -1.
         -2    1    1    2    0  501  0.72694950751E+02 -0.19567474256E+03 -0.58534038753E+03  0.62144712568E+03  0.00000000000E+00 0.  1.
<mgrwt>
<rscale>  0 0.12226137E+03</rscale>
<asrwt>0</asrwt>
<pdfrwt beam="1">  1        2 0.13383013E+00 0.75306226E+02</pdfrwt>
<pdfrwt beam="2">  1       -1 0.16545694E+00 0.19849410E+03</pdfrwt>
<totfact> 0.11516260E+01</totfact>
</mgrwt>
</event>
<event>
13    1  0.2038932E-008  0.1029110E+03  0.7546771E-02  0.1364172E+00
          2   -1    0    0  502    0  0.00000000000E+00  0.00000000000E+00  0.76889426241E+03  0.76889426241E+03  0.00000000000E+00 0. -1.
          2   -1    0    0  503    0 -0.00000000000E+00 -0.00000000000E+00 -0.78812399258E+03  0.78812399258E+03  0.00000000000E+00 0. -1.
         24    2    1    2    0    0 -0.14888151951E+03 -0.58335466850E+02 -0.80953316212E+02  0.19622114395E+03  0.79878435031E+02 0.  0.
         25    2    1    2    0    0  0.24030175171E+03  0.83563836258E+02 -0.29288807285E+02  0.28497443034E+03  0.12499898043E+03 0.  0.
         24    2    1    2    0    0  0.36693305284E+02  0.35106192336E+02  0.10353318282E+03  0.13755648663E+03  0.74992157428E+02 0.  0.
        -11    1    5    5    0    0  0.42677046305E+02 -0.49870829213E+01  0.79666889221E+02  0.90515272278E+02  0.00000000000E+00 0.  1.
         12    1    5    5    0    0 -0.59837410209E+01  0.40093275258E+02  0.23866293601E+02  0.47041214352E+02  0.00000000000E+00 0. -1.
        -13    1    3    3    0    0 -0.11613619247E+03 -0.72574253941E+01 -0.65823777962E+02  0.13369014612E+03  0.00000000000E+00 0.  1.
         14    1    3    3    0    0 -0.32745327044E+02 -0.51078041456E+02 -0.15129538251E+02  0.62530997832E+02  0.00000000000E+00 0. -1.
          5    1    4    4  501    0  0.30036210473E+02 -0.23244676218E+01  0.37357582589E+02  0.48220909015E+02  0.47000000000E+01 0.  1.
         -5    1    4    4    0  501  0.21026554124E+03  0.85888303879E+02 -0.66646389873E+02  0.23675352132E+03  0.47000000000E+01 0.  1.
          1    1    1    2  502    0 -0.27687940449E+02 -0.36752340133E+02  0.45610530426E+03  0.45842055487E+03  0.00000000000E+00 0. -1.
          1    1    1    2  503    0 -0.10042559704E+03 -0.23582221611E+02 -0.46862609376E+03  0.47984563921E+03  0.00000000000E+00 0. -1.
<mgrwt>
<rscale>  0 0.68814411E+02</rscale>
<asrwt>0</asrwt>
<pdfrwt beam="1">  1        2 0.11307269E+00 0.46014743E+02</pdfrwt>
<pdfrwt beam="2">  1        2 0.11590059E+00 0.10291100E+03</pdfrwt>
<totfact> 0.25809985E+02</totfact>
</mgrwt>
</event>
<event>
13    1  0.2038932E-008  0.1712515E+03  0.7546771E-02  0.1272820E+00
          2   -1    0    0  503    0  0.00000000000E+00  0.00000000000E+00  0.35522214782E+04  0.35522214782E+04  0.00000000000E+00 0. -1.
         -1   -1    0    0    0  501 -0.00000000000E+00 -0.00000000000E+00 -0.75984362388E+03  0.75984362388E+03  0.00000000000E+00 0.  1.
         24    2    1    2    0    0 -0.13900286409E+03 -0.46040592006E+01 -0.23797861545E+03  0.28746304270E+03  0.81597707834E+02 0.  0.
         25    2    1    2    0    0 -0.53339039863E+02  0.10087540616E+03  0.14293424119E+04  0.14393285915E+04  0.12500465174E+03 0.  0.
         24    2    1    2    0    0  0.20575651286E+02 -0.52581203683E+02  0.76833418264E+03  0.77452717393E+03  0.79792145807E+02 0.  0.
        -11    1    3    3    0    0 -0.13085367336E+03  0.21623631803E+02 -0.18301261705E+03  0.22601744022E+03  0.00000000000E+00 0.  1.
         12    1    3    3    0    0 -0.81491907324E+01 -0.26227691004E+02 -0.54965998392E+02  0.61445602481E+02  0.00000000000E+00 0. -1.
        -13    1    5    5    0    0 -0.10058157145E+02 -0.42056927659E+02  0.66097531871E+03  0.66238834805E+03  0.00000000000E+00 0.  1.
         14    1    5    5    0    0  0.30633808431E+02 -0.10524276024E+02  0.10735886393E+03  0.11213882588E+03  0.00000000000E+00 0. -1.
          5    1    4    4  502    0  0.17902185056E+02  0.77086800124E+02  0.10236594978E+04  0.10267247540E+04  0.47000000000E+01 0.  1.
         -5    1    4    4    0  502 -0.71241224919E+02  0.23788606037E+02  0.40568291405E+03  0.41260383743E+03  0.47000000000E+01 0.  1.
          1    1    1    2  503    0 -0.24933513658E+02 -0.57555257582E+02  0.13010492773E+04  0.13025603670E+04  0.00000000000E+00 0. -1.
         -2    1    1    2    0  501  0.19669976633E+03  0.13865114304E+02 -0.46836940213E+03  0.50818592692E+03  0.00000000000E+00 0.  1.
<mgrwt>
<rscale>  0 0.10364150E+03</rscale>
<asrwt>0</asrwt>
<pdfrwt beam="1">  1        2 0.52238550E+00 0.62723901E+02</pdfrwt>
<pdfrwt beam="2">  1       -1 0.11174171E+00 0.17125148E+03</pdfrwt>
<totfact> 0.14273294E+00</totfact>
</mgrwt>
</event>
<event>
13    1  0.2038932E-008  0.3062391E+03  0.7546771E-02  0.1213378E+00
          2   -1    0    0  503    0  0.00000000000E+00  0.00000000000E+00  0.12067070759E+04  0.12067070759E+04  0.00000000000E+00 0. -1.
          2   -1    0    0  502    0 -0.00000000000E+00 -0.00000000000E+00 -0.60915402302E+03  0.60915402302E+03  0.00000000000E+00 0. -1.
         24    2    1    2    0    0  0.37346430460E+02  0.36757510437E+02  0.30840239364E+02  0.10122649434E+03  0.80930910970E+02 0.  0.
         25    2    1    2    0    0  0.54655126388E+02 -0.73958563286E+02 -0.33468356199E+03  0.36890996245E+03  0.12499768721E+03 0.  0.
         24    2    1    2    0    0 -0.33445777986E+03  0.12010041685E+02  0.42153981223E+03  0.54422500193E+03  0.80490942489E+02 0.  0.
        -11    1    5    5    0    0 -0.37083370123E+02  0.27289321337E+02  0.65847441596E+02  0.80347799991E+02  0.00000000000E+00 0.  1.
         12    1    5    5    0    0 -0.29737440973E+03 -0.15279279652E+02  0.35569237064E+03  0.46387720194E+03  0.00000000000E+00 0. -1.
        -11    1    3    3    0    0  0.54302634899E+02  0.15198203836E+02  0.43304545289E+02  0.71098841056E+02  0.00000000000E+00 0.  1.
         12    1    3    3    0    0 -0.16956204439E+02  0.21559306600E+02 -0.12464305925E+02  0.30127653282E+02  0.00000000000E+00 0. -1.
          5    1    4    4  501    0 -0.33490340184E+02 -0.36508723588E+02 -0.59891533146E+02  0.77868963819E+02  0.47000000000E+01 0.  1.
         -5    1    4    4    0  501  0.88145466572E+02 -0.37449839698E+02 -0.27479202884E+03  0.29104099863E+03  0.47000000000E+01 0.  1.
          1    1    1    2  502    0  0.29793754298E+03 -0.66499092004E+01 -0.18944653500E+02  0.29861329626E+03  0.00000000000E+00 0. -1.
          1    1    1    2  503    0 -0.55481319967E+02  0.31840920366E+02  0.49880121675E+03  0.50288634393E+03  0.00000000000E+00 0. -1.
<mgrwt>
<rscale>  0 0.13996349E+03</rscale>
<asrwt>0</asrwt>
<pdfrwt beam="1">  1        2 0.17745692E+00 0.63968907E+02</pdfrwt>
<pdfrwt beam="2">  1        2 0.89581474E-01 0.30623907E+03</pdfrwt>
<totfact> 0.18837889E+02</totfact>
</mgrwt>
</event>
<event>
13    1  0.2038932E-008  0.6671226E+02  0.7546771E-02  0.1421026E+00
          2   -1    0    0  503    0  0.00000000000E+00  0.00000000000E+00  0.39979356052E+04  0.39979356052E+04  0.00000000000E+00 0. -1.
          2   -1    0    0  502    0 -0.00000000000E+00 -0.00000000000E+00 -0.38092184229E+04  0.38092184229E+04  0.00000000000E+00 0. -1.
         24    2    1    2    0    0  0.87990553359E+03 -0.18735283649E+02 -0.17211522784E+03  0.89903979545E+03  0.63750633253E+02 0.  0.
         25    2    1    2    0    0 -0.34505256077E+03  0.10656512645E+03  0.39018230631E+03  0.54615612337E+03  0.12500753204E+03 0.  0.
         24    2    1    2    0    0 -0.56338797747E+03 -0.13064340594E+03  0.31618129746E+03  0.66396157196E+03  0.80004021772E+02 0.  0.
        -11    1    3    3    0    0  0.40229145695E+03 -0.33079919210E+02 -0.58247082316E+02  0.40783013620E+03  0.00000000000E+00 0.  1.
         12    1    3    3    0    0  0.47761407664E+03  0.14344635562E+02 -0.11386814553E+03  0.49120965925E+03  0.00000000000E+00 0. -1.
        -13    1    5    5    0    0 -0.25466032060E+03 -0.20195164725E+02  0.12493246815E+03  0.28437272226E+03  0.00000000000E+00 0.  1.
         14    1    5    5    0    0 -0.30872765687E+03 -0.11044824121E+03  0.19124882931E+03  0.37958884970E+03  0.00000000000E+00 0. -1.
          5    1    4    4  501    0 -0.15363741892E+03  0.71241246881E+02  0.26551418174E+03  0.31495974736E+03  0.47000000000E+01 0.  1.
         -5    1    4    4    0  501 -0.19141514185E+03  0.35323879569E+02  0.12466812457E+03  0.23119637601E+03  0.47000000000E+01 0.  1.
          1    1    1    2  502    0 -0.36225855732E+02  0.26733172492E+02 -0.30211801840E+04  0.30215156262E+04  0.00000000000E+00 0. -1.
          1    1    1    2  503    0  0.64760860380E+02  0.16080390642E+02  0.26756489904E+04  0.26764809112E+04  0.00000000000E+00 0. -1.
<mgrwt>
<rscale>  0 0.54804336E+02</rscale>
<asrwt>0</asrwt>
<pdfrwt beam="1">  1        2 0.58793171E+00 0.66712257E+02</pdfrwt>
<pdfrwt beam="2">  1        2 0.56017918E+00 0.45021941E+02</pdfrwt>
<totfact> 0.14600501E-01</totfact>
</mgrwt>
</event>
<event>
13    1  0.2038932E-008  0.1338687E+03  0.7546771E-02  0.1281878E+00
          2   -1    0    0  503    0  0.00000000000E+00  0.00000000000E+00  0.10448406433E+04  0.10448406433E+04  0.00000000000E+00 0. -1.
          2   -1    0    0  502    0 -0.00000000000E+00 -0.00000000000E+00 -0.17325747674E+04  0.17325747674E+04  0.00000000000E+00 0. -1.
         24    2    1    2    0    0 -0.51124676447E+02  0.24367469174E+03 -0.51006939027E+03  0.57319316828E+03  0.79928326245E+02 0.  0.
         25    2    1    2    0    0  0.24555360145E+03 -0.88864892015E+02 -0.13478082775E+03  0.31935063600E+03  0.12500166786E+03 0.  0.
         24    2    1    2    0    0 -0.14068845221E+03 -0.10423877941E+03 -0.34007812056E+03  0.39056334092E+03  0.78915343699E+02 0.  0.
        -11    1    5    5    0    0  0.39528246463E+01 -0.28349800780E+02 -0.46473604023E+02  0.54581424477E+02  0.00000000000E+00 0.  1.
         12    1    5    5    0    0 -0.14464127686E+03 -0.75888978629E+02 -0.29360451653E+03  0.33598191645E+03  0.00000000000E+00 0. -1.
        -13    1    3    3    0    0 -0.41317657904E+02  0.15913876857E+03 -0.41054858615E+03  0.44224703290E+03  0.00000000000E+00 0.  1.
         14    1    3    3    0    0 -0.98070185430E+01  0.84535923169E+02 -0.99520804114E+02  0.13094613538E+03  0.00000000000E+00 0. -1.
          5    1    4    4  501    0  0.13796308125E+03 -0.97349553023E+02 -0.35447298572E+02  0.17259591026E+03  0.47000000000E+01 0. -1.
         -5    1    4    4    0  501  0.10759052020E+03  0.84846610077E+01 -0.99333529173E+02  0.14675472574E+03  0.47000000000E+01 0. -1.
          1    1    1    2  502    0 -0.59044385439E+02 -0.12396583037E+03 -0.58913752066E+03  0.60492709048E+03  0.00000000000E+00 0. -1.
          1    1    1    2  503    0  0.53039126495E+01  0.73394810054E+02  0.88633173517E+03  0.88938117498E+03  0.00000000000E+00 0. -1.
<mgrwt>
<rscale>  0 0.99251657E+02</rscale>
<asrwt>0</asrwt>
<pdfrwt beam="1">  1        2 0.15365304E+00 0.73586205E+02</pdfrwt>
<pdfrwt beam="2">  1        2 0.25479041E+00 0.13386872E+03</pdfrwt>
<totfact> 0.52625928E+01</totfact>
</mgrwt>
</event>
<event>
13    1  0.2038932E-008  0.9668775E+02  0.7546771E-02  0.1413257E+00
          2   -1    0    0  503    0  0.00000000000E+00  0.00000000000E+00  0.23766627031E+04  0.23766627031E+04  0.00000000000E+00 0. -1.
          2   -1    0    0  502    0 -0.00000000000E+00 -0.00000000000E+00 -0.17110794667E+04  0.17110794667E+04  0.00000000000E+00 0. -1.
         24    2    1    2    0    0  0.22304481387E+02 -0.55877075316E+02 -0.18144644953E+03  0.20856985212E+03  0.83419612376E+02 0.  0.
         25    2    1    2    0    0 -0.11799527936E+03 -0.55856984232E+02  0.69936838140E+03  0.72234719841E+03  0.12500581390E+03 0.  0.
         24    2    1    2    0    0 -0.13548107527E+00  0.63583450992E+02 -0.11065167565E+03  0.15073990820E+03  0.80223768322E+02 0.  0.
        -11    1    5    5    0    0 -0.29497692895E+02 -0.27933646703E+01 -0.28385146760E+02  0.41032101200E+02  0.00000000000E+00 0.  1.
         12    1    5    5    0    0  0.29362211819E+02  0.66376815662E+02 -0.82266528890E+02  0.10970780700E+03  0.00000000000E+00 0. -1.
        -11    1    3    3    0    0  0.87747363102E+01  0.19509229494E+02 -0.71094000304E+02  0.74242594998E+02  0.00000000000E+00 0.  1.
         12    1    3    3    0    0  0.13529745076E+02 -0.75386304810E+02 -0.11035244923E+03  0.13432725712E+03  0.00000000000E+00 0. -1.
          5    1    4    4  501    0 -0.10816080718E+03  0.77420552125E+00  0.57700805434E+03  0.58707728995E+03  0.47000000000E+01 0. -1.
         -5    1    4    4    0  501 -0.98344721787E+01 -0.56631189753E+02  0.12236032706E+03  0.13526990846E+03  0.47000000000E+01 0. -1.
          1    1    1    2  502    0  0.95477886654E+02  0.15167623505E+02 -0.13720184234E+04  0.13754201677E+04  0.00000000000E+00 0. -1.
          1    1    1    2  503    0  0.34839239530E+00  0.32982985051E+02  0.16303314035E+04  0.16306650434E+04  0.00000000000E+00 0. -1.
<mgrwt>
<rscale>  0 0.56473256E+02</rscale>
<asrwt>0</asrwt>
<pdfrwt beam="1">  1        2 0.34950922E+00 0.32984825E+02</pdfrwt>
<pdfrwt beam="2">  1        2 0.25162933E+00 0.96687754E+02</pdfrwt>
<totfact> 0.13739110E+01</totfact>
</mgrwt>
</event>
<event>
13    1  0.2038932E-008  0.1390544E+03  0.7546771E-02  0.1237050E+00
          2   -1    0    0  503    0  0.00000000000E+00  0.00000000000E+00  0.20448759605E+04  0.20448759605E+04  0.00000000000E+00 0. -1.
          2   -1    0    0  502    0 -0.00000000000E+00 -0.00000000000E+00 -0.22097105747E+04  0.22097105747E+04  0.00000000000E+00 0. -1.
         24    2    1    2    0    0  0.73791598185E+02 -0.17085317824E+02 -0.20404794042E+04  0.20434790394E+04  0.80704879140E+02 0.  0.
         25    2    1    2    0    0  0.47891044048E+01  0.18749461566E+03  0.37436209111E+03  0.43697919228E+03  0.12500669102E+03 0.  0.
         24    2    1    2    0    0 -0.11428374224E+03  0.10562056771E+03  0.10512649800E+03  0.19492846759E+03  0.52240298912E+02 0.  0.
        -11    1    3    3    0    0  0.12889341128E+02 -0.14148670106E+02 -0.88426770586E+02  0.90474381660E+02  0.00000000000E+00 0.  1.
         12    1    3    3    0    0  0.60902257057E+02 -0.29366477180E+01 -0.19520526336E+04  0.19530046577E+04  0.00000000000E+00 0. -1.
        -13    1    5    5    0    0 -0.84912559449E+02  0.76275752837E+02  0.10236369065E+03  0.15331816066E+03  0.00000000000E+00 0.  1.
         14    1    5    5    0    0 -0.29371182795E+02  0.29344814870E+02  0.27628073481E+01  0.41610306932E+02  0.00000000000E+00 0. -1.
          5    1    4    4  501    0  0.39859840822E-01  0.20398816473E+03  0.31762492985E+03  0.37751670029E+03  0.47000000000E+01 0.  1.
         -5    1    4    4    0  501  0.47492445640E+01 -0.16493549070E+02  0.56737161267E+02  0.59462491988E+02  0.47000000000E+01 0. -1.
          1    1    1    2  502    0  0.26460616667E+02 -0.10688736273E+03 -0.51573815584E+02  0.12159330162E+03  0.00000000000E+00 0. -1.
          1    1    1    2  503    0  0.92424229867E+01 -0.16914250282E+03  0.14477300164E+04  0.14576065343E+04  0.00000000000E+00 0. -1.
<mgrwt>
<rscale>  0 0.12374095E+03</rscale>
<asrwt>0</asrwt>
<pdfrwt beam="1">  1        2 0.30071706E+00 0.13905439E+03</pdfrwt>
<pdfrwt beam="2">  1        2 0.32495743E+00 0.11011391E+03</pdfrwt>
<totfact> 0.94142043E+00</totfact>
</mgrwt>
</event>
<event>
13    1  0.2038932E-008  0.1206923E+03  0.7546771E-02  0.1352719E+00
          2   -1    0    0  503    0  0.00000000000E+00  0.00000000000E+00  0.10928960059E+04  0.10928960059E+04  0.00000000000E+00 0. -1.
          2   -1    0    0  502    0 -0.00000000000E+00 -0.00000000000E+00 -0.16160531071E+04  0.16160531071E+04  0.00000000000E+00 0. -1.
         24    2    1    2    0    0 -0.11854120038E+02  0.16330439301E+01 -0.10774793104E+03  0.13515180053E+03  0.80704433265E+02 0.  0.
         25    2    1    2    0    0 -0.32179483413E+02  0.51538423184E+01  0.34014136813E+03  0.36384408413E+03  0.12499714396E+03 0.  0.
         24    2    1    2    0    0 -0.86998209907E+02 -0.23650760014E+02 -0.15337406465E+03  0.19554477895E+03  0.81154851318E+02 0.  0.
        -11    1    3    3    0    0 -0.26307562280E+01 -0.37394602191E+02 -0.31350223763E+02  0.48868330045E+02  0.00000000000E+00 0.  1.
         12    1    3    3    0    0 -0.92233638100E+01  0.39027646121E+02 -0.76397707280E+02  0.86283470488E+02  0.00000000000E+00 0. -1.
        -11    1    5    5    0    0  0.14674615609E+02 -0.22447556013E+01 -0.35124076279E+02  0.38132453441E+02  0.00000000000E+00 0.  1.
         12    1    5    5    0    0 -0.10167282552E+03 -0.21406004412E+02 -0.11824998837E+03  0.15741232551E+03  0.00000000000E+00 0. -1.
          5    1    4    4  501    0 -0.36446887786E+02  0.14612499153E+02  0.34784909051E+03  0.35008996062E+03  0.47000000000E+01 0.  1.
         -5    1    4    4    0  501  0.42674043723E+01 -0.94586568348E+01 -0.77077223778E+01  0.13754123507E+02  0.47000000000E+01 0.  1.
          1    1    1    2  502    0  0.22729042950E+02 -0.36747938129E+02 -0.13027612163E+04  0.13034775821E+04  0.00000000000E+00 0. -1.
          1    1    1    2  503    0  0.10830277041E+03  0.53611811895E+02  0.70058474261E+03  0.71093086727E+03  0.00000000000E+00 0. -1.
<mgrwt>
<rscale>  0 0.72214927E+02</rscale>
<asrwt>0</asrwt>
<pdfrwt beam="1">  1        2 0.16072000E+00 0.12069226E+03</pdfrwt>
<pdfrwt beam="2">  1        2 0.23765487E+00 0.43209031E+02</pdfrwt>
<totfact> 0.60658780E+01</totfact>
</mgrwt>
</event>
<event>
13    1  0.2038932E-008  0.1240137E+03  0.7546771E-02  0.1347575E+00
          2   -1    0    0  503    0  0.00000000000E+00  0.00000000000E+00  0.33850450046E+04  0.33850450046E+04  0.00000000000E+00 0. -1.
         -1   -1    0    0    0  501 -0.00000000000E+00 -0.00000000000E+00 -0.52804244737E+03  0.52804244737E+03  0.00000000000E+00 0.  1.
         24    2    1    2    0    0  0.13006079502E+02  0.70280612895E+02 -0.21382142595E+03  0.23928310781E+03  0.80176560375E+02 0.  0.
         25    2    1    2    0    0 -0.18464121800E+03 -0.15866151084E+03  0.87385581245E+03  0.91571241931E+03  0.12505758478E+03 0.  0.
         24    2    1    2    0    0  0.31535721481E+02 -0.64788697558E+00  0.22213041714E+03  0.23801383677E+03  0.79459063581E+02 0.  0.
        -11    1    3    3    0    0  0.26628018698E+02  0.55739694580E+02 -0.21012667833E+03  0.21901868843E+03  0.00000000000E+00 0.  1.
         12    1    3    3    0    0 -0.13621939196E+02  0.14540918315E+02 -0.36947476145E+01  0.20264419381E+02  0.00000000000E+00 0. -1.
        -13    1    5    5    0    0  0.45557620526E+02  0.27209809072E+02  0.11956476400E+03  0.13081132706E+03  0.00000000000E+00 0.  1.
         14    1    5    5    0    0 -0.14021899045E+02 -0.27857696048E+02  0.10256565314E+03  0.10720250970E+03  0.00000000000E+00 0. -1.
          5    1    4    4  502    0 -0.40503554092E+01 -0.72323484207E+02  0.20144470561E+03  0.21412414896E+03  0.47000000000E+01 0.  1.
         -5    1    4    4    0  502 -0.18059086259E+03 -0.86338026636E+02  0.67241110684E+03  0.70158827035E+03  0.47000000000E+01 0.  1.
          1    1    1    2  503    0  0.13319903909E+03  0.45635976479E+02  0.22434661245E+04  0.22478800854E+04  0.00000000000E+00 0. -1.
         -2    1    1    2    0  501  0.69003779231E+01  0.43392808444E+02 -0.26862837090E+03  0.27219800274E+03  0.00000000000E+00 0.  1.
<mgrwt>
<rscale>  0 0.73816776E+02</rscale>
<asrwt>0</asrwt>
<pdfrwt beam="1">  1        2 0.49780073E+00 0.12401366E+03</pdfrwt>
<pdfrwt beam="2">  1       -1 0.77653303E-01 0.43938036E+02</pdfrwt>
<totfact> 0.35995903E+00</totfact>
</mgrwt>
</event>
<event>
13    1  0.2038932E-008  0.7599068E+02  0.7546771E-02  0.1452735E+00
          2   -1    0    0  502    0  0.00000000000E+00  0.00000000000E+00  0.17682967523E+04  0.17682967523E+04  0.00000000000E+00 0. -1.
          2   -1    0    0  503    0 -0.00000000000E+00 -0.00000000000E+00 -0.23889819103E+03  0.23889819103E+03  0.00000000000E+00 0. -1.
         24    2    1    2    0    0  0.14275486916E+03  0.59009211588E+01 -0.93974850604E+02  0.18947435738E+03  0.81581162160E+02 0.  0.
         25    2    1    2    0    0 -0.12031708243E+03 -0.40368018165E+02  0.11048281925E+04  0.11191032280E+04  0.12506367547E+03 0.  0.
         24    2    1    2    0    0 -0.46878057187E+02 -0.16472095399E+02  0.31328506750E+01  0.98810991574E+02  0.85351714277E+02 0.  0.
        -11    1    5    5    0    0 -0.69506745052E+02 -0.39793653190E+01 -0.91028187489E+01  0.70213134563E+02  0.00000000000E+00 0.  1.
         12    1    5    5    0    0  0.22628687865E+02 -0.12492730080E+02  0.12235669424E+02  0.28597857011E+02  0.00000000000E+00 0. -1.
        -13    1    3    3    0    0  0.26326097962E+02  0.21314050819E+02 -0.57074917586E+02  0.66369408719E+02  0.00000000000E+00 0.  1.
         14    1    3    3    0    0  0.11642877120E+03 -0.15413129660E+02 -0.36899933019E+02  0.12310494866E+03  0.00000000000E+00 0. -1.
          5    1    4    4  501    0  0.11055627219E+02 -0.28655013726E+02  0.45208359299E+03  0.45315008745E+03  0.47000000000E+01 0.  1.
         -5    1    4    4    0  501 -0.13137270965E+03 -0.11713004438E+02  0.65274459948E+03  0.66595314059E+03  0.47000000000E+01 0.  1.
          1    1    1    2  502    0 -0.31093827665E+02 -0.19103117790E+01  0.52193798755E+03  0.52286684562E+03  0.00000000000E+00 0. -1.
          1    1    1    2  503    0  0.55534098129E+02  0.52849504184E+02 -0.65256188074E+01  0.76939520718E+02  0.00000000000E+00 0. -1.
<mgrwt>
<rscale>  0 0.48654869E+02</rscale>
<asrwt>0</asrwt>
<pdfrwt beam="1">  1        2 0.26004363E+00 0.31152454E+02</pdfrwt>
<pdfrwt beam="2">  1        2 0.35132088E-01 0.75990683E+02</pdfrwt>
<totfact> 0.29726149E+02</totfact>
</mgrwt>
</event>
<event>
13    1  0.2038932E-008  0.9711756E+02  0.7546771E-02  0.1303244E+00
         -3   -1    0    0    0  501 -0.00000000000E+00  0.00000000000E+00  0.13292101148E+04  0.13292101148E+04  0.00000000000E+00 0.  1.
          2   -1    0    0  503    0  0.00000000000E+00 -0.00000000000E+00 -0.68615153055E+03  0.68615153055E+03  0.00000000000E+00 0. -1.
         24    2    1    2    0    0  0.12708550701E+02  0.15652348068E+02  0.47440418404E+03  0.48168040680E+03  0.80933189695E+02 0.  0.
         25    2    1    2    0    0 -0.10364296713E+03  0.62097032000E+02 -0.43831563357E+03  0.47153282114E+03  0.12499880306E+03 0.  0.
         24    2    1    2    0    0 -0.28056487107E+02  0.74582331965E+02  0.23603401100E+03  0.26370888579E+03  0.86490643358E+02 0.  0.
        -11    1    3    3    0    0 -0.29392059517E+02  0.64890849419E+00  0.89845361049E+02  0.94533079644E+02  0.00000000000E+00 0.  1.
         12    1    3    3    0    0  0.42100610219E+02  0.15003439574E+02  0.38455882300E+03  0.38714732716E+03  0.00000000000E+00 0. -1.
        -11    1    5    5    0    0  0.22824305105E+02  0.58150466425E+02  0.14896380149E+03  0.16153216337E+03  0.00000000000E+00 0.  1.
         12    1    5    5    0    0 -0.50880792212E+02  0.16431865540E+02  0.87070209504E+02  0.10217672242E+03  0.00000000000E+00 0. -1.
          5    1    4    4  502    0 -0.74524412076E+02 -0.22883339192E+02 -0.26492708082E+03  0.27619917335E+03  0.47000000000E+01 0. -1.
         -5    1    4    4    0  502 -0.29118555056E+02  0.84980371191E+02 -0.17338855275E+03  0.19533364779E+03  0.47000000000E+01 0. -1.
          1    1    1    2  503    0  0.68755612154E+02 -0.46680345599E+02 -0.19950733776E+03  0.21612396140E+03  0.00000000000E+00 0. -1.
         -4    1    1    2    0  501  0.50235291384E+02 -0.10565136643E+03  0.57044336058E+03  0.58231557025E+03  0.00000000000E+00 0.  1.
<mgrwt>
<rscale>  0 0.89838324E+02</rscale>
<asrwt>0</asrwt>
<pdfrwt beam="2">  1        2 0.10090464E+00 0.83104686E+02</pdfrwt>
<pdfrwt beam="1">  1       -3 0.19547208E+00 0.97117562E+02</pdfrwt>
<totfact> 0.50612277E+00</totfact>
</mgrwt>
</event>
<event>
13    1  0.2038932E-008  0.9395020E+02  0.7546771E-02  0.1321893E+00
          2   -1    0    0  502    0  0.00000000000E+00  0.00000000000E+00  0.17103930202E+04  0.17103930202E+04  0.00000000000E+00 0. -1.
          2   -1    0    0  503    0 -0.00000000000E+00 -0.00000000000E+00 -0.39827750534E+04  0.39827750534E+04  0.00000000000E+00 0. -1.
         24    2    1    2    0    0  0.64170472078E+03  0.10812428858E+04 -0.10053721350E+04  0.16124548400E+04  0.91467777077E+02 0.  0.
         25    2    1    2    0    0 -0.32405381862E+03 -0.69061396232E+03 -0.16837866517E+03  0.79116034455E+03  0.12499917438E+03 0.  0.
         24    2    1    2    0    0 -0.45581284710E+03 -0.30071403617E+03  0.58315780236E+03  0.80329127758E+03  0.83723181098E+02 0.  0.
        -11    1    5    5    0    0 -0.31138260888E+03 -0.15711125985E+03  0.37024281684E+03  0.50864803205E+03  0.00000000000E+00 0.  1.
         12    1    5    5    0    0 -0.14443023822E+03 -0.14360277632E+03  0.21291498551E+03  0.29464324553E+03  0.00000000000E+00 0. -1.
        -13    1    3    3    0    0  0.34768962736E+03  0.54519097409E+03 -0.56881202458E+03  0.86120171534E+03  0.00000000000E+00 0.  1.
         14    1    3    3    0    0  0.29401509342E+03  0.53605191172E+03 -0.43656011045E+03  0.75125312462E+03  0.00000000000E+00 0. -1.
          5    1    4    4  501    0 -0.24510591720E+03 -0.50011149786E+03 -0.17786214399E+03  0.58467551103E+03  0.47000000000E+01 0.  1.
         -5    1    4    4    0  501 -0.78947901428E+02 -0.19050246446E+03  0.94834788126E+01  0.20648483352E+03  0.47000000000E+01 0.  1.
          1    1    1    2  502    0  0.66348285827E+02 -0.29426498842E+02  0.39789419665E+03  0.40445989368E+03  0.00000000000E+00 0. -1.
          1    1    1    2  503    0  0.71813659117E+02 -0.60488388473E+02 -0.20796832320E+04  0.20818017178E+04  0.00000000000E+00 0. -1.
<mgrwt>
<rscale>  0 0.82577282E+02</rscale>
<asrwt>0</asrwt>
<pdfrwt beam="1">  1        2 0.25152839E+00 0.72581085E+02</pdfrwt>
<pdfrwt beam="2">  1        2 0.58570220E+00 0.93950202E+02</pdfrwt>
<totfact> 0.15561730E+00</totfact>
</mgrwt>
</event>
<event>
13    1  0.2038932E-008  0.1653451E+03  0.7546771E-02  0.1214520E+00
          2   -1    0    0  502    0  0.00000000000E+00  0.00000000000E+00  0.31585026552E+04  0.31585026552E+04  0.00000000000E+00 0. -1.
          2   -1    0    0  503    0 -0.00000000000E+00 -0.00000000000E+00 -0.19799415064E+04  0.19799415064E+04  0.00000000000E+00 0. -1.
         24    2    1    2    0    0  0.83311635432E+02 -0.70252081785E+02 -0.52238041872E+03  0.53955778379E+03  0.79781680820E+02 0.  0.
         25    2    1    2    0    0 -0.16535443094E+03  0.45548074968E+02  0.14825962633E+04  0.14977102005E+04  0.12500979836E+03 0.  0.
         24    2    1    2    0    0 -0.90567425270E+02  0.67637898314E+02 -0.46522065046E+02  0.14620413328E+03  0.80212232499E+02 0.  0.
        -13    1    3    3    0    0  0.49142024814E+02 -0.57803619176E+01 -0.10791105798E+03  0.11871456364E+03  0.00000000000E+00 0.  1.
         14    1    3    3    0    0  0.34169610619E+02 -0.64471719868E+02 -0.41446936074E+03  0.42084322015E+03  0.00000000000E+00 0. -1.
        -13    1    5    5    0    0 -0.17026367110E+02 -0.80228555218E+01  0.14998039172E+02  0.24066669206E+02  0.00000000000E+00 0.  1.
         14    1    5    5    0    0 -0.73541058160E+02  0.75660753836E+02 -0.61520104218E+02  0.12213746407E+03  0.00000000000E+00 0. -1.
          5    1    4    4  501    0 -0.22859513248E+02  0.36664573008E+02  0.11966161604E+03  0.12731001773E+03  0.47000000000E+01 0.  1.
         -5    1    4    4    0  501 -0.14249491769E+03  0.88835019598E+01  0.13629346472E+04  0.13704001827E+04  0.47000000000E+01 0.  1.
          1    1    1    2  502    0  0.47681405209E+02 -0.10689967008E+03  0.16041200860E+04  0.16083849993E+04  0.00000000000E+00 0. -1.
          1    1    1    2  503    0  0.12492881557E+03  0.63965778586E+02 -0.13392527167E+04  0.13465870447E+04  0.00000000000E+00 0. -1.
<mgrwt>
<rscale>  0 0.13911829E+03</rscale>
<asrwt>0</asrwt>
<pdfrwt beam="1">  1        2 0.46448569E+00 0.11705151E+03</pdfrwt>
<pdfrwt beam="2">  1        2 0.29116787E+00 0.16534515E+03</pdfrwt>
<totfact> 0.32138714E+00</totfact>
</mgrwt>
</event>
<event>
13    1  0.2038932E-008  0.7207729E+02  0.7546771E-02  0.1386418E+00
          2   -1    0    0  502    0  0.00000000000E+00  0.00000000000E+00  0.30414407694E+04  0.30414407694E+04  0.00000000000E+00 0. -1.
          2   -1    0    0  503    0 -0.00000000000E+00 -0.00000000000E+00 -0.16072372624E+04  0.16072372624E+04  0.00000000000E+00 0. -1.
         24    2    1    2    0    0  0.35755154814E+02 -0.53527779060E+02 -0.16472329918E+03  0.19446169882E+03  0.80857484419E+02 0.  0.
         25    2    1    2    0    0 -0.23453058803E+01 -0.55037099745E+02  0.21368037068E+04  0.21411653752E+04  0.12499799876E+03 0.  0.
         24    2    1    2    0    0  0.19592389396E+02 -0.41733696915E+02  0.22732009978E+03  0.24922384444E+03  0.91173097423E+02 0.  0.
        -11    1    3    3    0    0  0.22064288683E+02 -0.16079493042E+02 -0.14919458808E+03  0.15167204108E+03  0.00000000000E+00 0.  1.
         12    1    3    3    0    0  0.13690866131E+02 -0.37448286017E+02 -0.15528711099E+02  0.42789657739E+02  0.00000000000E+00 0. -1.
        -13    1    5    5    0    0  0.43010847234E+02  0.69339170880E+01  0.13930996170E+03  0.14596327489E+03  0.00000000000E+00 0.  1.
         14    1    5    5    0    0 -0.23418457839E+02 -0.48667614003E+02  0.88010138071E+02  0.10326056955E+03  0.00000000000E+00 0. -1.
          5    1    4    4  501    0 -0.80394962436E+01 -0.49551742165E+02  0.29078326599E+03  0.29512201957E+03  0.47000000000E+01 0.  1.
         -5    1    4    4    0  501  0.56941903633E+01 -0.54853575805E+01  0.18460204408E+04  0.18460433556E+04  0.47000000000E+01 0.  1.
          1    1    1    2  502    0  0.81509569914E+01  0.54117739496E+02  0.64585995112E+03  0.64817454770E+03  0.00000000000E+00 0. -1.
          1    1    1    2  503    0 -0.61153195321E+02  0.96180836224E+02 -0.14110569515E+04  0.14156525657E+04  0.00000000000E+00 0. -1.
<mgrwt>
<rscale>  0 0.62806491E+02</rscale>
<asrwt>0</asrwt>
<pdfrwt beam="1">  1        2 0.44727070E+00 0.54728126E+02</pdfrwt>
<pdfrwt beam="2">  1        2 0.23635842E+00 0.72077295E+02</pdfrwt>
<totfact> 0.68888429E+00</totfact>
</mgrwt>
</event>
<event>
13    1  0.2038932E-008  0.1121265E+03  0.7546771E-02  0.1283368E+00
         -1   -1    0    0    0  501 -0.00000000000E+00  0.00000000000E+00  0.17391795414E+03  0.17391795414E+03  0.00000000000E+00 0.  1.
          2   -1    0    0  503    0  0.00000000000E+00 -0.00000000000E+00 -0.11830986258E+04  0.11830986258E+04  0.00000000000E+00 0. -1.
         24    2    1    2    0    0  0.28435323936E+01 -0.94095547566E+02 -0.12301783852E+03  0.17422340484E+03  0.79739252895E+02 0.  0.
         25    2    1    2    0    0  0.18298780384E+03  0.38495000654E+02 -0.57930008492E+03  0.62143384155E+03  0.12500011847E+03 0.  0.
         24    2    1    2    0    0 -0.35240845011E+02  0.37624612448E+02 -0.86006291089E+02  0.12734791608E+03  0.78504019023E+02 0.  0.
        -11    1    3    3    0    0  0.95732108154E+01 -0.44165285501E+02 -0.11454102134E+03  0.12313352256E+03  0.00000000000E+00 0.  1.
         12    1    3    3    0    0 -0.67296784218E+01 -0.49930262065E+02 -0.84768171740E+01  0.51089882276E+02  0.00000000000E+00 0. -1.
        -11    1    5    5    0    0 -0.27638905719E+02  0.61433497323E+02 -0.51769897195E+02  0.84959437135E+02  0.00000000000E+00 0.  1.
         12    1    5    5    0    0 -0.76019392924E+01 -0.23808884875E+02 -0.34236393894E+02  0.42388478940E+02  0.00000000000E+00 0. -1.
          5    1    4    4  502    0  0.57545958058E+02  0.56327458448E+02 -0.35238257713E+03  0.36149673654E+03  0.47000000000E+01 0. -1.
         -5    1    4    4    0  502  0.12544184578E+03 -0.17832457795E+02 -0.22691750778E+03  0.25993710501E+03  0.47000000000E+01 0. -1.
          1    1    1    2  503    0 -0.73275840885E+02 -0.46197977182E+02 -0.29608213936E+03  0.30849349296E+03  0.00000000000E+00 0. -1.
         -2    1    1    2    0  501 -0.77314650334E+02  0.64173911646E+02  0.75225682262E+02  0.12551792447E+03  0.00000000000E+00 0.  1.
<mgrwt>
<rscale>  0 0.98553394E+02</rscale>
<asrwt>0</asrwt>
<pdfrwt beam="2">  1        2 0.17398509E+00 0.86623334E+02</pdfrwt>
<pdfrwt beam="1">  1       -1 0.25576170E-01 0.11212650E+03</pdfrwt>
<totfact> 0.35345246E+02</totfact>
</mgrwt>
</event>
<event>
13    1  0.2038932E-008  0.1485915E+03  0.7546771E-02  0.1297916E+00
          2   -1    0    0  503    0  0.00000000000E+00  0.00000000000E+00  0.24316992793E+04  0.24316992793E+04  0.00000000000E+00 0. -1.
          2   -1    0    0  502    0 -0.00000000000E+00 -0.00000000000E+00 -0.62374207498E+04  0.62374207498E+04  0.00000000000E+00 0. -1.
         24    2    1    2    0    0 -0.57335277029E+02  0.27502825008E+02 -0.11895333551E+04  0.11939166583E+04  0.80022775618E+02 0.  0.
         25    2    1    2    0    0  0.50428322106E+02 -0.10187104021E+03  0.89810222436E+02  0.19134596916E+03  0.12500671724E+03 0.  0.
         24    2    1    2    0    0  0.19430892351E+02 -0.18825862444E+02 -0.23682433919E+04  0.23698119861E+04  0.81854219653E+02 0.  0.
        -13    1    5    5    0    0 -0.19028267550E+02 -0.38019943821E+02 -0.10258982013E+04  0.10267788031E+04  0.00000000000E+00 0.  1.
         14    1    5    5    0    0  0.38459159901E+02  0.19194081378E+02 -0.13423451906E+04  0.13430331829E+04  0.00000000000E+00 0. -1.
        -13    1    3    3    0    0  0.79174874817E+01 -0.17685351944E+01 -0.60088239658E+03  0.60093715882E+03  0.00000000000E+00 0.  1.
         14    1    3    3    0    0 -0.65252764511E+02  0.29271360202E+02 -0.58865095850E+03  0.59297949943E+03  0.00000000000E+00 0. -1.
          5    1    4    4  501    0  0.47398915467E+02 -0.11895548543E+03  0.10665056608E+03  0.16671382051E+03  0.47000000000E+01 0.  1.
         -5    1    4    4    0  501  0.30294066389E+01  0.17084445219E+02 -0.16840343649E+02  0.24632148652E+02  0.47000000000E+01 0.  1.
          1    1    1    2  502    0  0.17907894261E+02 -0.54163974227E+02 -0.26231160410E+04  0.26237363041E+04  0.00000000000E+00 0. -1.
          1    1    1    2  503    0 -0.30431831689E+02  0.14735805187E+03  0.22853610950E+04  0.22903091116E+04  0.00000000000E+00 0. -1.
<mgrwt>
<rscale>  0 0.92069490E+02</rscale>
<asrwt>0</asrwt>
<pdfrwt beam="1">  1        2 0.35760284E+00 0.14859154E+03</pdfrwt>
<pdfrwt beam="2">  1        2 0.91726774E+00 0.57047601E+02</pdfrwt>
<totfact> 0.13031778E-03</totfact>
</mgrwt>
</event>
<event>
13    1  0.2038932E-008  0.1725240E+03  0.7546771E-02  0.1378884E+00
          2   -1    0    0  502    0  0.00000000000E+00  0.00000000000E+00  0.28491578701E+04  0.28491578701E+04  0.00000000000E+00 0. -1.
          2   -1    0    0  503    0 -0.00000000000E+00 -0.00000000000E+00 -0.12700639278E+04  0.12700639278E+04  0.00000000000E+00 0. -1.
         24    2    1    2    0    0 -0.53816071489E+02  0.10340690135E+03 -0.27669849905E+03  0.31091111911E+03  0.80712500937E+02 0.  0.
         25    2    1    2    0    0  0.12932674975E+03  0.13632277564E+03  0.51724697185E+03  0.56433688414E+03  0.12498952577E+03 0.  0.
         24    2    1    2    0    0  0.66017289079E+01  0.19967129264E+02  0.14217429067E+04  0.14241305561E+04  0.79703694289E+02 0.  0.
        -11    1    5    5    0    0 -0.20068746788E+02  0.42020647698E+02  0.68986723279E+03  0.69143711812E+03  0.00000000000E+00 0.  1.
         12    1    5    5    0    0  0.26670475696E+02 -0.22053518434E+02  0.73187567391E+03  0.73269343795E+03  0.00000000000E+00 0. -1.
        -13    1    3    3    0    0 -0.61925058414E+02  0.93576971345E+02 -0.17152688609E+03  0.20497032731E+03  0.00000000000E+00 0.  1.
         14    1    3    3    0    0  0.81089869253E+01  0.98299300046E+01 -0.10517161297E+03  0.10594079180E+03  0.00000000000E+00 0. -1.
          5    1    4    4  501    0  0.74110661742E+02  0.85412186087E+02  0.14183799921E+03  0.18146002242E+03  0.47000000000E+01 0. -1.
         -5    1    4    4    0  501  0.55216088011E+02  0.50910589552E+02  0.37540897263E+03  0.38287686172E+03  0.47000000000E+01 0. -1.
          1    1    1    2  502    0  0.19671116404E+02 -0.14279057649E+02  0.84959911712E+03  0.84994676546E+03  0.00000000000E+00 0. -1.
          1    1    1    2  503    0 -0.10178352358E+03 -0.24541774860E+03 -0.93279655424E+03  0.96989647314E+03  0.00000000000E+00 0. -1.
<mgrwt>
<rscale>  0 0.64757947E+02</rscale>
<asrwt>0</asrwt>
<pdfrwt beam="1">  1        2 0.41899381E+00 0.24307289E+02</pdfrwt>
<pdfrwt beam="2">  1        2 0.18677411E+00 0.17252404E+03</pdfrwt>
<totfact> 0.13766620E+01</totfact>
</mgrwt>
</event>
<event>
13    1  0.2038932E-008  0.1335114E+03  0.7546771E-02  0.1372711E+00
          2   -1    0    0  503    0  0.00000000000E+00  0.00000000000E+00  0.20849285714E+04  0.20849285714E+04  0.00000000000E+00 0. -1.
          2   -1    0    0  502    0 -0.00000000000E+00 -0.00000000000E+00 -0.15498179085E+04  0.15498179085E+04  0.00000000000E+00 0. -1.
         24    2    1    2    0    0  0.24920392208E+03  0.67537514410E+01  0.15934528772E+03  0.31550467923E+03  0.10956310489E+03 0.  0.
         25    2    1    2    0    0  0.14540462300E+03 -0.32339483181E+03 -0.12730427431E+03  0.39693572709E+03  0.12499948623E+03 0.  0.
         24    2    1    2    0    0 -0.53469417003E+03  0.39853859879E+03  0.56449538706E+03  0.87773086428E+03  0.83818601223E+02 0.  0.
        -13    1    5    5    0    0 -0.30879793220E+03  0.18336428943E+03  0.27795695856E+03  0.45413510807E+03  0.00000000000E+00 0.  1.
         14    1    5    5    0    0 -0.22589623783E+03  0.21517430935E+03  0.28653842850E+03  0.42359575621E+03  0.00000000000E+00 0. -1.
        -13    1    3    3    0    0  0.14038942781E+03  0.11995000274E+02  0.15056496832E+03  0.20621076878E+03  0.00000000000E+00 0.  1.
         14    1    3    3    0    0  0.10881449427E+03 -0.52412488326E+01  0.87803194005E+01  0.10929391045E+03  0.00000000000E+00 0. -1.
          5    1    4    4  501    0  0.27657570787E+02 -0.19558594617E+03 -0.36947424675E+02  0.20101245174E+03  0.47000000000E+01 0. -1.
         -5    1    4    4    0  501  0.11774705221E+03 -0.12780888563E+03 -0.90356849632E+02  0.19592327536E+03  0.47000000000E+01 0. -1.
          1    1    1    2  502    0  0.10713063804E+03 -0.79496208939E+02 -0.10484977003E+04  0.10569503528E+04  0.00000000000E+00 0. -1.
          1    1    1    2  503    0  0.32954986910E+02 -0.24013094826E+01  0.98707196278E+03  0.98762485649E+03  0.00000000000E+00 0. -1.
<mgrwt>
<rscale>  0 0.66419363E+02</rscale>
<asrwt>0</asrwt>
<pdfrwt beam="1">  1        2 0.30660714E+00 0.33042358E+02</pdfrwt>
<pdfrwt beam="2">  1        2 0.22791440E+00 0.13351141E+03</pdfrwt>
<totfact> 0.21842741E+01</totfact>
</mgrwt>
</event>
<event>
13    1  0.2038932E-008  0.1210021E+03  0.7546771E-02  0.1347757E+00
          2   -1    0    0  502    0  0.00000000000E+00  0.00000000000E+00  0.11191887352E+04  0.11191887352E+04  0.00000000000E+00 0. -1.
          2   -1    0    0  503    0 -0.00000000000E+00 -0.00000000000E+00 -0.13221345717E+04  0.13221345717E+04  0.00000000000E+00 0. -1.
         24    2    1    2    0    0 -0.11316137190E+03  0.11779718255E+03  0.84400618451E+02  0.19973460259E+03  0.78030601507E+02 0.  0.
         25    2    1    2    0    0  0.13638222188E+03 -0.11747634067E+03 -0.12210539528E+03  0.25086824653E+03  0.12499739396E+03 0.  0.
         24    2    1    2    0    0  0.54770986678E+02  0.40393045440E+01 -0.85545201825E+01  0.97720652363E+02  0.80373933087E+02 0.  0.
        -11    1    5    5    0    0  0.74459983165E+02  0.12270550961E+02 -0.23669352787E+01  0.75501376785E+02  0.00000000000E+00 0.  1.
         12    1    5    5    0    0 -0.19688996488E+02 -0.82312464165E+01 -0.61875849038E+01  0.22219275578E+02  0.00000000000E+00 0. -1.
        -11    1    3    3    0    0 -0.41392282981E+02  0.25913059230E+01  0.38115370052E+02  0.56327767495E+02  0.00000000000E+00 0.  1.
         12    1    3    3    0    0 -0.71769088915E+02  0.11520587663E+03  0.46285248400E+02  0.14340683510E+03  0.00000000000E+00 0. -1.
          5    1    4    4  501    0  0.13313054483E+03 -0.36873157072E+02 -0.73062111805E+02  0.15634427991E+03  0.47000000000E+01 0.  1.
         -5    1    4    4    0  501  0.32516770420E+01 -0.80603183601E+02 -0.49043283473E+02  0.94523966612E+02  0.47000000000E+01 0.  1.
          1    1    1    2  502    0 -0.12197896477E+03 -0.13669771617E+02  0.86332050076E+03  0.87200230363E+03  0.00000000000E+00 0. -1.
          1    1    1    2  503    0  0.43987128114E+02  0.93096251944E+01 -0.10200070403E+04  0.10209975018E+04  0.00000000000E+00 0. -1.
<mgrwt>
<rscale>  0 0.73759318E+02</rscale>
<asrwt>0</asrwt>
<pdfrwt beam="1">  1        2 0.16458658E+00 0.12100212E+03</pdfrwt>
<pdfrwt beam="2">  1        2 0.19443155E+00 0.44961501E+02</pdfrwt>
<totfact> 0.80753517E+01</totfact>
</mgrwt>
</event>
<event>
13    1  0.2038932E-008  0.3807662E+02  0.7546771E-02  0.1577092E+00
          2   -1    0    0  503    0  0.00000000000E+00  0.00000000000E+00  0.16382735614E+04  0.16382735614E+04  0.00000000000E+00 0. -1.
          2   -1    0    0  502    0 -0.00000000000E+00 -0.00000000000E+00 -0.89630573862E+03  0.89630573862E+03  0.00000000000E+00 0. -1.
         24    2    1    2    0    0  0.17892151599E+03  0.94664713236E+02  0.61699221237E+02  0.22757254612E+03  0.83714712138E+02 0.  0.
         25    2    1    2    0    0  0.55244304089E+02  0.14090365522E+03 -0.22529219554E+03  0.29880095961E+03  0.12497866581E+03 0.  0.
         24    2    1    2    0    0 -0.22292689948E+03 -0.22856668585E+03  0.15043674437E+03  0.36327706110E+03  0.86022535823E+02 0.  0.
        -11    1    5    5    0    0 -0.77584375794E+02 -0.73981669173E+02  0.96756229923E+02  0.14441049397E+03  0.00000000000E+00 0.  1.
         12    1    5    5    0    0 -0.14534252369E+03 -0.15458501668E+03  0.53680514451E+02  0.21886656712E+03  0.00000000000E+00 0. -1.
        -13    1    3    3    0    0  0.53630022282E+02  0.47087012599E+01 -0.14188099100E+02  0.55674530205E+02  0.00000000000E+00 0.  1.
         14    1    3    3    0    0  0.12529149371E+03  0.89956011976E+02  0.75887320337E+02  0.17189801591E+03  0.00000000000E+00 0. -1.
          5    1    4    4  501    0  0.43403229572E+02  0.15631532767E+03 -0.15034750097E+03  0.22123467868E+03  0.47000000000E+01 0. -1.
         -5    1    4    4    0  501  0.11841074517E+02 -0.15411672455E+02 -0.74944694575E+02  0.77566280938E+02  0.47000000000E+01 0. -1.
          1    1    1    2  502    0  0.26673157814E+02 -0.32814034308E+01 -0.44419380878E+03  0.44500602773E+03  0.00000000000E+00 0. -1.
          1    1    1    2  503    0 -0.37912078417E+02 -0.37202791720E+01  0.11993178615E+04  0.11999227054E+04  0.00000000000E+00 0. -1.
<mgrwt>
<rscale>  0 0.31988752E+02</rscale>
<asrwt>0</asrwt>
<pdfrwt beam="1">  1        2 0.24092258E+00 0.38076617E+02</pdfrwt>
<pdfrwt beam="2">  1        2 0.13180967E+00 0.26874243E+02</pdfrwt>
<totfact> 0.83163813E+01</totfact>
</mgrwt>
</event>
<event>
13    1  0.2038932E-008  0.3241722E+02  0.7546771E-02  0.1609018E+00
          2   -1    0    0  503    0  0.00000000000E+00  0.00000000000E+00  0.33280254375E+04  0.33280254375E+04  0.00000000000E+00 0. -1.
         -3   -1    0    0    0  501 -0.00000000000E+00 -0.00000000000E+00 -0.26681213745E+04  0.26681213745E+04  0.00000000000E+00 0.  1.
         24    2    1    2    0    0  0.87247431787E+03  0.45414507095E+03 -0.12257945312E+04  0.15737743697E+04  0.82063105032E+02 0.  0.
         25    2    1    2    0    0 -0.26943155957E+03 -0.21566028551E+03  0.57288741778E+03  0.68038866065E+03  0.12500404816E+03 0.  0.
         24    2    1    2    0    0 -0.59032489487E+03 -0.23189647198E+03  0.61228050156E+03  0.88708106542E+03  0.98822815196E+02 0.  0.
        -13    1    5    5    0    0 -0.39551919329E+03 -0.20060653473E+03  0.44737596597E+03  0.62993941689E+03  0.00000000000E+00 0.  1.
         14    1    5    5    0    0 -0.19480570159E+03 -0.31289937248E+02  0.16490453560E+03  0.25714164852E+03  0.00000000000E+00 0. -1.
        -13    1    3    3    0    0  0.22846611237E+03  0.99227326207E+02 -0.36138669398E+03  0.43891134567E+03  0.00000000000E+00 0.  1.
         14    1    3    3    0    0  0.64400820550E+03  0.35491774474E+03 -0.86440783725E+03  0.11348630241E+04  0.00000000000E+00 0. -1.
          5    1    4    4  502    0 -0.19080678402E+03 -0.13911109267E+03  0.27280764711E+03  0.36083961430E+03  0.47000000000E+01 0. -1.
         -5    1    4    4    0  502 -0.78624775549E+02 -0.76549192837E+02  0.30007977067E+03  0.31954904635E+03  0.47000000000E+01 0. -1.
          1    1    1    2  503    0  0.16908557841E+02 -0.19756113083E+02  0.17773776171E+04  0.17775678319E+04  0.00000000000E+00 0. -1.
         -4    1    1    2    0  501 -0.29626421270E+02  0.13167799615E+02 -0.10768469422E+04  0.10773348842E+04  0.00000000000E+00 0.  1.
<mgrwt>
<rscale>  0 0.29034024E+02</rscale>
<asrwt>0</asrwt>
<pdfrwt beam="1">  1        2 0.48941551E+00 0.26003910E+02</pdfrwt>
<pdfrwt beam="2">  1       -3 0.39237079E+00 0.32417222E+02</pdfrwt>
<totfact> 0.27744518E-02</totfact>
</mgrwt>
</event>
<event>
13    1  0.2038932E-008  0.1469901E+03  0.7546771E-02  0.1220112E+00
          2   -1    0    0  503    0  0.00000000000E+00  0.00000000000E+00  0.24322460526E+04  0.24322460526E+04  0.00000000000E+00 0. -1.
         -1   -1    0    0    0  501 -0.00000000000E+00 -0.00000000000E+00 -0.37009182523E+03  0.37009182523E+03  0.00000000000E+00 0.  1.
         24    2    1    2    0    0 -0.34339552382E+02 -0.51752078054E+02 -0.57578267350E+02  0.11668511704E+03  0.80266289473E+02 0.  0.
         25    2    1    2    0    0 -0.18644485023E+02 -0.14124053585E+02  0.49937042426E+03  0.51530780009E+03  0.12499680996E+03 0.  0.
         24    2    1    2    0    0  0.17134004035E+03  0.20648289422E+03  0.10999112853E+04  0.11349917076E+04  0.80054642311E+02 0.  0.
        -11    1    3    3    0    0 -0.51582243144E+01 -0.67409222484E+02 -0.31765620056E+02  0.74697156382E+02  0.00000000000E+00 0.  1.
         12    1    3    3    0    0 -0.29181328068E+02  0.15657144430E+02 -0.25812647294E+02  0.41987960654E+02  0.00000000000E+00 0. -1.
        -13    1    5    5    0    0  0.16109305038E+03  0.18718135263E+03  0.10688796667E+04  0.10970376345E+04  0.00000000000E+00 0.  1.
         14    1    5    5    0    0  0.10246989972E+02  0.19301541582E+02  0.31031618612E+02  0.37954073096E+02  0.00000000000E+00 0. -1.
          5    1    4    4  502    0 -0.73060841588E+01 -0.62670205939E+02  0.15658363065E+03  0.16888296825E+03  0.47000000000E+01 0.  1.
         -5    1    4    4    0  502 -0.11338400864E+02  0.48546152355E+02  0.34278679361E+03  0.34642483184E+03  0.47000000000E+01 0.  1.
          1    1    1    2  503    0  0.49417713893E+02 -0.11320170323E+03  0.74418278861E+03  0.75436381072E+03  0.00000000000E+00 0. -1.
         -2    1    1    2    0  501 -0.16777371684E+03 -0.27405059352E+02 -0.22373200347E+03  0.28098944236E+03  0.00000000000E+00 0.  1.
<mgrwt>
<rscale>  0 0.13507611E+03</rscale>
<asrwt>0</asrwt>
<pdfrwt beam="1">  1        2 0.35768324E+00 0.12412782E+03</pdfrwt>
<pdfrwt beam="2">  1       -1 0.54425270E-01 0.14699006E+03</pdfrwt>
<totfact> 0.22343744E+01</totfact>
</mgrwt>
</event>
<event>
13    1  0.2038932E-008  0.3417846E+02  0.7546771E-02  0.1614124E+00
         -1   -1    0    0    0  501 -0.00000000000E+00  0.00000000000E+00  0.22280459392E+03  0.22280459392E+03  0.00000000000E+00 0.  1.
          2   -1    0    0  503    0  0.00000000000E+00 -0.00000000000E+00 -0.21757997759E+04  0.21757997759E+04  0.00000000000E+00 0. -1.
         24    2    1    2    0    0 -0.52009549427E+02  0.70942640757E+02  0.69972418704E+02  0.13931811272E+03  0.82313702640E+02 0.  0.
         25    2    1    2    0    0  0.91899702709E+02 -0.73212970355E+02 -0.13888516895E+03  0.22071152212E+03  0.12497516336E+03 0.  0.
         24    2    1    2    0    0  0.57449252084E+01  0.19793886865E+02 -0.47168945895E+03  0.47907509762E+03  0.81223157749E+02 0.  0.
        -11    1    3    3    0    0 -0.68775270393E+02  0.70271937756E+02  0.42482185635E+02  0.10711171341E+03  0.00000000000E+00 0.  1.
         12    1    3    3    0    0  0.16765720965E+02  0.67070300092E+00  0.27490233069E+02  0.32206399305E+02  0.00000000000E+00 0. -1.
        -13    1    5    5    0    0 -0.11262796786E+02 -0.15993454619E+02 -0.36061056180E+03  0.36114071837E+03  0.00000000000E+00 0.  1.
         14    1    5    5    0    0  0.17007721994E+02  0.35787341484E+02 -0.11107889715E+03  0.11793437925E+03  0.00000000000E+00 0. -1.
          5    1    4    4  502    0  0.12300193479E+02 -0.82622397541E+02 -0.10318264317E+03  0.13284014147E+03  0.47000000000E+01 0.  1.
         -5    1    4    4    0  502  0.79599509230E+02  0.94094271859E+01 -0.35702525779E+02  0.87871380646E+02  0.47000000000E+01 0.  1.
          1    1    1    2  503    0 -0.11677521384E+02 -0.20885818290E+02 -0.14818867684E+04  0.14820799493E+04  0.00000000000E+00 0. -1.
         -2    1    1    2    0  501 -0.33957557106E+02  0.33622610229E+01  0.69493795546E+02  0.77419688086E+02  0.00000000000E+00 0.  1.
<mgrwt>
<rscale>  0 0.28597998E+02</rscale>
<asrwt>0</asrwt>
<pdfrwt beam="2">  1        2 0.31997055E+00 0.23928684E+02</pdfrwt>
<pdfrwt beam="1">  1       -1 0.32765382E-01 0.34178456E+02</pdfrwt>
<totfact> 0.87698243E+01</totfact>
</mgrwt>
</event>
<event>
13    1  0.2038932E-008  0.2186130E+03  0.7546771E-02  0.1309535E+00
          2   -1    0    0  502    0  0.00000000000E+00  0.00000000000E+00  0.18053940866E+04  0.18053940866E+04  0.00000000000E+00 0. -1.
          2   -1    0    0  503    0 -0.00000000000E+00 -0.00000000000E+00 -0.67598925673E+03  0.67598925673E+03  0.00000000000E+00 0. -1.
         24    2    1    2    0    0  0.23303400969E+02  0.45769338492E+03 -0.14057521184E+03  0.48575764041E+03  0.78567244683E+02 0.  0.
         25    2    1    2    0    0 -0.35943985033E+03 -0.99732966459E+02  0.79945115190E+02  0.40144766342E+03  0.12500133766E+03 0.  0.
         24    2    1    2    0    0  0.31728998165E+03 -0.17377735937E+03  0.29879943909E+03  0.47240170906E+03  0.54870455111E+02 0.  0.
        -11    1    5    5    0    0  0.28071742791E+02 -0.45751697044E+01  0.39688492486E+02  0.48827567592E+02  0.00000000000E+00 0.  1.
         12    1    5    5    0    0  0.28921823886E+03 -0.16920218966E+03  0.25911094660E+03  0.42357414147E+03  0.00000000000E+00 0. -1.
        -13    1    3    3    0    0 -0.19689787781E+02  0.23879322048E+03 -0.96813427451E+02  0.25842354697E+03  0.00000000000E+00 0.  1.
         14    1    3    3    0    0  0.42993188749E+02  0.21890016444E+03 -0.43761784386E+02  0.22733409345E+03  0.00000000000E+00 0. -1.
          5    1    4    4  501    0 -0.11241186559E+02  0.13709467903E+02  0.25151787103E+02  0.31129024718E+02  0.47000000000E+01 0. -1.
         -5    1    4    4    0  501 -0.34819866377E+03 -0.11344243436E+03  0.54793328087E+02  0.37031863870E+03  0.47000000000E+01 0. -1.
          1    1    1    2  502    0  0.14933000156E+02 -0.21882153442E+03  0.99158098224E+03  0.10155484739E+04  0.00000000000E+00 0. -1.
          1    1    1    2  503    0  0.39134675582E+01  0.34638475327E+02 -0.10034549477E+03  0.10622785662E+03  0.00000000000E+00 0. -1.
<mgrwt>
<rscale>  0 0.87296025E+02</rscale>
<asrwt>0</asrwt>
<pdfrwt beam="1">  1        2 0.26549913E+00 0.21861297E+03</pdfrwt>
<pdfrwt beam="2">  1        2 0.99410185E-01 0.34858847E+02</pdfrwt>
<totfact> 0.80401888E+01</totfact>
</mgrwt>
</event>
<event>
13    1  0.2038932E-008  0.1054958E+03  0.7546771E-02  0.1318914E+00
          2   -1    0    0  502    0  0.00000000000E+00  0.00000000000E+00  0.21543403639E+04  0.21543403639E+04  0.00000000000E+00 0. -1.
          2   -1    0    0  503    0 -0.00000000000E+00 -0.00000000000E+00 -0.17446460800E+04  0.17446460800E+04  0.00000000000E+00 0. -1.
         24    2    1    2    0    0 -0.10600551514E+03  0.59521969060E+02 -0.17401607817E+03  0.22601662720E+03  0.77600813580E+02 0.  0.
         25    2    1    2    0    0 -0.41765087887E+02 -0.15768817241E+03  0.43607637995E+03  0.48207570594E+03  0.12499797927E+03 0.  0.
         24    2    1    2    0    0  0.45208902390E+01 -0.36635891860E+02 -0.34505787712E+03  0.35530966939E+03  0.76271853106E+02 0.  0.
        -11    1    3    3    0    0 -0.36972598095E+02 -0.19258762037E+00 -0.99813237455E+01  0.38296695988E+02  0.00000000000E+00 0.  1.
         12    1    3    3    0    0 -0.69032917047E+02  0.59714556680E+02 -0.16403475442E+03  0.18771993121E+03  0.00000000000E+00 0. -1.
        -13    1    5    5    0    0 -0.13368072832E+02  0.12727489787E+02 -0.25568883527E+02  0.31535094297E+02  0.00000000000E+00 0.  1.
         14    1    5    5    0    0  0.17888963071E+02 -0.49363381647E+02 -0.31948899359E+03  0.32377457509E+03  0.00000000000E+00 0. -1.
          5    1    4    4  501    0 -0.38663536625E+02  0.32867936811E+01  0.13595757880E+03  0.14146457264E+03  0.47000000000E+01 0.  1.
         -5    1    4    4    0  501 -0.31015512629E+01 -0.16097496609E+03  0.30011880115E+03  0.34061113330E+03  0.47000000000E+01 0.  1.
          1    1    1    2  502    0  0.22789783903E+02  0.62344978171E+02  0.16592549890E+04  0.16605822440E+04  0.00000000000E+00 0. -1.
          1    1    1    2  503    0  0.12045992889E+03  0.72457117042E+02 -0.11665631298E+04  0.11750021975E+04  0.00000000000E+00 0. -1.
<mgrwt>
<rscale>  0 0.83682634E+02</rscale>
<asrwt>0</asrwt>
<pdfrwt beam="1">  1        2 0.31681476E+00 0.66379745E+02</pdfrwt>
<pdfrwt beam="2">  1        2 0.25656560E+00 0.10549578E+03</pdfrwt>
<totfact> 0.15250755E+01</totfact>
</mgrwt>
</event>
<event>
13    1  0.2038932E-008  0.1476703E+03  0.7546771E-02  0.1292734E+00
          2   -1    0    0  502    0  0.00000000000E+00  0.00000000000E+00  0.17650764881E+03  0.17650764881E+03  0.00000000000E+00 0. -1.
          2   -1    0    0  503    0 -0.00000000000E+00 -0.00000000000E+00 -0.34234826938E+04  0.34234826938E+04  0.00000000000E+00 0. -1.
         24    2    1    2    0    0 -0.12062456020E+03 -0.35016879163E+02 -0.42437108709E+03  0.44983051941E+03  0.80499753317E+02 0.  0.
         25    2    1    2    0    0 -0.33451632773E+02  0.30108712803E+03 -0.19164453631E+03  0.37963819937E+03  0.12500025488E+03 0.  0.
         24    2    1    2    0    0  0.41516637708E+02 -0.13302982799E+02 -0.63603439459E+03  0.64202231372E+03  0.75843916408E+02 0.  0.
        -11    1    3    3    0    0 -0.11991296238E+02  0.13485479712E+02 -0.14824344272E+02  0.23354026026E+02  0.00000000000E+00 0.  1.
         12    1    3    3    0    0 -0.10863326396E+03 -0.48502358875E+02 -0.40954674282E+03  0.42647649338E+03  0.00000000000E+00 0. -1.
        -13    1    5    5    0    0  0.94215788986E+01  0.22925934493E+02 -0.41552226259E+03  0.41626087413E+03  0.00000000000E+00 0.  1.
         14    1    5    5    0    0  0.32095058810E+02 -0.36228917292E+02 -0.22051213200E+03  0.22576143959E+03  0.00000000000E+00 0. -1.
          5    1    4    4  501    0  0.12398402960E+02  0.13128125716E+03 -0.14815224059E+03  0.19839270467E+03  0.47000000000E+01 0.  1.
         -5    1    4    4    0  501 -0.45850035733E+02  0.16980587088E+03 -0.43492295723E+02  0.18124549470E+03  0.47000000000E+01 0.  1.
          1    1    1    2  502    0  0.21969440749E+01 -0.60193527784E+02  0.45844310647E+02  0.75695364251E+02  0.00000000000E+00 0. -1.
          1    1    1    2  503    0  0.11036261119E+03 -0.19257373829E+03 -0.20407693377E+04  0.20528039459E+04  0.00000000000E+00 0. -1.
<mgrwt>
<rscale>  0 0.94311808E+02</rscale>
<asrwt>0</asrwt>
<pdfrwt beam="1">  1        2 0.25957009E-01 0.60233606E+02</pdfrwt>
<pdfrwt beam="2">  1        2 0.50345330E+00 0.14767034E+03</pdfrwt>
<totfact> 0.48302607E+01</totfact>
</mgrwt>
</event>
<event>
13    1  0.2038932E-008  0.9821975E+02  0.7546771E-02  0.1374982E+00
          2   -1    0    0  503    0  0.00000000000E+00  0.00000000000E+00  0.16906942556E+04  0.16906942556E+04  0.00000000000E+00 0. -1.
          2   -1    0    0  502    0 -0.00000000000E+00 -0.00000000000E+00 -0.21381304248E+04  0.21381304248E+04  0.00000000000E+00 0. -1.
         24    2    1    2    0    0  0.10599546005E+03  0.27087733211E+01 -0.29562224327E+03  0.32411685636E+03  0.80105248628E+02 0.  0.
         25    2    1    2    0    0 -0.11475431087E+03  0.42161855403E+02 -0.11411653212E+03  0.20878829189E+03  0.12499517595E+03 0.  0.
         24    2    1    2    0    0 -0.69608715326E+02  0.19662637512E+02 -0.17130284896E+03  0.20383287020E+03  0.83493594643E+02 0.  0.
        -11    1    3    3    0    0  0.11368616414E+02  0.30734505287E+02 -0.95853064095E+02  0.10129987735E+03  0.00000000000E+00 0.  1.
         12    1    3    3    0    0  0.94626843631E+02 -0.28025731966E+02 -0.19976917918E+03  0.22281697902E+03  0.00000000000E+00 0. -1.
        -11    1    5    5    0    0 -0.52543345212E+02 -0.27028716490E+02 -0.75230600223E+02  0.95660848057E+02  0.00000000000E+00 0.  1.
         12    1    5    5    0    0 -0.17065370114E+02  0.46691354002E+02 -0.96072248739E+02  0.10817202214E+03  0.00000000000E+00 0. -1.
          5    1    4    4  501    0 -0.93021977054E+02 -0.20982430896E+02 -0.10383751247E+03  0.14105909973E+03  0.47000000000E+01 0.  1.
         -5    1    4    4    0  501 -0.21732333820E+02  0.63144286299E+02 -0.10279019654E+02  0.67729192159E+02  0.47000000000E+01 0.  1.
          1    1    1    2  502    0  0.36697758247E+02  0.24425445158E+02 -0.14774157257E+04  0.14780732574E+04  0.00000000000E+00 0. -1.
          1    1    1    2  503    0  0.41669807907E+02 -0.88958711395E+02  0.16110211807E+04  0.16140134045E+04  0.00000000000E+00 0. -1.
<mgrwt>
<rscale>  0 0.65801520E+02</rscale>
<asrwt>0</asrwt>
<pdfrwt beam="1">  1        2 0.24863151E+00 0.98219747E+02</pdfrwt>
<pdfrwt beam="2">  1        2 0.31443094E+00 0.44083192E+02</pdfrwt>
<totfact> 0.17424118E+01</totfact>
</mgrwt>
</event>
<event>
13    1  0.2038932E-008  0.2336367E+03  0.7546771E-02  0.1219611E+00
          2   -1    0    0  503    0  0.00000000000E+00  0.00000000000E+00  0.22129979413E+04  0.22129979413E+04  0.00000000000E+00 0. -1.
         -1   -1    0    0    0  501 -0.00000000000E+00 -0.00000000000E+00 -0.71753075411E+03  0.71753075411E+03  0.00000000000E+00 0.  1.
         24    2    1    2    0    0  0.42344519785E+03  0.91609211822E+02 -0.23975085443E+03  0.50170591415E+03  0.80810078655E+02 0.  0.
         25    2    1    2    0    0 -0.11853038672E+03 -0.81468721529E+02  0.42114486382E+02  0.19515665663E+03  0.12500354195E+03 0.  0.
         24    2    1    2    0    0 -0.36747023689E+03 -0.18642273509E+03  0.19492809880E+03  0.46283125759E+03  0.80174797461E+02 0.  0.
        -11    1    5    5    0    0 -0.14890560039E+03 -0.11436681617E+03  0.65858307739E+02  0.19897226733E+03  0.00000000000E+00 0.  1.
         12    1    5    5    0    0 -0.21856463650E+03 -0.72055918920E+02  0.12906979106E+03  0.26385899026E+03  0.00000000000E+00 0. -1.
        -13    1    3    3    0    0  0.37035445047E+03  0.10684998305E+03 -0.21121692814E+03  0.43953603788E+03  0.00000000000E+00 0.  1.
         14    1    3    3    0    0  0.53090747383E+02 -0.15240771230E+02 -0.28533926293E+02  0.62169876267E+02  0.00000000000E+00 0. -1.
          5    1    4    4  502    0 -0.13078979588E+03 -0.30852378918E+02  0.47462343644E+02  0.14259244038E+03  0.47000000000E+01 0.  1.
         -5    1    4    4    0  502  0.12259409154E+02 -0.50616342611E+02 -0.53478572621E+01  0.52564216245E+02  0.47000000000E+01 0.  1.
          1    1    1    2  503    0  0.14019799860E+03  0.18789538329E+03  0.16139858377E+04  0.16309231859E+04  0.00000000000E+00 0. -1.
         -2    1    1    2    0  501 -0.77642572837E+02 -0.11613138494E+02 -0.11581038130E+03  0.13991168114E+03  0.00000000000E+00 0.  1.
<mgrwt>
<rscale>  0 0.13543242E+03</rscale>
<asrwt>0</asrwt>
<pdfrwt beam="1">  1        2 0.32544087E+00 0.23363665E+03</pdfrwt>
<pdfrwt beam="2">  1       -1 0.10551923E+00 0.78506268E+02</pdfrwt>
<totfact> 0.71779447E+00</totfact>
</mgrwt>
</event>
<event>
13    1  0.2038932E-008  0.1045693E+03  0.7546771E-02  0.1299295E+00
         -1   -1    0    0    0  501 -0.00000000000E+00  0.00000000000E+00  0.18895911643E+04  0.18895911643E+04  0.00000000000E+00 0.  1.
          2   -1    0    0  503    0  0.00000000000E+00 -0.00000000000E+00 -0.46878446973E+04  0.46878446973E+04  0.00000000000E+00 0. -1.
         24    2    1    2    0    0 -0.79679977286E+02 -0.78620156138E+02  0.36248068536E+03  0.38754166577E+03  0.79159760714E+02 0.  0.
         25    2    1    2    0    0  0.18710865646E+03  0.31461339670E+02  0.20998598268E+03  0.30938431141E+03  0.12500029603E+03 0.  0.
         24    2    1    2    0    0 -0.13158230967E+03  0.39860312958E+02 -0.10327945057E+04  0.10449750295E+04  0.80034820472E+02 0.  0.
        -13    1    3    3    0    0  0.11217788631E+02  0.53903146998E+01  0.22224301008E+02  0.25471824231E+02  0.00000000000E+00 0.  1.
         14    1    3    3    0    0 -0.90897765917E+02 -0.84010470838E+02  0.34025638435E+03  0.36206984154E+03  0.00000000000E+00 0. -1.
        -13    1    5    5    0    0 -0.59409418776E+02  0.28335049914E+02 -0.24139194690E+03  0.25020476839E+03  0.00000000000E+00 0.  1.
         14    1    5    5    0    0 -0.72172890899E+02  0.11525263044E+02 -0.79140255879E+03  0.79477026110E+03  0.00000000000E+00 0. -1.
          5    1    4    4  502    0  0.45882194553E+02 -0.37861637575E+02  0.20588536242E+02  0.63124141194E+02  0.47000000000E+01 0. -1.
         -5    1    4    4    0  502  0.14122646191E+03  0.69322977244E+02  0.18939744644E+03  0.24626017022E+03  0.47000000000E+01 0. -1.
          1    1    1    2  503    0 -0.79914112823E+02 -0.44459696722E+01 -0.35840870011E+04  0.35849805667E+04  0.00000000000E+00 0. -1.
         -2    1    1    2    0  501  0.10406774332E+03  0.11744473183E+02  0.12461613058E+04  0.12505542883E+04  0.00000000000E+00 0.  1.
<mgrwt>
<rscale>  0 0.91484878E+02</rscale>
<asrwt>0</asrwt>
<pdfrwt beam="2">  1        2 0.68938893E+00 0.80037692E+02</pdfrwt>
<pdfrwt beam="1">  1       -1 0.27788105E+00 0.10456927E+03</pdfrwt>
<totfact> 0.16204482E-02</totfact>
</mgrwt>
</event>
<event>
13    1  0.2038932E-008  0.1022686E+03  0.7546771E-02  0.1298245E+00
          2   -1    0    0  503    0  0.00000000000E+00  0.00000000000E+00  0.46067447613E+03  0.46067447613E+03  0.00000000000E+00 0. -1.
          2   -1    0    0  502    0 -0.00000000000E+00 -0.00000000000E+00 -0.22603039541E+04  0.22603039541E+04  0.00000000000E+00 0. -1.
         24    2    1    2    0    0 -0.92190780972E+02 -0.14512505934E+01 -0.11979572328E+03  0.17159726904E+03  0.81199514796E+02 0.  0.
         25    2    1    2    0    0  0.19181550736E+03  0.75411049092E+02  0.92394720945E+02  0.25816851629E+03  0.12503672724E+03 0.  0.
         24    2    1    2    0    0 -0.15202016944E+02 -0.10294368510E+02 -0.31203695297E+03  0.32467253419E+03  0.87795894551E+02 0.  0.
        -11    1    5    5    0    0 -0.50578201546E+02 -0.17606769322E+02 -0.18932581097E+03  0.19675470896E+03  0.00000000000E+00 0.  1.
         12    1    5    5    0    0  0.35376184602E+02  0.73124008127E+01 -0.12271114200E+03  0.12791782524E+03  0.00000000000E+00 0. -1.
        -13    1    3    3    0    0 -0.98568618793E+02  0.19904281921E+02 -0.99063028366E+02  0.14115748878E+03  0.00000000000E+00 0.  1.
         14    1    3    3    0    0  0.63778378211E+01 -0.21355532514E+02 -0.20732694913E+02  0.30439780265E+02  0.00000000000E+00 0. -1.
          5    1    4    4  501    0  0.14237475190E+03  0.19601514993E+01  0.91838390711E+02  0.16950159935E+03  0.47000000000E+01 0.  1.
         -5    1    4    4    0  501  0.49440755453E+02  0.73450897593E+02  0.55633023446E+00  0.88666916944E+02  0.47000000000E+01 0.  1.
          1    1    1    2  502    0 -0.73099996791E+02  0.38536533764E+02 -0.17018809167E+04  0.17038859494E+04  0.00000000000E+00 0. -1.
          1    1    1    2  503    0 -0.11322712651E+02 -0.10220196375E+03  0.24168939407E+03  0.26265416125E+03  0.00000000000E+00 0. -1.
<mgrwt>
<rscale>  0 0.91929563E+02</rscale>
<asrwt>0</asrwt>
<pdfrwt beam="1">  1        2 0.67746248E-01 0.10226857E+03</pdfrwt>
<pdfrwt beam="2">  1        2 0.33239764E+00 0.82635791E+02</pdfrwt>
<totfact> 0.78965430E+01</totfact>
</mgrwt>
</event>
<event>
13    1  0.2038932E-008  0.1186274E+03  0.7546771E-02  0.1250990E+00
         -1   -1    0    0    0  501 -0.00000000000E+00  0.00000000000E+00  0.30277485256E+03  0.30277485256E+03  0.00000000000E+00 0.  1.
          2   -1    0    0  503    0  0.00000000000E+00 -0.00000000000E+00 -0.32369687999E+04  0.32369687999E+04  0.00000000000E+00 0. -1.
         24    2    1    2    0    0  0.37951193816E+02 -0.11067045758E+03 -0.11201990183E+02  0.14635869232E+03  0.87218913899E+02 0.  0.
         25    2    1    2    0    0  0.27695685442E+02 -0.21018291857E+02 -0.10397515705E+04  0.10478155470E+04  0.12500109004E+03 0.  0.
         24    2    1    2    0    0  0.51883818130E+02 -0.22878034603E+02 -0.12931120374E+03  0.16216033879E+03  0.79744924686E+02 0.  0.
        -13    1    5    5    0    0  0.39441314059E+02 -0.52492734763E+02 -0.89648595652E+02  0.11112144329E+03  0.00000000000E+00 0.  1.
         14    1    5    5    0    0  0.12442504071E+02  0.29614700160E+02 -0.39662608088E+02  0.51038895496E+02  0.00000000000E+00 0. -1.
        -13    1    3    3    0    0  0.25887742703E+02 -0.24427142018E+02  0.33143426090E+02  0.48634835072E+02  0.00000000000E+00 0.  1.
         14    1    3    3    0    0  0.12063451113E+02 -0.86243315560E+02 -0.44345416274E+02  0.97723857251E+02  0.00000000000E+00 0. -1.
          5    1    4    4  502    0 -0.96674031100E+01 -0.15365792285E+02 -0.95167460302E+03  0.95185934165E+03  0.47000000000E+01 0. -1.
         -5    1    4    4    0  502  0.37363088552E+02 -0.56524995716E+01 -0.88076967526E+02  0.95956205355E+02  0.47000000000E+01 0. -1.
          1    1    1    2  503    0 -0.10678385826E+03 -0.35030660744E+02 -0.19247229727E+04  0.19280011569E+04  0.00000000000E+00 0. -1.
         -2    1    1    2    0  501 -0.10746839127E+02  0.18959744478E+03  0.17079378983E+03  0.25540791739E+03  0.00000000000E+00 0.  1.
<mgrwt>
<rscale>  0 0.11533904E+03</rscale>
<asrwt>0</asrwt>
<pdfrwt beam="2">  1        2 0.47602480E+00 0.11214184E+03</pdfrwt>
<pdfrwt beam="1">  1       -1 0.44525716E-01 0.11862739E+03</pdfrwt>
<totfact> 0.12370565E+01</totfact>
</mgrwt>
</event>
<event>
13    1  0.2038932E-008  0.8448435E+02  0.7546771E-02  0.1412257E+00
          2   -1    0    0  503    0  0.00000000000E+00  0.00000000000E+00  0.11616397328E+04  0.11616397328E+04  0.00000000000E+00 0. -1.
         -3   -1    0    0    0  501 -0.00000000000E+00 -0.00000000000E+00 -0.11397091085E+04  0.11397091085E+04  0.00000000000E+00 0.  1.
         24    2    1    2    0    0  0.70451743541E+02 -0.26551979817E+02  0.31773658866E+02  0.11487374387E+03  0.80733858037E+02 0.  0.
         25    2    1    2    0    0 -0.16405801088E+03  0.62121342006E+01 -0.20231072576E+03  0.28897566269E+03  0.12499472918E+03 0.  0.
         24    2    1    2    0    0  0.34792966423E+02  0.18038603840E+02  0.22550192769E+02  0.92192855029E+02  0.80343447669E+02 0.  0.
        -11    1    5    5    0    0  0.17651927703E+02  0.49950346463E+02  0.10426195012E+02  0.53993825627E+02  0.00000000000E+00 0.  1.
         12    1    5    5    0    0  0.17141038720E+02 -0.31911742623E+02  0.12123997757E+02  0.38199029402E+02  0.00000000000E+00 0. -1.
        -11    1    3    3    0    0  0.72258823780E+02 -0.48124927280E+02  0.33723426927E+02  0.93137617339E+02  0.00000000000E+00 0.  1.
         12    1    3    3    0    0 -0.18070802390E+01  0.21572947463E+02 -0.19497680618E+01  0.21736126534E+02  0.00000000000E+00 0. -1.
          5    1    4    4  502    0 -0.25572172563E+02 -0.45042197874E+02 -0.23625408072E+02  0.57122548136E+02  0.47000000000E+01 0.  1.
         -5    1    4    4    0  502 -0.13848583832E+03  0.51254332075E+02 -0.17868531769E+03  0.23185311455E+03  0.47000000000E+01 0.  1.
          1    1    1    2  503    0  0.79238076805E+02 -0.29795086620E+02  0.98535365390E+03  0.98898343932E+03  0.00000000000E+00 0. -1.
         -4    1    1    2    0  501 -0.20424775889E+02  0.32096328396E+02 -0.81543615549E+03  0.81632314034E+03  0.00000000000E+00 0.  1.
<mgrwt>
<rscale>  0 0.56693231E+02</rscale>
<asrwt>0</asrwt>
<pdfrwt beam="1">  1        2 0.17082937E+00 0.84484350E+02</pdfrwt>
<pdfrwt beam="2">  1       -3 0.16760428E+00 0.38043998E+02</pdfrwt>
<totfact> 0.39303812E+00</totfact>
</mgrwt>
</event>
<event>
13    1  0.2038932E-008  0.4679985E+02  0.7546771E-02  0.1527966E+00
          2   -1    0    0  502    0  0.00000000000E+00  0.00000000000E+00  0.13494395424E+04  0.13494395424E+04  0.00000000000E+00 0. -1.
          2   -1    0    0  503    0 -0.00000000000E+00 -0.00000000000E+00 -0.68251795962E+03  0.68251795962E+03  0.00000000000E+00 0. -1.
         24    2    1    2    0    0 -0.12776527846E+03  0.88948751853E+02  0.61903927254E+02  0.18568223597E+03  0.80062161526E+02 0.  0.
         25    2    1    2    0    0  0.20546837058E+03 -0.14993616437E+03  0.93586293339E+03  0.97783562544E+03  0.12499990237E+03 0.  0.
         24    2    1    2    0    0 -0.93031816898E+02  0.32992220652E+01  0.95204774206E+02  0.15562859124E+03  0.80563673933E+02 0.  0.
        -13    1    3    3    0    0 -0.58569055496E+02 -0.32389891338E+01  0.30986457690E+02  0.66339926685E+02  0.00000000000E+00 0.  1.
         14    1    3    3    0    0 -0.69196222961E+02  0.92187740987E+02  0.30917469564E+02  0.11934230928E+03  0.00000000000E+00 0. -1.
        -13    1    5    5    0    0 -0.13385695325E+02 -0.28821813114E+02  0.48182831791E+02  0.57718792693E+02  0.00000000000E+00 0.  1.
         14    1    5    5    0    0 -0.79646121574E+02  0.32121035180E+02  0.47021942416E+02  0.97909798546E+02  0.00000000000E+00 0. -1.
          5    1    4    4  501    0  0.61395327900E+02 -0.11314989790E+03  0.53403708486E+03  0.54935415143E+03  0.47000000000E+01 0. -1.
         -5    1    4    4    0  501  0.14407304268E+03 -0.36786266475E+02  0.40182584852E+03  0.42848147401E+03  0.47000000000E+01 0. -1.
          1    1    1    2  502    0  0.27243751290E+02  0.12434716027E+02  0.14084208019E+03  0.14399074866E+03  0.00000000000E+00 0. -1.
          1    1    1    2  503    0 -0.11915026513E+02  0.45253474425E+02 -0.56689213230E+03  0.56882030068E+03  0.00000000000E+00 0. -1.
<mgrwt>
<rscale>  0 0.37437037E+02</rscale>
<asrwt>0</asrwt>
<pdfrwt beam="1">  1        2 0.19844699E+00 0.29947356E+02</pdfrwt>
<pdfrwt beam="2">  1        2 0.10037029E+00 0.46799848E+02</pdfrwt>
<totfact> 0.15503416E+02</totfact>
</mgrwt>
</event>
<event>
13    1  0.2038932E-008  0.6906537E+02  0.7546771E-02  0.1472467E+00
          2   -1    0    0  502    0  0.00000000000E+00  0.00000000000E+00  0.26217918989E+04  0.26217918989E+04  0.00000000000E+00 0. -1.
          2   -1    0    0  503    0 -0.00000000000E+00 -0.00000000000E+00 -0.45968210821E+03  0.45968210821E+03  0.00000000000E+00 0. -1.
         24    2    1    2    0    0 -0.31196407710E+02  0.86280757478E+02  0.13963532377E+03  0.18497807700E+03  0.79380604436E+02 0.  0.
         25    2    1    2    0    0  0.19582752261E+02  0.71975830908E+02 -0.45065502792E+01  0.14563393015E+03  0.12499971277E+03 0.  0.
         24    2    1    2    0    0 -0.41195275031E+02 -0.10707158385E+03  0.70137366390E+03  0.71627403604E+03  0.89230620027E+02 0.  0.
        -11    1    5    5    0    0  0.59189546891E+01 -0.54254250932E+01  0.28435166952E+03  0.28446500879E+03  0.00000000000E+00 0.  1.
         12    1    5    5    0    0 -0.47114229720E+02 -0.10164615875E+03  0.41702199437E+03  0.43180902726E+03  0.00000000000E+00 0. -1.
        -13    1    3    3    0    0 -0.17205154166E+02  0.98440523489E+02  0.13034089644E+03  0.16424160033E+03  0.00000000000E+00 0.  1.
         14    1    3    3    0    0 -0.13991253544E+02 -0.12159766011E+02  0.92944273309E+01  0.20736476667E+02  0.00000000000E+00 0. -1.
          5    1    4    4  501    0  0.59605357439E+02 -0.33988861098E+01  0.19595503733E+01  0.59918952760E+02  0.47000000000E+01 0.  1.
         -5    1    4    4    0  501 -0.40022605178E+02  0.75374717018E+02 -0.64661006525E+01  0.85714977387E+02  0.47000000000E+01 0.  1.
          1    1    1    2  502    0  0.25998685345E+02 -0.63997680396E+02  0.16787634286E+04  0.16801840030E+04  0.00000000000E+00 0. -1.
          1    1    1    2  503    0  0.26810245135E+02  0.12812675857E+02 -0.35315607536E+03  0.35440396085E+03  0.00000000000E+00 0. -1.
<mgrwt>
<rscale>  0 0.45301718E+02</rscale>
<asrwt>0</asrwt>
<pdfrwt beam="1">  1        2 0.38555762E+00 0.69065369E+02</pdfrwt>
<pdfrwt beam="2">  1        2 0.67600311E-01 0.29714540E+02</pdfrwt>
<totfact> 0.54345704E+01</totfact>
</mgrwt>
</event>
<event>
13    1  0.2038932E-008  0.1306701E+03  0.7546771E-02  0.1292059E+00
          2   -1    0    0  502    0  0.00000000000E+00  0.00000000000E+00  0.26859178037E+04  0.26859178037E+04  0.00000000000E+00 0. -1.
          2   -1    0    0  503    0 -0.00000000000E+00 -0.00000000000E+00 -0.19866773296E+04  0.19866773296E+04  0.00000000000E+00 0. -1.
         24    2    1    2    0    0 -0.21526199037E+03  0.43345276876E+02  0.95593793115E+03  0.98425889398E+03  0.82046966096E+02 0.  0.
         25    2    1    2    0    0  0.33202197331E+03 -0.24570983164E+03  0.63220996823E+03  0.76545841820E+03  0.12500093572E+03 0.  0.
         24    2    1    2    0    0 -0.10326343283E+03  0.10140741568E+02  0.46681727412E+03  0.48500657314E+03  0.80912529108E+02 0.  0.
        -13    1    5    5    0    0 -0.49780308674E+01 -0.26287989403E+02  0.96548992655E+02  0.10018755991E+03  0.00000000000E+00 0.  1.
         14    1    5    5    0    0 -0.98285401958E+02  0.36428730970E+02  0.37026828147E+03  0.38481901323E+03  0.00000000000E+00 0. -1.
        -13    1    3    3    0    0 -0.62186929726E+02  0.52039522880E+02  0.32998277860E+03  0.33979988279E+03  0.00000000000E+00 0.  1.
         14    1    3    3    0    0 -0.15307506065E+03 -0.86942460035E+01  0.62595515255E+03  0.64445901119E+03  0.00000000000E+00 0. -1.
          5    1    4    4  501    0  0.22228210254E+03 -0.12361993550E+03  0.28921329292E+03  0.38517222170E+03  0.47000000000E+01 0.  1.
         -5    1    4    4    0  501  0.10973987077E+03 -0.12208989614E+03  0.34299667531E+03  0.38028619650E+03  0.47000000000E+01 0.  1.
          1    1    1    2  502    0 -0.20195149388E+02  0.12405223817E+03  0.53314522919E+03  0.54775965282E+03  0.00000000000E+00 0. -1.
          1    1    1    2  503    0  0.66985992773E+01  0.68171575024E+02 -0.18888699286E+04  0.18901115952E+04  0.00000000000E+00 0. -1.
<mgrwt>
<rscale>  0 0.94609139E+02</rscale>
<asrwt>0</asrwt>
<pdfrwt beam="1">  1        2 0.39498791E+00 0.13067012E+03</pdfrwt>
<pdfrwt beam="2">  1        2 0.29215843E+00 0.68499890E+02</pdfrwt>
<totfact> 0.61250012E+00</totfact>
</mgrwt>
</event>
<event>
13    1  0.2038932E-008  0.6128130E+02  0.7546771E-02  0.1401417E+00
          2   -1    0    0  502    0  0.00000000000E+00  0.00000000000E+00  0.15158222891E+04  0.15158222891E+04  0.00000000000E+00 0. -1.
          2   -1    0    0  503    0 -0.00000000000E+00 -0.00000000000E+00 -0.21343712305E+04  0.21343712305E+04  0.00000000000E+00 0. -1.
         24    2    1    2    0    0 -0.37800927118E+02  0.87426376835E+02 -0.62825005483E+03  0.64007642838E+03  0.76989748080E+02 0.  0.
         25    2    1    2    0    0 -0.19447252962E+00  0.26633930210E+03  0.10643449213E+04  0.11042605807E+04  0.12499862775E+03 0.  0.
         24    2    1    2    0    0 -0.90403250812E+01 -0.24529839564E+03 -0.22281140555E+03  0.34124746084E+03  0.80943663791E+02 0.  0.
        -13    1    3    3    0    0  0.65824229418E+01 -0.85939395405E+01 -0.20435510496E+02  0.23125617351E+02  0.00000000000E+00 0.  1.
         14    1    3    3    0    0 -0.44383350059E+02  0.96020316375E+02 -0.60781454433E+03  0.61695081102E+03  0.00000000000E+00 0. -1.
        -13    1    5    5    0    0  0.65738318737E+00  0.53091440150E+01  0.58836982516E+00  0.53819459193E+01  0.00000000000E+00 0.  1.
         14    1    5    5    0    0 -0.96977082686E+01 -0.25060753966E+03 -0.22339977537E+03  0.33586551493E+03  0.00000000000E+00 0. -1.
          5    1    4    4  501    0  0.56239062508E+02  0.13543542376E+03  0.43950403381E+03  0.46334811092E+03  0.47000000000E+01 0. -1.
         -5    1    4    4    0  501 -0.56433535037E+02  0.13090387834E+03  0.62484088754E+03  0.64091246982E+03  0.47000000000E+01 0. -1.
          1    1    1    2  502    0  0.24355992216E+02 -0.56063936263E+02  0.36315237559E+03  0.36826081410E+03  0.00000000000E+00 0. -1.
          1    1    1    2  503    0  0.22679732512E+02 -0.52403347027E+02 -0.11949847780E+04  0.11963482356E+04  0.00000000000E+00 0. -1.
<mgrwt>
<rscale>  0 0.59154040E+02</rscale>
<asrwt>0</asrwt>
<pdfrwt beam="1">  1        2 0.22291504E+00 0.61281301E+02</pdfrwt>
<pdfrwt beam="2">  1        2 0.31387812E+00 0.57100622E+02</pdfrwt>
<totfact> 0.21439633E+01</totfact>
</mgrwt>
</event>
<event>
13    1  0.2038932E-008  0.5875736E+02  0.7546771E-02  0.1529562E+00
          2   -1    0    0  502    0  0.00000000000E+00  0.00000000000E+00  0.40148653556E+04  0.40148653556E+04  0.00000000000E+00 0. -1.
          2   -1    0    0  503    0 -0.00000000000E+00 -0.00000000000E+00 -0.27823233783E+04  0.27823233783E+04  0.00000000000E+00 0. -1.
         24    2    1    2    0    0  0.79940320205E+03 -0.48667615977E+03  0.48021984540E+03  0.10548721441E+04  0.79025163580E+02 0.  0.
         25    2    1    2    0    0 -0.28178267397E+03 -0.80809649251E+03 -0.16351101172E+03  0.88021688557E+03  0.12499799253E+03 0.  0.
         24    2    1    2    0    0 -0.47928853034E+03  0.13535128461E+04  0.47231567467E+03  0.15141152256E+04  0.88024428481E+02 0.  0.
        -11    1    3    3    0    0  0.20897665157E+03 -0.87819767041E+02  0.11280163727E+03  0.25319510611E+03  0.00000000000E+00 0.  1.
         12    1    3    3    0    0  0.59042655048E+03 -0.39885639273E+03  0.36741820813E+03  0.80167703796E+03  0.00000000000E+00 0. -1.
        -11    1    5    5    0    0 -0.17703840426E+03  0.59745504776E+03  0.17424063656E+03  0.64703549370E+03  0.00000000000E+00 0.  1.
         12    1    5    5    0    0 -0.30225012608E+03  0.75605779833E+03  0.29807503811E+03  0.86707973191E+03  0.00000000000E+00 0. -1.
          5    1    4    4  501    0 -0.67934052033E+02 -0.14394845087E+03  0.15153170320E+02  0.15996218461E+03  0.47000000000E+01 0. -1.
         -5    1    4    4    0  501 -0.21384862194E+03 -0.66414804164E+03 -0.17866418204E+03  0.72025470097E+03  0.47000000000E+01 0. -1.
          1    1    1    2  502    0 -0.14804437401E+02 -0.56858991022E+02  0.18951997753E+04  0.18961103092E+04  0.00000000000E+00 0. -1.
          1    1    1    2  503    0 -0.23527560339E+02 -0.18812027920E+01 -0.14516823065E+04  0.14518741695E+04  0.00000000000E+00 0. -1.
<mgrwt>
<rscale>  0 0.37240159E+02</rscale>
<asrwt>0</asrwt>
<pdfrwt beam="1">  1        2 0.59042138E+00 0.58757364E+02</pdfrwt>
<pdfrwt beam="2">  1        2 0.40916520E+00 0.23602649E+02</pdfrwt>
<totfact> 0.59637550E-01</totfact>
</mgrwt>
</event>
<event>
13    1  0.2038932E-008  0.7340062E+02  0.7546771E-02  0.1419089E+00
          2   -1    0    0  503    0  0.00000000000E+00  0.00000000000E+00  0.18752817373E+04  0.18752817373E+04  0.00000000000E+00 0. -1.
          2   -1    0    0  502    0 -0.00000000000E+00 -0.00000000000E+00 -0.22595789303E+04  0.22595789303E+04  0.00000000000E+00 0. -1.
         24    2    1    2    0    0 -0.33200632151E+02  0.41984553370E+02 -0.37359436936E+03  0.38536155725E+03  0.77883196493E+02 0.  0.
         25    2    1    2    0    0  0.32825824662E+02 -0.16120427452E+02 -0.97194753030E+02  0.16251093445E+03  0.12500232340E+03 0.  0.
         24    2    1    2    0    0 -0.36465577355E+02 -0.28326876211E+02  0.51032862281E+03  0.51881773519E+03  0.81267390961E+02 0.  0.
        -13    1    5    5    0    0 -0.17415846924E+02 -0.55099580018E+02  0.38215823395E+03  0.38650251127E+03  0.00000000000E+00 0.  1.
         14    1    5    5    0    0 -0.19049730431E+02  0.26772703808E+02  0.12817038887E+03  0.13231522392E+03  0.00000000000E+00 0. -1.
        -13    1    3    3    0    0  0.13034345047E+02  0.35580062462E+02 -0.25688115410E+03  0.25966086021E+03  0.00000000000E+00 0.  1.
         14    1    3    3    0    0 -0.46234977198E+02  0.64044909081E+01 -0.11671321526E+03  0.12570069704E+03  0.00000000000E+00 0. -1.
          5    1    4    4  501    0 -0.45309809075E+02 -0.10531294407E+02 -0.15565569485E+02  0.49277417888E+02  0.47000000000E+01 0. -1.
         -5    1    4    4    0  501  0.78135633736E+02 -0.55891330449E+01 -0.81629183545E+02  0.11323351657E+03  0.47000000000E+01 0. -1.
          1    1    1    2  502    0 -0.29400329414E+02 -0.29337296549E+02 -0.17447353547E+04  0.17452296452E+04  0.00000000000E+00 0. -1.
          1    1    1    2  503    0  0.66240714259E+02  0.31800046841E+02  0.13208986613E+04  0.13229407956E+04  0.00000000000E+00 0. -1.
<mgrwt>
<rscale>  0 0.55214188E+02</rscale>
<asrwt>0</asrwt>
<pdfrwt beam="1">  1        2 0.27577673E+00 0.73400622E+02</pdfrwt>
<pdfrwt beam="2">  1        2 0.33229102E+00 0.41533798E+02</pdfrwt>
<totfact> 0.12925354E+01</totfact>
</mgrwt>
</event>
<event>
13    1  0.2038932E-008  0.1370978E+03  0.7546771E-02  0.1224579E+00
         -3   -1    0    0    0  501 -0.00000000000E+00  0.00000000000E+00  0.13559754677E+04  0.13559754677E+04  0.00000000000E+00 0.  1.
          2   -1    0    0  503    0  0.00000000000E+00 -0.00000000000E+00 -0.24332133081E+04  0.24332133081E+04  0.00000000000E+00 0. -1.
         24    2    1    2    0    0  0.46109336424E+02  0.18959535777E+01  0.14232118587E+03  0.17137851115E+03  0.83579953289E+02 0.  0.
         25    2    1    2    0    0 -0.28202293274E+03 -0.18728505402E+03 -0.35373332587E+02  0.36261433104E+03  0.12500101745E+03 0.  0.
         24    2    1    2    0    0  0.25074592773E+02 -0.44025207764E+02  0.68183301413E+03  0.68842386062E+03  0.80400239966E+02 0.  0.
        -11    1    3    3    0    0  0.59437605009E+01 -0.35985834530E+02  0.34312552086E+02  0.50076539481E+02  0.00000000000E+00 0.  1.
         12    1    3    3    0    0  0.40165575923E+02  0.37881788108E+02  0.10800863379E+03  0.12130197167E+03  0.00000000000E+00 0. -1.
        -13    1    5    5    0    0  0.37022048975E+02 -0.12612500645E+02  0.57724997748E+03  0.57857345582E+03  0.00000000000E+00 0.  1.
         14    1    5    5    0    0 -0.11947456202E+02 -0.31412707119E+02  0.10458303666E+03  0.10985040480E+03  0.00000000000E+00 0. -1.
          5    1    4    4  502    0 -0.57440867150E+02  0.66042244892E+01  0.18786686131E+02  0.60976213197E+02  0.47000000000E+01 0.  1.
         -5    1    4    4    0  502 -0.22458206559E+03 -0.19388927851E+03 -0.54160018718E+02  0.30163811784E+03  0.47000000000E+01 0.  1.
          1    1    1    2  503    0  0.10233496761E+03  0.73462123049E+02 -0.21886965892E+04  0.21923188383E+04  0.00000000000E+00 0. -1.
         -4    1    1    2    0  501  0.10850403593E+03  0.15595218516E+03  0.32267788133E+03  0.37445323469E+03  0.00000000000E+00 0.  1.
<mgrwt>
<rscale>  0 0.13195829E+03</rscale>
<asrwt>0</asrwt>
<pdfrwt beam="2">  1        2 0.35782548E+00 0.12701142E+03</pdfrwt>
<pdfrwt beam="1">  1       -3 0.19940816E+00 0.13709784E+03</pdfrwt>
<totfact> 0.55349949E-01</totfact>
</mgrwt>
</event>
<event>
13    1  0.2038932E-008  0.1117371E+03  0.7546771E-02  0.1279161E+00
          2   -1    0    0  502    0  0.00000000000E+00  0.00000000000E+00  0.11492095046E+04  0.11492095046E+04  0.00000000000E+00 0. -1.
          2   -1    0    0  503    0 -0.00000000000E+00 -0.00000000000E+00 -0.16667193310E+04  0.16667193310E+04  0.00000000000E+00 0. -1.
         24    2    1    2    0    0 -0.37567098344E+02  0.24392443004E+02 -0.12241100049E+03  0.15310424238E+03  0.80312999193E+02 0.  0.
         25    2    1    2    0    0  0.28155081271E+02 -0.85949277636E+02 -0.10234694463E+02  0.15462096076E+03  0.12499162215E+03 0.  0.
         24    2    1    2    0    0  0.60978365028E+02  0.41179044287E+02  0.13094991559E+03  0.17080427776E+03  0.81315104480E+02 0.  0.
        -11    1    3    3    0    0 -0.29253206014E+02 -0.20655973647E+02 -0.90355469788E+02  0.97193262267E+02  0.00000000000E+00 0.  1.
         12    1    3    3    0    0 -0.83138923295E+01  0.45048416651E+02 -0.32055530701E+02  0.55910980110E+02  0.00000000000E+00 0. -1.
        -13    1    5    5    0    0 -0.18054912772E+02  0.12416361047E+02  0.47568670316E+02  0.52372934732E+02  0.00000000000E+00 0.  1.
         14    1    5    5    0    0  0.79033277800E+02  0.28762683240E+02  0.83381245279E+02  0.11843134303E+03  0.00000000000E+00 0. -1.
          5    1    4    4  501    0  0.48201463046E+02 -0.50077804993E+02 -0.58562863230E+02  0.91010255150E+02  0.47000000000E+01 0.  1.
         -5    1    4    4    0  501 -0.20046381775E+02 -0.35871472643E+02  0.48328168767E+02  0.63610705610E+02  0.47000000000E+01 0.  1.
          1    1    1    2  502    0 -0.30643010031E+02  0.10839316006E+03  0.90586667305E+03  0.91284308649E+03  0.00000000000E+00 0. -1.
          1    1    1    2  503    0 -0.20923337924E+02 -0.88015369713E+02 -0.14216807201E+04  0.14245562682E+04  0.00000000000E+00 0. -1.
<mgrwt>
<rscale>  0 0.10054179E+03</rscale>
<asrwt>0</asrwt>
<pdfrwt beam="1">  1        2 0.16900140E+00 0.11173710E+03</pdfrwt>
<pdfrwt beam="2">  1        2 0.24510578E+00 0.90468179E+02</pdfrwt>
<totfact> 0.50239337E+01</totfact>
</mgrwt>
</event>
<event>
13    1  0.2038932E-008  0.9983291E+02  0.7546771E-02  0.1382416E+00
          2   -1    0    0  503    0  0.00000000000E+00  0.00000000000E+00  0.11613173548E+04  0.11613173548E+04  0.00000000000E+00 0. -1.
          2   -1    0    0  502    0 -0.00000000000E+00 -0.00000000000E+00 -0.14399671421E+04  0.14399671421E+04  0.00000000000E+00 0. -1.
         24    2    1    2    0    0 -0.38252022412E+03  0.18066638310E+03 -0.12777377673E+03  0.45468291232E+03  0.10699695741E+03 0.  0.
         25    2    1    2    0    0  0.52837897565E+03 -0.21461389791E+03 -0.41650750469E+03  0.71718002126E+03  0.12500085738E+03 0.  0.
         24    2    1    2    0    0 -0.14723635916E+02  0.26926440747E+02  0.27781050145E+02  0.87946632357E+02  0.77595133417E+02 0.  0.
        -11    1    3    3    0    0 -0.23376374345E+03  0.52595888554E+02 -0.59828387728E+02  0.24696406869E+03  0.00000000000E+00 0.  1.
         12    1    3    3    0    0 -0.14875648067E+03  0.12807049455E+03 -0.67945388997E+02  0.20771884364E+03  0.00000000000E+00 0. -1.
        -13    1    5    5    0    0 -0.24988713246E+02 -0.21389027681E+02  0.18334923299E+02  0.37657611544E+02  0.00000000000E+00 0.  1.
         14    1    5    5    0    0  0.10265077330E+02  0.48315468428E+02  0.94461268461E+01  0.50289020813E+02  0.00000000000E+00 0. -1.
          5    1    4    4  501    0  0.11281547973E+03 -0.75355340896E+02 -0.46219169040E+02  0.14340174844E+03  0.47000000000E+01 0. -1.
         -5    1    4    4    0  501  0.41556349592E+03 -0.13925855701E+03 -0.37028833565E+03  0.57377827282E+03  0.47000000000E+01 0. -1.
          1    1    1    2  502    0 -0.33568204354E+02 -0.23216560113E+02 -0.54774661718E+03  0.54926513601E+03  0.00000000000E+00 0. -1.
          1    1    1    2  503    0 -0.97566911256E+02  0.30237634176E+02  0.78559706118E+03  0.79220979496E+03  0.00000000000E+00 0. -1.
<mgrwt>
<rscale>  0 0.63832922E+02</rscale>
<asrwt>0</asrwt>
<pdfrwt beam="1">  1        2 0.17078196E+00 0.99832908E+02</pdfrwt>
<pdfrwt beam="2">  1        2 0.21175987E+00 0.40814618E+02</pdfrwt>
<totfact> 0.68418786E+01</totfact>
</mgrwt>
</event>
<event>
13    1  0.2038932E-008  0.7024228E+02  0.7546771E-02  0.1515770E+00
         -3   -1    0    0    0  501 -0.00000000000E+00  0.00000000000E+00  0.46738553000E+03  0.46738553000E+03  0.00000000000E+00 0.  1.
          4   -1    0    0  503    0  0.00000000000E+00 -0.00000000000E+00 -0.83662916775E+03  0.83662916775E+03  0.00000000000E+00 0. -1.
         24    2    1    2    0    0 -0.56228938704E+02 -0.48101240583E+02  0.25044084899E+03  0.27111938964E+03  0.72867562779E+02 0.  0.
         25    2    1    2    0    0  0.18857273388E+02  0.17025371158E+03 -0.20371436635E+03  0.29405348096E+03  0.12500393410E+03 0.  0.
         24    2    1    2    0    0 -0.36374195638E+02 -0.11954046493E+03  0.71886715980E+02  0.16466796477E+03  0.79591669302E+02 0.  0.
        -11    1    3    3    0    0  0.10794787713E+02 -0.19073169579E+02  0.11663865742E+03  0.11867977774E+03  0.00000000000E+00 0.  1.
         12    1    3    3    0    0 -0.67023726416E+02 -0.29028071004E+02  0.13380219157E+03  0.15243961190E+03  0.00000000000E+00 0. -1.
        -13    1    5    5    0    0 -0.58496554913E+02 -0.10803685971E+03  0.63928176227E+02  0.13849412156E+03  0.00000000000E+00 0.  1.
         14    1    5    5    0    0  0.22122359275E+02 -0.11503605223E+02  0.79585397533E+01  0.26173843204E+02  0.00000000000E+00 0. -1.
          5    1    4    4  502    0  0.29210692581E+02  0.17361751022E+03 -0.12876394838E+03  0.21817091653E+03  0.47000000000E+01 0.  1.
         -5    1    4    4    0  502 -0.10353419194E+02 -0.33637986417E+01 -0.74950417973E+02  0.75882564431E+02  0.47000000000E+01 0.  1.
          3    1    1    2  503    0  0.67838949603E+02  0.18210015902E+02 -0.52581118435E+03  0.53048197835E+03  0.00000000000E+00 0. -1.
         -4    1    1    2    0  501  0.59069113509E+01 -0.20822021965E+02  0.37954347974E+02  0.43691884036E+02  0.00000000000E+00 0.  1.
<mgrwt>
<rscale>  0 0.38991028E+02</rscale>
<asrwt>0</asrwt>
<pdfrwt beam="2">  1        4 0.12303370E+00 0.70242279E+02</pdfrwt>
<pdfrwt beam="1">  1       -3 0.68733167E-01 0.21643664E+02</pdfrwt>
<totfact> 0.19562125E+00</totfact>
</mgrwt>
</event>
<event>
13    1  0.2038932E-008  0.9720800E+02  0.7546771E-02  0.1393192E+00
         -1   -1    0    0    0  501 -0.00000000000E+00  0.00000000000E+00  0.84480384597E+03  0.84480384597E+03  0.00000000000E+00 0.  1.
          4   -1    0    0  503    0  0.00000000000E+00 -0.00000000000E+00 -0.69741161189E+03  0.69741161189E+03  0.00000000000E+00 0. -1.
         24    2    1    2    0    0  0.80716451287E+02  0.66036185094E+01  0.24339287884E+03  0.26894651600E+03  0.80829336958E+02 0.  0.
         25    2    1    2    0    0  0.95226820326E+01 -0.17875912498E+02 -0.13642930623E+03  0.18614391079E+03  0.12500548071E+03 0.  0.
         24    2    1    2    0    0  0.48146030139E+01 -0.97923251404E+01  0.13492992459E+03  0.15742239233E+03  0.80353313703E+02 0.  0.
        -11    1    3    3    0    0 -0.60278416801E+01  0.14263835566E+02  0.69425233017E+01  0.16970283149E+02  0.00000000000E+00 0.  1.
         12    1    3    3    0    0  0.86744292967E+02 -0.76602170566E+01  0.23645035554E+03  0.25197623285E+03  0.00000000000E+00 0. -1.
        -13    1    5    5    0    0  0.71433318382E+01 -0.34239704340E+02  0.20830181168E+02  0.40709716169E+02  0.00000000000E+00 0.  1.
         14    1    5    5    0    0 -0.23287288243E+01  0.24447379200E+02  0.11409974342E+03  0.11671267616E+03  0.00000000000E+00 0. -1.
          5    1    4    4  502    0  0.54286364503E+02 -0.45314026441E+02 -0.97861643114E+02  0.12082781781E+03  0.47000000000E+01 0. -1.
         -5    1    4    4    0  502 -0.44763682470E+02  0.27438113943E+02 -0.38567663114E+02  0.65316092987E+02  0.47000000000E+01 0. -1.
          3    1    1    2  503    0  0.34662325805E+02  0.16592887617E+02 -0.50126355357E+03  0.50273447354E+03  0.00000000000E+00 0. -1.
         -2    1    1    2    0  501 -0.12971606214E+03  0.44717315127E+01  0.40676229045E+03  0.42696816520E+03  0.00000000000E+00 0.  1.
<mgrwt>
<rscale>  0 0.61119737E+02</rscale>
<asrwt>0</asrwt>
<pdfrwt beam="2">  1        4 0.10256053E+00 0.38429165E+02</pdfrwt>
<pdfrwt beam="1">  1       -1 0.12423586E+00 0.97207998E+02</pdfrwt>
<totfact> 0.18673566E+00</totfact>
</mgrwt>
</event>
<event>
13    1  0.2038932E-008  0.1173701E+03  0.7546771E-02  0.1444474E+00
          2   -1    0    0  502    0  0.00000000000E+00  0.00000000000E+00  0.16567510406E+04  0.16567510406E+04  0.00000000000E+00 0. -1.
          2   -1    0    0  503    0 -0.00000000000E+00 -0.00000000000E+00 -0.37334504933E+04  0.37334504933E+04  0.00000000000E+00 0. -1.
         24    2    1    2    0    0  0.98499013906E+03 -0.87909436795E+03  0.15459076969E+03  0.13310000627E+04  0.68193687223E+02 0.  0.
         25    2    1    2    0    0  0.42119458794E+02 -0.16534871253E+03 -0.43977897510E+03  0.48800126424E+03  0.12500176566E+03 0.  0.
         24    2    1    2    0    0 -0.93155814724E+03  0.10537549617E+04 -0.89180575311E+03  0.16673124193E+04  0.80081841343E+02 0.  0.
        -11    1    3    3    0    0  0.53964371605E+03 -0.43643770182E+03  0.76331677955E+02  0.69822613307E+03  0.00000000000E+00 0.  1.
         12    1    3    3    0    0  0.44534642302E+03 -0.44265666613E+03  0.78259091732E+02  0.63277392961E+03  0.00000000000E+00 0. -1.
        -13    1    5    5    0    0 -0.60858641144E+02  0.53985140201E+02 -0.33605645287E+02  0.88019935012E+02  0.00000000000E+00 0.  1.
         14    1    5    5    0    0 -0.87069950610E+03  0.99976982148E+03 -0.85820010783E+03  0.15792924843E+04  0.00000000000E+00 0. -1.
          5    1    4    4  501    0  0.74357215517E+02 -0.67693392839E+02 -0.28369042150E+03  0.30102115571E+03  0.47000000000E+01 0. -1.
         -5    1    4    4    0  501 -0.32237756723E+02 -0.97655319689E+02 -0.15608855360E+03  0.18698010853E+03  0.47000000000E+01 0. -1.
          1    1    1    2  502    0 -0.11694302263E+03 -0.10717101273E+02  0.49514110949E+03  0.50887645368E+03  0.00000000000E+00 0. -1.
          1    1    1    2  503    0  0.21391572014E+02  0.14052200723E+01 -0.13948466037E+04  0.13950113339E+04  0.00000000000E+00 0. -1.
<mgrwt>
<rscale>  0 0.50161171E+02</rscale>
<asrwt>0</asrwt>
<pdfrwt beam="1">  1        2 0.24363986E+00 0.11737014E+03</pdfrwt>
<pdfrwt beam="2">  1        2 0.54903683E+00 0.21437677E+02</pdfrwt>
<totfact> 0.31550027E+00</totfact>
</mgrwt>
</event>
<event>
13    1  0.2038932E-008  0.7016527E+02  0.7546771E-02  0.1480631E+00
          2   -1    0    0  503    0  0.00000000000E+00  0.00000000000E+00  0.14384173616E+03  0.14384173616E+03  0.00000000000E+00 0. -1.
          2   -1    0    0  502    0 -0.00000000000E+00 -0.00000000000E+00 -0.21856847866E+04  0.21856847866E+04  0.00000000000E+00 0. -1.
         24    2    1    2    0    0 -0.72107516243E+01 -0.44538283958E+02 -0.25420308968E+03  0.27043389587E+03  0.80496133768E+02 0.  0.
         25    2    1    2    0    0 -0.23258400676E+02  0.19099708015E+03 -0.11882743562E+03  0.25839116172E+03  0.12500078068E+03 0.  0.
         24    2    1    2    0    0 -0.12743154487E+02 -0.15461012467E+03 -0.21313743434E+03  0.27567461592E+03  0.80636525887E+02 0.  0.
        -13    1    3    3    0    0 -0.86812779983E+01  0.20489251575E+02 -0.32513727138E+02  0.39399447588E+02  0.00000000000E+00 0.  1.
         14    1    3    3    0    0  0.14705263740E+01 -0.65027535533E+02 -0.22168936255E+03  0.23103444828E+03  0.00000000000E+00 0. -1.
        -13    1    5    5    0    0 -0.36491038929E+02 -0.10242130495E+03 -0.95107977344E+02  0.14445499986E+03  0.00000000000E+00 0.  1.
         14    1    5    5    0    0  0.23747884442E+02 -0.52188819716E+02 -0.11802945700E+03  0.13121961606E+03  0.00000000000E+00 0. -1.
          5    1    4    4  501    0  0.34578297220E+02  0.26819022566E+02 -0.60369911373E+02  0.74709670118E+02  0.47000000000E+01 0.  1.
         -5    1    4    4    0  501 -0.57836697896E+02  0.16417805759E+03 -0.58457524246E+02  0.18368149160E+03  0.47000000000E+01 0.  1.
          1    1    1    2  502    0  0.66532334411E+02  0.22917702011E+02 -0.14838890622E+04  0.14855566369E+04  0.00000000000E+00 0. -1.
          1    1    1    2  503    0 -0.23320027623E+02 -0.14766373535E+02  0.28213971428E+02  0.39470212306E+02  0.00000000000E+00 0. -1.
<mgrwt>
<rscale>  0 0.44007961E+02</rscale>
<asrwt>0</asrwt>
<pdfrwt beam="1">  1        2 0.21153200E-01 0.27601983E+02</pdfrwt>
<pdfrwt beam="2">  1        2 0.32142418E+00 0.70165270E+02</pdfrwt>
<totfact> 0.28624415E+02</totfact>
</mgrwt>
</event>
<event>
13    1  0.2038932E-008  0.1520313E+03  0.7546771E-02  0.1270651E+00
          2   -1    0    0  502    0  0.00000000000E+00  0.00000000000E+00  0.33013053028E+04  0.33013053028E+04  0.00000000000E+00 0. -1.
          2   -1    0    0  503    0 -0.00000000000E+00 -0.00000000000E+00 -0.11534449375E+04  0.11534449375E+04  0.00000000000E+00 0. -1.
         24    2    1    2    0    0 -0.19035311609E+03  0.32600181743E+02 -0.41525215773E+03  0.46495893419E+03  0.80345350413E+02 0.  0.
         25    2    1    2    0    0 -0.55227730594E+02 -0.93861928801E+02  0.51789480072E+03  0.54378321060E+03  0.12499996646E+03 0.  0.
         24    2    1    2    0    0  0.59174080324E+02  0.47721535351E+02 -0.18086409618E+03  0.21233505478E+03  0.81212298845E+02 0.  0.
        -11    1    3    3    0    0 -0.18174497689E+03  0.94116252745E+01 -0.33850941236E+03  0.38432855419E+03  0.00000000000E+00 0.  1.
         12    1    3    3    0    0 -0.86081392005E+01  0.23188556468E+02 -0.76742745373E+02  0.80630380000E+02  0.00000000000E+00 0. -1.
        -13    1    5    5    0    0 -0.10187061225E+02 -0.83113184919E+01 -0.31702744200E+01  0.13524232746E+02  0.00000000000E+00 0.  1.
         14    1    5    5    0    0  0.69361141549E+02  0.56032853843E+02 -0.17769382176E+03  0.19881082204E+03  0.00000000000E+00 0. -1.
          5    1    4    4  501    0 -0.87183276011E+02 -0.35524031316E+02  0.36509754915E+03  0.37706921223E+03  0.47000000000E+01 0. -1.
         -5    1    4    4    0  501  0.31955545417E+02 -0.58337897485E+02  0.15279725157E+03  0.16671399837E+03  0.47000000000E+01 0. -1.
          1    1    1    2  502    0  0.29324548365E+02 -0.65917991049E+02  0.27140059197E+04  0.27149646854E+04  0.00000000000E+00 0. -1.
          1    1    1    2  503    0  0.15708221799E+03  0.79458202756E+02 -0.48792410127E+03  0.51870835524E+03  0.00000000000E+00 0. -1.
<mgrwt>
<rscale>  0 0.10473068E+03</rscale>
<asrwt>0</asrwt>
<pdfrwt beam="1">  1        2 0.48548607E+00 0.72146453E+02</pdfrwt>
<pdfrwt beam="2">  1        2 0.16962426E+00 0.15203126E+03</pdfrwt>
<totfact> 0.76841435E+00</totfact>
</mgrwt>
</event>
<event>
13    1  0.2038932E-008  0.5586823E+02  0.7546771E-02  0.1477756E+00
          2   -1    0    0  503    0  0.00000000000E+00  0.00000000000E+00  0.30422445099E+03  0.30422445099E+03  0.00000000000E+00 0. -1.
          2   -1    0    0  502    0 -0.00000000000E+00 -0.00000000000E+00 -0.31347169402E+04  0.31347169402E+04  0.00000000000E+00 0. -1.
         24    2    1    2    0    0 -0.48938040188E+01 -0.20926449199E+01 -0.20039389104E+04  0.20055606713E+04  0.80461923988E+02 0.  0.
         25    2    1    2    0    0  0.11790748710E+03 -0.21038259112E+02 -0.24258319201E+03  0.29801835195E+03  0.12499419665E+03 0.  0.
         24    2    1    2    0    0 -0.34845954646E+02 -0.23200288636E+02  0.11058494346E+03  0.14143814287E+03  0.77609436227E+02 0.  0.
        -11    1    3    3    0    0 -0.27838989453E+02 -0.30438813667E+02 -0.79232007663E+03  0.79339311475E+03  0.00000000000E+00 0.  1.
         12    1    3    3    0    0  0.22945185434E+02  0.28346168747E+02 -0.12116188338E+04  0.12121675566E+04  0.00000000000E+00 0. -1.
        -13    1    5    5    0    0 -0.21209218638E+02 -0.32841259374E+02  0.11210390784E+02  0.40670039759E+02  0.00000000000E+00 0.  1.
         14    1    5    5    0    0 -0.13636736008E+02  0.96409707375E+01  0.99374552675E+02  0.10076810311E+03  0.00000000000E+00 0. -1.
          5    1    4    4  501    0  0.66007240800E+02 -0.14162472998E+02 -0.21850192430E+02  0.71112955140E+02  0.47000000000E+01 0. -1.
         -5    1    4    4    0  501  0.51900246303E+02 -0.68757861142E+01 -0.22073299958E+03  0.22690539681E+03  0.47000000000E+01 0. -1.
          1    1    1    2  502    0 -0.49212255813E+02  0.26004891265E+02 -0.84121677912E+03  0.84305620807E+03  0.00000000000E+00 0. -1.
          1    1    1    2  503    0 -0.28955472626E+02  0.20326301404E+02  0.14666144893E+03  0.15086801691E+03  0.00000000000E+00 0. -1.
<mgrwt>
<rscale>  0 0.44457693E+02</rscale>
<asrwt>0</asrwt>
<pdfrwt beam="1">  1        2 0.44738891E-01 0.35377647E+02</pdfrwt>
<pdfrwt beam="2">  1        2 0.46098777E+00 0.55868229E+02</pdfrwt>
<totfact> 0.46484051E+01</totfact>
</mgrwt>
</event>
<event>
13    1  0.2038932E-008  0.1295622E+03  0.7546771E-02  0.1340900E+00
          2   -1    0    0  502    0  0.00000000000E+00  0.00000000000E+00  0.10299556965E+04  0.10299556965E+04  0.00000000000E+00 0. -1.
          2   -1    0    0  503    0 -0.00000000000E+00 -0.00000000000E+00 -0.22739387577E+04  0.22739387577E+04  0.00000000000E+00 0. -1.
         24    2    1    2    0    0 -0.10551979545E+02  0.22536309394E+02 -0.53729786540E+03  0.54392028355E+03  0.80876753046E+02 0.  0.
         25    2    1    2    0    0 -0.17513558522E+03  0.10271866533E+03  0.22756270180E+03  0.32959837792E+03  0.12500684005E+03 0.  0.
         24    2    1    2    0    0  0.17640361689E+02 -0.23612934503E+02 -0.34267345634E+03  0.35319764096E+03  0.80341289892E+02 0.  0.
        -11    1    5    5    0    0 -0.24304729234E+02  0.43057794231E+00 -0.40921149252E+02  0.47596698589E+02  0.00000000000E+00 0.  1.
         12    1    5    5    0    0  0.41945090923E+02 -0.24043512445E+02 -0.30175230709E+03  0.30560094237E+03  0.00000000000E+00 0. -1.
        -13    1    3    3    0    0  0.23929406935E+02  0.25072078274E+02 -0.42523392486E+03  0.42664401611E+03  0.00000000000E+00 0.  1.
         14    1    3    3    0    0 -0.34481386480E+02 -0.25357688797E+01 -0.11206394054E+03  0.11727626745E+03  0.00000000000E+00 0. -1.
          5    1    4    4  501    0 -0.14846402641E+03  0.37421869936E+02  0.97531549523E+02  0.18159420872E+03  0.47000000000E+01 0. -1.
         -5    1    4    4    0  501 -0.26671558810E+02  0.65296795391E+02  0.13003115228E+03  0.14800416920E+03  0.47000000000E+01 0. -1.
          1    1    1    2  502    0 -0.31476322190E+02 -0.31517100286E+02  0.73374243264E+03  0.73509322125E+03  0.00000000000E+00 0. -1.
          1    1    1    2  503    0  0.19952352527E+03 -0.70124939932E+02 -0.13253168740E+04  0.13420849305E+04  0.00000000000E+00 0. -1.
<mgrwt>
<rscale>  0 0.75967745E+02</rscale>
<asrwt>0</asrwt>
<pdfrwt beam="1">  1        2 0.15146408E+00 0.44543086E+02</pdfrwt>
<pdfrwt beam="2">  1        2 0.33440275E+00 0.12956216E+03</pdfrwt>
<totfact> 0.30022901E+01</totfact>
</mgrwt>
</event>
<event>
13    1  0.2038932E-008  0.1919691E+03  0.7546771E-02  0.1231008E+00
          2   -1    0    0  502    0  0.00000000000E+00  0.00000000000E+00  0.28576176731E+04  0.28576176731E+04  0.00000000000E+00 0. -1.
          2   -1    0    0  503    0 -0.00000000000E+00 -0.00000000000E+00 -0.44675964759E+03  0.44675964759E+03  0.00000000000E+00 0. -1.
         24    2    1    2    0    0 -0.11249969847E+03 -0.26834523860E+02  0.22771051493E+03  0.26777104335E+03  0.80454827225E+02 0.  0.
         25    2    1    2    0    0  0.74162634553E+02  0.11920212290E+03 -0.12214740237E+03  0.22417312043E+03  0.12499743018E+03 0.  0.
         24    2    1    2    0    0  0.96100069000E+02 -0.13424698955E+03  0.23520730838E+03  0.29829663460E+03  0.80005792495E+02 0.  0.
        -11    1    5    5    0    0  0.10865602516E+03 -0.12970282883E+03  0.22483246348E+03  0.28138690845E+03  0.00000000000E+00 0.  1.
         12    1    5    5    0    0 -0.12555956164E+02 -0.45441607202E+01  0.10374844902E+02  0.16909726154E+02  0.00000000000E+00 0. -1.
        -13    1    3    3    0    0 -0.83018020928E+02  0.15281543046E+02  0.17415444593E+03  0.19353368801E+03  0.00000000000E+00 0.  1.
         14    1    3    3    0    0 -0.29481677539E+02 -0.42116066907E+02  0.53556068997E+02  0.74237355345E+02  0.00000000000E+00 0. -1.
          5    1    4    4  501    0  0.32835460396E+02  0.51595471433E+02 -0.13065990406E+03  0.14434112602E+03  0.47000000000E+01 0.  1.
         -5    1    4    4    0  501  0.41327174157E+02  0.67606651465E+02  0.85125016955E+01  0.79831994409E+02  0.47000000000E+01 0.  1.
          1    1    1    2  502    0  0.14779861346E+03  0.24801474975E+02  0.22411550742E+04  0.22461601924E+04  0.00000000000E+00 0. -1.
          1    1    1    2  503    0 -0.20556161855E+03  0.17077915538E+02 -0.17106746964E+03  0.26797632990E+03  0.00000000000E+00 0. -1.
<mgrwt>
<rscale>  0 0.12763484E+03</rscale>
<asrwt>0</asrwt>
<pdfrwt beam="1">  1        2 0.42023789E+00 0.84860822E+02</pdfrwt>
<pdfrwt beam="2">  1        2 0.65699949E-01 0.19196907E+03</pdfrwt>
<totfact> 0.40780985E+01</totfact>
</mgrwt>
</event>
<event>
13    1  0.2038932E-008  0.1206685E+03  0.7546771E-02  0.1373817E+00
         -1   -1    0    0    0  501 -0.00000000000E+00  0.00000000000E+00  0.16355631480E+03  0.16355631480E+03  0.00000000000E+00 0.  1.
          2   -1    0    0  503    0  0.00000000000E+00 -0.00000000000E+00 -0.23095282352E+04  0.23095282352E+04  0.00000000000E+00 0. -1.
         24    2    1    2    0    0 -0.58447631541E+02  0.64692736301E+02 -0.22089368176E+02  0.12040673118E+03  0.80053513126E+02 0.  0.
         25    2    1    2    0    0 -0.10319832878E+03 -0.84885636981E+01 -0.44008259997E+03  0.46906371232E+03  0.12500448247E+03 0.  0.
         24    2    1    2    0    0  0.40555960301E+02  0.46538057522E+02 -0.19227321301E+03  0.21770691610E+03  0.81343322789E+02 0.  0.
        -11    1    3    3    0    0 -0.44321335560E+02 -0.70366892065E+01 -0.37406567762E+01  0.45032080720E+02  0.00000000000E+00 0.  1.
         12    1    3    3    0    0 -0.14126295981E+02  0.71729425508E+02 -0.18348711400E+02  0.75374650459E+02  0.00000000000E+00 0. -1.
        -13    1    5    5    0    0 -0.14722656907E+01  0.33958181214E+02 -0.15914217704E+03  0.16273155241E+03  0.00000000000E+00 0.  1.
         14    1    5    5    0    0  0.42028225991E+02  0.12579876308E+02 -0.33131035967E+02  0.54975363684E+02  0.00000000000E+00 0. -1.
          5    1    4    4  502    0 -0.27451284619E+02  0.56115352556E+02 -0.17212701740E+03  0.18317288538E+03  0.47000000000E+01 0.  1.
         -5    1    4    4    0  502 -0.75747044163E+02 -0.64603916254E+02 -0.26795558257E+03  0.28589082694E+03  0.47000000000E+01 0.  1.
          1    1    1    2  503    0 -0.36207717846E+02 -0.11958033203E+01 -0.14777275586E+04  0.14781715618E+04  0.00000000000E+00 0. -1.
         -2    1    1    2    0  501  0.15729771787E+03 -0.10154642681E+03 -0.13799180637E+02  0.18773562856E+03  0.00000000000E+00 0.  1.
<mgrwt>
<rscale>  0 0.66117418E+02</rscale>
<asrwt>0</asrwt>
<pdfrwt beam="2">  1        2 0.33963648E+00 0.36227459E+02</pdfrwt>
<pdfrwt beam="1">  1       -1 0.24052401E-01 0.12066850E+03</pdfrwt>
<totfact> 0.12324798E+02</totfact>
</mgrwt>
</event>
<event>
13    1  0.2038932E-008  0.5727683E+02  0.7546771E-02  0.1470708E+00
          2   -1    0    0  502    0  0.00000000000E+00  0.00000000000E+00  0.28636315499E+04  0.28636315499E+04  0.00000000000E+00 0. -1.
          2   -1    0    0  503    0 -0.00000000000E+00 -0.00000000000E+00 -0.48454783071E+03  0.48454783071E+03  0.00000000000E+00 0. -1.
         24    2    1    2    0    0 -0.10792253529E+03 -0.82374480500E+02 -0.38644587132E+03  0.42026223151E+03  0.94059040572E+02 0.  0.
         25    2    1    2    0    0  0.17899204125E+03 -0.71840147860E+01  0.12320287799E+04  0.12512464774E+04  0.12503228375E+03 0.  0.
         24    2    1    2    0    0 -0.24013487535E+01  0.33673583160E+02 -0.13407423685E+01  0.87306114882E+02  0.80503934233E+02 0.  0.
        -11    1    5    5    0    0  0.12517450791E+02  0.42716945260E+00 -0.35324083063E+02  0.37478792567E+02  0.00000000000E+00 0.  1.
         12    1    5    5    0    0 -0.14918799544E+02  0.33246413707E+02  0.33983340695E+02  0.49827322314E+02  0.00000000000E+00 0. -1.
        -11    1    3    3    0    0 -0.58167979578E+01 -0.38859021012E+02 -0.38372362291E+02  0.54920823376E+02  0.00000000000E+00 0.  1.
         12    1    3    3    0    0 -0.10210573733E+03 -0.43515459488E+02 -0.34807350903E+03  0.36534140813E+03  0.00000000000E+00 0. -1.
          5    1    4    4  501    0  0.40806883726E+02  0.53274257192E+02  0.35128799213E+03  0.35767120608E+03  0.47000000000E+01 0.  1.
         -5    1    4    4    0  501  0.13818515753E+03 -0.60458271978E+02  0.88074078773E+03  0.89357527136E+03  0.47000000000E+01 0.  1.
          1    1    1    2  502    0 -0.33676120053E+02  0.46290446522E+02  0.15492628788E+04  0.15503200812E+04  0.00000000000E+00 0. -1.
          1    1    1    2  503    0 -0.34992037154E+02  0.95944656041E+01 -0.14421325823E+02  0.39044475575E+02  0.00000000000E+00 0. -1.
<mgrwt>
<rscale>  0 0.45587356E+02</rscale>
<asrwt>0</asrwt>
<pdfrwt beam="1">  1        2 0.42112228E+00 0.57276828E+02</pdfrwt>
<pdfrwt beam="2">  1        2 0.71257035E-01 0.36283556E+02</pdfrwt>
<totfact> 0.40025361E+01</totfact>
</mgrwt>
</event>
<event>
13    1  0.2038932E-008  0.1566831E+03  0.7546771E-02  0.1281415E+00
          2   -1    0    0  502    0  0.00000000000E+00  0.00000000000E+00  0.56407901675E+03  0.56407901675E+03  0.00000000000E+00 0. -1.
          2   -1    0    0  503    0 -0.00000000000E+00 -0.00000000000E+00 -0.16557050391E+04  0.16557050391E+04  0.00000000000E+00 0. -1.
         24    2    1    2    0    0  0.12832492429E+03  0.22757531770E+02 -0.52129634048E+03  0.54333333702E+03  0.80473903075E+02 0.  0.
         25    2    1    2    0    0  0.17739953716E+02  0.16645371254E+03 -0.58364431626E+03  0.61990872004E+03  0.12499835560E+03 0.  0.
         24    2    1    2    0    0  0.64565201234E+02 -0.90654873650E+02  0.27429446204E+03  0.30707958279E+03  0.81691168043E+02 0.  0.
        -11    1    3    3    0    0  0.13461461390E+03  0.67025495799E+01 -0.48043520152E+03  0.49898296695E+03  0.00000000000E+00 0.  1.
         12    1    3    3    0    0 -0.62896896099E+01  0.16054982190E+02 -0.40861138959E+02  0.44350370072E+02  0.00000000000E+00 0. -1.
        -13    1    5    5    0    0  0.61235468405E+02 -0.37391675637E+02  0.89365306136E+02  0.11460400490E+03  0.00000000000E+00 0.  1.
         14    1    5    5    0    0  0.33297328286E+01 -0.53263198013E+02  0.18492915590E+03  0.19247557789E+03  0.00000000000E+00 0. -1.
          5    1    4    4  501    0  0.16596615042E+02 -0.69444159542E+01 -0.17481209659E+03  0.17579826978E+03  0.47000000000E+01 0.  1.
         -5    1    4    4    0  501  0.11433386738E+01  0.17339812849E+03 -0.40883221967E+03  0.44411045026E+03  0.47000000000E+01 0.  1.
          1    1    1    2  502    0 -0.15388134584E+03 -0.70857226153E+02  0.21251391572E+03  0.27177634089E+03  0.00000000000E+00 0. -1.
          1    1    1    2  503    0 -0.56748733408E+02 -0.27699144505E+02 -0.47349374339E+03  0.47768607513E+03  0.00000000000E+00 0. -1.
<mgrwt>
<rscale>  0 0.99469678E+02</rscale>
<asrwt>0</asrwt>
<pdfrwt beam="1">  1        2 0.82952797E-01 0.15668315E+03</pdfrwt>
<pdfrwt beam="2">  1        2 0.24348603E+00 0.63147932E+02</pdfrwt>
<totfact> 0.12550990E+02</totfact>
</mgrwt>
</event>
<event>
13    1  0.2038932E-008  0.4298189E+02  0.7546771E-02  0.1494618E+00
          2   -1    0    0  502    0  0.00000000000E+00  0.00000000000E+00  0.12780197637E+04  0.12780197637E+04  0.00000000000E+00 0. -1.
          2   -1    0    0  503    0 -0.00000000000E+00 -0.00000000000E+00 -0.15561582440E+04  0.15561582440E+04  0.00000000000E+00 0. -1.
         24    2    1    2    0    0 -0.18682536998E+03 -0.16740602997E+02 -0.49849575158E+03  0.53879680157E+03  0.81363458506E+02 0.  0.
         25    2    1    2    0    0  0.51311384883E+02 -0.98622474220E+01  0.20449208237E+03  0.24531049156E+03  0.12502041184E+03 0.  0.
         24    2    1    2    0    0  0.16001775137E+03  0.34295579095E+02  0.62486399528E+03  0.65009172499E+03  0.73364642758E+02 0.  0.
        -11    1    3    3    0    0 -0.14571369135E+03 -0.11174153552E+02 -0.27437017631E+03  0.31086385316E+03  0.00000000000E+00 0.  1.
         12    1    3    3    0    0 -0.41111678629E+02 -0.55664494449E+01 -0.22412557527E+03  0.22793294841E+03  0.00000000000E+00 0. -1.
        -11    1    5    5    0    0  0.94944000020E+02  0.55369417610E+02  0.41822154451E+03  0.43242270505E+03  0.00000000000E+00 0.  1.
         12    1    5    5    0    0  0.65073751346E+02 -0.21073838515E+02  0.20664245077E+03  0.21766901995E+03  0.00000000000E+00 0. -1.
          5    1    4    4  501    0  0.54775687543E+02  0.34596802281E+01  0.17565022036E+02  0.57818382304E+02  0.47000000000E+01 0.  1.
         -5    1    4    4    0  501 -0.34643026598E+01 -0.13321927650E+02  0.18692706034E+03  0.18749210926E+03  0.47000000000E+01 0.  1.
          1    1    1    2  502    0 -0.20837321394E+02  0.35149898926E+02  0.39397273995E+03  0.39608613859E+03  0.00000000000E+00 0. -1.
          1    1    1    2  503    0 -0.36664448792E+01 -0.42842627602E+02 -0.10029715464E+04  0.10038928510E+04  0.00000000000E+00 0. -1.
<mgrwt>
<rscale>  0 0.41908581E+02</rscale>
<asrwt>0</asrwt>
<pdfrwt beam="1">  1        2 0.18794408E+00 0.40862077E+02</pdfrwt>
<pdfrwt beam="2">  1        2 0.22884680E+00 0.42981885E+02</pdfrwt>
<totfact> 0.55315039E+01</totfact>
</mgrwt>
</event>
<event>
13    1  0.2038932E-008  0.6557785E+02  0.7546771E-02  0.1406243E+00
          2   -1    0    0  503    0  0.00000000000E+00  0.00000000000E+00  0.22695650098E+03  0.22695650098E+03  0.00000000000E+00 0. -1.
         -3   -1    0    0    0  501 -0.00000000000E+00 -0.00000000000E+00 -0.13800031615E+04  0.13800031615E+04  0.00000000000E+00 0.  1.
         24    2    1    2    0    0  0.10750175511E+02  0.50667760262E+02 -0.74725717133E+03  0.75327238529E+03  0.79644322669E+02 0.  0.
         25    2    1    2    0    0 -0.35472588867E+02  0.49130750911E+02 -0.13906642178E+02  0.13960864218E+03  0.12500017212E+03 0.  0.
         24    2    1    2    0    0 -0.46351961483E+02 -0.12584106128E+02 -0.24850098307E+03  0.26591210343E+03  0.81545349954E+02 0.  0.
        -11    1    5    5    0    0 -0.41719367188E+02  0.23721491454E+02 -0.19680166261E+03  0.20256877637E+03  0.00000000000E+00 0.  1.
         12    1    5    5    0    0 -0.46325942944E+01 -0.36305597581E+02 -0.51699320467E+02  0.63343327055E+02  0.00000000000E+00 0. -1.
        -13    1    3    3    0    0  0.10025034198E+02 -0.18180298385E+01 -0.51730375529E+03  0.51740407979E+03  0.00000000000E+00 0.  1.
         14    1    3    3    0    0  0.72514131347E+00  0.52485790101E+02 -0.22995341603E+03  0.23586830550E+03  0.00000000000E+00 0. -1.
          5    1    4    4  502    0 -0.65241866473E+02 -0.75285279937E+01  0.17544479703E+02  0.68140139732E+02  0.47000000000E+01 0.  1.
         -5    1    4    4    0  502  0.29769277606E+02  0.56659278904E+02 -0.31451121881E+02  0.71468502452E+02  0.47000000000E+01 0.  1.
          1    1    1    2  503    0  0.28231102993E+02 -0.58871897960E+02  0.14300726232E+03  0.15720678300E+03  0.00000000000E+00 0. -1.
         -4    1    1    2    0  501  0.42843271846E+02 -0.28342507086E+02 -0.28638912627E+03  0.29095974859E+03  0.00000000000E+00 0.  1.
<mgrwt>
<rscale>  0 0.58040615E+02</rscale>
<asrwt>0</asrwt>
<pdfrwt beam="1">  1        2 0.33375955E-01 0.65577852E+02</pdfrwt>
<pdfrwt beam="2">  1       -3 0.20294165E+00 0.51369676E+02</pdfrwt>
<totfact> 0.15040482E+01</totfact>
</mgrwt>
</event>
<event>
13    1  0.2038932E-008  0.1128327E+03  0.7546771E-02  0.1380387E+00
          2   -1    0    0  502    0  0.00000000000E+00  0.00000000000E+00  0.33886653524E+03  0.33886653524E+03  0.00000000000E+00 0. -1.
          2   -1    0    0  503    0 -0.00000000000E+00 -0.00000000000E+00 -0.16236255800E+04  0.16236255800E+04  0.00000000000E+00 0. -1.
         24    2    1    2    0    0  0.99110704334E+02  0.10387716192E+02 -0.42828882270E+03  0.44716831114E+03  0.81224051133E+02 0.  0.
         25    2    1    2    0    0 -0.65491839444E-01  0.17333654537E+02  0.34676610416E+02  0.13087346561E+03  0.12499974729E+03 0.  0.
         24    2    1    2    0    0  0.65138477637E+02  0.30693891321E-01 -0.69200251183E+02  0.12479165751E+03  0.80878061359E+02 0.  0.
        -11    1    5    5    0    0  0.70353003055E+02 -0.23748039445E+02 -0.67566766515E+02  0.10039313898E+03  0.00000000000E+00 0.  1.
         12    1    5    5    0    0 -0.52145254183E+01  0.23778733336E+02 -0.16334846679E+01  0.24398518532E+02  0.00000000000E+00 0. -1.
        -13    1    3    3    0    0  0.37271415800E+02  0.44399711800E+02 -0.18957033472E+03  0.19823573000E+03  0.00000000000E+00 0.  1.
         14    1    3    3    0    0  0.61839288534E+02 -0.34011995608E+02 -0.23871848798E+03  0.24893258114E+03  0.00000000000E+00 0. -1.
          5    1    4    4  501    0 -0.60810661293E+02  0.22590909541E+02  0.17563793917E+02  0.67371081166E+02  0.47000000000E+01 0.  1.
         -5    1    4    4    0  501  0.60745169453E+02 -0.52572550032E+01  0.17112816500E+02  0.63502384449E+02  0.47000000000E+01 0.  1.
          1    1    1    2  502    0  0.15894234155E+02  0.33094595239E+02  0.20856080710E+03  0.21176753569E+03  0.00000000000E+00 0. -1.
          1    1    1    2  503    0 -0.18007792429E+03 -0.60846659860E+02 -0.10305073884E+04  0.10478911452E+04  0.00000000000E+00 0. -1.
<mgrwt>
<rscale>  0 0.64362099E+02</rscale>
<asrwt>0</asrwt>
<pdfrwt beam="1">  1        2 0.49833315E-01 0.36713470E+02</pdfrwt>
<pdfrwt beam="2">  1        2 0.23876846E+00 0.11283269E+03</pdfrwt>
<totfact> 0.21313471E+02</totfact>
</mgrwt>
</event>
<event>
13    1  0.2038932E-008  0.4920793E+02  0.7546771E-02  0.1528769E+00
          2   -1    0    0  503    0  0.00000000000E+00  0.00000000000E+00  0.19015170670E+04  0.19015170670E+04  0.00000000000E+00 0. -1.
          2   -1    0    0  502    0 -0.00000000000E+00 -0.00000000000E+00 -0.30822610938E+04  0.30822610938E+04  0.00000000000E+00 0. -1.
         24    2    1    2    0    0  0.67264896948E+02  0.20452856342E+03 -0.10388295227E+04  0.10639497449E+04  0.80410092663E+02 0.  0.
         25    2    1    2    0    0 -0.49187395771E+02 -0.44419774325E+02 -0.73414823069E+01  0.14167566065E+03  0.12500231680E+03 0.  0.
         24    2    1    2    0    0  0.27440505333E+02 -0.15763046638E+03 -0.94912168022E+03  0.96587819626E+03  0.80550486576E+02 0.  0.
        -13    1    5    5    0    0  0.89882075792E+01 -0.13472603263E+03 -0.57667096449E+03  0.59226792335E+03  0.00000000000E+00 0.  1.
         14    1    5    5    0    0  0.18452297754E+02 -0.22904433747E+02 -0.37245071572E+03  0.37361027291E+03  0.00000000000E+00 0. -1.
        -13    1    3    3    0    0  0.54807555591E+02  0.81627466035E+02 -0.60254019995E+03  0.61050929880E+03  0.00000000000E+00 0.  1.
         14    1    3    3    0    0  0.12457341358E+02  0.12290109739E+03 -0.43628932270E+03  0.45344044614E+03  0.00000000000E+00 0. -1.
          5    1    4    4  501    0  0.35495803170E+02  0.13480311725E+02  0.34670473699E+01  0.38415898588E+02  0.47000000000E+01 0.  1.
         -5    1    4    4    0  501 -0.84683198941E+02 -0.57900086050E+02 -0.10808529677E+02  0.10325976206E+03  0.47000000000E+01 0.  1.
          1    1    1    2  502    0 -0.35121346689E+01 -0.28112496299E+02 -0.99832810932E+03  0.99873002428E+03  0.00000000000E+00 0. -1.
          1    1    1    2  503    0 -0.42005871842E+02  0.25634173577E+02  0.18128767677E+04  0.18135445346E+04  0.00000000000E+00 0. -1.
<mgrwt>
<rscale>  0 0.37337804E+02</rscale>
<asrwt>0</asrwt>
<pdfrwt beam="1">  1        2 0.27963487E+00 0.49207931E+02</pdfrwt>
<pdfrwt beam="2">  1        2 0.45327368E+00 0.28331035E+02</pdfrwt>
<totfact> 0.55678087E+00</totfact>
</mgrwt>
</event>
<event>
13    1  0.2038932E-008  0.8759800E+02  0.7546771E-02  0.1362682E+00
          2   -1    0    0  502    0  0.00000000000E+00  0.00000000000E+00  0.13608809463E+04  0.13608809463E+04  0.00000000000E+00 0. -1.
          2   -1    0    0  503    0 -0.00000000000E+00 -0.00000000000E+00 -0.90974999574E+03  0.90974999574E+03  0.00000000000E+00 0. -1.
         24    2    1    2    0    0  0.15837513511E+03  0.92556596517E+02  0.25679400496E+03  0.32528365277E+03  0.78847237062E+02 0.  0.
         25    2    1    2    0    0 -0.20844992044E+03 -0.24335936938E+02 -0.91928539834E+02  0.26099699795E+03  0.12499987739E+03 0.  0.
         24    2    1    2    0    0 -0.21935883574E+02 -0.52667290830E+02  0.51827456913E+03  0.52762459447E+03  0.80772255004E+02 0.  0.
        -11    1    5    5    0    0 -0.44678431760E+02 -0.53998966680E+02  0.29593689829E+03  0.30412283445E+03  0.00000000000E+00 0.  1.
         12    1    5    5    0    0  0.22742548186E+02  0.13316758501E+01  0.22233767084E+03  0.22350176002E+03  0.00000000000E+00 0. -1.
        -11    1    3    3    0    0  0.54094669787E+02 -0.76756187218E+01  0.61581433551E+02  0.82325095689E+02  0.00000000000E+00 0.  1.
         12    1    3    3    0    0  0.10428046532E+03  0.10023221524E+03  0.19521257141E+03  0.24295855708E+03  0.00000000000E+00 0. -1.
          5    1    4    4  501    0 -0.15955728242E+03 -0.38961121515E+02 -0.11915066163E+03  0.20296666113E+03  0.47000000000E+01 0.  1.
         -5    1    4    4    0  501 -0.48892638017E+02  0.14625184578E+02  0.27222121799E+02  0.58030336820E+02  0.47000000000E+01 0.  1.
          1    1    1    2  502    0  0.16455542850E+02  0.52203815992E+02  0.45795789546E+03  0.46121736449E+03  0.00000000000E+00 0. -1.
          1    1    1    2  503    0  0.55555126050E+02 -0.67757184741E+02 -0.68996697913E+03  0.69550833238E+03  0.00000000000E+00 0. -1.
<mgrwt>
<rscale>  0 0.69244200E+02</rscale>
<asrwt>0</asrwt>
<pdfrwt beam="1">  1        2 0.20012955E+00 0.54735942E+02</pdfrwt>
<pdfrwt beam="2">  1        2 0.13378676E+00 0.87598005E+02</pdfrwt>
<totfact> 0.10206214E+02</totfact>
</mgrwt>
</event>
<event>
13    1  0.2038932E-008  0.2389546E+03  0.7546771E-02  0.1319558E+00
          2   -1    0    0  502    0  0.00000000000E+00  0.00000000000E+00  0.13847688930E+04  0.13847688930E+04  0.00000000000E+00 0. -1.
          2   -1    0    0  503    0 -0.00000000000E+00 -0.00000000000E+00 -0.13971960658E+04  0.13971960658E+04  0.00000000000E+00 0. -1.
         24    2    1    2    0    0  0.26921825980E+03 -0.56873761757E+02 -0.69137464263E+02  0.29505028970E+03  0.81003631423E+02 0.  0.
         25    2    1    2    0    0 -0.14911289115E+03  0.12135368294E+03  0.33891366109E+02  0.23180908792E+03  0.12500183150E+03 0.  0.
         24    2    1    2    0    0  0.45710863261E+02  0.98309859042E+02  0.47823946516E+02  0.14285241326E+03  0.79783273369E+02 0.  0.
        -11    1    3    3    0    0  0.15090149320E+03 -0.64464508302E+02 -0.15196968827E+02  0.16479648462E+03  0.00000000000E+00 0.  1.
         12    1    3    3    0    0  0.11831676660E+03  0.75907465452E+01 -0.53940495436E+02  0.13025380508E+03  0.00000000000E+00 0. -1.
        -11    1    5    5    0    0  0.46689851286E+02  0.17512898263E+02  0.35273159933E+02  0.61080599460E+02  0.00000000000E+00 0.  1.
         12    1    5    5    0    0 -0.97898802581E+00  0.80796960778E+02  0.12550786584E+02  0.81771813802E+02  0.00000000000E+00 0. -1.
          5    1    4    4  501    0 -0.13941677082E+03  0.46981553042E+02 -0.48235730106E+01  0.14727409537E+03  0.47000000000E+01 0. -1.
         -5    1    4    4    0  501 -0.96961203355E+01  0.74372129894E+02  0.38714939119E+02  0.84534992551E+02  0.47000000000E+01 0. -1.
          1    1    1    2  502    0 -0.19179289087E+03 -0.14959090402E+03  0.10292478139E+04  0.10575977563E+04  0.00000000000E+00 0. -1.
          1    1    1    2  503    0  0.25976658963E+02 -0.13198876201E+02 -0.10542528350E+04  0.10546554116E+04  0.00000000000E+00 0. -1.
<mgrwt>
<rscale>  0 0.83441919E+02</rscale>
<asrwt>0</asrwt>
<pdfrwt beam="1">  1        2 0.20364248E+00 0.23895463E+03</pdfrwt>
<pdfrwt beam="2">  1        2 0.20547001E+00 0.29137556E+02</pdfrwt>
<totfact> 0.53125120E+01</totfact>
</mgrwt>
</event>
<event>
13    1  0.2038932E-008  0.8678714E+02  0.7546771E-02  0.1375127E+00
          2   -1    0    0  503    0  0.00000000000E+00  0.00000000000E+00  0.73596320222E+03  0.73596320222E+03  0.00000000000E+00 0. -1.
         -1   -1    0    0    0  501 -0.00000000000E+00 -0.00000000000E+00 -0.94612637704E+03  0.94612637704E+03  0.00000000000E+00 0.  1.
         24    2    1    2    0    0 -0.58470650769E+01 -0.33298787464E+02 -0.72313342637E+02  0.11310815834E+03  0.80132630956E+02 0.  0.
         25    2    1    2    0    0 -0.79227810153E+02 -0.31943830167E+02  0.48540303404E+03  0.50846436134E+03  0.12498978802E+03 0.  0.
         24    2    1    2    0    0  0.22896908369E+02 -0.75642100762E+02  0.26866244473E+01  0.11314583936E+03  0.80924453620E+02 0.  0.
        -11    1    3    3    0    0 -0.40621379019E+02 -0.74070425197E+01 -0.22331710380E+02  0.46943221031E+02  0.00000000000E+00 0.  1.
         12    1    3    3    0    0  0.34774313942E+02 -0.25891744944E+02 -0.49981632257E+02  0.66164937312E+02  0.00000000000E+00 0. -1.
        -13    1    5    5    0    0 -0.39279650684E+01 -0.84486904286E+02 -0.15021410706E+01  0.84591502725E+02  0.00000000000E+00 0.  1.
         14    1    5    5    0    0  0.26824873437E+02  0.88448035240E+01  0.41887655179E+01  0.28554336639E+02  0.00000000000E+00 0. -1.
          5    1    4    4  502    0 -0.46419199127E+02  0.46689493604E+02  0.21850913618E+03  0.22826077950E+03  0.47000000000E+01 0.  1.
         -5    1    4    4    0  502 -0.32808611026E+02 -0.78633323772E+02  0.26689389785E+03  0.28020358184E+03  0.47000000000E+01 0.  1.
          1    1    1    2  503    0  0.12370370484E+02  0.14240117571E+03  0.12794840868E+03  0.19183825530E+03  0.00000000000E+00 0. -1.
         -2    1    1    2    0  501  0.49807596377E+02 -0.15164573220E+01 -0.75388789935E+03  0.75553296493E+03  0.00000000000E+00 0.  1.
<mgrwt>
<rscale>  0 0.65762160E+02</rscale>
<asrwt>0</asrwt>
<pdfrwt beam="1">  1        2 0.10822988E+00 0.86787135E+02</pdfrwt>
<pdfrwt beam="2">  1       -1 0.13913623E+00 0.49830676E+02</pdfrwt>
<totfact> 0.25394899E+01</totfact>
</mgrwt>
</event>
<event>
13    1  0.2038932E-008  0.4793917E+02  0.7546771E-02  0.1579204E+00
          2   -1    0    0  503    0  0.00000000000E+00  0.00000000000E+00  0.51016817437E+03  0.51016817437E+03  0.00000000000E+00 0. -1.
          2   -1    0    0  502    0 -0.00000000000E+00 -0.00000000000E+00 -0.29555107207E+04  0.29555107207E+04  0.00000000000E+00 0. -1.
         24    2    1    2    0    0 -0.65176064846E+00 -0.86375562736E+02 -0.11937461783E+04  0.11992728250E+04  0.75922381101E+02 0.  0.
         25    2    1    2    0    0  0.18569225722E+03 -0.25705727893E+03 -0.10699136823E+04  0.11228971589E+04  0.12499073141E+03 0.  0.
         24    2    1    2    0    0 -0.12561947646E+03  0.36930456236E+03 -0.12425661554E+03  0.41721159720E+03  0.80372244506E+02 0.  0.
        -11    1    5    5    0    0 -0.78492576516E+02  0.13164920198E+03 -0.24604027845E+02  0.15523516076E+03  0.00000000000E+00 0.  1.
         12    1    5    5    0    0 -0.47126899946E+02  0.23765536038E+03 -0.99652587693E+02  0.26197643644E+03  0.00000000000E+00 0. -1.
        -13    1    3    3    0    0 -0.28122662806E+02 -0.80738407941E+02 -0.97383950247E+03  0.97758526546E+03  0.00000000000E+00 0.  1.
         14    1    3    3    0    0  0.27470902158E+02 -0.56371547952E+01 -0.21990667586E+03  0.22168755957E+03  0.00000000000E+00 0. -1.
          5    1    4    4  501    0  0.84096399716E+02 -0.10476248692E+03 -0.26180950585E+03  0.29430203952E+03  0.47000000000E+01 0.  1.
         -5    1    4    4    0  501  0.10159585750E+03 -0.15229479201E+03 -0.80810417643E+03  0.82859511940E+03  0.47000000000E+01 0.  1.
          1    1    1    2  502    0 -0.12300738821E+02 -0.17104415922E+02 -0.38985859179E+03  0.39042744628E+03  0.00000000000E+00 0. -1.
          1    1    1    2  503    0 -0.47120281284E+02 -0.87673047743E+01  0.33243252162E+03  0.33586986762E+03  0.00000000000E+00 0. -1.
<mgrwt>
<rscale>  0 0.31780376E+02</rscale>
<asrwt>0</asrwt>
<pdfrwt beam="1">  1        2 0.75024732E-01 0.47939173E+02</pdfrwt>
<pdfrwt beam="2">  1        2 0.43463393E+00 0.21068204E+02</pdfrwt>
<totfact> 0.40537420E+01</totfact>
</mgrwt>
</event>
<event>
13    1  0.2038932E-008  0.5216049E+02  0.7546771E-02  0.1538599E+00
          2   -1    0    0  503    0  0.00000000000E+00  0.00000000000E+00  0.31016979996E+04  0.31016979996E+04  0.00000000000E+00 0. -1.
          2   -1    0    0  502    0 -0.00000000000E+00 -0.00000000000E+00 -0.20667430687E+04  0.20667430687E+04  0.00000000000E+00 0. -1.
         24    2    1    2    0    0 -0.40594600626E+03  0.79223692109E+03 -0.94327322279E+03  0.13009508606E+04  0.10137686932E+03 0.  0.
         25    2    1    2    0    0 -0.10114161978E+03 -0.48983584378E+03  0.15995331687E+04  0.16805657789E+04  0.12500479308E+03 0.  0.
         24    2    1    2    0    0  0.52929196277E+03 -0.28233751156E+03 -0.39997978149E+03  0.72559732235E+03  0.81505805362E+02 0.  0.
        -11    1    3    3    0    0 -0.18419282721E+03  0.25867956553E+03 -0.31234770159E+03  0.44542474326E+03  0.00000000000E+00 0.  1.
         12    1    3    3    0    0 -0.22175317905E+03  0.53355735556E+03 -0.63092552119E+03  0.85552611730E+03  0.00000000000E+00 0. -1.
        -13    1    5    5    0    0  0.75484688047E+02 -0.13192867635E+02 -0.66220658438E+02  0.10127766531E+03  0.00000000000E+00 0.  1.
         14    1    5    5    0    0  0.45380727473E+03 -0.26914464392E+03 -0.33375912305E+03  0.62431965704E+03  0.00000000000E+00 0. -1.
          5    1    4    4  501    0  0.22097482781E+02 -0.12279257315E+03  0.31150446305E+03  0.33559415261E+03  0.47000000000E+01 0. -1.
         -5    1    4    4    0  501 -0.12323910256E+03 -0.36704327064E+03  0.12880287056E+04  0.13449716262E+04  0.47000000000E+01 0. -1.
          1    1    1    2  502    0  0.24956966788E+02  0.22387324181E+01 -0.34025773488E+03  0.34117911463E+03  0.00000000000E+00 0. -1.
          1    1    1    2  503    0 -0.47161303514E+02 -0.22302298166E+02  0.11189325014E+04  0.11201479919E+04  0.00000000000E+00 0. -1.
<mgrwt>
<rscale>  0 0.36152382E+02</rscale>
<asrwt>0</asrwt>
<pdfrwt beam="1">  1        2 0.45613206E+00 0.52160494E+02</pdfrwt>
<pdfrwt beam="2">  1        2 0.30393280E+00 0.25057177E+02</pdfrwt>
<totfact> 0.44297164E+00</totfact>
</mgrwt>
</event>
<event>
13    1  0.2038932E-008  0.3349816E+02  0.7546771E-02  0.1638578E+00
          2   -1    0    0  502    0  0.00000000000E+00  0.00000000000E+00  0.22000138297E+04  0.22000138297E+04  0.00000000000E+00 0. -1.
          2   -1    0    0  503    0 -0.00000000000E+00 -0.00000000000E+00 -0.51285005979E+04  0.51285005979E+04  0.00000000000E+00 0. -1.
         24    2    1    2    0    0 -0.12893323184E+04 -0.65638278647E+03 -0.19094990519E+04  0.23970600273E+04  0.80585084479E+02 0.  0.
         25    2    1    2    0    0 -0.28124044879E+03  0.15649053328E+03  0.44325399816E+03  0.56187826789E+03  0.12509038330E+03 0.  0.
         24    2    1    2    0    0  0.15926550982E+04  0.48679126357E+03 -0.14323934153E+04  0.21981623893E+04  0.81553648323E+02 0.  0.
        -11    1    5    5    0    0  0.21070620877E+03  0.93283000620E+02 -0.19111067195E+03  0.29936952676E+03  0.00000000000E+00 0.  1.
         12    1    5    5    0    0  0.13819488894E+04  0.39350826295E+03 -0.12412827434E+04  0.18987928626E+04  0.00000000000E+00 0. -1.
        -11    1    3    3    0    0 -0.62685040231E+03 -0.36326206183E+03 -0.94036004868E+03  0.11870879384E+04  0.00000000000E+00 0.  1.
         12    1    3    3    0    0 -0.66248191610E+03 -0.29312072464E+03 -0.96913900320E+03  0.12099720889E+04  0.00000000000E+00 0. -1.
          5    1    4    4  501    0 -0.15522818593E+03  0.12281413831E+03  0.34769668464E+03  0.40011770366E+03  0.47000000000E+01 0. -1.
         -5    1    4    4    0  501 -0.12601226287E+03  0.33676394978E+02  0.95557313520E+02  0.16176056423E+03  0.47000000000E+01 0. -1.
          1    1    1    2  502    0 -0.33128800166E+02 -0.49667547908E+01  0.10704188053E+04  0.10709428579E+04  0.00000000000E+00 0. -1.
          1    1    1    2  503    0  0.11046469175E+02  0.18067744407E+02 -0.11002671045E+04  0.11004708852E+04  0.00000000000E+00 0. -1.
<mgrwt>
<rscale>  0 0.26634424E+02</rscale>
<asrwt>0</asrwt>
<pdfrwt beam="1">  1        2 0.32353145E+00 0.33498161E+02</pdfrwt>
<pdfrwt beam="2">  1        2 0.75419126E+00 0.21177060E+02</pdfrwt>
<totfact> 0.18341536E-01</totfact>
</mgrwt>
</event>
<event>
13    1  0.2038932E-008  0.2402869E+03  0.7546771E-02  0.1130547E+00
          2   -1    0    0  502    0  0.00000000000E+00  0.00000000000E+00  0.14169930584E+04  0.14169930584E+04  0.00000000000E+00 0. -1.
          2   -1    0    0  503    0 -0.00000000000E+00 -0.00000000000E+00 -0.25888685459E+04  0.25888685459E+04  0.00000000000E+00 0. -1.
         24    2    1    2    0    0 -0.31856866890E+03 -0.33031343534E+03 -0.31188946979E+03  0.56114724772E+03  0.83774876224E+02 0.  0.
         25    2    1    2    0    0  0.20218708328E+03 -0.45481491120E+03 -0.10421114446E+04  0.11616183775E+04  0.12499908792E+03 0.  0.
         24    2    1    2    0    0  0.34156242904E+03  0.43512360489E+03 -0.40655480730E+02  0.56461702750E+03  0.10555602855E+03 0.  0.
        -11    1    5    5    0    0  0.18319487734E+03  0.15245113843E+03 -0.22983295022E+01  0.23834218051E+03  0.00000000000E+00 0.  1.
         12    1    5    5    0    0  0.15836755170E+03  0.28267246647E+03 -0.38357151228E+02  0.32627484699E+03  0.00000000000E+00 0. -1.
        -11    1    3    3    0    0 -0.56910503014E+02 -0.36694189912E+02 -0.79103770923E+02  0.10412816862E+03  0.00000000000E+00 0.  1.
         12    1    3    3    0    0 -0.26165816589E+03 -0.29361924543E+03 -0.23278569886E+03  0.45701907909E+03  0.00000000000E+00 0. -1.
          5    1    4    4  501    0  0.10366878568E+03 -0.36540762972E+03 -0.78592428500E+03  0.87290837132E+03  0.47000000000E+01 0. -1.
         -5    1    4    4    0  501  0.98518297602E+02 -0.89407281489E+02 -0.25618715957E+03  0.28871000619E+03  0.47000000000E+01 0. -1.
          1    1    1    2  502    0 -0.19167320778E+03  0.14288447292E+03  0.94066130889E+03  0.97056596336E+03  0.00000000000E+00 0. -1.
          1    1    1    2  503    0 -0.33507635642E+02  0.20712026874E+03 -0.71788040134E+03  0.74791298825E+03  0.00000000000E+00 0. -1.
<mgrwt>
<rscale>  0 0.22453362E+03</rscale>
<asrwt>0</asrwt>
<pdfrwt beam="1">  1        2 0.20838133E+00 0.24028686E+03</pdfrwt>
<pdfrwt beam="2">  1        2 0.38071596E+00 0.20981317E+03</pdfrwt>
<totfact> 0.11078171E+01</totfact>
</mgrwt>
</event>
<event>
13    1  0.2038932E-008  0.8614540E+02  0.7546771E-02  0.1362648E+00
          2   -1    0    0  502    0  0.00000000000E+00  0.00000000000E+00  0.69114350212E+03  0.69114350212E+03  0.00000000000E+00 0. -1.
          2   -1    0    0  503    0 -0.00000000000E+00 -0.00000000000E+00 -0.39469737236E+03  0.39469737236E+03  0.00000000000E+00 0. -1.
         24    2    1    2    0    0 -0.30776419303E+02  0.13506342622E+03  0.77916726836E+02  0.17810491900E+03  0.80380524781E+02 0.  0.
         25    2    1    2    0    0 -0.45693221586E+01 -0.12557024780E+03  0.15882787610E+03  0.23799293916E+03  0.12500231608E+03 0.  0.
         24    2    1    2    0    0 -0.77373521430E+02 -0.88646929774E+02  0.23179052171E+03  0.27197894665E+03  0.80004759155E+02 0.  0.
        -11    1    3    3    0    0  0.91547590203E+01 -0.73777461247E+01  0.23522575864E+01  0.11990574063E+02  0.00000000000E+00 0.  1.
         12    1    3    3    0    0 -0.39931178323E+02  0.14244117235E+03  0.75564469250E+02  0.16611434494E+03  0.00000000000E+00 0. -1.
        -13    1    5    5    0    0 -0.82902045595E+02 -0.89683308471E+02  0.16672847670E+03  0.20667421204E+03  0.00000000000E+00 0.  1.
         14    1    5    5    0    0  0.55285241647E+01  0.10363786976E+01  0.65062045012E+02  0.65304734602E+02  0.00000000000E+00 0. -1.
          5    1    4    4  501    0  0.67471703209E+00 -0.99773221167E+02  0.17866937852E+03  0.20469486492E+03  0.47000000000E+01 0.  1.
         -5    1    4    4    0  501 -0.52440391907E+01 -0.25797026628E+02 -0.19841502415E+02  0.33298074238E+02  0.47000000000E+01 0.  1.
          1    1    1    2  502    0  0.52601036559E+02  0.18243494844E+02  0.98948326449E+02  0.11353618568E+03  0.00000000000E+00 0. -1.
          1    1    1    2  503    0  0.60118226333E+02  0.60910256502E+02 -0.27103732134E+03  0.28422788400E+03  0.00000000000E+00 0. -1.
<mgrwt>
<rscale>  0 0.69254142E+02</rscale>
<asrwt>0</asrwt>
<pdfrwt beam="1">  1        2 0.10163875E+00 0.55674897E+02</pdfrwt>
<pdfrwt beam="2">  1        2 0.58043731E-01 0.86145398E+02</pdfrwt>
<totfact> 0.62317594E+02</totfact>
</mgrwt>
</event>
<event>
13    1  0.2038932E-008  0.4391104E+02  0.7546771E-02  0.1496105E+00
         -3   -1    0    0    0  501 -0.00000000000E+00  0.00000000000E+00  0.11204797778E+04  0.11204797778E+04  0.00000000000E+00 0.  1.
          2   -1    0    0  503    0  0.00000000000E+00 -0.00000000000E+00 -0.85314193717E+03  0.85314193717E+03  0.00000000000E+00 0. -1.
         24    2    1    2    0    0  0.11504030623E+02  0.16018557748E+03  0.17092269591E+03  0.25578173961E+03  0.10206844954E+03 0.  0.
         25    2    1    2    0    0 -0.41708432839E+02 -0.12960439080E+01 -0.24429591274E+03  0.27757143750E+03  0.12499654730E+03 0.  0.
         24    2    1    2    0    0  0.72900599841E+02 -0.12363506829E+03  0.19613123947E+03  0.25844944489E+03  0.87912029310E+02 0.  0.
        -11    1    3    3    0    0  0.24418407472E+01  0.13701987828E+03  0.74054413319E+02  0.15577055486E+03  0.00000000000E+00 0.  1.
         12    1    3    3    0    0  0.90621898753E+01  0.23165699199E+02  0.96868282587E+02  0.10001118475E+03  0.00000000000E+00 0. -1.
        -11    1    5    5    0    0  0.61371255124E+01 -0.49775900404E+02  0.16015243470E+02  0.52647816612E+02  0.00000000000E+00 0.  1.
         12    1    5    5    0    0  0.66763474328E+02 -0.73859167889E+02  0.18011599600E+03  0.20580162828E+03  0.00000000000E+00 0. -1.
          5    1    4    4  502    0 -0.63580581008E+02  0.18039919235E+02 -0.55375198431E+02  0.86350631547E+02  0.47000000000E+01 0.  1.
         -5    1    4    4    0  502  0.21872148168E+02 -0.19335963143E+02 -0.18892071431E+03  0.19122080596E+03  0.47000000000E+01 0.  1.
          1    1    1    2  503    0  0.10123336740E+01 -0.39575520516E+02 -0.51713505827E+03  0.51864816122E+03  0.00000000000E+00 0. -1.
         -4    1    1    2    0  501 -0.43708531298E+02  0.43210552425E+01  0.66171487626E+03  0.66317093172E+03  0.00000000000E+00 0.  1.
<mgrwt>
<rscale>  0 0.41693775E+02</rscale>
<asrwt>0</asrwt>
<pdfrwt beam="2">  1        2 0.12546205E+00 0.39588466E+02</pdfrwt>
<pdfrwt beam="1">  1       -3 0.16477644E+00 0.43911043E+02</pdfrwt>
<totfact> 0.63410554E+00</totfact>
</mgrwt>
</event>
<event>
13    1  0.3751162E-008  0.1550544E+03  0.7546771E-02  0.1269249E+00
          2   -1    0    0  502    0  0.00000000000E+00  0.00000000000E+00  0.16265279046E+04  0.16265279046E+04  0.00000000000E+00 0. -1.
          2   -1    0    0  503    0 -0.00000000000E+00 -0.00000000000E+00 -0.13266523672E+04  0.13266523672E+04  0.00000000000E+00 0. -1.
         24    2    1    2    0    0  0.11779895835E+02  0.65345750078E+02  0.75977358435E+02  0.12823673318E+03  0.79140809587E+02 0.  0.
         25    2    1    2    0    0 -0.16299704096E+03 -0.65930441974E+02 -0.22670664785E+03  0.31293331295E+03  0.12496597790E+03 0.  0.
         24    2    1    2    0    0 -0.77260027370E+02  0.59070923882E+02  0.15007645616E+03  0.19331054651E+03  0.73399855732E+02 0.  0.
        -13    1    5    5    0    0 -0.82760936813E+02  0.55902942288E+02  0.94898949273E+02  0.13776909012E+03  0.00000000000E+00 0.  1.
         14    1    5    5    0    0  0.55009094431E+01  0.31679815942E+01  0.55177506888E+02  0.55541456395E+02  0.00000000000E+00 0. -1.
        -13    1    3    3    0    0 -0.12138087167E+02  0.16575498435E+02 -0.12766638553E+02  0.24188165875E+02  0.00000000000E+00 0.  1.
         14    1    3    3    0    0  0.23917983002E+02  0.48770251643E+02  0.88743996989E+02  0.10404856730E+03  0.00000000000E+00 0. -1.
          5    1    4    4  501    0  0.14736740489E+02  0.60456064018E+01 -0.86684038916E+00  0.16630162034E+02  0.47000000000E+01 0. -1.
         -5    1    4    4    0  501 -0.17773378145E+03 -0.71976048376E+02 -0.22583980746E+03  0.29630315091E+03  0.47000000000E+01 0. -1.
          1    1    1    2  502    0  0.25817138993E+03  0.67822364745E+01  0.12955788521E+04  0.13210688958E+04  0.00000000000E+00 0. -1.
          1    1    1    2  503    0 -0.29694217439E+02 -0.65268468461E+02 -0.99505048141E+03  0.99763078344E+03  0.00000000000E+00 0. -1.
<mgrwt>
<rscale>  0 0.10544332E+03</rscale>
<asrwt>0</asrwt>
<pdfrwt beam="1">  1        2 0.23919528E+00 0.15505436E+03</pdfrwt>
<pdfrwt beam="2">  1        2 0.19509594E+00 0.71705784E+02</pdfrwt>
<totfact> 0.41756485E+01</totfact>
</mgrwt>
</event>
<event>
13    1  0.2038932E-008  0.2471759E+03  0.7546771E-02  0.1156677E+00
          2   -1    0    0  502    0  0.00000000000E+00  0.00000000000E+00  0.36388842177E+04  0.36388842177E+04  0.00000000000E+00 0. -1.
          2   -1    0    0  503    0 -0.00000000000E+00 -0.00000000000E+00 -0.83437128969E+03  0.83437128969E+03  0.00000000000E+00 0. -1.
         24    2    1    2    0    0  0.10615992378E+03  0.37047616121E+02 -0.11566589512E+03  0.18687714515E+03  0.94350478584E+02 0.  0.
         25    2    1    2    0    0 -0.46822425497E+03  0.29755036376E+03  0.97048024694E+03  0.11248229551E+04  0.12499839446E+03 0.  0.
         24    2    1    2    0    0  0.78305731841E+01  0.52734368803E+01  0.36529300800E+02  0.89901447583E+02  0.81601185332E+02 0.  0.
        -11    1    5    5    0    0  0.44219386187E+02  0.29936339228E+01  0.28105530931E+02  0.52480823428E+02  0.00000000000E+00 0.  1.
         12    1    5    5    0    0 -0.36388813003E+02  0.22798029575E+01  0.84237698697E+01  0.37420624154E+02  0.00000000000E+00 0. -1.
        -13    1    3    3    0    0  0.75846042756E+02 -0.23183746801E+02 -0.60323608222E+02  0.99644598581E+02  0.00000000000E+00 0.  1.
         14    1    3    3    0    0  0.30313881027E+02  0.60231362922E+02 -0.55342286898E+02  0.87232546572E+02  0.00000000000E+00 0. -1.
          5    1    4    4  501    0 -0.23369372620E+03  0.18850950503E+03  0.62334846369E+03  0.69190605457E+03  0.47000000000E+01 0. -1.
         -5    1    4    4    0  501 -0.23453052877E+03  0.10904085873E+03  0.34713178324E+03  0.43291690050E+03  0.47000000000E+01 0. -1.
          1    1    1    2  502    0  0.11193036873E+03 -0.23179450615E+03  0.24549448052E+04  0.24684025395E+04  0.00000000000E+00 0. -1.
          1    1    1    2  503    0  0.24230338927E+03 -0.10807691062E+03 -0.54177552983E+03  0.60325142005E+03  0.00000000000E+00 0. -1.
<mgrwt>
<rscale>  0 0.19199161E+03</rscale>
<asrwt>0</asrwt>
<pdfrwt beam="1">  1        2 0.53513003E+00 0.24717586E+03</pdfrwt>
<pdfrwt beam="2">  1        2 0.12270166E+00 0.14912775E+03</pdfrwt>
<totfact> 0.60722245E+00</totfact>
</mgrwt>
</event>
<event>
13    1  0.2038932E-008  0.1865275E+03  0.7546771E-02  0.1306809E+00
          2   -1    0    0  503    0  0.00000000000E+00  0.00000000000E+00  0.19186253838E+04  0.19186253838E+04  0.00000000000E+00 0. -1.
          2   -1    0    0  502    0 -0.00000000000E+00 -0.00000000000E+00 -0.22479862345E+04  0.22479862345E+04  0.00000000000E+00 0. -1.
         24    2    1    2    0    0 -0.19099754143E+03  0.15344269953E+03 -0.31686611119E+03  0.40983445854E+03  0.86806843687E+02 0.  0.
         25    2    1    2    0    0  0.34949232503E+03 -0.23734742369E+03  0.41907113054E+03  0.60805017665E+03  0.12500288033E+03 0.  0.
         24    2    1    2    0    0 -0.35855797293E+02 -0.19488119684E+03 -0.26153491647E+03  0.33759770486E+03  0.79419007257E+02 0.  0.
        -13    1    5    5    0    0 -0.57380309424E+02 -0.98131963237E+02 -0.15312891099E+03  0.19071141942E+03  0.00000000000E+00 0.  1.
         14    1    5    5    0    0  0.21524512130E+02 -0.96749233603E+02 -0.10840600548E+03  0.14688628544E+03  0.00000000000E+00 0. -1.
        -13    1    3    3    0    0 -0.57826894919E+02  0.68130301076E+02 -0.17882741492E+03  0.19991231085E+03  0.00000000000E+00 0.  1.
         14    1    3    3    0    0 -0.13317064651E+03  0.85312398449E+02 -0.13803869627E+03  0.20992214769E+03  0.00000000000E+00 0. -1.
          5    1    4    4  501    0  0.15438876108E+03 -0.41433085126E+02  0.19459561443E+03  0.25187721860E+03  0.47000000000E+01 0. -1.
         -5    1    4    4    0  501  0.19510356395E+03 -0.19591433856E+03  0.22447551610E+03  0.35617295806E+03  0.47000000000E+01 0. -1.
          1    1    1    2  502    0 -0.10730051865E+03  0.23981441885E+03 -0.14786657477E+04  0.15018244739E+04  0.00000000000E+00 0. -1.
          1    1    1    2  503    0 -0.15338467648E+02  0.38971502152E+02  0.13086347941E+04  0.13093048044E+04  0.00000000000E+00 0. -1.
<mgrwt>
<rscale>  0 0.88385649E+02</rscale>
<asrwt>0</asrwt>
<pdfrwt beam="1">  1        2 0.28215079E+00 0.41881339E+02</pdfrwt>
<pdfrwt beam="2">  1        2 0.33058621E+00 0.18652754E+03</pdfrwt>
<totfact> 0.11088192E+01</totfact>
</mgrwt>
</event>
<event>
13    1  0.2038932E-008  0.9079539E+02  0.7546771E-02  0.1422850E+00
          2   -1    0    0  503    0  0.00000000000E+00  0.00000000000E+00  0.10088764052E+04  0.10088764052E+04  0.00000000000E+00 0. -1.
          2   -1    0    0  502    0 -0.00000000000E+00 -0.00000000000E+00 -0.18093437496E+04  0.18093437496E+04  0.00000000000E+00 0. -1.
         24    2    1    2    0    0 -0.28989051097E+02  0.22793529030E+03 -0.51983687176E+03  0.57402165821E+03  0.80471294316E+02 0.  0.
         25    2    1    2    0    0 -0.15480071723E+02 -0.28297064930E+03 -0.10984188302E+03  0.32863629391E+03  0.12499821370E+03 0.  0.
         24    2    1    2    0    0  0.79534509900E+02 -0.30216248270E+02 -0.19199459148E+03  0.22515316716E+03  0.81198926111E+02 0.  0.
        -11    1    3    3    0    0 -0.93105828139E+01  0.11583557006E+03 -0.16832253621E+03  0.20454105319E+03  0.00000000000E+00 0.  1.
         12    1    3    3    0    0 -0.19678468284E+02  0.11209972024E+03 -0.35151433555E+03  0.36948060502E+03  0.00000000000E+00 0. -1.
        -11    1    5    5    0    0  0.56705047914E+02 -0.35653275860E+02 -0.19016171576E+03  0.20161373138E+03  0.00000000000E+00 0.  1.
         12    1    5    5    0    0  0.22829461986E+02  0.54370275906E+01 -0.18328757144E+01  0.23539435783E+02  0.00000000000E+00 0. -1.
          5    1    4    4  501    0  0.54632555515E+01 -0.21832221332E+03 -0.13410988754E+03  0.25632399015E+03  0.47000000000E+01 0. -1.
         -5    1    4    4    0  501 -0.20943327274E+02 -0.64648435979E+02  0.24268004525E+02  0.72312303763E+02  0.47000000000E+01 0. -1.
          1    1    1    2  502    0 -0.32152361112E+02 -0.55080406089E+01 -0.83187216756E+03  0.83251151103E+03  0.00000000000E+00 0. -1.
          1    1    1    2  503    0 -0.29130259677E+01  0.90759647876E+02  0.85307816939E+03  0.85789752447E+03  0.00000000000E+00 0. -1.
<mgrwt>
<rscale>  0 0.54422541E+02</rscale>
<asrwt>0</asrwt>
<pdfrwt beam="1">  1        2 0.14836418E+00 0.90795387E+02</pdfrwt>
<pdfrwt beam="2">  1        2 0.26607996E+00 0.32620742E+02</pdfrwt>
<totfact> 0.57507890E+01</totfact>
</mgrwt>
</event>
<event>
13    1  0.2038932E-008  0.1087745E+03  0.7546771E-02  0.1423596E+00
          2   -1    0    0  502    0  0.00000000000E+00  0.00000000000E+00  0.61844165224E+03  0.61844165224E+03  0.00000000000E+00 0. -1.
          2   -1    0    0  503    0 -0.00000000000E+00 -0.00000000000E+00 -0.17350892193E+04  0.17350892193E+04  0.00000000000E+00 0. -1.
         24    2    1    2    0    0 -0.16951743681E+02  0.24726533251E+01 -0.49834741943E+03  0.50503237383E+03  0.80087905066E+02 0.  0.
         25    2    1    2    0    0 -0.42100878976E+02  0.12944461940E+03 -0.18011646155E+02  0.18568018837E+03  0.12499727778E+03 0.  0.
         24    2    1    2    0    0 -0.37887755076E+02 -0.14009939453E+03 -0.80950479117E+02  0.19199453658E+03  0.96154041388E+02 0.  0.
        -13    1    5    5    0    0 -0.55973912143E+02 -0.14369369526E+03 -0.64055672583E+02  0.16698528704E+03  0.00000000000E+00 0.  1.
         14    1    5    5    0    0  0.18086157067E+02  0.35943007203E+01 -0.16894806535E+02  0.25009249548E+02  0.00000000000E+00 0. -1.
        -13    1    3    3    0    0  0.25893748835E+00  0.23728676810E+02 -0.45113232516E+02  0.50973727545E+02  0.00000000000E+00 0.  1.
         14    1    3    3    0    0 -0.17210681169E+02 -0.21256023485E+02 -0.45323418691E+03  0.45405864629E+03  0.00000000000E+00 0. -1.
          5    1    4    4  501    0 -0.35935175235E+02  0.68622187940E+01  0.35964120383E+02  0.51516354887E+02  0.47000000000E+01 0.  1.
         -5    1    4    4    0  501 -0.61657037415E+01  0.12258240060E+03 -0.53975766538E+02  0.13416383348E+03  0.47000000000E+01 0.  1.
          1    1    1    2  502    0  0.10404376471E+03  0.34307451661E+02  0.46924805444E+03  0.48186703852E+03  0.00000000000E+00 0. -1.
          1    1    1    2  503    0 -0.71033869780E+01 -0.26125329849E+02 -0.98858607675E+03  0.98895673419E+03  0.00000000000E+00 0. -1.
<mgrwt>
<rscale>  0 0.54267308E+02</rscale>
<asrwt>0</asrwt>
<pdfrwt beam="1">  1        2 0.90947301E-01 0.10877454E+03</pdfrwt>
<pdfrwt beam="2">  1        2 0.25516018E+00 0.27073806E+02</pdfrwt>
<totfact> 0.11377592E+02</totfact>
</mgrwt>
</event>
<event>
13    1  0.2038932E-008  0.1188828E+03  0.7546771E-02  0.1279315E+00
          2   -1    0    0  502    0  0.00000000000E+00  0.00000000000E+00  0.15438622633E+04  0.15438622633E+04  0.00000000000E+00 0. -1.
          2   -1    0    0  503    0 -0.00000000000E+00 -0.00000000000E+00 -0.12422085131E+04  0.12422085131E+04  0.00000000000E+00 0. -1.
         24    2    1    2    0    0 -0.47717779690E+02 -0.75846821885E+02 -0.35140518721E+03  0.37172642992E+03  0.81640714200E+02 0.  0.
         25    2    1    2    0    0 -0.85319160019E+02  0.10145317739E+02  0.26514041489E+03  0.30546218034E+03  0.12500166987E+03 0.  0.
         24    2    1    2    0    0 -0.33954209667E+02 -0.31363562119E+02  0.70013270470E+01  0.93019773553E+02  0.80418270987E+02 0.  0.
        -11    1    3    3    0    0 -0.36441124040E+02 -0.82573858026E+01 -0.22369417542E+03  0.22679335101E+03  0.00000000000E+00 0.  1.
         12    1    3    3    0    0 -0.11276655650E+02 -0.67589436082E+02 -0.12771101179E+03  0.14493307892E+03  0.00000000000E+00 0. -1.
        -11    1    5    5    0    0  0.35006379570E+01  0.17427602771E+02 -0.19197248790E+02  0.26163145177E+02  0.00000000000E+00 0.  1.
         12    1    5    5    0    0 -0.37454847624E+02 -0.48791164891E+02  0.26198575837E+02  0.66856628376E+02  0.00000000000E+00 0. -1.
          5    1    4    4  501    0 -0.61332189072E+02  0.63383584093E+02  0.19503706146E+03  0.21410432385E+03  0.47000000000E+01 0. -1.
         -5    1    4    4    0  501 -0.23986970947E+02 -0.53238266354E+02  0.70103353432E+02  0.91357856487E+02  0.47000000000E+01 0. -1.
          1    1    1    2  502    0  0.83997862305E+02  0.12380409767E+02  0.11925728927E+04  0.11955914937E+04  0.00000000000E+00 0. -1.
          1    1    1    2  503    0  0.82993287070E+02  0.84684656499E+02 -0.81165569717E+03  0.82027089885E+03  0.00000000000E+00 0. -1.
<mgrwt>
<rscale>  0 0.10046784E+03</rscale>
<asrwt>0</asrwt>
<pdfrwt beam="1">  1        2 0.22703857E+00 0.84905332E+02</pdfrwt>
<pdfrwt beam="2">  1        2 0.18267772E+00 0.11888284E+03</pdfrwt>
<totfact> 0.51493019E+01</totfact>
</mgrwt>
</event>
<event>
13    1  0.2038932E-008  0.4118098E+03  0.7546771E-02  0.1128592E+00
          2   -1    0    0  503    0  0.00000000000E+00  0.00000000000E+00  0.31268715976E+04  0.31268715976E+04  0.00000000000E+00 0. -1.
          2   -1    0    0  502    0 -0.00000000000E+00 -0.00000000000E+00 -0.47599867757E+04  0.47599867757E+04  0.00000000000E+00 0. -1.
         24    2    1    2    0    0  0.15057288481E+02  0.95039045837E+00 -0.36788989926E+03  0.37880348956E+03  0.89002699649E+02 0.  0.
         25    2    1    2    0    0  0.37992210494E+03  0.71803065584E+02  0.45470497205E+02  0.40888834201E+03  0.12500249624E+03 0.  0.
         24    2    1    2    0    0  0.18009899692E+03  0.40078296828E+02 -0.83904347417E+03  0.86281369947E+03  0.80072528918E+02 0.  0.
        -11    1    5    5    0    0  0.94127407160E+01 -0.18421616841E+02 -0.89032122857E+02  0.91403908862E+02  0.00000000000E+00 0.  1.
         12    1    5    5    0    0  0.17068625620E+03  0.58499913669E+02 -0.75001135131E+03  0.77140979061E+03  0.00000000000E+00 0. -1.
        -13    1    3    3    0    0 -0.17036926429E+02 -0.98395258051E+01 -0.16194800266E+02  0.25482242560E+02  0.00000000000E+00 0.  1.
         14    1    3    3    0    0  0.32094214910E+02  0.10789916263E+02 -0.35169509900E+03  0.35332124700E+03  0.00000000000E+00 0. -1.
          5    1    4    4  501    0  0.33476054810E+02  0.44952686595E+02 -0.95288610453E+01  0.57046292347E+02  0.47000000000E+01 0.  1.
         -5    1    4    4    0  501  0.34644605013E+03  0.26850378989E+02  0.54999358251E+02  0.35184204966E+03  0.47000000000E+01 0.  1.
          1    1    1    2  502    0 -0.18396891457E+03  0.23522719927E+02 -0.33365337408E+04  0.33416844979E+04  0.00000000000E+00 0. -1.
          1    1    1    2  503    0 -0.39110947577E+03 -0.13635447280E+03  0.28648814389E+04  0.28946683443E+04  0.00000000000E+00 0. -1.
<mgrwt>
<rscale>  0 0.22724845E+03</rscale>
<asrwt>0</asrwt>
<pdfrwt beam="1">  1        2 0.45983406E+00 0.41180980E+03</pdfrwt>
<pdfrwt beam="2">  1        2 0.69999806E+00 0.12540220E+03</pdfrwt>
<totfact> 0.57323562E-02</totfact>
</mgrwt>
</event>
<event>
13    1  0.2038932E-008  0.2214068E+03  0.7546771E-02  0.1317148E+00
          2   -1    0    0  503    0  0.00000000000E+00  0.00000000000E+00  0.13422443911E+04  0.13422443911E+04  0.00000000000E+00 0. -1.
          2   -1    0    0  502    0 -0.00000000000E+00 -0.00000000000E+00 -0.27739417742E+04  0.27739417742E+04  0.00000000000E+00 0. -1.
         24    2    1    2    0    0  0.77195812145E+01  0.94738177829E+02  0.53424150198E+02  0.13547833603E+03  0.80407247410E+02 0.  0.
         25    2    1    2    0    0  0.76208359975E+02 -0.47596916351E+02 -0.11395168791E+04  0.11498668393E+04  0.12498739855E+03 0.  0.
         24    2    1    2    0    0  0.23456737847E+03  0.24604535107E+03 -0.16569196369E+03  0.38656189260E+03  0.80100562753E+02 0.  0.
        -11    1    3    3    0    0 -0.36501164535E+01 -0.14330969304E+02  0.76243435125E+01  0.16638228430E+02  0.00000000000E+00 0.  1.
         12    1    3    3    0    0  0.11369697668E+02  0.10906914713E+03  0.45799806686E+02  0.11884010760E+03  0.00000000000E+00 0. -1.
        -13    1    5    5    0    0  0.55581985080E+02  0.44382862465E+02 -0.71746699617E+02  0.10102863184E+03  0.00000000000E+00 0.  1.
         14    1    5    5    0    0  0.17898539339E+03  0.20166248860E+03 -0.93945264073E+02  0.28553326075E+03  0.00000000000E+00 0. -1.
          5    1    4    4  501    0  0.83385208222E+02  0.17846748917E+01 -0.39875437854E+03  0.40741063121E+03  0.47000000000E+01 0. -1.
         -5    1    4    4    0  501 -0.71768482466E+01 -0.49381591242E+02 -0.74076250055E+03  0.74245620808E+03  0.47000000000E+01 0. -1.
          1    1    1    2  502    0  0.21506379698E+02  0.23875058192E+02 -0.12641591208E+04  0.12645674460E+04  0.00000000000E+00 0. -1.
          1    1    1    2  503    0 -0.34000169936E+03 -0.31706167073E+03  0.10842464303E+04  0.11797116513E+04  0.00000000000E+00 0. -1.
<mgrwt>
<rscale>  0 0.84347557E+02</rscale>
<asrwt>0</asrwt>
<pdfrwt beam="1">  1        2 0.19738888E+00 0.22140682E+03</pdfrwt>
<pdfrwt beam="2">  1        2 0.40793261E+00 0.32133204E+02</pdfrwt>
<totfact> 0.12864612E+01</totfact>
</mgrwt>
</event>
<event>
13    1  0.2038932E-008  0.8086955E+02  0.7546771E-02  0.1434479E+00
          2   -1    0    0  502    0  0.00000000000E+00  0.00000000000E+00  0.22299549609E+04  0.22299549609E+04  0.00000000000E+00 0. -1.
          2   -1    0    0  503    0 -0.00000000000E+00 -0.00000000000E+00 -0.31859317398E+04  0.31859317398E+04  0.00000000000E+00 0. -1.
         24    2    1    2    0    0  0.86452585768E+01  0.50338779731E+02 -0.52478756152E+03  0.53343112487E+03  0.80858190774E+02 0.  0.
         25    2    1    2    0    0  0.12220847296E+03  0.42532783901E+02  0.10831762497E+03  0.21000439738E+03  0.12500076188E+03 0.  0.
         24    2    1    2    0    0 -0.19375896548E+03 -0.11926344617E+02 -0.24456295313E+03  0.32202349952E+03  0.78761169362E+02 0.  0.
        -11    1    3    3    0    0  0.26259827843E+02  0.63069761026E+02 -0.30428736911E+03  0.31186243171E+03  0.00000000000E+00 0.  1.
         12    1    3    3    0    0 -0.17614569266E+02 -0.12730981295E+02 -0.22050019241E+03  0.22156869315E+03  0.00000000000E+00 0. -1.
        -13    1    5    5    0    0 -0.12526728642E+03 -0.75340803011E+01 -0.21129693179E+03  0.24575404126E+03  0.00000000000E+00 0.  1.
         14    1    5    5    0    0 -0.68491679068E+02 -0.43922643159E+01 -0.33266021335E+02  0.76269458257E+02  0.00000000000E+00 0. -1.
          5    1    4    4  501    0  0.11488066563E+03  0.35140637733E+02  0.21127166570E+02  0.12206915631E+03  0.47000000000E+01 0. -1.
         -5    1    4    4    0  501  0.73278073297E+01  0.73921461681E+01  0.87190458404E+02  0.87935241070E+02  0.47000000000E+01 0. -1.
          1    1    1    2  502    0  0.33010659212E+02 -0.58699580623E+01  0.20269003593E+04  0.20271776505E+04  0.00000000000E+00 0. -1.
          1    1    1    2  503    0  0.29894574734E+02 -0.75075260953E+02 -0.23218442485E+04  0.23232500285E+04  0.00000000000E+00 0. -1.
<mgrwt>
<rscale>  0 0.52071434E+02</rscale>
<asrwt>0</asrwt>
<pdfrwt beam="1">  1        2 0.32793455E+00 0.33528496E+02</pdfrwt>
<pdfrwt beam="2">  1        2 0.46851937E+00 0.80869547E+02</pdfrwt>
<totfact> 0.30069624E+00</totfact>
</mgrwt>
</event>
<event>
13    1  0.2038932E-008  0.1330334E+03  0.7546771E-02  0.1291959E+00
         -3   -1    0    0    0  501 -0.00000000000E+00  0.00000000000E+00  0.49166590224E+03  0.49166590224E+03  0.00000000000E+00 0.  1.
          2   -1    0    0  503    0  0.00000000000E+00 -0.00000000000E+00 -0.17967430168E+04  0.17967430168E+04  0.00000000000E+00 0. -1.
         24    2    1    2    0    0 -0.45115239331E+02  0.46321180556E+02 -0.74511731816E+02  0.12632838629E+03  0.78903906213E+02 0.  0.
         25    2    1    2    0    0  0.53322988850E+02  0.14524312804E+03 -0.50294998845E+03  0.54085336041E+03  0.12499903681E+03 0.  0.
         24    2    1    2    0    0 -0.73320943359E+02 -0.79378365103E+02  0.22123503272E+02  0.13660635754E+03  0.80591326719E+02 0.  0.
        -11    1    3    3    0    0  0.66268601573E+01 -0.11020431198E+02  0.64915376216E+01  0.14405042174E+02  0.00000000000E+00 0.  1.
         12    1    3    3    0    0 -0.51742099489E+02  0.57341611754E+02 -0.81003269438E+02  0.11192334411E+03  0.00000000000E+00 0. -1.
        -11    1    5    5    0    0 -0.66150404179E+02 -0.96046734310E+02  0.18077322921E+02  0.11801542589E+03  0.00000000000E+00 0.  1.
         12    1    5    5    0    0 -0.71705391795E+01  0.16668369207E+02  0.40461803514E+01  0.18590931649E+02  0.00000000000E+00 0. -1.
          5    1    4    4  502    0 -0.87826730639E+01 -0.13849988773E+02 -0.11556225946E+02  0.20605676239E+02  0.47000000000E+01 0.  1.
         -5    1    4    4    0  502  0.62105661914E+02  0.15909311681E+03 -0.49139376250E+03  0.52024768417E+03  0.47000000000E+01 0.  1.
          1    1    1    2  503    0 -0.51090464889E+02 -0.43877170850E+02 -0.11037568030E+04  0.11058094420E+04  0.00000000000E+00 0. -1.
         -4    1    1    2    0  501  0.11620365873E+03 -0.68308772642E+02  0.35401790551E+03  0.37881137277E+03  0.00000000000E+00 0.  1.
<mgrwt>
<rscale>  0 0.94653179E+02</rscale>
<asrwt>0</asrwt>
<pdfrwt beam="2">  1        2 0.26422692E+00 0.67345688E+02</pdfrwt>
<pdfrwt beam="1">  1       -3 0.72303808E-01 0.13303338E+03</pdfrwt>
<totfact> 0.13523904E+01</totfact>
</mgrwt>
</event>
<event>
13    1  0.2038932E-008  0.1978057E+03  0.7546771E-02  0.1296308E+00
          2   -1    0    0  502    0  0.00000000000E+00  0.00000000000E+00  0.70095275910E+03  0.70095275910E+03  0.00000000000E+00 0. -1.
          2   -1    0    0  503    0 -0.00000000000E+00 -0.00000000000E+00 -0.36390887188E+04  0.36390887188E+04  0.00000000000E+00 0. -1.
         24    2    1    2    0    0  0.60927207285E+02 -0.18542834143E+02 -0.17814006698E+04  0.17841539635E+04  0.75901630791E+02 0.  0.
         25    2    1    2    0    0 -0.52529528358E+03  0.14562592923E+03 -0.39700290018E+03  0.68584198011E+03  0.12500349083E+03 0.  0.
         24    2    1    2    0    0  0.14280158092E+03  0.60228366584E+02 -0.17353966982E+03  0.24604600830E+03  0.80017957639E+02 0.  0.
        -11    1    5    5    0    0  0.26601186435E+02  0.19517107261E+02 -0.93602987493E+02  0.99247467792E+02  0.00000000000E+00 0.  1.
         12    1    5    5    0    0  0.11620039448E+03  0.40711259324E+02 -0.79936682329E+02  0.14679854051E+03  0.00000000000E+00 0. -1.
        -13    1    3    3    0    0 -0.11319891259E+02  0.23847039602E+00 -0.73781702877E+03  0.73790389940E+03  0.00000000000E+00 0.  1.
         14    1    3    3    0    0  0.72247098545E+02 -0.18781304539E+02 -0.10435836411E+04  0.10462500641E+04  0.00000000000E+00 0. -1.
          5    1    4    4  501    0 -0.14152655639E+03 -0.90441525214E+01 -0.13642567617E+03  0.19683906619E+03  0.47000000000E+01 0.  1.
         -5    1    4    4    0  501 -0.38376872718E+03  0.15467008175E+03 -0.26057722401E+03  0.48900291392E+03  0.47000000000E+01 0.  1.
          1    1    1    2  502    0  0.40897739679E+02 -0.14811042567E+02  0.49337281142E+03  0.49528650611E+03  0.00000000000E+00 0. -1.
          1    1    1    2  503    0  0.28066875569E+03 -0.17250041910E+03 -0.10795655312E+04  0.11287130199E+04  0.00000000000E+00 0. -1.
<mgrwt>
<rscale>  0 0.92757550E+02</rscale>
<asrwt>0</asrwt>
<pdfrwt beam="1">  1        2 0.10308129E+00 0.43497035E+02</pdfrwt>
<pdfrwt beam="2">  1        2 0.53516010E+00 0.19780574E+03</pdfrwt>
<totfact> 0.80524687E+00</totfact>
</mgrwt>
</event>
<event>
13    1  0.2038932E-008  0.1157520E+03  0.7546771E-02  0.1373037E+00
          2   -1    0    0  503    0  0.00000000000E+00  0.00000000000E+00  0.23610861945E+04  0.23610861945E+04  0.00000000000E+00 0. -1.
         -1   -1    0    0    0  501 -0.00000000000E+00 -0.00000000000E+00 -0.81071869591E+03  0.81071869591E+03  0.00000000000E+00 0.  1.
         24    2    1    2    0    0  0.16814565051E+01 -0.19547786355E+01  0.12877618527E+03  0.15125319113E+03  0.79294220971E+02 0.  0.
         25    2    1    2    0    0 -0.72612294549E+02 -0.38060417580E+02  0.10206570782E+01  0.14948313870E+03  0.12499210499E+03 0.  0.
         24    2    1    2    0    0  0.86042268807E+02 -0.37263381640E+02  0.68081685116E+02  0.14068730978E+03  0.79787039372E+02 0.  0.
        -11    1    3    3    0    0 -0.18302979552E+01 -0.35889451494E+02  0.30201473445E+02  0.46941790735E+02  0.00000000000E+00 0.  1.
         12    1    3    3    0    0  0.35117544603E+01  0.33934672858E+02  0.98574711826E+02  0.10431140040E+03  0.00000000000E+00 0. -1.
        -13    1    5    5    0    0  0.91189310939E+02 -0.44319013935E+02  0.36241870697E+02  0.10767143826E+03  0.00000000000E+00 0.  1.
         14    1    5    5    0    0 -0.51470421323E+01  0.70556322950E+01  0.31839814419E+02  0.33015871517E+02  0.00000000000E+00 0. -1.
          5    1    4    4  502    0 -0.50817773434E+02  0.26549623846E+02 -0.39725169688E+02  0.69910712555E+02  0.47000000000E+01 0.  1.
         -5    1    4    4    0  502 -0.21794521114E+02 -0.64610041426E+02  0.40745826767E+02  0.79572426145E+02  0.47000000000E+01 0.  1.
          1    1    1    2  503    0 -0.28913524298E+02  0.11269373216E+03  0.20392515240E+04  0.20425676604E+04  0.00000000000E+00 0. -1.
         -2    1    1    2    0  501  0.13802093534E+02 -0.35415154304E+02 -0.68676255294E+03  0.68781359034E+03  0.00000000000E+00 0.  1.
<mgrwt>
<rscale>  0 0.66330141E+02</rscale>
<asrwt>0</asrwt>
<pdfrwt beam="1">  1        2 0.34721856E+00 0.11575196E+03</pdfrwt>
<pdfrwt beam="2">  1       -1 0.11922334E+00 0.38009616E+02</pdfrwt>
<totfact> 0.51656318E+00</totfact>
</mgrwt>
</event>
<event>
13    1  0.2038932E-008  0.4455713E+02  0.7546771E-02  0.1504315E+00
          2   -1    0    0  502    0  0.00000000000E+00  0.00000000000E+00  0.35074041204E+04  0.35074041204E+04  0.00000000000E+00 0. -1.
          2   -1    0    0  503    0 -0.00000000000E+00 -0.00000000000E+00 -0.31498073402E+04  0.31498073402E+04  0.00000000000E+00 0. -1.
         24    2    1    2    0    0 -0.43511597367E+03 -0.38202253469E+03 -0.12737992113E+04  0.14015367748E+04  0.80459760008E+02 0.  0.
         25    2    1    2    0    0 -0.18935724327E+03  0.11786916993E+03  0.42277839747E+03  0.49408046484E+03  0.12499850230E+03 0.  0.
         24    2    1    2    0    0  0.65557301219E+03  0.29219793627E+03  0.15544173780E+04  0.17131241882E+04  0.58527693976E+02 0.  0.
        -11    1    3    3    0    0 -0.89666873894E+02 -0.79778750598E+02 -0.34964705759E+03  0.36967264195E+03  0.00000000000E+00 0.  1.
         12    1    3    3    0    0 -0.34544909978E+03 -0.30224378409E+03 -0.92415215368E+03  0.10318641329E+04  0.00000000000E+00 0. -1.
        -13    1    5    5    0    0  0.55030028022E+03  0.22612551551E+03  0.13167358470E+04  0.14449070690E+04  0.00000000000E+00 0.  1.
         14    1    5    5    0    0  0.10527273197E+03  0.66072420768E+02  0.23768153100E+03  0.26821711926E+03  0.00000000000E+00 0. -1.
          5    1    4    4  501    0 -0.19401434016E+03  0.10860531872E+03  0.31439738677E+03  0.38510321506E+03  0.47000000000E+01 0.  1.
         -5    1    4    4    0  501  0.46570968898E+01  0.92638512089E+01  0.10838101069E+03  0.10897724978E+03  0.47000000000E+01 0.  1.
          1    1    1    2  502    0 -0.44089962873E+02  0.64664668713E+01  0.13507673585E+04  0.13515022001E+04  0.00000000000E+00 0. -1.
          1    1    1    2  503    0  0.12990167625E+02 -0.34511038384E+02 -0.16965671425E+04  0.16969678327E+04  0.00000000000E+00 0. -1.
<mgrwt>
<rscale>  0 0.40534410E+02</rscale>
<asrwt>0</asrwt>
<pdfrwt beam="1">  1        2 0.51579472E+00 0.44557127E+02</pdfrwt>
<pdfrwt beam="2">  1        2 0.46320696E+00 0.36874873E+02</pdfrwt>
<totfact> 0.78086189E-01</totfact>
</mgrwt>
</event>
<event>
13    1  0.2038932E-008  0.1317649E+03  0.7546771E-02  0.1342125E+00
          2   -1    0    0  502    0  0.00000000000E+00  0.00000000000E+00  0.21973507207E+04  0.21973507207E+04  0.00000000000E+00 0. -1.
          4   -1    0    0  503    0 -0.00000000000E+00 -0.00000000000E+00 -0.12913705893E+04  0.12913705893E+04  0.00000000000E+00 0. -1.
         24    2    1    2    0    0 -0.15698202883E+03 -0.15947986405E+03  0.23860525749E+02  0.23424719216E+03  0.65001830225E+02 0.  0.
         25    2    1    2    0    0  0.20289113282E+03  0.39569877598E+03 -0.26459672142E+03  0.53233374809E+03  0.12500184512E+03 0.  0.
         24    2    1    2    0    0  0.27745828597E+02  0.17414328207E+02  0.98978189046E+03  0.99346047417E+03  0.78882401242E+02 0.  0.
        -11    1    3    3    0    0 -0.25813062836E+02  0.74014495766E+00  0.52132899803E+01  0.26344646894E+02  0.00000000000E+00 0.  1.
         12    1    3    3    0    0 -0.13116896599E+03 -0.16022000900E+03  0.18647235769E+02  0.20790254526E+03  0.00000000000E+00 0. -1.
        -13    1    5    5    0    0  0.37796324894E+02 -0.18583165567E+01  0.90953757168E+03  0.91032445305E+03  0.00000000000E+00 0.  1.
         14    1    5    5    0    0 -0.10050496298E+02  0.19272644764E+02  0.80244318784E+02  0.83136021129E+02  0.00000000000E+00 0. -1.
          5    1    4    4  501    0 -0.11165226986E+02  0.12770668479E+01 -0.19409016086E+01  0.12334921663E+02  0.47000000000E+01 0.  1.
         -5    1    4    4    0  501  0.21405635981E+03  0.39442170913E+03 -0.26265581981E+03  0.51999882643E+03  0.47000000000E+01 0.  1.
          1    1    1    2  502    0 -0.66686822390E+02 -0.21085983919E+03  0.92922232589E+03  0.95517701762E+03  0.00000000000E+00 0. -1.
          3    1    1    2  503    0 -0.69681102013E+01 -0.42773400951E+02 -0.77228788929E+03  0.77350287804E+03  0.00000000000E+00 0. -1.
<mgrwt>
<rscale>  0 0.75566714E+02</rscale>
<asrwt>0</asrwt>
<pdfrwt beam="1">  1        2 0.32313981E+00 0.13176486E+03</pdfrwt>
<pdfrwt beam="2">  1        4 0.18990744E+00 0.43337263E+02</pdfrwt>
<totfact> 0.63564009E-01</totfact>
</mgrwt>
</event>
<event>
13    1  0.2038932E-008  0.1074641E+03  0.7546771E-02  0.1275769E+00
          2   -1    0    0  503    0  0.00000000000E+00  0.00000000000E+00  0.89760469394E+03  0.89760469394E+03  0.00000000000E+00 0. -1.
          2   -1    0    0  502    0 -0.00000000000E+00 -0.00000000000E+00 -0.36830721424E+04  0.36830721424E+04  0.00000000000E+00 0. -1.
         24    2    1    2    0    0 -0.12191770259E+01 -0.28349714287E+01 -0.23031247014E+03  0.24324438070E+03  0.78195085446E+02 0.  0.
         25    2    1    2    0    0  0.13151616678E+03  0.10077514808E+03  0.22381739606E+03  0.30523358080E+03  0.12498471695E+03 0.  0.
         24    2    1    2    0    0  0.10333976920E+03 -0.41373971196E+02  0.39896583614E+03  0.42199054570E+03  0.80693053381E+02 0.  0.
        -11    1    5    5    0    0  0.22994428608E+01 -0.21623996072E+02  0.20912703572E+02  0.30169948861E+02  0.00000000000E+00 0.  1.
         12    1    5    5    0    0  0.10104032633E+03 -0.19749975124E+02  0.37805313257E+03  0.39182059684E+03  0.00000000000E+00 0. -1.
        -11    1    3    3    0    0 -0.14500549878E+02 -0.33538943750E+02 -0.17357129329E+03  0.17737564813E+03  0.00000000000E+00 0.  1.
         12    1    3    3    0    0  0.13281372852E+02  0.30703972321E+02 -0.56741176847E+02  0.65868732576E+02  0.00000000000E+00 0. -1.
          5    1    4    4  501    0  0.83836125301E+02 -0.11331382976E+02  0.78000379582E+02  0.11516529582E+03  0.47000000000E+01 0. -1.
         -5    1    4    4    0  501  0.47680041482E+02  0.11210653106E+03  0.14581701647E+03  0.19006828498E+03  0.47000000000E+01 0. -1.
          1    1    1    2  502    0 -0.14525564848E+03 -0.16217281953E+02 -0.33814960915E+04  0.33846533088E+04  0.00000000000E+00 0. -1.
          1    1    1    2  503    0 -0.88381110477E+02 -0.40348923506E+02  0.20355788097E+03  0.22555502039E+03  0.00000000000E+00 0. -1.
<mgrwt>
<rscale>  0 0.10218390E+03</rscale>
<asrwt>0</asrwt>
<pdfrwt beam="1">  1        2 0.13200069E+00 0.97163132E+02</pdfrwt>
<pdfrwt beam="2">  1        2 0.54162824E+00 0.10746411E+03</pdfrwt>
<totfact> 0.61268283E+00</totfact>
</mgrwt>
</event>
<event>
13    1  0.2038932E-008  0.1198563E+03  0.7546771E-02  0.1371005E+00
          2   -1    0    0  503    0  0.00000000000E+00  0.00000000000E+00  0.27080947783E+04  0.27080947783E+04  0.00000000000E+00 0. -1.
          2   -1    0    0  502    0 -0.00000000000E+00 -0.00000000000E+00 -0.32676588303E+03  0.32676588303E+03  0.00000000000E+00 0. -1.
         24    2    1    2    0    0 -0.22374866743E+03 -0.18228425015E+03  0.10617292957E+04  0.11035021770E+04  0.84598719117E+02 0.  0.
         25    2    1    2    0    0  0.35672913427E+03  0.21408633736E+03  0.70209405493E+03  0.82562080824E+03  0.12500008780E+03 0.  0.
         24    2    1    2    0    0 -0.25448760398E+02 -0.29177368195E+02  0.18443031649E+02  0.91255978897E+02  0.80551536593E+02 0.  0.
        -13    1    3    3    0    0 -0.14519089992E+03 -0.16233399351E+03  0.71549820660E+03  0.74791069421E+03  0.00000000000E+00 0.  1.
         14    1    3    3    0    0 -0.78557767520E+02 -0.19950256648E+02  0.34623108906E+03  0.35559148276E+03  0.00000000000E+00 0. -1.
        -13    1    5    5    0    0 -0.44804111293E+02 -0.17179748331E+02  0.38023132407E+02  0.61223449262E+02  0.00000000000E+00 0.  1.
         14    1    5    5    0    0  0.19355350894E+02 -0.11997619864E+02 -0.19580100757E+02  0.30032529636E+02  0.00000000000E+00 0. -1.
          5    1    4    4  501    0  0.18055727155E+03  0.91118101728E+02  0.45628871310E+03  0.49912414936E+03  0.47000000000E+01 0. -1.
         -5    1    4    4    0  501  0.17617186272E+03  0.12296823563E+03  0.24580534184E+03  0.32649665889E+03  0.47000000000E+01 0. -1.
          1    1    1    2  502    0  0.74328815587E+01 -0.36581179294E+02 -0.20153325322E+03  0.20496117330E+03  0.00000000000E+00 0. -1.
          1    1    1    2  503    0 -0.11496458800E+03  0.33956460286E+02  0.80059576628E+03  0.80952052394E+03  0.00000000000E+00 0. -1.
<mgrwt>
<rscale>  0 0.66888538E+02</rscale>
<asrwt>0</asrwt>
<pdfrwt beam="1">  1        2 0.39824922E+00 0.11985627E+03</pdfrwt>
<pdfrwt beam="2">  1        2 0.48053808E-01 0.37328681E+02</pdfrwt>
<totfact> 0.64250977E+01</totfact>
</mgrwt>
</event>
<event>
13    1  0.2038932E-008  0.1055705E+03  0.7546771E-02  0.1442862E+00
          2   -1    0    0  503    0  0.00000000000E+00  0.00000000000E+00  0.72918705270E+03  0.72918705270E+03  0.00000000000E+00 0. -1.
          2   -1    0    0  502    0 -0.00000000000E+00 -0.00000000000E+00 -0.79214016857E+03  0.79214016857E+03  0.00000000000E+00 0. -1.
         24    2    1    2    0    0  0.70871303496E+02 -0.13597081366E+03 -0.45871686808E+01  0.17508182258E+03  0.84390749808E+02 0.  0.
         25    2    1    2    0    0 -0.59843127556E+02  0.21043102735E+03 -0.15186613031E+03  0.29419926349E+03  0.12500987125E+03 0.  0.
         24    2    1    2    0    0  0.17157193223E+02  0.43053675143E+02  0.86410568059E+02  0.13993942512E+03  0.99841214978E+02 0.  0.
        -11    1    5    5    0    0 -0.36821259883E+02  0.41322713841E+02  0.35739539914E+02  0.65883887042E+02  0.00000000000E+00 0.  1.
         12    1    5    5    0    0  0.53978453106E+02  0.17309613018E+01  0.50671028145E+02  0.74055538078E+02  0.00000000000E+00 0. -1.
        -13    1    3    3    0    0 -0.15651524430E+02 -0.54409926617E+01  0.71358929607E+01  0.18041496237E+02  0.00000000000E+00 0.  1.
         14    1    3    3    0    0  0.86522827925E+02 -0.13052982100E+03 -0.11723061641E+02  0.15704032634E+03  0.00000000000E+00 0. -1.
          5    1    4    4  501    0 -0.20293796330E+02 -0.87160303143E+01  0.31918277245E+01  0.22805374764E+02  0.47000000000E+01 0. -1.
         -5    1    4    4    0  501 -0.39549331226E+02  0.21914705767E+03 -0.15505795804E+03  0.27139388872E+03  0.47000000000E+01 0. -1.
          1    1    1    2  502    0  0.22214442186E+02  0.93991955783E+01 -0.44202932564E+03  0.44268696733E+03  0.00000000000E+00 0. -1.
          1    1    1    2  503    0 -0.50399811349E+02 -0.12691308441E+03  0.44911894071E+03  0.46941974275E+03  0.00000000000E+00 0. -1.
<mgrwt>
<rscale>  0 0.50462612E+02</rscale>
<asrwt>0</asrwt>
<pdfrwt beam="1">  1        2 0.10723339E+00 0.10557054E+03</pdfrwt>
<pdfrwt beam="2">  1        2 0.11649120E+00 0.24121076E+02</pdfrwt>
<totfact> 0.27941866E+02</totfact>
</mgrwt>
</event>
<event>
13    1  0.2038932E-008  0.1004552E+03  0.7546771E-02  0.1344922E+00
          2   -1    0    0  503    0  0.00000000000E+00  0.00000000000E+00  0.47232481236E+03  0.47232481236E+03  0.00000000000E+00 0. -1.
          2   -1    0    0  502    0 -0.00000000000E+00 -0.00000000000E+00 -0.12830779379E+04  0.12830779379E+04  0.00000000000E+00 0. -1.
         24    2    1    2    0    0  0.14211195148E+03  0.21069582419E+02 -0.15167097846E+03  0.22527144445E+03  0.84281693851E+02 0.  0.
         25    2    1    2    0    0 -0.10359252873E+03 -0.14989948700E+03  0.14731844895E+03  0.26557530759E+03  0.12500500145E+03 0.  0.
         24    2    1    2    0    0 -0.54248538319E+02  0.75762385413E+02 -0.70140884348E+03  0.71206225913E+03  0.79846428875E+02 0.  0.
        -11    1    3    3    0    0  0.15007446701E+03  0.31181794458E+02 -0.13534464435E+03  0.20448183956E+03  0.00000000000E+00 0.  1.
         12    1    3    3    0    0 -0.79625155309E+01 -0.10112212039E+02 -0.16326334115E+02  0.20789604891E+02  0.00000000000E+00 0. -1.
        -13    1    5    5    0    0 -0.46316587289E+02  0.53327880297E+02 -0.24355455961E+03  0.25359004827E+03  0.00000000000E+00 0.  1.
         14    1    5    5    0    0 -0.79319510303E+01  0.22434505116E+02 -0.45785428387E+03  0.45847221086E+03  0.00000000000E+00 0. -1.
          5    1    4    4  501    0 -0.28936014952E+02 -0.29378621135E+01 -0.15964252031E+02  0.33509272419E+02  0.47000000000E+01 0.  1.
         -5    1    4    4    0  501 -0.74656513780E+02 -0.14696162489E+03  0.16328270099E+03  0.23206603517E+03  0.47000000000E+01 0.  1.
          1    1    1    2  502    0 -0.50297184961E+02 -0.23440669381E+02 -0.31477965909E+03  0.31963339246E+03  0.00000000000E+00 0. -1.
          1    1    1    2  503    0  0.66026300533E+02  0.76508188549E+02  0.20978790657E+03  0.23286034661E+03  0.00000000000E+00 0. -1.
<mgrwt>
<rscale>  0 0.74661754E+02</rscale>
<asrwt>0</asrwt>
<pdfrwt beam="1">  1        2 0.69459531E-01 0.10045519E+03</pdfrwt>
<pdfrwt beam="2">  1        2 0.18868793E+00 0.55491187E+02</pdfrwt>
<totfact> 0.23504019E+02</totfact>
</mgrwt>
</event>
<event>
13    1  0.4174283E-008  0.2160016E+03  0.7546771E-02  0.1338563E+00
          2   -1    0    0  503    0  0.00000000000E+00  0.00000000000E+00  0.21692817627E+04  0.21692817627E+04  0.00000000000E+00 0. -1.
         -1   -1    0    0    0  501 -0.00000000000E+00 -0.00000000000E+00 -0.21329002296E+04  0.21329002296E+04  0.00000000000E+00 0.  1.
         24    2    1    2    0    0  0.17529379958E+03  0.48064140481E+01 -0.34418031733E+03  0.39436253501E+03  0.79439916875E+02 0.  0.
         25    2    1    2    0    0  0.17268707629E+02  0.46633993396E+02  0.14383899507E+04  0.14446672382E+04  0.12499936578E+03 0.  0.
         24    2    1    2    0    0  0.24688233701E+02  0.96995091566E+02  0.25725408142E+03  0.28764744482E+03  0.80893964122E+02 0.  0.
        -11    1    5    5    0    0  0.25495314575E+02  0.10671807829E+03  0.25504372916E+03  0.27764377012E+03  0.00000000000E+00 0.  1.
         12    1    5    5    0    0 -0.80708087340E+00 -0.97229867245E+01  0.22103522548E+01  0.10003674698E+02  0.00000000000E+00 0. -1.
        -13    1    3    3    0    0 -0.40702993966E+01  0.26688206332E+01 -0.46937454770E+02  0.47189136472E+02  0.00000000000E+00 0.  1.
         14    1    3    3    0    0  0.17936409898E+03  0.21375934149E+01 -0.29724286256E+03  0.34717339854E+03  0.00000000000E+00 0. -1.
          5    1    4    4  502    0  0.13357316268E+02  0.86563802398E+02  0.75373018216E+03  0.75881683381E+03  0.47000000000E+01 0.  1.
         -5    1    4    4    0  502  0.39113913610E+01 -0.39929809002E+02  0.68465976852E+03  0.68585040443E+03  0.47000000000E+01 0.  1.
          1    1    1    2  503    0 -0.26174559075E+02 -0.76318803092E+01  0.42169936128E+03  0.42257982021E+03  0.00000000000E+00 0. -1.
         -2    1    1    2    0  501 -0.19107618184E+03 -0.14080361870E+03 -0.17367815430E+04  0.17529249540E+04  0.00000000000E+00 0.  1.
<mgrwt>
<rscale>  0 0.76740965E+02</rscale>
<asrwt>0</asrwt>
<pdfrwt beam="1">  1        2 0.31901203E+00 0.27264503E+02</pdfrwt>
<pdfrwt beam="2">  1       -1 0.31366180E+00 0.21600158E+03</pdfrwt>
<totfact> 0.33547775E-01</totfact>
</mgrwt>
</event>
<event>
13    1  0.2038932E-008  0.6610002E+02  0.7546771E-02  0.1408045E+00
          2   -1    0    0  503    0  0.00000000000E+00  0.00000000000E+00  0.38562587846E+04  0.38562587846E+04  0.00000000000E+00 0. -1.
          2   -1    0    0  502    0 -0.00000000000E+00 -0.00000000000E+00 -0.13194274377E+04  0.13194274377E+04  0.00000000000E+00 0. -1.
         24    2    1    2    0    0 -0.19788363920E+03  0.74849854152E+03 -0.46528240973E+03  0.90573820202E+03  0.66827901964E+02 0.  0.
         25    2    1    2    0    0  0.35176814597E+03 -0.39747789940E+03  0.12690734913E+03  0.55987197130E+03  0.12498655907E+03 0.  0.
         24    2    1    2    0    0 -0.78113662183E+02 -0.27122178670E+03  0.17253958674E+03  0.34128201193E+03  0.83907692607E+02 0.  0.
        -11    1    5    5    0    0 -0.61481692939E+02 -0.86576021539E+02  0.40377305535E+02  0.11360340169E+03  0.00000000000E+00 0.  1.
         12    1    5    5    0    0 -0.16631969244E+02 -0.18464576516E+03  0.13216228120E+03  0.22767861025E+03  0.00000000000E+00 0. -1.
        -13    1    3    3    0    0 -0.98577030897E+02  0.28074764884E+03 -0.20476422418E+03  0.36119947516E+03  0.00000000000E+00 0.  1.
         14    1    3    3    0    0 -0.99306608299E+02  0.46775089267E+03 -0.26051818555E+03  0.54453872686E+03  0.00000000000E+00 0. -1.
          5    1    4    4  501    0  0.17374943292E+03 -0.20463729947E+03  0.40643025913E+00  0.26849123814E+03  0.47000000000E+01 0. -1.
         -5    1    4    4    0  501  0.17801871306E+03 -0.19284059994E+03  0.12650091887E+03  0.29138073316E+03  0.47000000000E+01 0. -1.
          1    1    1    2  502    0 -0.18577780049E+02 -0.46688995811E+02 -0.33080639341E+03  0.33460105523E+03  0.00000000000E+00 0. -1.
          1    1    1    2  503    0 -0.57193064548E+02 -0.33109859606E+02  0.30334732142E+04  0.30341929818E+04  0.00000000000E+00 0. -1.
<mgrwt>
<rscale>  0 0.57632303E+02</rscale>
<asrwt>0</asrwt>
<pdfrwt beam="1">  1        2 0.56709688E+00 0.66100019E+02</pdfrwt>
<pdfrwt beam="2">  1        2 0.19403345E+00 0.50249341E+02</pdfrwt>
<totfact> 0.32212742E+00</totfact>
</mgrwt>
</event>
<event>
13    1  0.2038932E-008  0.1692240E+03  0.7546771E-02  0.1288634E+00
          2   -1    0    0  503    0  0.00000000000E+00  0.00000000000E+00  0.40743945689E+03  0.40743945689E+03  0.00000000000E+00 0. -1.
          2   -1    0    0  502    0 -0.00000000000E+00 -0.00000000000E+00 -0.48691684818E+04  0.48691684818E+04  0.00000000000E+00 0. -1.
         24    2    1    2    0    0  0.15727544518E+03 -0.81914119606E+02 -0.35923791424E+04  0.35975679407E+04  0.76561714650E+02 0.  0.
         25    2    1    2    0    0  0.22227149406E+03  0.17237992712E+03  0.39340856189E+02  0.31031163584E+03  0.12500460802E+03 0.  0.
         24    2    1    2    0    0 -0.13067816431E+03 -0.32175406788E+01  0.20417750815E+01  0.15325533678E+03  0.79974334700E+02 0.  0.
        -13    1    3    3    0    0 -0.40051887813E+01  0.49350473246E+01 -0.43215400718E+02  0.43680282606E+02  0.00000000000E+00 0.  1.
         14    1    3    3    0    0  0.16128063397E+03 -0.86849166931E+02 -0.35491637417E+04  0.35538876581E+04  0.00000000000E+00 0. -1.
        -13    1    5    5    0    0 -0.77282860900E+02  0.37223029181E+02  0.71632950409E+01  0.86078494911E+02  0.00000000000E+00 0.  1.
         14    1    5    5    0    0 -0.53395303412E+02 -0.40440569860E+02 -0.51215199593E+01  0.67176841871E+02  0.00000000000E+00 0. -1.
          5    1    4    4  501    0  0.20625213324E+03  0.10352232426E+03  0.56018844602E+02  0.23752266215E+03  0.47000000000E+01 0.  1.
         -5    1    4    4    0  501  0.16019360821E+02  0.68857602863E+02 -0.16677988413E+02  0.72788973688E+02  0.47000000000E+01 0.  1.
          1    1    1    2  502    0 -0.21892718704E+03 -0.41570350848E+02 -0.10460640985E+04  0.10695360235E+04  0.00000000000E+00 0. -1.
          1    1    1    2  503    0 -0.29941587894E+02 -0.45677915990E+02  0.13533158477E+03  0.14593700193E+03  0.00000000000E+00 0. -1.
<mgrwt>
<rscale>  0 0.96137576E+02</rscale>
<asrwt>0</asrwt>
<pdfrwt beam="1">  1        2 0.59917569E-01 0.54616579E+02</pdfrwt>
<pdfrwt beam="2">  1        2 0.71605417E+00 0.16922396E+03</pdfrwt>
<totfact> 0.17423451E+00</totfact>
</mgrwt>
</event>
<event>
13    1  0.2038932E-008  0.5741649E+02  0.7546771E-02  0.1478110E+00
          2   -1    0    0  502    0  0.00000000000E+00  0.00000000000E+00  0.33695937561E+04  0.33695937561E+04  0.00000000000E+00 0. -1.
          2   -1    0    0  503    0 -0.00000000000E+00 -0.00000000000E+00 -0.15132135096E+04  0.15132135096E+04  0.00000000000E+00 0. -1.
         24    2    1    2    0    0  0.20750789922E+03 -0.59731248980E+03 -0.27899311856E+03  0.69553468809E+03  0.78035911062E+02 0.  0.
         25    2    1    2    0    0 -0.18999433450E+03  0.42410091673E+03  0.20981098233E+03  0.52498073992E+03  0.12499877705E+03 0.  0.
         24    2    1    2    0    0  0.25562147748E+02  0.15249861893E+03  0.25668361273E+03  0.30933533770E+03  0.76763415335E+02 0.  0.
        -11    1    5    5    0    0  0.60924481681E+00  0.14675239338E+03  0.22445490308E+03  0.26817277949E+03  0.00000000000E+00 0.  1.
         12    1    5    5    0    0  0.24952902931E+02  0.57462255424E+01  0.32228709660E+02  0.41162558217E+02  0.00000000000E+00 0. -1.
        -13    1    3    3    0    0  0.11686094202E+03 -0.27187531948E+03 -0.94701520832E+02  0.31071055206E+03  0.00000000000E+00 0.  1.
         14    1    3    3    0    0  0.90646957199E+02 -0.32543717033E+03 -0.18429159773E+03  0.38482413603E+03  0.00000000000E+00 0. -1.
          5    1    4    4  501    0 -0.58290662658E+02  0.12936033403E+03  0.38464433973E+01  0.14201683879E+03  0.47000000000E+01 0. -1.
         -5    1    4    4    0  501 -0.13170367185E+03  0.29474058270E+03  0.20596453894E+03  0.38296390113E+03  0.47000000000E+01 0. -1.
          1    1    1    2  502    0 -0.26650605077E+02  0.50867183617E+02  0.25102390524E+04  0.25108958213E+04  0.00000000000E+00 0. -1.
          1    1    1    2  503    0 -0.16425107388E+02 -0.30154229473E+02 -0.84136028247E+03  0.84206067871E+03  0.00000000000E+00 0. -1.
<mgrwt>
<rscale>  0 0.44401992E+02</rscale>
<asrwt>0</asrwt>
<pdfrwt beam="1">  1        2 0.49552849E+00 0.57416490E+02</pdfrwt>
<pdfrwt beam="2">  1        2 0.22253140E+00 0.34337468E+02</pdfrwt>
<totfact> 0.53643789E+00</totfact>
</mgrwt>
</event>
<event>
13    1  0.3016567E-008  0.1032435E+03  0.7546771E-02  0.1426038E+00
          2   -1    0    0  502    0  0.00000000000E+00  0.00000000000E+00  0.23049165642E+04  0.23049165642E+04  0.00000000000E+00 0. -1.
          2   -1    0    0  503    0 -0.00000000000E+00 -0.00000000000E+00 -0.36920687874E+04  0.36920687874E+04  0.00000000000E+00 0. -1.
         24    2    1    2    0    0 -0.11997810632E+04  0.36454904063E+02 -0.65439961434E+03  0.13698399264E+04  0.86133671043E+02 0.  0.
         25    2    1    2    0    0 -0.26318913126E+03  0.11400094091E+04 -0.52504519178E+03  0.12884830425E+04  0.12500450231E+03 0.  0.
         24    2    1    2    0    0  0.15416925387E+04 -0.11592825615E+04  0.20860284326E+02  0.19317166782E+04  0.10169676602E+03 0.  0.
        -11    1    5    5    0    0  0.86493501768E+03 -0.67174359485E+03 -0.35568071207E+02  0.10957267587E+04  0.00000000000E+00 0.  1.
         12    1    5    5    0    0  0.67675752106E+03 -0.48753896662E+03  0.56428355533E+02  0.83598991955E+03  0.00000000000E+00 0. -1.
        -13    1    3    3    0    0 -0.88243198642E+03  0.63066130997E+02 -0.49404843061E+03  0.10132854481E+04  0.00000000000E+00 0.  1.
         14    1    3    3    0    0 -0.31734907674E+03 -0.26611226934E+02 -0.16035118372E+03  0.35655447835E+03  0.00000000000E+00 0. -1.
          5    1    4    4  501    0 -0.18691494059E+03  0.81937422792E+03 -0.31445833292E+03  0.89733909619E+03  0.47000000000E+01 0. -1.
         -5    1    4    4    0  501 -0.76274190662E+02  0.32063518122E+03 -0.21058685886E+03  0.39114394629E+03  0.47000000000E+01 0. -1.
          1    1    1    2  502    0 -0.10321765766E+03 -0.36238027528E+01  0.58442004089E+03  0.59347603237E+03  0.00000000000E+00 0. -1.
          1    1    1    2  503    0  0.24495313337E+02 -0.13557948982E+02 -0.81298774223E+03  0.81346967207E+03  0.00000000000E+00 0. -1.
<mgrwt>
<rscale>  0 0.53763556E+02</rscale>
<asrwt>0</asrwt>
<pdfrwt beam="1">  1        2 0.33895832E+00 0.10324350E+03</pdfrwt>
<pdfrwt beam="2">  1        2 0.54295129E+00 0.27997113E+02</pdfrwt>
<totfact> 0.15367749E+00</totfact>
</mgrwt>
</event>
<event>
13    1  0.2038932E-008  0.1053675E+03  0.7546771E-02  0.1467511E+00
          2   -1    0    0  502    0  0.00000000000E+00  0.00000000000E+00  0.25401186987E+04  0.25401186987E+04  0.00000000000E+00 0. -1.
          2   -1    0    0  503    0 -0.00000000000E+00 -0.00000000000E+00 -0.11257731118E+04  0.11257731118E+04  0.00000000000E+00 0. -1.
         24    2    1    2    0    0  0.22757593959E+02  0.45724660193E+01 -0.10211524601E+03  0.13191966211E+03  0.80227540500E+02 0.  0.
         25    2    1    2    0    0 -0.67032768905E+02  0.71095753150E+02  0.71248236985E+03  0.72993440913E+03  0.12500046423E+03 0.  0.
         24    2    1    2    0    0  0.35692502204E+02 -0.19659725409E+03 -0.13825690867E+03  0.25610852106E+03  0.80945455325E+02 0.  0.
        -13    1    5    5    0    0  0.32575169954E+02 -0.20448116791E+03 -0.13175196436E+03  0.24542263514E+03  0.00000000000E+00 0.  1.
         14    1    5    5    0    0  0.31173322506E+01  0.78839138199E+01 -0.65049443150E+01  0.10685885926E+02  0.00000000000E+00 0. -1.
        -13    1    3    3    0    0  0.26476241257E+02 -0.29924024741E+02 -0.24414586502E+02  0.46824252710E+02  0.00000000000E+00 0.  1.
         14    1    3    3    0    0 -0.37186472976E+01  0.34496490760E+02 -0.77700659512E+02  0.85095409401E+02  0.00000000000E+00 0. -1.
          5    1    4    4  501    0  0.21231048971E+02 -0.43531601924E+01  0.31585555441E+03  0.31663311371E+03  0.47000000000E+01 0. -1.
         -5    1    4    4    0  501 -0.88263817876E+02  0.75448913342E+02  0.39662681544E+03  0.41330129542E+03  0.47000000000E+01 0. -1.
          1    1    1    2  502    0 -0.39935712853E+01  0.10514608547E+03  0.17433689888E+04  0.17465414621E+04  0.00000000000E+00 0. -1.
          1    1    1    2  503    0  0.12576244026E+02  0.15782949444E+02 -0.80113361700E+03  0.80138775614E+03  0.00000000000E+00 0. -1.
<mgrwt>
<rscale>  0 0.46112875E+02</rscale>
<asrwt>0</asrwt>
<pdfrwt beam="1">  1        2 0.37354687E+00 0.10536751E+03</pdfrwt>
<pdfrwt beam="2">  1        2 0.16555487E+00 0.20180768E+02</pdfrwt>
<totfact> 0.21194237E+01</totfact>
</mgrwt>
</event>
<event>
13    1  0.2038932E-008  0.7641548E+02  0.7546771E-02  0.1362735E+00
          2   -1    0    0  503    0  0.00000000000E+00  0.00000000000E+00  0.46567822675E+04  0.46567822675E+04  0.00000000000E+00 0. -1.
          2   -1    0    0  502    0 -0.00000000000E+00 -0.00000000000E+00 -0.98212860051E+03  0.98212860051E+03  0.00000000000E+00 0. -1.
         24    2    1    2    0    0  0.47632808876E+02 -0.11508812019E+03 -0.55609437339E+03  0.57570003890E+03  0.81703260574E+02 0.  0.
         25    2    1    2    0    0 -0.11253036634E+03  0.44652380727E+02  0.80368542141E+03  0.82230914796E+03  0.12500063911E+03 0.  0.
         24    2    1    2    0    0 -0.11083828694E+02  0.52315966750E+02  0.94589488867E+02  0.13432889673E+03  0.78976385441E+02 0.  0.
        -11    1    3    3    0    0 -0.78650998003E+01 -0.24954356532E+02 -0.33568407303E+02  0.42560752739E+02  0.00000000000E+00 0.  1.
         12    1    3    3    0    0  0.55497908676E+02 -0.90133763655E+02 -0.52252596608E+03  0.53313928616E+03  0.00000000000E+00 0. -1.
        -13    1    5    5    0    0  0.33025317677E+02  0.30093609633E+02  0.56061936378E+02  0.71688476472E+02  0.00000000000E+00 0.  1.
         14    1    5    5    0    0 -0.44109146371E+02  0.22222357117E+02  0.38527552489E+02  0.62640420259E+02  0.00000000000E+00 0. -1.
          5    1    4    4  501    0  0.98602212105E+01  0.12836156374E+02  0.37392988465E+03  0.37430955039E+03  0.47000000000E+01 0.  1.
         -5    1    4    4    0  501 -0.12239058755E+03  0.31816224353E+02  0.42975553675E+03  0.44799959757E+03  0.47000000000E+01 0.  1.
          1    1    1    2  502    0  0.12960260212E+02  0.61364264619E+02 -0.38411361549E+03  0.38920021958E+03  0.00000000000E+00 0. -1.
          1    1    1    2  503    0  0.63021125948E+02 -0.43244491909E+02  0.37165867456E+04  0.37173725649E+04  0.00000000000E+00 0. -1.
<mgrwt>
<rscale>  0 0.69228769E+02</rscale>
<asrwt>0</asrwt>
<pdfrwt beam="1">  1        2 0.68482091E+00 0.76415483E+02</pdfrwt>
<pdfrwt beam="2">  1        2 0.14443068E+00 0.62717951E+02</pdfrwt>
<totfact> 0.12200009E+00</totfact>
</mgrwt>
</event>
<event>
13    1  0.2038932E-008  0.1298062E+03  0.7546771E-02  0.1275372E+00
         -3   -1    0    0    0  501 -0.00000000000E+00  0.00000000000E+00  0.27590346659E+04  0.27590346659E+04  0.00000000000E+00 0.  1.
          2   -1    0    0  503    0  0.00000000000E+00 -0.00000000000E+00 -0.88658616507E+03  0.88658616507E+03  0.00000000000E+00 0. -1.
         24    2    1    2    0    0  0.95028970344E+02 -0.37925089643E+02  0.33302853014E+03  0.35786127279E+03  0.81779404779E+02 0.  0.
         25    2    1    2    0    0 -0.36029288119E+02  0.10181899147E+03 -0.22771950591E+03  0.28133136959E+03  0.12500379801E+03 0.  0.
         24    2    1    2    0    0 -0.49342511917E+02  0.41193206524E+01  0.58321510789E+03  0.59075653801E+03  0.80011079542E+02 0.  0.
        -13    1    3    3    0    0  0.10705095166E+03 -0.20103202228E+02  0.28952388557E+03  0.30933497265E+03  0.00000000000E+00 0.  1.
         14    1    3    3    0    0 -0.12021981314E+02 -0.17821887415E+02  0.43504644571E+02  0.48526300137E+02  0.00000000000E+00 0. -1.
        -13    1    5    5    0    0 -0.39631949992E+02  0.38457877079E+01  0.10278337648E+03  0.11022660307E+03  0.00000000000E+00 0.  1.
         14    1    5    5    0    0 -0.97105619257E+01  0.27353294445E+00  0.48043173141E+03  0.48052993494E+03  0.00000000000E+00 0. -1.
          5    1    4    4  502    0  0.28564858991E+02  0.95181875116E+02 -0.14927680639E+03  0.17939117995E+03  0.47000000000E+01 0.  1.
         -5    1    4    4    0  502 -0.64594147110E+02  0.66371163553E+01 -0.78442699518E+02  0.10194018963E+03  0.47000000000E+01 0.  1.
          1    1    1    2  503    0 -0.90214728757E+02 -0.12128189093E+03 -0.60527706312E+03  0.62386562455E+03  0.00000000000E+00 0. -1.
         -4    1    1    2    0  501  0.80557558449E+02  0.53268668447E+02  0.17892014319E+04  0.17918060261E+04  0.00000000000E+00 0.  1.
<mgrwt>
<rscale>  0 0.10237843E+03</rscale>
<asrwt>0</asrwt>
<pdfrwt beam="2">  1        2 0.13038032E+00 0.12980620E+03</pdfrwt>
<pdfrwt beam="1">  1       -3 0.40574039E+00 0.80746093E+02</pdfrwt>
<totfact> 0.28916331E-01</totfact>
</mgrwt>
</event>
<event>
13    1  0.2038932E-008  0.1296301E+03  0.7546771E-02  0.1248571E+00
          2   -1    0    0  503    0  0.00000000000E+00  0.00000000000E+00  0.16119231343E+04  0.16119231343E+04  0.00000000000E+00 0. -1.
          2   -1    0    0  502    0 -0.00000000000E+00 -0.00000000000E+00 -0.52039734291E+03  0.52039734291E+03  0.00000000000E+00 0. -1.
         24    2    1    2    0    0  0.43400702782E+02  0.90905831959E+01 -0.44421350540E+02  0.10417083392E+03  0.83138718722E+02 0.  0.
         25    2    1    2    0    0 -0.22915025710E+03  0.63850154866E+02  0.95311597534E+03  0.99027409093E+03  0.12500412036E+03 0.  0.
         24    2    1    2    0    0  0.10019264175E+03 -0.64412861666E+02  0.47674998036E+03  0.49791464120E+03  0.80254993214E+02 0.  0.
        -11    1    3    3    0    0  0.11854649670E+02 -0.36230556063E+02 -0.25221350532E+02  0.45708887911E+02  0.00000000000E+00 0.  1.
         12    1    3    3    0    0  0.31546053112E+02  0.45321139259E+02 -0.19200000009E+02  0.58461946008E+02  0.00000000000E+00 0. -1.
        -11    1    5    5    0    0  0.65066953677E+02 -0.77454990258E+02  0.39875994667E+03  0.41139090783E+03  0.00000000000E+00 0.  1.
         12    1    5    5    0    0  0.35125688072E+02  0.13042128592E+02  0.77990033690E+02  0.86523733367E+02  0.00000000000E+00 0. -1.
          5    1    4    4  501    0 -0.25302954301E+02  0.64084973528E+01  0.35062271984E+03  0.35162435923E+03  0.47000000000E+01 0.  1.
         -5    1    4    4    0  501 -0.20384730280E+03  0.57441657513E+02  0.60249325550E+03  0.63864973170E+03  0.47000000000E+01 0.  1.
          1    1    1    2  502    0  0.10901361383E+03  0.95020612921E+02 -0.37787740898E+03  0.40460378285E+03  0.00000000000E+00 0. -1.
          1    1    1    2  503    0 -0.23456701263E+02 -0.10354848932E+03  0.83958595214E+02  0.13535712831E+03  0.00000000000E+00 0. -1.
<mgrwt>
<rscale>  0 0.11674163E+03</rscale>
<asrwt>0</asrwt>
<pdfrwt beam="1">  1        2 0.23704752E+00 0.10513458E+03</pdfrwt>
<pdfrwt beam="2">  1        2 0.76529021E-01 0.12963011E+03</pdfrwt>
<totfact> 0.13829241E+02</totfact>
</mgrwt>
</event>
<event>
13    1  0.2038932E-008  0.1103715E+03  0.7546771E-02  0.1347318E+00
          2   -1    0    0  503    0  0.00000000000E+00  0.00000000000E+00  0.25572801075E+04  0.25572801075E+04  0.00000000000E+00 0. -1.
          2   -1    0    0  502    0 -0.00000000000E+00 -0.00000000000E+00 -0.28042068490E+04  0.28042068490E+04  0.00000000000E+00 0. -1.
         24    2    1    2    0    0  0.13586408182E+03  0.73766470403E+02 -0.16850230171E+03  0.24390285304E+03  0.84823553068E+02 0.  0.
         25    2    1    2    0    0  0.67785882473E+02 -0.48553557469E+02  0.23446728524E+03  0.27847871869E+03  0.12499246021E+03 0.  0.
         24    2    1    2    0    0 -0.10408888904E+03  0.26435492400E+02 -0.78915346724E+02  0.15572892308E+03  0.80563847079E+02 0.  0.
        -13    1    5    5    0    0 -0.15596272172E+01  0.31323427788E+02 -0.22530130661E+02  0.38616011615E+02  0.00000000000E+00 0.  1.
         14    1    5    5    0    0 -0.10252926182E+03 -0.48879353879E+01 -0.56385216063E+02  0.11711291147E+03  0.00000000000E+00 0. -1.
        -13    1    3    3    0    0  0.12685829133E+03  0.53385710672E+02 -0.95358432598E+02  0.16744040985E+03  0.00000000000E+00 0.  1.
         14    1    3    3    0    0  0.90057904862E+01  0.20380759731E+02 -0.73143869114E+02  0.76462443189E+02  0.00000000000E+00 0. -1.
          5    1    4    4  501    0  0.26709334637E+02  0.41880972762E+02  0.93333543799E+02  0.10583309895E+03  0.47000000000E+01 0.  1.
         -5    1    4    4    0  501  0.41076547836E+02 -0.90434530232E+02  0.14113374144E+03  0.17264561973E+03  0.47000000000E+01 0.  1.
          1    1    1    2  502    0 -0.11035471929E+03 -0.33625481399E+01 -0.24571615974E+04  0.24596407433E+04  0.00000000000E+00 0. -1.
          1    1    1    2  503    0  0.10793644040E+02 -0.48285857194E+02  0.22231852190E+04  0.22237357183E+04  0.00000000000E+00 0. -1.
<mgrwt>
<rscale>  0 0.73897965E+02</rscale>
<asrwt>0</asrwt>
<pdfrwt beam="1">  1        2 0.37607061E+00 0.49477538E+02</pdfrwt>
<pdfrwt beam="2">  1        2 0.41238336E+00 0.11037148E+03</pdfrwt>
<totfact> 0.30362113E+00</totfact>
</mgrwt>
</event>
<event>
13    1  0.2038932E-008  0.6855437E+02  0.7546771E-02  0.1461825E+00
          2   -1    0    0  503    0  0.00000000000E+00  0.00000000000E+00  0.11367112955E+04  0.11367112955E+04  0.00000000000E+00 0. -1.
          2   -1    0    0  502    0 -0.00000000000E+00 -0.00000000000E+00 -0.33322760875E+03  0.33322760875E+03  0.00000000000E+00 0. -1.
         24    2    1    2    0    0  0.69117896583E+02 -0.24461546991E+02 -0.19906949930E+03  0.22714976156E+03  0.81195429158E+02 0.  0.
         25    2    1    2    0    0 -0.31119564224E+02 -0.73583571321E+01  0.15848330026E+03  0.20436442762E+03  0.12500116046E+03 0.  0.
         24    2    1    2    0    0 -0.55816485903E+02  0.73321768437E+02 -0.15715729154E+02  0.12145901727E+03  0.77548352066E+02 0.  0.
        -13    1    5    5    0    0 -0.19715979845E+02  0.70300828344E+02  0.14315341508E+02  0.74403328753E+02  0.00000000000E+00 0.  1.
         14    1    5    5    0    0 -0.36100506058E+02  0.30209400935E+01 -0.30031070662E+02  0.47055688517E+02  0.00000000000E+00 0. -1.
        -13    1    3    3    0    0  0.75645709957E+02 -0.88185068062E+01 -0.95238581484E+02  0.12194435985E+03  0.00000000000E+00 0.  1.
         14    1    3    3    0    0 -0.65278133739E+01 -0.15643040185E+02 -0.10383091782E+03  0.10520540171E+03  0.00000000000E+00 0. -1.
          5    1    4    4  501    0  0.48248653617E+02 -0.30159949941E+01  0.71523863844E+02  0.86456821020E+02  0.47000000000E+01 0. -1.
         -5    1    4    4    0  501 -0.79368217841E+02 -0.43423621380E+01  0.86959436414E+02  0.11790760660E+03  0.47000000000E+01 0. -1.
          1    1    1    2  502    0 -0.31749907884E+02  0.60270953661E+01 -0.17666388186E+02  0.36830473806E+02  0.00000000000E+00 0. -1.
          1    1    1    2  503    0  0.49568061428E+02 -0.47528959680E+02  0.87745200315E+03  0.88013522401E+03  0.00000000000E+00 0. -1.
<mgrwt>
<rscale>  0 0.47068729E+02</rscale>
<asrwt>0</asrwt>
<pdfrwt beam="1">  1        2 0.16716342E+00 0.68554371E+02</pdfrwt>
<pdfrwt beam="2">  1        2 0.49004061E-01 0.32316908E+02</pdfrwt>
<totfact> 0.39517837E+02</totfact>
</mgrwt>
</event>
<event>
13    1  0.2038932E-008  0.1165469E+03  0.7546771E-02  0.1297305E+00
          2   -1    0    0  503    0  0.00000000000E+00  0.00000000000E+00  0.14856567488E+04  0.14856567488E+04  0.00000000000E+00 0. -1.
          2   -1    0    0  502    0 -0.00000000000E+00 -0.00000000000E+00 -0.38754037959E+04  0.38754037959E+04  0.00000000000E+00 0. -1.
         24    2    1    2    0    0 -0.57941330698E+02 -0.33567505324E+03 -0.40819761345E+03  0.53399889038E+03  0.49945812013E+02 0.  0.
         25    2    1    2    0    0  0.10593293578E+03  0.32049136472E+03 -0.18964563998E+03  0.40685050881E+03  0.12500146406E+03 0.  0.
         24    2    1    2    0    0  0.98820334180E+02  0.78751275584E+02  0.60907965592E+03  0.62620530111E+03  0.72026592546E+02 0.  0.
        -13    1    5    5    0    0  0.19362601418E+02  0.53737056419E+02  0.33188115826E+03  0.33676057485E+03  0.00000000000E+00 0.  1.
         14    1    5    5    0    0  0.79457732762E+02  0.25014219164E+02  0.27719849766E+03  0.28944472626E+03  0.00000000000E+00 0. -1.
        -13    1    3    3    0    0 -0.44369712483E+02 -0.15312157236E+03 -0.16293124782E+03  0.22795060611E+03  0.00000000000E+00 0.  1.
         14    1    3    3    0    0 -0.13571618216E+02 -0.18255348088E+03 -0.24526636562E+03  0.30604828427E+03  0.00000000000E+00 0. -1.
          5    1    4    4  501    0 -0.26151185335E+01  0.81032497600E+02 -0.10046653393E+03  0.12918482477E+03  0.47000000000E+01 0.  1.
         -5    1    4    4    0  501  0.10854805432E+03  0.23945886712E+03 -0.89179106051E+02  0.27766568404E+03  0.47000000000E+01 0.  1.
          1    1    1    2  502    0 -0.83806359986E+01  0.72663520077E+02 -0.30835128204E+04  0.30843802515E+04  0.00000000000E+00 0. -1.
          1    1    1    2  503    0 -0.13843130327E+03 -0.13623110714E+03  0.68252937076E+03  0.70962559299E+03  0.00000000000E+00 0. -1.
<mgrwt>
<rscale>  0 0.92330117E+02</rscale>
<asrwt>0</asrwt>
<pdfrwt beam="1">  1        2 0.21847894E+00 0.11654694E+03</pdfrwt>
<pdfrwt beam="2">  1        2 0.56991232E+00 0.73145213E+02</pdfrwt>
<totfact> 0.23831514E+00</totfact>
</mgrwt>
</event>
<event>
13    1  0.2038932E-008  0.1268949E+03  0.7546771E-02  0.1331736E+00
          4   -1    0    0  503    0 -0.00000000000E+00  0.00000000000E+00  0.26618450767E+04  0.26618450767E+04  0.00000000000E+00 0. -1.
          2   -1    0    0  502    0  0.00000000000E+00 -0.00000000000E+00 -0.11353193107E+04  0.11353193107E+04  0.00000000000E+00 0. -1.
         24    2    1    2    0    0  0.17732441288E+03  0.48808858285E+03  0.54511130965E+03  0.75716381421E+03  0.80475397004E+02 0.  0.
         25    2    1    2    0    0 -0.10225833588E+03 -0.65422214049E+03  0.18458936239E+04  0.19650475948E+04  0.12500160991E+03 0.  0.
         24    2    1    2    0    0  0.31735689587E+01  0.10225463334E+03  0.86976729664E+01  0.12872915651E+03  0.77649627439E+02 0.  0.
        -11    1    3    3    0    0  0.88699990205E+02  0.27197294799E+03  0.24343932132E+03  0.37563236797E+03  0.00000000000E+00 0.  1.
         12    1    3    3    0    0  0.88624422670E+02  0.21611563486E+03  0.30167198833E+03  0.38153144624E+03  0.00000000000E+00 0. -1.
        -13    1    5    5    0    0  0.34673068851E+02  0.26340529284E+02 -0.94556060006E+01  0.44558429858E+02  0.00000000000E+00 0.  1.
         14    1    5    5    0    0 -0.31499499893E+02  0.75914104052E+02  0.18153278967E+02  0.84170726650E+02  0.00000000000E+00 0. -1.
          5    1    4    4  501    0 -0.10141663328E+03 -0.33972954894E+03  0.10937423042E+04  0.11497807695E+04  0.47000000000E+01 0. -1.
         -5    1    4    4    0  501 -0.84170259358E+00 -0.31449259155E+03  0.75215131973E+03  0.81526682527E+03  0.47000000000E+01 0. -1.
          1    1    1    2  502    0  0.49055485268E+02 -0.44718454554E+01 -0.76283545638E+03  0.76442420916E+03  0.00000000000E+00 0. -1.
          3    1    1    2  503    0 -0.12729513123E+03  0.68350769759E+02 -0.11034138413E+03  0.18179961279E+03  0.00000000000E+00 0. -1.
<mgrwt>
<rscale>  0 0.79061364E+02</rscale>
<asrwt>0</asrwt>
<pdfrwt beam="2">  1        2 0.16695872E+00 0.49258888E+02</pdfrwt>
<pdfrwt beam="1">  1        4 0.39144781E+00 0.12689485E+03</pdfrwt>
<totfact> 0.14420407E-01</totfact>
</mgrwt>
</event>
<event>
13    1  0.2038932E-008  0.1386304E+03  0.7546771E-02  0.1227818E+00
          2   -1    0    0  502    0  0.00000000000E+00  0.00000000000E+00  0.69147661158E+03  0.69147661158E+03  0.00000000000E+00 0. -1.
          2   -1    0    0  503    0 -0.00000000000E+00 -0.00000000000E+00 -0.13586987756E+04  0.13586987756E+04  0.00000000000E+00 0. -1.
         24    2    1    2    0    0 -0.11811653105E+03 -0.15106891330E+03 -0.19142169125E+03  0.28260342563E+03  0.80306293794E+02 0.  0.
         25    2    1    2    0    0 -0.77010803919E+02  0.93594669858E+02  0.15061842383E+03  0.23021644466E+03  0.12499230235E+03 0.  0.
         24    2    1    2    0    0  0.26161087466E+02  0.46593422477E+02 -0.85516130438E+02  0.12903074486E+03  0.80502018854E+02 0.  0.
        -11    1    5    5    0    0  0.46655445678E+02  0.17716411541E+02 -0.78362847810E+02  0.92904993225E+02  0.00000000000E+00 0.  1.
         12    1    5    5    0    0 -0.20494358212E+02  0.28877010936E+02 -0.71532826279E+01  0.36125751639E+02  0.00000000000E+00 0. -1.
        -13    1    3    3    0    0  0.10428227799E+02 -0.13015533906E+01 -0.87711710684E+01  0.13688514096E+02  0.00000000000E+00 0.  1.
         14    1    3    3    0    0 -0.12854475885E+03 -0.14976735991E+03 -0.18265052018E+03  0.26891491153E+03  0.00000000000E+00 0. -1.
          5    1    4    4  501    0 -0.28320931051E+02  0.19920783241E+02 -0.18377151782E+02  0.39480659165E+02  0.47000000000E+01 0. -1.
         -5    1    4    4    0  501 -0.48689872869E+02  0.73673886617E+02  0.16899557562E+03  0.19073578549E+03  0.47000000000E+01 0. -1.
          1    1    1    2  502    0 -0.10036319243E+02  0.12072619050E+03  0.41360706510E+03  0.43098299859E+03  0.00000000000E+00 0. -1.
          1    1    1    2  503    0  0.17900256675E+03 -0.10984536953E+03 -0.95450983129E+03  0.97734177345E+03  0.00000000000E+00 0. -1.
<mgrwt>
<rscale>  0 0.12975624E+03</rscale>
<asrwt>0</asrwt>
<pdfrwt beam="1">  1        2 0.10168774E+00 0.12145014E+03</pdfrwt>
<pdfrwt beam="2">  1        2 0.19980864E+00 0.13863040E+03</pdfrwt>
<totfact> 0.13198829E+02</totfact>
</mgrwt>
</event>
<event>
13    1  0.2038932E-008  0.1011992E+03  0.7546771E-02  0.1302415E+00
          2   -1    0    0  502    0  0.00000000000E+00  0.00000000000E+00  0.22982516213E+04  0.22982516213E+04  0.00000000000E+00 0. -1.
          2   -1    0    0  503    0 -0.00000000000E+00 -0.00000000000E+00 -0.17561138964E+04  0.17561138964E+04  0.00000000000E+00 0. -1.
         24    2    1    2    0    0 -0.44759590171E+02 -0.83785681438E+02 -0.76858191672E+02  0.14895858523E+03  0.85193997200E+02 0.  0.
         25    2    1    2    0    0  0.11912932338E+03 -0.21463066327E+02  0.10086866299E+03  0.20111884421E+03  0.12498737303E+03 0.  0.
         24    2    1    2    0    0  0.81714935058E+02  0.40952261898E+02 -0.17092686393E+03  0.20961820512E+03  0.79808400167E+02 0.  0.
        -11    1    3    3    0    0  0.23717161844E+02 -0.23586246933E+02 -0.71909129732E+01  0.34212922116E+02  0.00000000000E+00 0.  1.
         12    1    3    3    0    0 -0.68476752014E+02 -0.60199434505E+02 -0.69667278698E+02  0.11474566311E+03  0.00000000000E+00 0. -1.
        -11    1    5    5    0    0 -0.32818198937E+01  0.35689141478E+02 -0.43635642732E+02  0.56467286794E+02  0.00000000000E+00 0.  1.
         12    1    5    5    0    0  0.84996754952E+02  0.52631204202E+01 -0.12729122120E+03  0.15315091832E+03  0.00000000000E+00 0. -1.
          5    1    4    4  501    0  0.56255812937E+02 -0.64790288821E+02  0.16996913829E+02  0.87598419474E+02  0.47000000000E+01 0. -1.
         -5    1    4    4    0  501  0.62873510445E+02  0.43327222494E+02  0.83871749160E+02  0.11352042473E+03  0.47000000000E+01 0. -1.
          1    1    1    2  502    0 -0.10082180800E+03  0.59530633069E+01  0.20894903655E+04  0.20919298419E+04  0.00000000000E+00 0. -1.
          1    1    1    2  503    0 -0.55262860266E+02  0.58343422560E+02 -0.14004362480E+04  0.14027400413E+04  0.00000000000E+00 0. -1.
<mgrwt>
<rscale>  0 0.90180378E+02</rscale>
<asrwt>0</asrwt>
<pdfrwt beam="1">  1        2 0.33797818E+00 0.10119921E+03</pdfrwt>
<pdfrwt beam="2">  1        2 0.25825204E+00 0.80361301E+02</pdfrwt>
<totfact> 0.12521768E+01</totfact>
</mgrwt>
</event>
<event>
13    1  0.2038932E-008  0.8632324E+02  0.7546771E-02  0.1437049E+00
          2   -1    0    0  503    0  0.00000000000E+00  0.00000000000E+00  0.31587777602E+04  0.31587777602E+04  0.00000000000E+00 0. -1.
          2   -1    0    0  502    0 -0.00000000000E+00 -0.00000000000E+00 -0.31135000156E+03  0.31135000156E+03  0.00000000000E+00 0. -1.
         24    2    1    2    0    0 -0.24054184299E+02 -0.20829749321E+03 -0.10434996457E+03  0.24751058660E+03  0.80038277813E+02 0.  0.
         25    2    1    2    0    0 -0.26003745917E+02  0.22582174074E+03  0.13642952500E+04  0.13887394419E+04  0.12499621990E+03 0.  0.
         24    2    1    2    0    0  0.31464380159E+02  0.46991354842E+02  0.70132011605E+02  0.12038845080E+03  0.79854150717E+02 0.  0.
        -11    1    5    5    0    0  0.23309843659E+02  0.64419295754E+02  0.73913573100E+02  0.10077901947E+03  0.00000000000E+00 0.  1.
         12    1    5    5    0    0  0.81545364993E+01 -0.17427940912E+02 -0.37815614942E+01  0.19609431335E+02  0.00000000000E+00 0. -1.
        -13    1    3    3    0    0  0.26663400981E+02 -0.10039077889E+03 -0.35175911827E+02  0.10966581149E+03  0.00000000000E+00 0.  1.
         14    1    3    3    0    0 -0.50717585281E+02 -0.10790671432E+03 -0.69174052741E+02  0.13784477511E+03  0.00000000000E+00 0. -1.
          5    1    4    4  501    0  0.19976393860E+02  0.30379843214E+02  0.50322043351E+03  0.50455414564E+03  0.47000000000E+01 0. -1.
         -5    1    4    4    0  501 -0.45980139777E+02  0.19544189752E+03  0.86107481650E+03  0.88418529629E+03  0.47000000000E+01 0. -1.
          1    1    1    2  502    0  0.48550135631E+02 -0.71712902017E+02 -0.78772982227E+02  0.11706852145E+03  0.00000000000E+00 0. -1.
          1    1    1    2  503    0 -0.29956585574E+02  0.71972996477E+01  0.15961234438E+04  0.15964207610E+04  0.00000000000E+00 0. -1.
<mgrwt>
<rscale>  0 0.51570708E+02</rscale>
<asrwt>0</asrwt>
<pdfrwt beam="1">  1        2 0.46452612E+00 0.30809059E+02</pdfrwt>
<pdfrwt beam="2">  1        2 0.45786767E-01 0.86323245E+02</pdfrwt>
<totfact> 0.49680992E+01</totfact>
</mgrwt>
</event>
<event>
13    1  0.2038932E-008  0.7278289E+02  0.7546771E-02  0.1436918E+00
          2   -1    0    0  502    0  0.00000000000E+00  0.00000000000E+00  0.33456211385E+04  0.33456211385E+04  0.00000000000E+00 0. -1.
          2   -1    0    0  503    0 -0.00000000000E+00 -0.00000000000E+00 -0.62600929771E+03  0.62600929771E+03  0.00000000000E+00 0. -1.
         24    2    1    2    0    0  0.17796737030E+03  0.77885969199E+03  0.66825011739E+03  0.10447588595E+04  0.81658131564E+02 0.  0.
         25    2    1    2    0    0 -0.30857892023E+03  0.93915735438E+02  0.21157093247E+03  0.40550093592E+03  0.12501053635E+03 0.  0.
         24    2    1    2    0    0  0.22097223458E+03 -0.84344628860E+03  0.59199661503E+03  0.10571888637E+04  0.83414214681E+02 0.  0.
        -11    1    3    3    0    0  0.97318171974E+02  0.56438626471E+03  0.50312879896E+03  0.76232622331E+03  0.00000000000E+00 0.  1.
         12    1    3    3    0    0  0.80649198329E+02  0.21447342728E+03  0.16512131843E+03  0.28243263622E+03  0.00000000000E+00 0. -1.
        -11    1    5    5    0    0  0.13303221487E+03 -0.49492774219E+03  0.39689631541E+03  0.64821117344E+03  0.00000000000E+00 0.  1.
         12    1    5    5    0    0  0.87940019710E+02 -0.34851854640E+03  0.19510029962E+03  0.40897769030E+03  0.00000000000E+00 0. -1.
          5    1    4    4  501    0 -0.29097613677E+03  0.46935380152E+02  0.17079881044E+03  0.34068220635E+03  0.47000000000E+01 0.  1.
         -5    1    4    4    0  501 -0.17602783458E+02  0.46980355286E+02  0.40772122028E+02  0.64818729569E+02  0.47000000000E+01 0.  1.
          1    1    1    2  502    0 -0.57256215084E+02 -0.44883804209E+02  0.13518903643E+04  0.13538465153E+04  0.00000000000E+00 0. -1.
          1    1    1    2  503    0 -0.33104469568E+02  0.15554665374E+02 -0.10409618842E+03  0.11033526165E+03  0.00000000000E+00 0. -1.
<mgrwt>
<rscale>  0 0.51596090E+02</rscale>
<asrwt>0</asrwt>
<pdfrwt beam="1">  1        2 0.49200310E+00 0.72782891E+02</pdfrwt>
<pdfrwt beam="2">  1        2 0.92060192E-01 0.36576680E+02</pdfrwt>
<totfact> 0.16257050E+01</totfact>
</mgrwt>
</event>
<event>
13    1  0.2038932E-008  0.3775596E+02  0.7546771E-02  0.1553764E+00
          2   -1    0    0  502    0  0.00000000000E+00  0.00000000000E+00  0.23395088511E+04  0.23395088511E+04  0.00000000000E+00 0. -1.
          2   -1    0    0  503    0 -0.00000000000E+00 -0.00000000000E+00 -0.28200553289E+04  0.28200553289E+04  0.00000000000E+00 0. -1.
         24    2    1    2    0    0  0.65996000690E+03  0.54915783345E+03 -0.10440811653E+04  0.13542027014E+04  0.81473553479E+02 0.  0.
         25    2    1    2    0    0 -0.43420070453E+03 -0.53222014369E+03 -0.70014118125E+03  0.98874240167E+03  0.12500132003E+03 0.  0.
         24    2    1    2    0    0 -0.23602332866E+03  0.23984895144E+01  0.11660414404E+04  0.11926562766E+04  0.84045159136E+02 0.  0.
        -11    1    5    5    0    0 -0.13346989639E+03 -0.35755990112E+02  0.55843617413E+03  0.57527703296E+03  0.00000000000E+00 0.  1.
         12    1    5    5    0    0 -0.10255343228E+03  0.38154479627E+02  0.60760526630E+03  0.61737924360E+03  0.00000000000E+00 0. -1.
        -11    1    3    3    0    0  0.28850217763E+03  0.18876303834E+03 -0.40788479951E+03  0.53407396568E+03  0.00000000000E+00 0.  1.
         12    1    3    3    0    0  0.37145782927E+03  0.36039479511E+03 -0.63619636580E+03  0.82012873570E+03  0.00000000000E+00 0. -1.
          5    1    4    4  501    0 -0.19723813667E+03 -0.17624379277E+03 -0.20640478743E+03  0.33554401101E+03  0.47000000000E+01 0. -1.
         -5    1    4    4    0  501 -0.23696256786E+03 -0.35597635092E+03 -0.49373639382E+03  0.65319839066E+03  0.47000000000E+01 0. -1.
          1    1    1    2  502    0 -0.27303114188E+02 -0.15484804540E+02  0.86004496815E+03  0.86061756109E+03  0.00000000000E+00 0. -1.
          1    1    1    2  503    0  0.37567140482E+02 -0.38513747381E+01 -0.76241053979E+03  0.76334523927E+03  0.00000000000E+00 0. -1.
<mgrwt>
<rscale>  0 0.34425337E+02</rscale>
<asrwt>0</asrwt>
<pdfrwt beam="1">  1        2 0.34404542E+00 0.31388520E+02</pdfrwt>
<pdfrwt beam="2">  1        2 0.41471402E+00 0.37755963E+02</pdfrwt>
<totfact> 0.47564431E+00</totfact>
</mgrwt>
</event>
<event>
13    1  0.2038932E-008  0.1151555E+03  0.7546771E-02  0.1339411E+00
          2   -1    0    0  502    0  0.00000000000E+00  0.00000000000E+00  0.20315100089E+04  0.20315100089E+04  0.00000000000E+00 0. -1.
          2   -1    0    0  503    0 -0.00000000000E+00 -0.00000000000E+00 -0.24805433556E+04  0.24805433556E+04  0.00000000000E+00 0. -1.
         24    2    1    2    0    0  0.59359801633E+02  0.10379379300E+03 -0.84987267977E+03  0.86203073172E+03  0.80725913404E+02 0.  0.
         25    2    1    2    0    0  0.89925286898E+02 -0.11958801351E+03  0.11685510169E+04  0.11847043079E+04  0.12499987129E+03 0.  0.
         24    2    1    2    0    0 -0.99150421586E+02 -0.27409355894E+02 -0.16888336721E+03  0.21309756882E+03  0.79416013654E+02 0.  0.
        -11    1    3    3    0    0  0.14394299743E+02  0.19589471294E+02 -0.41920375573E+02  0.48458860272E+02  0.00000000000E+00 0.  1.
         12    1    3    3    0    0  0.44965501891E+02  0.84204321708E+02 -0.80795230420E+03  0.81357187145E+03  0.00000000000E+00 0. -1.
        -11    1    5    5    0    0 -0.11541444104E+01  0.13832980124E+02 -0.57354244473E+02  0.59010107164E+02  0.00000000000E+00 0.  1.
         12    1    5    5    0    0 -0.97996277175E+02 -0.41242336018E+02 -0.11152912274E+03  0.15408746166E+03  0.00000000000E+00 0. -1.
          5    1    4    4  501    0  0.11787600788E+03 -0.10157551403E+03  0.82846470800E+03  0.84296393795E+03  0.47000000000E+01 0. -1.
         -5    1    4    4    0  501 -0.27950720982E+02 -0.18012499487E+02  0.34008630894E+03  0.34174036997E+03  0.47000000000E+01 0. -1.
          1    1    1    2  502    0  0.47382488100E+02 -0.18224078196E+02  0.82358388066E+03  0.82514703277E+03  0.00000000000E+00 0. -1.
          1    1    1    2  503    0 -0.97517155046E+02  0.61427654602E+02 -0.14224121974E+04  0.14270737233E+04  0.00000000000E+00 0. -1.
<mgrwt>
<rscale>  0 0.76459271E+02</rscale>
<asrwt>0</asrwt>
<pdfrwt beam="1">  1        2 0.29875147E+00 0.50766300E+02</pdfrwt>
<pdfrwt beam="2">  1        2 0.36478579E+00 0.11515553E+03</pdfrwt>
<totfact> 0.77925011E+00</totfact>
</mgrwt>
</event>
<event>
13    1  0.2038932E-008  0.6002051E+02  0.7546771E-02  0.1447864E+00
          2   -1    0    0  503    0  0.00000000000E+00  0.00000000000E+00  0.24516031788E+04  0.24516031788E+04  0.00000000000E+00 0. -1.
          2   -1    0    0  502    0 -0.00000000000E+00 -0.00000000000E+00 -0.68109290465E+03  0.68109290465E+03  0.00000000000E+00 0. -1.
         24    2    1    2    0    0  0.25086180948E+03  0.14447744194E+03 -0.69857181858E+02  0.30829546755E+03  0.79753938919E+02 0.  0.
         25    2    1    2    0    0 -0.20360896350E+03 -0.20619115997E+03  0.64574559484E+03  0.71873787884E+03  0.12500144301E+03 0.  0.
         24    2    1    2    0    0 -0.12571623435E+03  0.38198515715E+01  0.40644853880E+02  0.15909061171E+03  0.88536183233E+02 0.  0.
        -11    1    3    3    0    0  0.13667517154E+03  0.71228792837E+02 -0.77318837714E+02  0.17242924958E+03  0.00000000000E+00 0.  1.
         12    1    3    3    0    0  0.11418663793E+03  0.73248649104E+02  0.74616558568E+01  0.13586621797E+03  0.00000000000E+00 0. -1.
        -13    1    5    5    0    0 -0.72393947091E+02 -0.37243321996E+02  0.42348455157E+02  0.91767860729E+02  0.00000000000E+00 0.  1.
         14    1    5    5    0    0 -0.53322287257E+02  0.41063173567E+02 -0.17036012770E+01  0.67322750976E+02  0.00000000000E+00 0. -1.
          5    1    4    4  501    0 -0.15149933830E+02  0.16702304500E+02  0.60206253302E+02  0.64462162602E+02  0.47000000000E+01 0.  1.
         -5    1    4    4    0  501 -0.18845902967E+03 -0.22289346447E+03  0.58553934154E+03  0.65427571623E+03  0.47000000000E+01 0.  1.
          1    1    1    2  502    0  0.23828166749E+02  0.33219494078E+02 -0.39466173949E+03  0.39677349323E+03  0.00000000000E+00 0. -1.
          1    1    1    2  503    0  0.54635221620E+02  0.24674372383E+02  0.15486387468E+04  0.15497986321E+04  0.00000000000E+00 0. -1.
<mgrwt>
<rscale>  0 0.49535267E+02</rscale>
<asrwt>0</asrwt>
<pdfrwt beam="1">  1        2 0.36052988E+00 0.60020511E+02</pdfrwt>
<pdfrwt beam="2">  1        2 0.10016072E+00 0.40881736E+02</pdfrwt>
<totfact> 0.44267653E+01</totfact>
</mgrwt>
</event>
<event>
13    1  0.2038932E-008  0.1782151E+03  0.7546771E-02  0.1355023E+00
          2   -1    0    0  502    0  0.00000000000E+00  0.00000000000E+00  0.28734824096E+04  0.28734824096E+04  0.00000000000E+00 0. -1.
          2   -1    0    0  503    0 -0.00000000000E+00 -0.00000000000E+00 -0.11534621458E+04  0.11534621458E+04  0.00000000000E+00 0. -1.
         24    2    1    2    0    0  0.73470248777E+02 -0.31941371059E+02 -0.14056242267E+03  0.18085657678E+03  0.80828077152E+02 0.  0.
         25    2    1    2    0    0  0.48132576408E+03  0.83721290468E+02 -0.66051690253E+02  0.50859353796E+03  0.12498326057E+03 0.  0.
         24    2    1    2    0    0 -0.38507434924E+03 -0.12289126328E+03  0.13132188189E+04  0.13763965306E+04  0.80865481473E+02 0.  0.
        -11    1    5    5    0    0 -0.83413546942E+02 -0.61870901285E+02  0.36432589520E+03  0.37883926163E+03  0.00000000000E+00 0.  1.
         12    1    5    5    0    0 -0.30166080229E+03 -0.61020361993E+02  0.94889292369E+03  0.99755726895E+03  0.00000000000E+00 0. -1.
        -13    1    3    3    0    0  0.75968894166E+02 -0.46679563124E+02 -0.84528669023E+02  0.12286313679E+03  0.00000000000E+00 0.  1.
         14    1    3    3    0    0 -0.24986453882E+01  0.14738192065E+02 -0.56033753648E+02  0.57993439991E+02  0.00000000000E+00 0. -1.
          5    1    4    4  501    0  0.14020008362E+03  0.66095927353E+02 -0.61863449219E+02  0.16695481847E+03  0.47000000000E+01 0.  1.
         -5    1    4    4    0  501  0.34112568045E+03  0.17625363115E+02 -0.41882410340E+01  0.34163871949E+03  0.47000000000E+01 0.  1.
          1    1    1    2  502    0 -0.15292603278E+03  0.94378810338E+02  0.12806750349E+04  0.12932216656E+04  0.00000000000E+00 0. -1.
          1    1    1    2  503    0 -0.16795630838E+02 -0.23267466469E+02 -0.66725947711E+03  0.66787624453E+03  0.00000000000E+00 0. -1.
<mgrwt>
<rscale>  0 0.71512829E+02</rscale>
<asrwt>0</asrwt>
<pdfrwt beam="1">  1        2 0.42257094E+00 0.17821510E+03</pdfrwt>
<pdfrwt beam="2">  1        2 0.16962679E+00 0.28696136E+02</pdfrwt>
<totfact> 0.12586390E+01</totfact>
</mgrwt>
</event>
<event>
13    1  0.2038932E-008  0.3741664E+02  0.7546771E-02  0.1543979E+00
          2   -1    0    0  502    0  0.00000000000E+00  0.00000000000E+00  0.40882134691E+03  0.40882134691E+03  0.00000000000E+00 0. -1.
          2   -1    0    0  503    0 -0.00000000000E+00 -0.00000000000E+00 -0.64024015988E+03  0.64024015988E+03  0.00000000000E+00 0. -1.
         24    2    1    2    0    0 -0.80434712295E+01  0.35001280897E+02 -0.50257175961E+03  0.50975079400E+03  0.77315660339E+02 0.  0.
         25    2    1    2    0    0 -0.10652680753E+03 -0.29254086951E+02  0.17180119254E+03  0.23946856149E+03  0.12500311939E+03 0.  0.
         24    2    1    2    0    0  0.75284649319E+02 -0.23732490498E+02  0.49444878005E+02  0.12372013693E+03  0.81430134429E+02 0.  0.
        -11    1    5    5    0    0  0.17548793558E+02 -0.30983321055E+02  0.54727086294E+02  0.65291502611E+02  0.00000000000E+00 0.  1.
         12    1    5    5    0    0  0.57735855761E+02  0.72508305570E+01 -0.52822082890E+01  0.58428634321E+02  0.00000000000E+00 0. -1.
        -13    1    3    3    0    0  0.32959797148E+02  0.92286067129E+01 -0.14919500023E+03  0.15307077939E+03  0.00000000000E+00 0.  1.
         14    1    3    3    0    0 -0.41003268377E+02  0.25772674184E+02 -0.35337675938E+03  0.35668001461E+03  0.00000000000E+00 0. -1.
          5    1    4    4  501    0 -0.67579127607E+02  0.25122004059E+02  0.15398303881E+03  0.17009091633E+03  0.47000000000E+01 0. -1.
         -5    1    4    4    0  501 -0.38947679924E+02 -0.54376091010E+02  0.17818153724E+02  0.69377645154E+02  0.47000000000E+01 0. -1.
          1    1    1    2  502    0  0.28510893675E+02 -0.18024798306E+02  0.10451778265E+03  0.10982591361E+03  0.00000000000E+00 0. -1.
          1    1    1    2  503    0  0.10774735767E+02  0.36010094857E+02 -0.54610906549E+02  0.66296100765E+02  0.00000000000E+00 0. -1.
<mgrwt>
<rscale>  0 0.35525933E+02</rscale>
<asrwt>0</asrwt>
<pdfrwt beam="1">  1        2 0.60120787E-01 0.33730764E+02</pdfrwt>
<pdfrwt beam="2">  1        2 0.94152963E-01 0.37416643E+02</pdfrwt>
<totfact> 0.65981931E+02</totfact>
</mgrwt>
</event>
<event>
13    1  0.2038932E-008  0.5344487E+03  0.7546771E-02  0.1093002E+00
          2   -1    0    0  503    0  0.00000000000E+00  0.00000000000E+00  0.14058885007E+04  0.14058885007E+04  0.00000000000E+00 0. -1.
          2   -1    0    0  502    0 -0.00000000000E+00 -0.00000000000E+00 -0.14511794568E+04  0.14511794568E+04  0.00000000000E+00 0. -1.
         24    2    1    2    0    0  0.12507722363E+03 -0.16585492783E+03  0.17424244503E+02  0.22398160107E+03  0.81926701170E+02 0.  0.
         25    2    1    2    0    0  0.32499889541E+02 -0.44209043070E+03  0.62725749784E+03  0.77818812168E+03  0.12499836957E+03 0.  0.
         24    2    1    2    0    0  0.12392638366E+03  0.48349323850E+02 -0.45415143139E+00  0.15508797886E+03  0.79728722867E+02 0.  0.
        -13    1    5    5    0    0  0.21778062384E+02  0.42654977530E+02 -0.18235938886E+02  0.51247249451E+02  0.00000000000E+00 0.  1.
         14    1    5    5    0    0  0.10214832127E+03  0.56943463205E+01  0.17781787454E+02  0.10384072941E+03  0.00000000000E+00 0. -1.
        -13    1    3    3    0    0  0.71694570943E+02 -0.35868324510E+02  0.22838304483E+02  0.83356081707E+02  0.00000000000E+00 0.  1.
         14    1    3    3    0    0  0.53382652685E+02 -0.12998660332E+03 -0.54140599797E+01  0.14062551936E+03  0.00000000000E+00 0. -1.
          5    1    4    4  501    0  0.99208749296E+01 -0.18511496849E+03  0.36984109760E+03  0.41372757074E+03  0.47000000000E+01 0.  1.
         -5    1    4    4    0  501  0.22579014611E+02 -0.25697546221E+03  0.25741640024E+03  0.36446055094E+03  0.47000000000E+01 0.  1.
          1    1    1    2  502    0 -0.97307107310E+02  0.53399690778E+03 -0.11124454025E+04  0.12378029504E+04  0.00000000000E+00 0. -1.
          1    1    1    2  503    0 -0.18419638952E+03  0.25599126897E+02  0.42292685544E+03  0.46200730542E+03  0.00000000000E+00 0. -1.
<mgrwt>
<rscale>  0 0.28497624E+03</rscale>
<asrwt>0</asrwt>
<pdfrwt beam="1">  1        2 0.20674831E+00 0.15195370E+03</pdfrwt>
<pdfrwt beam="2">  1        2 0.21340874E+00 0.53444868E+03</pdfrwt>
<totfact> 0.40688543E+01</totfact>
</mgrwt>
</event>
<event>
13    1  0.2038932E-008  0.3426863E+02  0.7546771E-02  0.1627131E+00
          2   -1    0    0  502    0  0.00000000000E+00  0.00000000000E+00  0.99632983300E+03  0.99632983300E+03  0.00000000000E+00 0. -1.
          2   -1    0    0  503    0 -0.00000000000E+00 -0.00000000000E+00 -0.93813866870E+03  0.93813866870E+03  0.00000000000E+00 0. -1.
         24    2    1    2    0    0  0.37007469332E+03 -0.10603864870E+03 -0.13789430575E+03  0.41969049119E+03  0.94476426570E+02 0.  0.
         25    2    1    2    0    0 -0.50075230924E+03  0.19504077346E+03  0.69275213411E+03  0.88562076691E+03  0.12499937980E+03 0.  0.
         24    2    1    2    0    0  0.81513705987E+02 -0.97338845839E+02 -0.27281626888E+03  0.31469960331E+03  0.92129195047E+02 0.  0.
        -11    1    3    3    0    0  0.10771950209E+03 -0.73011044997E+02 -0.64662838513E+02  0.14531134335E+03  0.00000000000E+00 0.  1.
         12    1    3    3    0    0  0.26235519123E+03 -0.33027603705E+02 -0.73231467240E+02  0.27437914783E+03  0.00000000000E+00 0. -1.
        -11    1    5    5    0    0 -0.11300719415E+01 -0.69715060775E+02 -0.12012808028E+03  0.13889644500E+03  0.00000000000E+00 0.  1.
         12    1    5    5    0    0  0.82643777928E+02 -0.27623785063E+02 -0.15268818860E+03  0.17580315830E+03  0.00000000000E+00 0. -1.
          5    1    4    4  501    0 -0.42104222440E+03  0.11494232872E+03  0.58035518719E+03  0.72616976455E+03  0.47000000000E+01 0.  1.
         -5    1    4    4    0  501 -0.79710084841E+02  0.80098444739E+02  0.11239694692E+03  0.15945100235E+03  0.47000000000E+01 0.  1.
          1    1    1    2  502    0  0.15685605825E+02  0.15588521653E+02  0.41436510336E+02  0.46968336422E+02  0.00000000000E+00 0. -1.
          1    1    1    2  503    0  0.33478304102E+02 -0.72518005711E+01 -0.26528690551E+03  0.26748930388E+03  0.00000000000E+00 0. -1.
<mgrwt>
<rscale>  0 0.27528627E+02</rscale>
<asrwt>0</asrwt>
<pdfrwt beam="1">  1        2 0.14651909E+00 0.22114254E+02</pdfrwt>
<pdfrwt beam="2">  1        2 0.13796157E+00 0.34268635E+02</pdfrwt>
<totfact> 0.16595230E+02</totfact>
</mgrwt>
</event>
<event>
13    1  0.2038932E-008  0.6387317E+02  0.7546771E-02  0.1425488E+00
          2   -1    0    0  502    0  0.00000000000E+00  0.00000000000E+00  0.43123606278E+03  0.43123606278E+03  0.00000000000E+00 0. -1.
          4   -1    0    0  503    0 -0.00000000000E+00 -0.00000000000E+00 -0.15784169814E+04  0.15784169814E+04  0.00000000000E+00 0. -1.
         24    2    1    2    0    0 -0.11523961228E+02 -0.62282188726E+02 -0.68842478697E+03  0.69601400165E+03  0.80591131408E+02 0.  0.
         25    2    1    2    0    0 -0.94829468497E+01  0.92423437897E+02  0.30218825850E+03  0.33996328368E+03  0.12500109010E+03 0.  0.
         24    2    1    2    0    0  0.64711509265E+00 -0.37476632248E+01 -0.56686140259E+02  0.10064465174E+03  0.83075650397E+02 0.  0.
        -11    1    5    5    0    0 -0.28604031550E+02 -0.31546593142E+02 -0.32801562253E+02  0.53752401304E+02  0.00000000000E+00 0.  1.
         12    1    5    5    0    0  0.29251146642E+02  0.27798929917E+02 -0.23884578006E+02  0.46892250436E+02  0.00000000000E+00 0. -1.
        -11    1    3    3    0    0 -0.23251921946E+02  0.12777700042E+02 -0.17716717624E+03  0.17914276382E+03  0.00000000000E+00 0.  1.
         12    1    3    3    0    0  0.11727960718E+02 -0.75059888768E+02 -0.51125761073E+03  0.51687123783E+03  0.00000000000E+00 0. -1.
          5    1    4    4  501    0  0.51701701434E+02  0.17239780497E+02  0.74245901272E+02  0.92221580004E+02  0.47000000000E+01 0. -1.
         -5    1    4    4    0  501 -0.61184648284E+02  0.75183657401E+02  0.22794235722E+03  0.24774170368E+03  0.47000000000E+01 0. -1.
          1    1    1    2  502    0  0.63397045794E+02 -0.11800000800E+02  0.71303829220E+02  0.96138761672E+02  0.00000000000E+00 0. -1.
          3    1    1    2  503    0 -0.43037252809E+02 -0.14593585147E+02 -0.77556207914E+03  0.77689234548E+03  0.00000000000E+00 0. -1.
<mgrwt>
<rscale>  0 0.53876405E+02</rscale>
<asrwt>0</asrwt>
<pdfrwt beam="1">  1        2 0.63417068E-01 0.63873172E+02</pdfrwt>
<pdfrwt beam="2">  1        4 0.23212014E+00 0.45444228E+02</pdfrwt>
<totfact> 0.39507837E+00</totfact>
</mgrwt>
</event>
<event>
13    1  0.2038932E-008  0.1745227E+03  0.7546771E-02  0.1212870E+00
          2   -1    0    0  503    0  0.00000000000E+00  0.00000000000E+00  0.15615780771E+04  0.15615780771E+04  0.00000000000E+00 0. -1.
          2   -1    0    0  502    0 -0.00000000000E+00 -0.00000000000E+00 -0.44515378626E+04  0.44515378626E+04  0.00000000000E+00 0. -1.
         24    2    1    2    0    0 -0.14827069859E+03  0.10426324119E+03 -0.21021069540E+04  0.21112287393E+04  0.74686813760E+02 0.  0.
         25    2    1    2    0    0  0.19162798423E+03  0.45060438771E+02  0.69542710759E+02  0.24333713324E+03  0.12500017724E+03 0.  0.
         24    2    1    2    0    0 -0.15736045423E+03 -0.19059091596E+02 -0.17022352344E+03  0.24468323347E+03  0.75949162488E+02 0.  0.
        -11    1    5    5    0    0 -0.14900603374E+03  0.61651117159E+01 -0.14675296191E+03  0.20923010903E+03  0.00000000000E+00 0.  1.
         12    1    5    5    0    0 -0.83544204852E+01 -0.25224203311E+02 -0.23470561526E+02  0.35453124442E+02  0.00000000000E+00 0. -1.
        -13    1    3    3    0    0 -0.11594985579E+03  0.62406832319E+02 -0.17747115962E+04  0.17795899054E+04  0.00000000000E+00 0.  1.
         14    1    3    3    0    0 -0.32320842794E+02  0.41856408869E+02 -0.32739535778E+03  0.33163883388E+03  0.00000000000E+00 0. -1.
          5    1    4    4  501    0 -0.59738210662E+01  0.32237867460E+02 -0.83525790186E+00  0.33132375289E+02  0.47000000000E+01 0.  1.
         -5    1    4    4    0  501  0.19760180529E+03  0.12822571311E+02  0.70377968661E+02  0.21020475795E+03  0.47000000000E+01 0.  1.
          1    1    1    2  502    0  0.41626194081E+02 -0.21685537510E+03 -0.20422221655E+04  0.20541252072E+04  0.00000000000E+00 0. -1.
          1    1    1    2  503    0  0.72376974502E+02  0.86590786739E+02  0.13550501467E+04  0.13597416265E+04  0.00000000000E+00 0. -1.
<mgrwt>
<rscale>  0 0.14034196E+03</rscale>
<asrwt>0</asrwt>
<pdfrwt beam="1">  1        2 0.22964384E+00 0.11285562E+03</pdfrwt>
<pdfrwt beam="2">  1        2 0.65463792E+00 0.17452270E+03</pdfrwt>
<totfact> 0.70986572E-01</totfact>
</mgrwt>
</event>
<event>
13    1  0.2038932E-008  0.2425098E+03  0.7546771E-02  0.1324195E+00
          2   -1    0    0  503    0  0.00000000000E+00  0.00000000000E+00  0.16057326679E+04  0.16057326679E+04  0.00000000000E+00 0. -1.
          2   -1    0    0  502    0 -0.00000000000E+00 -0.00000000000E+00 -0.17765329342E+04  0.17765329342E+04  0.00000000000E+00 0. -1.
         24    2    1    2    0    0  0.38724654147E+03  0.25832983737E+03  0.36808761419E+02  0.47363830703E+03  0.79272770951E+02 0.  0.
         25    2    1    2    0    0 -0.10893456548E+03  0.26621564492E+03 -0.16316056270E+03  0.35352870627E+03  0.12499467101E+03 0.  0.
         24    2    1    2    0    0 -0.45142018193E+03 -0.32717797268E+03 -0.37222547952E+03  0.67256915842E+03  0.54514757614E+02 0.  0.
        -13    1    5    5    0    0 -0.17427396023E+03 -0.10443790333E+03 -0.15883679287E+03  0.25789109258E+03  0.00000000000E+00 0.  1.
         14    1    5    5    0    0 -0.27714622170E+03 -0.22274006935E+03 -0.21338868665E+03  0.41467806584E+03  0.00000000000E+00 0. -1.
        -13    1    3    3    0    0  0.12676650678E+03  0.44041980260E+02 -0.12172806551E+01  0.13420478769E+03  0.00000000000E+00 0.  1.
         14    1    3    3    0    0  0.26048003468E+03  0.21428785711E+03  0.38026042074E+02  0.33943351934E+03  0.00000000000E+00 0. -1.
          5    1    4    4  501    0 -0.72119817396E+02  0.26100656408E+03 -0.16291152636E+03  0.31605054972E+03  0.47000000000E+01 0.  1.
         -5    1    4    4    0  501 -0.36814748084E+02  0.52090808383E+01 -0.24903633759E+00  0.37478156555E+02  0.47000000000E+01 0.  1.
          1    1    1    2  502    0  0.34410800635E+00 -0.27546534452E+02 -0.76384924534E+03  0.76434586385E+03  0.00000000000E+00 0. -1.
          1    1    1    2  503    0  0.17276409794E+03 -0.16982097516E+03  0.10916262598E+04  0.11181835665E+04  0.00000000000E+00 0. -1.
<mgrwt>
<rscale>  0 0.81736316E+02</rscale>
<asrwt>0</asrwt>
<pdfrwt beam="1">  1        2 0.23613716E+00 0.24250978E+03</pdfrwt>
<pdfrwt beam="2">  1        2 0.26125484E+00 0.27548684E+02</pdfrwt>
<totfact> 0.27518014E+01</totfact>
</mgrwt>
</event>
<event>
13    1  0.2038932E-008  0.7481216E+02  0.7546771E-02  0.1431682E+00
         -3   -1    0    0    0  501 -0.00000000000E+00  0.00000000000E+00  0.39347402546E+03  0.39347402546E+03  0.00000000000E+00 0.  1.
          2   -1    0    0  503    0  0.00000000000E+00 -0.00000000000E+00 -0.56559432636E+03  0.56559432636E+03  0.00000000000E+00 0. -1.
         24    2    1    2    0    0 -0.13949792142E+00 -0.58815377306E+02 -0.13837376651E+03  0.17488492922E+03  0.89320608713E+02 0.  0.
         25    2    1    2    0    0  0.79726464065E+02  0.73345464516E+02 -0.41302830613E+02  0.17049139605E+03  0.12500210427E+03 0.  0.
         24    2    1    2    0    0 -0.37147086154E+02  0.71826301014E+00 -0.82353476906E+02  0.12284326456E+03  0.83234311299E+02 0.  0.
        -13    1    3    3    0    0  0.29156166869E+02 -0.23082724340E+02 -0.10087931500E+02  0.38531293664E+02  0.00000000000E+00 0.  1.
         14    1    3    3    0    0 -0.29295664791E+02 -0.35732652966E+02 -0.12828583501E+03  0.13635363555E+03  0.00000000000E+00 0. -1.
        -13    1    5    5    0    0 -0.25814643832E+02 -0.40619625000E+02 -0.47168104378E+02  0.67388276739E+02  0.00000000000E+00 0.  1.
         14    1    5    5    0    0 -0.11332442323E+02  0.41337888010E+02 -0.35185372529E+02  0.55454987820E+02  0.00000000000E+00 0. -1.
          5    1    4    4  502    0  0.76486660877E+02  0.10550133912E+03 -0.21105450471E+02  0.13209190697E+03  0.47000000000E+01 0. -1.
         -5    1    4    4    0  502  0.32398031889E+01 -0.32155874606E+02 -0.20197380142E+02  0.38399489072E+02  0.47000000000E+01 0. -1.
          1    1    1    2  503    0 -0.77086441818E+02 -0.22163645182E+01 -0.19179700641E+03  0.20672039921E+03  0.00000000000E+00 0. -1.
         -4    1    1    2    0  501  0.34646561828E+02 -0.13031985702E+02  0.28170677954E+03  0.28412836279E+03  0.00000000000E+00 0.  1.
<mgrwt>
<rscale>  0 0.52623947E+02</rscale>
<asrwt>0</asrwt>
<pdfrwt beam="2">  1        2 0.83175636E-01 0.74812156E+02</pdfrwt>
<pdfrwt beam="1">  1       -3 0.57863827E-01 0.37016441E+02</pdfrwt>
<totfact> 0.98048343E+01</totfact>
</mgrwt>
</event>
<event>
13    1  0.2038932E-008  0.1377833E+03  0.7546771E-02  0.1238210E+00
          2   -1    0    0  502    0  0.00000000000E+00  0.00000000000E+00  0.99561453688E+03  0.99561453688E+03  0.00000000000E+00 0. -1.
          2   -1    0    0  503    0 -0.00000000000E+00 -0.00000000000E+00 -0.14519038428E+04  0.14519038428E+04  0.00000000000E+00 0. -1.
         24    2    1    2    0    0 -0.56565631086E+01 -0.38767701957E+02 -0.43005343718E+03  0.43909656572E+03  0.79529263659E+02 0.  0.
         25    2    1    2    0    0 -0.11429668515E+02 -0.31115505508E+03  0.55069632236E+02  0.34000836464E+03  0.12499967201E+03 0.  0.
         24    2    1    2    0    0 -0.35192464639E+02 -0.43472646548E+01 -0.93347956795E+02  0.12799156387E+03  0.80066167051E+02 0.  0.
        -11    1    5    5    0    0  0.24376027894E+02  0.85473084116E+01 -0.35971026017E+02  0.44285007956E+02  0.00000000000E+00 0.  1.
         12    1    5    5    0    0 -0.59568492532E+02 -0.12894573066E+02 -0.57376930778E+02  0.83706555912E+02  0.00000000000E+00 0. -1.
        -13    1    3    3    0    0  0.28001245397E+02 -0.40441017953E+02 -0.32684692819E+03  0.33052754823E+03  0.00000000000E+00 0.  1.
         14    1    3    3    0    0 -0.33657808505E+02  0.16733159961E+01 -0.10320650899E+03  0.10856901749E+03  0.00000000000E+00 0. -1.
          5    1    4    4  501    0  0.36007691377E+02 -0.14883363087E+03 -0.20787776199E+02  0.15460344483E+03  0.47000000000E+01 0. -1.
         -5    1    4    4    0  501 -0.47437359892E+02 -0.16232142422E+03  0.75857408435E+02  0.18540491980E+03  0.47000000000E+01 0. -1.
          1    1    1    2  502    0  0.73186756394E+02  0.14982686771E+03  0.75312945881E+03  0.77136785863E+03  0.00000000000E+00 0. -1.
          1    1    1    2  503    0 -0.20908060131E+02  0.20444315398E+03 -0.74108700303E+03  0.76905402687E+03  0.00000000000E+00 0. -1.
<mgrwt>
<rscale>  0 0.12301159E+03</rscale>
<asrwt>0</asrwt>
<pdfrwt beam="1">  1        2 0.14641390E+00 0.10982352E+03</pdfrwt>
<pdfrwt beam="2">  1        2 0.21351527E+00 0.13778333E+03</pdfrwt>
<totfact> 0.75696564E+01</totfact>
</mgrwt>
</event>
<event>
13    1  0.2038932E-008  0.9758124E+02  0.7546771E-02  0.1308656E+00
         -1   -1    0    0    0  501 -0.00000000000E+00  0.00000000000E+00  0.49700994834E+03  0.49700994834E+03  0.00000000000E+00 0.  1.
          2   -1    0    0  503    0  0.00000000000E+00 -0.00000000000E+00 -0.36692538808E+04  0.36692538808E+04  0.00000000000E+00 0. -1.
         24    2    1    2    0    0  0.11443846638E+02 -0.33242840050E+02  0.73310973042E+02  0.11299747706E+03  0.78472179866E+02 0.  0.
         25    2    1    2    0    0 -0.83999477978E+02 -0.16339909260E+03 -0.12951569125E+04  0.13140820130E+04  0.12499973234E+03 0.  0.
         24    2    1    2    0    0 -0.36412484365E+02  0.68893324002E+02  0.22141370304E+03  0.24795591987E+03  0.79912146723E+02 0.  0.
        -11    1    5    5    0    0 -0.37198660776E+02  0.84402635136E+02  0.20761561843E+03  0.22718228407E+03  0.00000000000E+00 0.  1.
         12    1    5    5    0    0  0.78617641152E+00 -0.15509311134E+02  0.13798084617E+02  0.20773635799E+02  0.00000000000E+00 0. -1.
        -13    1    3    3    0    0  0.51822024184E+01 -0.42480293075E+02  0.42107076570E+01  0.43001867176E+02  0.00000000000E+00 0.  1.
         14    1    3    3    0    0  0.62616442192E+01  0.92374530251E+01  0.69100265385E+02  0.69995609884E+02  0.00000000000E+00 0. -1.
          5    1    4    4  502    0  0.17919838688E+02  0.99802517604E+01 -0.12407264654E+03  0.12584449795E+03  0.47000000000E+01 0. -1.
         -5    1    4    4    0  502 -0.10191931667E+03 -0.17337934437E+03 -0.11710842660E+04  0.11882375151E+04  0.47000000000E+01 0. -1.
          1    1    1    2  503    0  0.80855317619E+02  0.54218556750E+02 -0.23207367047E+04  0.23227776662E+04  0.00000000000E+00 0. -1.
         -2    1    1    2    0  501  0.28112798087E+02  0.73530051902E+02  0.14892500869E+03  0.16845075293E+03  0.00000000000E+00 0.  1.
<mgrwt>
<rscale>  0 0.87645276E+02</rscale>
<asrwt>0</asrwt>
<pdfrwt beam="2">  1        2 0.53959616E+00 0.97581243E+02</pdfrwt>
<pdfrwt beam="1">  1       -1 0.73089698E-01 0.78721013E+02</pdfrwt>
<totfact> 0.28265373E+00</totfact>
</mgrwt>
</event>
<event>
13    1  0.2038932E-008  0.6035670E+02  0.7546771E-02  0.1466220E+00
          2   -1    0    0  503    0  0.00000000000E+00  0.00000000000E+00  0.46032155915E+04  0.46032155915E+04  0.00000000000E+00 0. -1.
          2   -1    0    0  502    0 -0.00000000000E+00 -0.00000000000E+00 -0.14762003618E+04  0.14762003618E+04  0.00000000000E+00 0. -1.
         24    2    1    2    0    0 -0.36055788679E+03 -0.16677200939E+03 -0.10111764482E+03  0.41620537013E+03  0.72022490854E+02 0.  0.
         25    2    1    2    0    0  0.17524514752E+03  0.43624893025E+03  0.32693926829E+03  0.58612114566E+03  0.12499888543E+03 0.  0.
         24    2    1    2    0    0  0.22607829639E+03 -0.31683150611E+03  0.11842319957E+04  0.12491806612E+04  0.80952487655E+02 0.  0.
        -13    1    5    5    0    0  0.95813208098E+02 -0.77152471627E+02  0.31586763961E+03  0.33897646006E+03  0.00000000000E+00 0.  1.
         14    1    5    5    0    0  0.13026508830E+03 -0.23967903448E+03  0.86836435612E+03  0.91020420114E+03  0.00000000000E+00 0. -1.
        -13    1    3    3    0    0 -0.30790610754E+03 -0.16116187150E+03 -0.69125495248E+02  0.35434115479E+03  0.00000000000E+00 0.  1.
         14    1    3    3    0    0 -0.52651779252E+02 -0.56101378925E+01 -0.31992149571E+02  0.61864215341E+02  0.00000000000E+00 0. -1.
          5    1    4    4  501    0  0.56421207937E+02  0.23772086968E+03  0.22876687163E+03  0.33474010238E+03  0.47000000000E+01 0.  1.
         -5    1    4    4    0  501  0.11882393958E+03  0.19852806058E+03  0.98172396663E+02  0.25138104328E+03  0.47000000000E+01 0.  1.
          1    1    1    2  502    0 -0.33274091955E+02 -0.12541926686E+02 -0.10548453860E+04  0.10554445762E+04  0.00000000000E+00 0. -1.
          1    1    1    2  503    0 -0.74914651642E+01  0.59896511936E+02  0.27718069966E+04  0.27724642000E+04  0.00000000000E+00 0. -1.
<mgrwt>
<rscale>  0 0.46327564E+02</rscale>
<asrwt>0</asrwt>
<pdfrwt beam="1">  1        2 0.67694347E+00 0.60356702E+02</pdfrwt>
<pdfrwt beam="2">  1        2 0.21708829E+00 0.35559318E+02</pdfrwt>
<totfact> 0.83431275E-01</totfact>
</mgrwt>
</event>
<event>
13    1  0.2038932E-008  0.1541931E+03  0.7546771E-02  0.1325854E+00
          2   -1    0    0  502    0  0.00000000000E+00  0.00000000000E+00  0.24814333467E+04  0.24814333467E+04  0.00000000000E+00 0. -1.
          2   -1    0    0  503    0 -0.00000000000E+00 -0.00000000000E+00 -0.36430483902E+04  0.36430483902E+04  0.00000000000E+00 0. -1.
         24    2    1    2    0    0  0.19118025800E+02 -0.42161715491E+03 -0.38878720122E+03  0.57924104380E+03  0.78982116764E+02 0.  0.
         25    2    1    2    0    0  0.77651709085E+02  0.36713666793E+03  0.53626732827E+03  0.66635426459E+03  0.12500495071E+03 0.  0.
         24    2    1    2    0    0 -0.16718882264E+03 -0.84855607579E+02  0.10329526688E+04  0.10516679193E+04  0.62141933279E+02 0.  0.
        -13    1    5    5    0    0 -0.43730239898E+02 -0.55282413834E+02  0.38337150082E+03  0.38979762288E+03  0.00000000000E+00 0.  1.
         14    1    5    5    0    0 -0.12345858275E+03 -0.29573193745E+02  0.64958116800E+03  0.66187029640E+03  0.00000000000E+00 0. -1.
        -13    1    3    3    0    0  0.20356807072E+01 -0.86831423673E+02 -0.40481140577E+02  0.95825690060E+02  0.00000000000E+00 0.  1.
         14    1    3    3    0    0  0.17082345093E+02 -0.33478573124E+03 -0.34830606065E+03  0.48341535374E+03  0.00000000000E+00 0. -1.
          5    1    4    4  501    0  0.18473424006E+02  0.21546393478E+03  0.20892286156E+03  0.30072716317E+03  0.47000000000E+01 0. -1.
         -5    1    4    4    0  501  0.59178285079E+02  0.15167273315E+03  0.32734446672E+03  0.36562710142E+03  0.47000000000E+01 0. -1.
          1    1    1    2  502    0 -0.33977351760E+02  0.25853709572E+02  0.74004261968E+03  0.74127319773E+03  0.00000000000E+00 0. -1.
          1    1    1    2  503    0  0.10439643952E+03  0.11348238499E+03 -0.30820904590E+04  0.30859453115E+04  0.00000000000E+00 0. -1.
<mgrwt>
<rscale>  0 0.81137511E+02</rscale>
<asrwt>0</asrwt>
<pdfrwt beam="1">  1        2 0.36491668E+00 0.42695137E+02</pdfrwt>
<pdfrwt beam="2">  1        2 0.53574240E+00 0.15419310E+03</pdfrwt>
<totfact> 0.10764581E+00</totfact>
</mgrwt>
</event>
<event>
13    1  0.2038932E-008  0.1793448E+03  0.7546771E-02  0.1262271E+00
          2   -1    0    0  503    0  0.00000000000E+00  0.00000000000E+00  0.21775689811E+04  0.21775689811E+04  0.00000000000E+00 0. -1.
          2   -1    0    0  502    0 -0.00000000000E+00 -0.00000000000E+00 -0.16043698782E+04  0.16043698782E+04  0.00000000000E+00 0. -1.
         24    2    1    2    0    0  0.20781511353E+02 -0.89242332717E+02  0.16010839137E+03  0.20194967167E+03  0.82176077636E+02 0.  0.
         25    2    1    2    0    0 -0.21977490256E+03  0.11196291484E+03 -0.33131832901E+03  0.43154744879E+03  0.12499865329E+03 0.  0.
         24    2    1    2    0    0  0.24895182823E+03  0.14856612481E+03  0.83209212075E+03  0.88465229835E+03  0.78635140621E+02 0.  0.
        -11    1    5    5    0    0  0.21362049069E+03  0.12280234048E+03  0.60258597521E+03  0.65101765443E+03  0.00000000000E+00 0.  1.
         12    1    5    5    0    0  0.35331337543E+02  0.25763784339E+02  0.22950614554E+03  0.23363464391E+03  0.00000000000E+00 0. -1.
        -11    1    3    3    0    0  0.42278261657E+02 -0.23837840982E+02  0.37501393334E+02  0.61335540867E+02  0.00000000000E+00 0.  1.
         12    1    3    3    0    0 -0.21496750304E+02 -0.65404491734E+02  0.12260699804E+03  0.14061413080E+03  0.00000000000E+00 0. -1.
          5    1    4    4  501    0 -0.17946650836E+03  0.45567979470E+02 -0.16554319984E+03  0.24841761087E+03  0.47000000000E+01 0. -1.
         -5    1    4    4    0  501 -0.40308394199E+02  0.66394935367E+02 -0.16577512917E+03  0.18312983792E+03  0.47000000000E+01 0. -1.
          1    1    1    2  502    0 -0.44792894821E+02  0.48951064520E+02 -0.11636304935E+04  0.11655207143E+04  0.00000000000E+00 0. -1.
          1    1    1    2  503    0 -0.51655422056E+01 -0.22023777146E+03  0.10759474133E+04  0.10982687262E+04  0.00000000000E+00 0. -1.
<mgrwt>
<rscale>  0 0.10908673E+03</rscale>
<asrwt>0</asrwt>
<pdfrwt beam="1">  1        2 0.32023073E+00 0.17934479E+03</pdfrwt>
<pdfrwt beam="2">  1        2 0.23593675E+00 0.66352168E+02</pdfrwt>
<totfact> 0.16191647E+01</totfact>
</mgrwt>
</event>
<event>
13    1  0.2038932E-008  0.9969623E+02  0.7546771E-02  0.1307029E+00
          2   -1    0    0  503    0  0.00000000000E+00  0.00000000000E+00  0.33356360153E+04  0.33356360153E+04  0.00000000000E+00 0. -1.
          2   -1    0    0  502    0 -0.00000000000E+00 -0.00000000000E+00 -0.12072358547E+04  0.12072358547E+04  0.00000000000E+00 0. -1.
         24    2    1    2    0    0  0.20621607349E+03 -0.24518476079E+03 -0.69998480919E+03  0.77401120961E+03  0.80461068890E+02 0.  0.
         25    2    1    2    0    0 -0.28902484669E+03  0.38397939166E+03  0.19375014679E+03  0.53304659401E+03  0.12499606704E+03 0.  0.
         24    2    1    2    0    0 -0.50674253006E+02  0.62496366975E+01  0.53052833316E+03  0.53935980327E+03  0.82714854928E+02 0.  0.
        -11    1    3    3    0    0  0.44733069101E+02 -0.11292955709E+03 -0.24716058122E+03  0.27539514383E+03  0.00000000000E+00 0.  1.
         12    1    3    3    0    0  0.16148300439E+03 -0.13225520370E+03 -0.45282422797E+03  0.49861606578E+03  0.00000000000E+00 0. -1.
        -11    1    5    5    0    0 -0.22982086946E+02 -0.36704000271E+02  0.30855612287E+03  0.31158023191E+03  0.00000000000E+00 0.  1.
         12    1    5    5    0    0 -0.27692166060E+02  0.42953636969E+02  0.22197221029E+03  0.22777957136E+03  0.00000000000E+00 0. -1.
          5    1    4    4  501    0 -0.11206881411E+03  0.25100219235E+03  0.11591779913E+03  0.29836311068E+03  0.47000000000E+01 0.  1.
         -5    1    4    4    0  501 -0.17695603258E+03  0.13297719931E+03  0.77832347663E+02  0.23468348333E+03  0.47000000000E+01 0.  1.
          1    1    1    2  502    0  0.91862519715E+01 -0.77659841141E+02 -0.28888862339E+03  0.29928594166E+03  0.00000000000E+00 0. -1.
          1    1    1    2  503    0  0.12429677423E+03 -0.67384426426E+02  0.23929951133E+04  0.23971683214E+04  0.00000000000E+00 0. -1.
<mgrwt>
<rscale>  0 0.88297065E+02</rscale>
<asrwt>0</asrwt>
<pdfrwt beam="1">  1        2 0.49053471E+00 0.99696233E+02</pdfrwt>
<pdfrwt beam="2">  1        2 0.17753468E+00 0.78201267E+02</pdfrwt>
<totfact> 0.67593663E+00</totfact>
</mgrwt>
</event>
<event>
13    1  0.2038932E-008  0.3539468E+03  0.7546771E-02  0.1160764E+00
          2   -1    0    0  502    0  0.00000000000E+00  0.00000000000E+00  0.16123952546E+04  0.16123952546E+04  0.00000000000E+00 0. -1.
          2   -1    0    0  503    0 -0.00000000000E+00 -0.00000000000E+00 -0.15425109611E+04  0.15425109611E+04  0.00000000000E+00 0. -1.
         24    2    1    2    0    0 -0.20836277252E+03  0.21093105894E+03 -0.89301189780E+02  0.31999564354E+03  0.80718974172E+02 0.  0.
         25    2    1    2    0    0  0.35477148553E+02 -0.28454262726E+02  0.29779471163E+02  0.13630732604E+03  0.12499838836E+03 0.  0.
         24    2    1    2    0    0  0.41168004826E+03 -0.52399334830E+03 -0.36295063678E+03  0.76592806816E+03  0.10422643453E+03 0.  0.
        -11    1    5    5    0    0  0.31692614159E+03 -0.37642016375E+03 -0.21712055729E+03  0.53784352306E+03  0.00000000000E+00 0.  1.
         12    1    5    5    0    0  0.94753906675E+02 -0.14757318455E+03 -0.14583007950E+03  0.22808454510E+03  0.00000000000E+00 0. -1.
        -11    1    3    3    0    0 -0.90165959511E+02  0.38106579158E+02 -0.30045453306E+02  0.10239502378E+03  0.00000000000E+00 0.  1.
         12    1    3    3    0    0 -0.11819681301E+03  0.17282447978E+03 -0.59255736475E+02  0.21760061977E+03  0.00000000000E+00 0. -1.
          5    1    4    4  501    0  0.24000518583E+01  0.15839371101E+02  0.67293814188E+02  0.69333926427E+02  0.47000000000E+01 0. -1.
         -5    1    4    4    0  501  0.33077096695E+02 -0.44293633827E+02 -0.37514343025E+02  0.66973399615E+02  0.47000000000E+01 0. -1.
          1    1    1    2  502    0 -0.14521269165E+03  0.30832430272E+03  0.11849568271E+04  0.12329936268E+04  0.00000000000E+00 0. -1.
          1    1    1    2  503    0 -0.93581732645E+02  0.33192249369E+02 -0.69260017829E+03  0.69968155119E+03  0.00000000000E+00 0. -1.
<mgrwt>
<rscale>  0 0.18746929E+03</rscale>
<asrwt>0</asrwt>
<pdfrwt beam="1">  1        2 0.23711695E+00 0.35394677E+03</pdfrwt>
<pdfrwt beam="2">  1        2 0.22683985E+00 0.99293837E+02</pdfrwt>
<totfact> 0.30367540E+01</totfact>
</mgrwt>
</event>
<event>
13    1  0.2038932E-008  0.3403321E+03  0.7546771E-02  0.1174076E+00
          2   -1    0    0  502    0  0.00000000000E+00  0.00000000000E+00  0.77572833967E+03  0.77572833967E+03  0.00000000000E+00 0. -1.
          2   -1    0    0  503    0 -0.00000000000E+00 -0.00000000000E+00 -0.11664577434E+04  0.11664577434E+04  0.00000000000E+00 0. -1.
         24    2    1    2    0    0 -0.17542478706E+03 -0.96257733667E+02 -0.61701507123E+03  0.65322908231E+03  0.77208993259E+02 0.  0.
         25    2    1    2    0    0  0.58448181345E+02  0.90968458782E+01 -0.31169667315E+03  0.34099725022E+03  0.12500146438E+03 0.  0.
         24    2    1    2    0    0 -0.24051322969E+02  0.81926070736E+01  0.15309270315E+03  0.17522042941E+03  0.81358700680E+02 0.  0.
        -11    1    5    5    0    0  0.65846752382E+00 -0.25837707427E+02  0.11693892564E+03  0.11976114993E+03  0.00000000000E+00 0.  1.
         12    1    5    5    0    0 -0.24709790493E+02  0.34030314500E+02  0.36153777518E+02  0.55459279476E+02  0.00000000000E+00 0. -1.
        -13    1    3    3    0    0 -0.18080451385E+02 -0.43868499751E+02 -0.11048488529E+03  0.12024249610E+03  0.00000000000E+00 0.  1.
         14    1    3    3    0    0 -0.15734433567E+03 -0.52389233916E+02 -0.50653018595E+03  0.53298658620E+03  0.00000000000E+00 0. -1.
          5    1    4    4  501    0  0.32991361375E+02 -0.26115080735E+02 -0.28836304617E+03  0.29145456552E+03  0.47000000000E+01 0.  1.
         -5    1    4    4    0  501  0.25456819970E+02  0.35211926613E+02 -0.23333626976E+02  0.49542684693E+02  0.47000000000E+01 0.  1.
          1    1    1    2  502    0  0.11413862886E+03 -0.14635775878E+02  0.56036028561E+03  0.57205374068E+03  0.00000000000E+00 0. -1.
          1    1    1    2  503    0  0.26889299822E+02  0.93604056594E+02 -0.17547064812E+03  0.20068558047E+03  0.00000000000E+00 0. -1.
<mgrwt>
<rscale>  0 0.17366746E+03</rscale>
<asrwt>0</asrwt>
<pdfrwt beam="1">  1        2 0.11407770E+00 0.88620458E+02</pdfrwt>
<pdfrwt beam="2">  1        2 0.17153790E+00 0.34033210E+03</pdfrwt>
<totfact> 0.14006697E+02</totfact>
</mgrwt>
</event>
<event>
13    1  0.2038932E-008  0.3946728E+02  0.7546771E-02  0.1526304E+00
          2   -1    0    0  502    0  0.00000000000E+00  0.00000000000E+00  0.19056096872E+04  0.19056096872E+04  0.00000000000E+00 0. -1.
          2   -1    0    0  503    0 -0.00000000000E+00 -0.00000000000E+00 -0.25071305886E+04  0.25071305886E+04  0.00000000000E+00 0. -1.
         24    2    1    2    0    0 -0.39847824814E+01 -0.10154536842E+03 -0.13464909966E+04  0.13528837551E+04  0.83241278396E+02 0.  0.
         25    2    1    2    0    0  0.91650506755E+02  0.83015905931E+02  0.11733746949E+03  0.21138757955E+03  0.12500068407E+03 0.  0.
         24    2    1    2    0    0 -0.20933600229E+02  0.51685490518E+02 -0.37898388687E+02  0.10556234271E+03  0.81225087170E+02 0.  0.
        -11    1    3    3    0    0  0.38372347813E+02 -0.32253131660E+02 -0.50138860543E+03  0.50388811778E+03  0.00000000000E+00 0.  1.
         12    1    3    3    0    0 -0.42357130295E+02 -0.69292236757E+02 -0.84510239120E+03  0.84899563731E+03  0.00000000000E+00 0. -1.
        -13    1    5    5    0    0  0.27662245159E+02  0.43480433353E+01 -0.30888196034E+00  0.28003583630E+02  0.00000000000E+00 0.  1.
         14    1    5    5    0    0 -0.48595845388E+02  0.47337447182E+02 -0.37589506727E+02  0.77558759084E+02  0.00000000000E+00 0. -1.
          5    1    4    4  501    0  0.85398995498E+01  0.91537832831E+02  0.64975555316E+02  0.11267660588E+03  0.47000000000E+01 0. -1.
         -5    1    4    4    0  501  0.83110607205E+02 -0.85219269002E+01  0.52361914171E+02  0.98710973674E+02  0.47000000000E+01 0. -1.
          1    1    1    2  502    0 -0.34204359292E+02 -0.10916769415E+02  0.17036558883E+04  0.17040341839E+04  0.00000000000E+00 0. -1.
          1    1    1    2  503    0 -0.32527764752E+02 -0.22239258617E+02 -0.10381248738E+04  0.10388724146E+04  0.00000000000E+00 0. -1.
<mgrwt>
<rscale>  0 0.37643625E+02</rscale>
<asrwt>0</asrwt>
<pdfrwt beam="1">  1        2 0.28023672E+00 0.35904234E+02</pdfrwt>
<pdfrwt beam="2">  1        2 0.36869567E+00 0.39467280E+02</pdfrwt>
<totfact> 0.10397663E+01</totfact>
</mgrwt>
</event>
<event>
13    1  0.2038932E-008  0.5954048E+02  0.7546771E-02  0.1434801E+00
          2   -1    0    0  502    0  0.00000000000E+00  0.00000000000E+00  0.33788450157E+04  0.33788450157E+04  0.00000000000E+00 0. -1.
          2   -1    0    0  503    0 -0.00000000000E+00 -0.00000000000E+00 -0.17075053733E+04  0.17075053733E+04  0.00000000000E+00 0. -1.
         24    2    1    2    0    0 -0.40290265303E+02 -0.21489278220E+03 -0.81006068146E+03  0.84280006744E+03  0.79444525964E+02 0.  0.
         25    2    1    2    0    0 -0.35156983284E+03  0.57599505235E+03  0.11670457042E+04  0.13538804096E+04  0.12499936051E+03 0.  0.
         24    2    1    2    0    0  0.48857283847E+03 -0.32203009828E+03  0.12220093605E+04  0.13583620373E+04  0.97127464770E+02 0.  0.
        -11    1    3    3    0    0  0.13491138673E+02 -0.75143143596E+02 -0.37496304022E+03  0.38265622220E+03  0.00000000000E+00 0.  1.
         12    1    3    3    0    0 -0.53781403976E+02 -0.13974963861E+03 -0.43509764124E+03  0.46014384525E+03  0.00000000000E+00 0. -1.
        -13    1    5    5    0    0  0.14511858437E+03 -0.15111825250E+03  0.43669156130E+03  0.48435075047E+03  0.00000000000E+00 0.  1.
         14    1    5    5    0    0  0.34345425410E+03 -0.17091184578E+03  0.78531779924E+03  0.87401128682E+03  0.00000000000E+00 0. -1.
          5    1    4    4  501    0 -0.32980534935E+03  0.54973168338E+03  0.10353976812E+04  0.12178041470E+04  0.47000000000E+01 0.  1.
         -5    1    4    4    0  501 -0.21764483484E+02  0.26263368972E+02  0.13164802296E+03  0.13607626259E+03  0.47000000000E+01 0.  1.
          1    1    1    2  502    0 -0.43933187139E+02 -0.11561141156E+02  0.80995803880E+03  0.81123104571E+03  0.00000000000E+00 0. -1.
          1    1    1    2  503    0 -0.52779553196E+02 -0.27511030712E+02 -0.71761277971E+03  0.72007682899E+03  0.00000000000E+00 0. -1.
<mgrwt>
<rscale>  0 0.52008253E+02</rscale>
<asrwt>0</asrwt>
<pdfrwt beam="1">  1        2 0.49688897E+00 0.45428900E+02</pdfrwt>
<pdfrwt beam="2">  1        2 0.25110373E+00 0.59540477E+02</pdfrwt>
<totfact> 0.42758392E+00</totfact>
</mgrwt>
</event>
<event>
13    1  0.2038932E-008  0.2088822E+03  0.7546771E-02  0.1176998E+00
          2   -1    0    0  502    0  0.00000000000E+00  0.00000000000E+00  0.34479193626E+04  0.34479193626E+04  0.00000000000E+00 0. -1.
          2   -1    0    0  503    0 -0.00000000000E+00 -0.00000000000E+00 -0.40381537249E+04  0.40381537249E+04  0.00000000000E+00 0. -1.
         24    2    1    2    0    0 -0.64327842157E+03 -0.45512781340E+03 -0.33315625334E+03  0.85964386382E+03  0.83940629493E+02 0.  0.
         25    2    1    2    0    0  0.70461182710E+03  0.50368374423E+03 -0.18191935715E+04  0.20187274283E+04  0.12498015081E+03 0.  0.
         24    2    1    2    0    0  0.11400675847E+03 -0.12134283425E+02  0.93897585191E+03  0.94882566575E+03  0.73822162705E+02 0.  0.
        -13    1    5    5    0    0  0.16551167365E+02  0.19424145319E+01  0.43508704255E+03  0.43540607335E+03  0.00000000000E+00 0.  1.
         14    1    5    5    0    0  0.97455591101E+02 -0.14076697957E+02  0.50388880936E+03  0.51341959240E+03  0.00000000000E+00 0. -1.
        -13    1    3    3    0    0 -0.13209457946E+03 -0.10253395303E+03 -0.35259890855E+02  0.17089601912E+03  0.00000000000E+00 0.  1.
         14    1    3    3    0    0 -0.51118384211E+03 -0.35259386036E+03 -0.29789636248E+03  0.68874784470E+03  0.00000000000E+00 0. -1.
          5    1    4    4  501    0  0.26222316826E+03  0.25390741808E+03 -0.69388015887E+03  0.78404191967E+03  0.47000000000E+01 0.  1.
         -5    1    4    4    0  501  0.44238865884E+03  0.24977632615E+03 -0.11253134126E+04  0.12346855086E+04  0.47000000000E+01 0.  1.
          1    1    1    2  502    0 -0.79543547512E+02  0.15235233017E+03  0.21301490727E+04  0.21370712390E+04  0.00000000000E+00 0. -1.
          1    1    1    2  503    0 -0.95796616481E+02 -0.18877397758E+03 -0.15070094621E+04  0.15218048907E+04  0.00000000000E+00 0. -1.
<mgrwt>
<rscale>  0 0.17081780E+03</rscale>
<asrwt>0</asrwt>
<pdfrwt beam="1">  1        2 0.50704696E+00 0.13968985E+03</pdfrwt>
<pdfrwt beam="2">  1        2 0.59384614E+00 0.20888218E+03</pdfrwt>
<totfact> 0.14413523E-01</totfact>
</mgrwt>
</event>
<event>
13    1  0.2038932E-008  0.1804866E+03  0.7546771E-02  0.1295206E+00
          2   -1    0    0  502    0  0.00000000000E+00  0.00000000000E+00  0.42632993654E+04  0.42632993654E+04  0.00000000000E+00 0. -1.
          2   -1    0    0  503    0 -0.00000000000E+00 -0.00000000000E+00 -0.83898167823E+03  0.83898167823E+03  0.00000000000E+00 0. -1.
         24    2    1    2    0    0 -0.69028479814E+02 -0.36068261915E+03  0.17386539280E+03  0.41341216267E+03  0.76312244392E+02 0.  0.
         25    2    1    2    0    0 -0.55404106757E+02 -0.23815786081E+03 -0.10192159529E+03  0.29292019572E+03  0.12500179103E+03 0.  0.
         24    2    1    2    0    0 -0.98783579868E+02  0.57604928039E+03  0.65373553849E+03  0.88057774467E+03  0.80349493005E+02 0.  0.
        -13    1    5    5    0    0 -0.10909545406E+03  0.49627585608E+03  0.54244737573E+03  0.74326354603E+03  0.00000000000E+00 0.  1.
         14    1    5    5    0    0  0.10311874194E+02  0.79773424306E+02  0.11128816276E+03  0.13731419863E+03  0.00000000000E+00 0. -1.
        -13    1    3    3    0    0 -0.69609224575E+02 -0.35638190945E+03  0.18048435571E+03  0.40549736397E+03  0.00000000000E+00 0.  1.
         14    1    3    3    0    0  0.58074476135E+00 -0.43007097006E+01 -0.66189629109E+01  0.79147986976E+01  0.00000000000E+00 0. -1.
          5    1    4    4  501    0 -0.44752169728E+02 -0.80448655730E+02  0.18667739158E+02  0.94049547524E+02  0.47000000000E+01 0. -1.
         -5    1    4    4    0  501 -0.10651937029E+02 -0.15770920508E+03 -0.12058933445E+03  0.19887064819E+03  0.47000000000E+01 0. -1.
          1    1    1    2  502    0  0.18022296218E+03  0.10867749463E+01  0.31029607364E+04  0.31081902819E+04  0.00000000000E+00 0. -1.
          1    1    1    2  503    0  0.42993204261E+02  0.21704424631E+02 -0.40432238517E+03  0.40718065869E+03  0.00000000000E+00 0. -1.
<mgrwt>
<rscale>  0 0.93233270E+02</rscale>
<asrwt>0</asrwt>
<pdfrwt beam="1">  1        2 0.62695578E+00 0.18048656E+03</pdfrwt>
<pdfrwt beam="2">  1        2 0.12337966E+00 0.48161163E+02</pdfrwt>
<totfact> 0.25085315E+00</totfact>
</mgrwt>
</event>
<event>
13    1  0.2038932E-008  0.2329626E+03  0.7546771E-02  0.1343484E+00
          2   -1    0    0  503    0  0.00000000000E+00  0.00000000000E+00  0.93711045034E+03  0.93711045034E+03  0.00000000000E+00 0. -1.
          2   -1    0    0  502    0 -0.00000000000E+00 -0.00000000000E+00 -0.14002946913E+04  0.14002946913E+04  0.00000000000E+00 0. -1.
         24    2    1    2    0    0 -0.25261331007E+02  0.42783129727E+02  0.86768480621E+02  0.13659265618E+03  0.93060482804E+02 0.  0.
         25    2    1    2    0    0 -0.35572909008E+03 -0.27022869346E+03 -0.63996444587E+03  0.79040924282E+03  0.12500218745E+03 0.  0.
         24    2    1    2    0    0 -0.17384661030E+02 -0.95479396010E+02 -0.64124815902E+01  0.12528060520E+03  0.78965616684E+02 0.  0.
        -11    1    3    3    0    0 -0.55279900874E+02  0.26703196041E+02  0.25460562573E+02  0.66461781243E+02  0.00000000000E+00 0.  1.
         12    1    3    3    0    0  0.30018569867E+02  0.16079933685E+02  0.61307918047E+02  0.70130874937E+02  0.00000000000E+00 0. -1.
        -13    1    5    5    0    0  0.11794692638E+01 -0.21161965965E+02  0.32934483562E+02  0.39165037454E+02  0.00000000000E+00 0.  1.
         14    1    5    5    0    0 -0.18564130294E+02 -0.74317430045E+02 -0.39346965152E+02  0.86115567749E+02  0.00000000000E+00 0. -1.
          5    1    4    4  501    0 -0.88111991350E+02 -0.40118197097E+02 -0.22899345153E+03  0.24866299202E+03  0.47000000000E+01 0.  1.
         -5    1    4    4    0  501 -0.26761709873E+03 -0.23011049637E+03 -0.41097099433E+03  0.54174625080E+03  0.47000000000E+01 0.  1.
          1    1    1    2  502    0 -0.18926399320E+02  0.15122780029E+02 -0.49670018664E+03  0.49729064186E+03  0.00000000000E+00 0. -1.
          1    1    1    2  503    0  0.41730148144E+03  0.30780217972E+03  0.59312439252E+03  0.78783199557E+03  0.00000000000E+00 0. -1.
<mgrwt>
<rscale>  0 0.75125170E+02</rscale>
<asrwt>0</asrwt>
<pdfrwt beam="1">  1        2 0.13781036E+00 0.23296263E+03</pdfrwt>
<pdfrwt beam="2">  1        2 0.20592569E+00 0.24226165E+02</pdfrwt>
<totfact> 0.96126583E+01</totfact>
</mgrwt>
</event>
<event>
13    1  0.2038932E-008  0.6836845E+02  0.7546771E-02  0.1483354E+00
          2   -1    0    0  503    0  0.00000000000E+00  0.00000000000E+00  0.13774812271E+04  0.13774812271E+04  0.00000000000E+00 0. -1.
          2   -1    0    0  502    0 -0.00000000000E+00 -0.00000000000E+00 -0.23906363880E+03  0.23906363880E+03  0.00000000000E+00 0. -1.
         24    2    1    2    0    0  0.47871598538E+02  0.52889505607E+02  0.16139865316E+03  0.19411707260E+03  0.80888335896E+02 0.  0.
         25    2    1    2    0    0 -0.10820608159E+03 -0.82416577302E+02  0.68041121825E+03  0.70504255088E+03  0.12499809727E+03 0.  0.
         24    2    1    2    0    0 -0.10178675741E+02  0.33629317309E+02  0.25124690650E+03  0.26515495257E+03  0.77120713342E+02 0.  0.
        -11    1    3    3    0    0 -0.20593093837E+02  0.38158534886E+01  0.17129530730E+02  0.27056553266E+02  0.00000000000E+00 0.  1.
         12    1    3    3    0    0  0.68464692375E+02  0.49073652118E+02  0.14426912243E+03  0.16706051933E+03  0.00000000000E+00 0. -1.
        -11    1    5    5    0    0 -0.32958276408E+02 -0.10121670970E+02  0.84430492651E+02  0.91198707755E+02  0.00000000000E+00 0.  1.
         12    1    5    5    0    0  0.22779600668E+02  0.43750988279E+02  0.16681641385E+03  0.17395624482E+03  0.00000000000E+00 0. -1.
          5    1    4    4  501    0 -0.15102371034E+01 -0.74636328917E+02  0.34239715905E+03  0.35047220566E+03  0.47000000000E+01 0.  1.
         -5    1    4    4    0  501 -0.10669584449E+03 -0.77802483851E+01  0.33801405920E+03  0.35457034523E+03  0.47000000000E+01 0.  1.
          1    1    1    2  502    0  0.61297046562E+02 -0.30318896812E+02 -0.19687079249E+03  0.20840986626E+03  0.00000000000E+00 0. -1.
          1    1    1    2  503    0  0.92161122351E+01  0.26216651198E+02  0.24223160289E+03  0.24382042360E+03  0.00000000000E+00 0. -1.
<mgrwt>
<rscale>  0 0.43588033E+02</rscale>
<asrwt>0</asrwt>
<pdfrwt beam="1">  1        2 0.20257077E+00 0.27789378E+02</pdfrwt>
<pdfrwt beam="2">  1        2 0.35156418E-01 0.68368447E+02</pdfrwt>
<totfact> 0.45297103E+02</totfact>
</mgrwt>
</event>
<event>
13    1  0.2038932E-008  0.1121338E+03  0.7546771E-02  0.1291542E+00
          2   -1    0    0  503    0  0.00000000000E+00  0.00000000000E+00  0.18856995798E+04  0.18856995798E+04  0.00000000000E+00 0. -1.
          2   -1    0    0  502    0 -0.00000000000E+00 -0.00000000000E+00 -0.26953708970E+04  0.26953708970E+04  0.00000000000E+00 0. -1.
         24    2    1    2    0    0 -0.25904593903E+03 -0.13005697950E+03 -0.19056491338E+04  0.19292625512E+04  0.80844009629E+02 0.  0.
         25    2    1    2    0    0  0.21626054023E+03  0.18702948548E+03  0.69677204483E+03  0.76345589013E+03  0.12499985608E+03 0.  0.
         24    2    1    2    0    0 -0.34981754723E+01 -0.18677525452E+01  0.40425536293E+01  0.81222527767E+02  0.81024879178E+02 0.  0.
        -13    1    5    5    0    0  0.26332132449E+02 -0.28981829563E+02 -0.61615957494E+01  0.39639537161E+02  0.00000000000E+00 0.  1.
         14    1    5    5    0    0 -0.29830307922E+02  0.27114077018E+02  0.10204149379E+02  0.41582990606E+02  0.00000000000E+00 0. -1.
        -13    1    3    3    0    0 -0.46881113929E+02 -0.13865697872E+02 -0.17180077547E+03  0.17862139534E+03  0.00000000000E+00 0.  1.
         14    1    3    3    0    0 -0.21216482510E+03 -0.11619128163E+03 -0.17338483583E+04  0.17506411559E+04  0.00000000000E+00 0. -1.
          5    1    4    4  501    0  0.18046996808E+03  0.19835782441E+03  0.55038627586E+03  0.61226005794E+03  0.47000000000E+01 0. -1.
         -5    1    4    4    0  501  0.35790572148E+02 -0.11328338931E+02  0.14638576897E+03  0.15119583220E+03  0.47000000000E+01 0. -1.
          1    1    1    2  502    0 -0.12348612770E+02 -0.11181807848E+03 -0.69997496636E+03  0.70895749128E+03  0.00000000000E+00 0. -1.
          1    1    1    2  503    0  0.58632187040E+02  0.56713325045E+02  0.10951381845E+04  0.10981720165E+04  0.00000000000E+00 0. -1.
<mgrwt>
<rscale>  0 0.94837556E+02</rscale>
<asrwt>0</asrwt>
<pdfrwt beam="1">  1        2 0.27730876E+00 0.80209183E+02</pdfrwt>
<pdfrwt beam="2">  1        2 0.39637807E+00 0.11213382E+03</pdfrwt>
<totfact> 0.67924804E+00</totfact>
</mgrwt>
</event>
<event>
13    1  0.2038932E-008  0.1394874E+03  0.7546771E-02  0.1280809E+00
          2   -1    0    0  502    0  0.00000000000E+00  0.00000000000E+00  0.32430826612E+04  0.32430826612E+04  0.00000000000E+00 0. -1.
          2   -1    0    0  503    0 -0.00000000000E+00 -0.00000000000E+00 -0.10972540687E+04  0.10972540687E+04  0.00000000000E+00 0. -1.
         24    2    1    2    0    0 -0.99294542511E+02  0.11193836765E+03 -0.26283076672E+03  0.31313766116E+03  0.81151577804E+02 0.  0.
         25    2    1    2    0    0  0.21105433349E+02 -0.91074726837E+02  0.45930524386E+03  0.48510415741E+03  0.12499876524E+03 0.  0.
         24    2    1    2    0    0  0.14008164733E+02  0.61586039829E+01 -0.12071653091E+03  0.14520721029E+03  0.79236961082E+02 0.  0.
        -11    1    5    5    0    0  0.77177604439E+01  0.28215413706E+02 -0.11862201667E+03  0.12217551406E+03  0.00000000000E+00 0.  1.
         12    1    5    5    0    0  0.62904042889E+01 -0.22056809723E+02 -0.20945142439E+01  0.23031696229E+02  0.00000000000E+00 0. -1.
        -11    1    3    3    0    0 -0.10548814235E+03  0.10275261983E+03 -0.26369213276E+03  0.30202547896E+03  0.00000000000E+00 0.  1.
         12    1    3    3    0    0  0.61935998398E+01  0.91857478159E+01  0.86136604210E+00  0.11112182206E+02  0.00000000000E+00 0. -1.
          5    1    4    4  501    0 -0.22719906656E+02 -0.10216733231E+03  0.37460165645E+03  0.38897666892E+03  0.47000000000E+01 0.  1.
         -5    1    4    4    0  501  0.43825340005E+02  0.11092605475E+02  0.84703587419E+02  0.96127488496E+02  0.47000000000E+01 0.  1.
          1    1    1    2  502    0  0.12090577045E+03 -0.70289083664E+02  0.27297658885E+04  0.27333460386E+04  0.00000000000E+00 0. -1.
          1    1    1    2  503    0 -0.56724826020E+02  0.43266838869E+02 -0.65969524225E+03  0.66354166251E+03  0.00000000000E+00 0. -1.
<mgrwt>
<rscale>  0 0.99756460E+02</rscale>
<asrwt>0</asrwt>
<pdfrwt beam="1">  1        2 0.47692392E+00 0.13948737E+03</pdfrwt>
<pdfrwt beam="2">  1        2 0.16136089E+00 0.71342310E+02</pdfrwt>
<totfact> 0.82980670E+00</totfact>
</mgrwt>
</event>
<event>
13    1  0.2038932E-008  0.8086018E+02  0.7546771E-02  0.1426370E+00
          2   -1    0    0  503    0  0.00000000000E+00  0.00000000000E+00  0.16334147391E+04  0.16334147391E+04  0.00000000000E+00 0. -1.
          2   -1    0    0  502    0 -0.00000000000E+00 -0.00000000000E+00 -0.78141144728E+03  0.78141144728E+03  0.00000000000E+00 0. -1.
         24    2    1    2    0    0 -0.42630683410E+02  0.40504217899E+02 -0.61013831088E+03  0.61839015078E+03  0.81729146180E+02 0.  0.
         25    2    1    2    0    0  0.40019314332E+01  0.27785867679E+02  0.10272645048E+04  0.10352223472E+04  0.12499950168E+03 0.  0.
         24    2    1    2    0    0  0.36955003823E+02 -0.19215306306E+02  0.31820253254E+01  0.88392933003E+02  0.77899197786E+02 0.  0.
        -11    1    3    3    0    0 -0.18586069300E+02  0.60050538568E+02 -0.28884712097E+03  0.29560813326E+03  0.00000000000E+00 0.  1.
         12    1    3    3    0    0 -0.24044614110E+02 -0.19546320669E+02 -0.32129118991E+03  0.32278201752E+03  0.00000000000E+00 0. -1.
        -13    1    5    5    0    0 -0.14972211160E+02  0.17030066763E+02  0.98386264794E+01  0.24718188687E+02  0.00000000000E+00 0.  1.
         14    1    5    5    0    0  0.51927214983E+02 -0.36245373069E+02 -0.66566011540E+01  0.63674744316E+02  0.00000000000E+00 0. -1.
          5    1    4    4  501    0  0.39354506513E+02  0.62042095091E+00  0.88874856407E+03  0.88963209376E+03  0.47000000000E+01 0.  1.
         -5    1    4    4    0  501 -0.35352575080E+02  0.27165446728E+02  0.13851594069E+03  0.14559025340E+03  0.47000000000E+01 0.  1.
          1    1    1    2  502    0  0.22290800071E+02 -0.78166690715E+02 -0.10620503463E+03  0.13374012370E+03  0.00000000000E+00 0. -1.
          1    1    1    2  503    0 -0.20617051917E+02  0.29091911443E+02  0.53790010728E+03  0.53908063178E+03  0.00000000000E+00 0. -1.
<mgrwt>
<rscale>  0 0.53695523E+02</rscale>
<asrwt>0</asrwt>
<pdfrwt beam="1">  1        2 0.24020805E+00 0.35656726E+02</pdfrwt>
<pdfrwt beam="2">  1        2 0.11491345E+00 0.80860177E+02</pdfrwt>
<totfact> 0.94828280E+01</totfact>
</mgrwt>
</event>
<event>
13    1  0.2038932E-008  0.1071443E+03  0.7546771E-02  0.1288060E+00
          2   -1    0    0  502    0  0.00000000000E+00  0.00000000000E+00  0.51677548812E+04  0.51677548812E+04  0.00000000000E+00 0. -1.
          2   -1    0    0  503    0 -0.00000000000E+00 -0.00000000000E+00 -0.26970762385E+04  0.26970762385E+04  0.00000000000E+00 0. -1.
         24    2    1    2    0    0  0.17111840478E+03 -0.11519826396E+03  0.28114716400E+03  0.35515799989E+03  0.67389380322E+02 0.  0.
         25    2    1    2    0    0  0.20393428336E+03  0.19176789813E+03  0.13874552497E+04  0.14209229309E+04  0.12500314736E+03 0.  0.
         24    2    1    2    0    0 -0.21906655976E+03 -0.80934893983E+02  0.32820319058E+03  0.41058854892E+03  0.79529915958E+02 0.  0.
        -13    1    5    5    0    0 -0.38143358461E+02  0.11700083494E+02  0.30991154023E+02  0.50519890896E+02  0.00000000000E+00 0.  1.
         14    1    5    5    0    0 -0.18092320129E+03 -0.92634977477E+02  0.29721203656E+03  0.36006865803E+03  0.00000000000E+00 0. -1.
        -13    1    3    3    0    0  0.71918627244E+02 -0.34563475365E+02  0.60435468100E+02  0.10009679604E+03  0.00000000000E+00 0.  1.
         14    1    3    3    0    0  0.99199777535E+02 -0.80634788599E+02  0.22071169590E+03  0.25506120384E+03  0.00000000000E+00 0. -1.
          5    1    4    4  501    0  0.73853250011E+02  0.12531376528E+03  0.47363681604E+03  0.49549143869E+03  0.47000000000E+01 0.  1.
         -5    1    4    4    0  501  0.13008103335E+03  0.66454132854E+02  0.91381843367E+03  0.92543149219E+03  0.47000000000E+01 0.  1.
          1    1    1    2  502    0 -0.88910772524E+02  0.59344129564E+02  0.30743655058E+04  0.30762233525E+04  0.00000000000E+00 0. -1.
          1    1    1    2  503    0 -0.67075355860E+02 -0.54978869751E+02 -0.26004924674E+04  0.26019382876E+04  0.00000000000E+00 0. -1.
<mgrwt>
<rscale>  0 0.96397269E+02</rscale>
<asrwt>0</asrwt>
<pdfrwt beam="1">  1        2 0.75996395E+00 0.10714432E+03</pdfrwt>
<pdfrwt beam="2">  1        2 0.39662886E+00 0.86728193E+02</pdfrwt>
<totfact> 0.50622896E-02</totfact>
</mgrwt>
</event>
<event>
13    1  0.2038932E-008  0.2398112E+03  0.7546771E-02  0.1180995E+00
          2   -1    0    0  503    0  0.00000000000E+00  0.00000000000E+00  0.10282866267E+04  0.10282866267E+04  0.00000000000E+00 0. -1.
          2   -1    0    0  502    0 -0.00000000000E+00 -0.00000000000E+00 -0.34143783876E+04  0.34143783876E+04  0.00000000000E+00 0. -1.
         24    2    1    2    0    0 -0.61941517526E+02 -0.22326752500E+02 -0.24958480612E+04  0.24980660600E+04  0.82105177191E+02 0.  0.
         25    2    1    2    0    0  0.62552982935E+02 -0.29752892948E+02 -0.74910920104E+02  0.16135104795E+03  0.12499761762E+03 0.  0.
         24    2    1    2    0    0  0.10271038135E+03 -0.30204117749E+02  0.61922925058E+02  0.14840672296E+03  0.82026798089E+02 0.  0.
        -11    1    5    5    0    0  0.92212646812E+02  0.47782300073E+01  0.63144883431E+02  0.11186277315E+03  0.00000000000E+00 0.  1.
         12    1    5    5    0    0  0.10497734540E+02 -0.34982347756E+02 -0.12219583729E+01  0.36543949804E+02  0.00000000000E+00 0. -1.
        -13    1    3    3    0    0 -0.29048039308E+02  0.30095783189E+02 -0.80523862120E+03  0.80632424113E+03  0.00000000000E+00 0.  1.
         14    1    3    3    0    0 -0.32893478217E+02 -0.52422535689E+02 -0.16906094400E+04  0.16917418189E+04  0.00000000000E+00 0. -1.
          5    1    4    4  501    0 -0.27036080506E+02 -0.40697237862E+02 -0.43750697384E+02  0.65752781997E+02  0.47000000000E+01 0. -1.
         -5    1    4    4    0  501  0.89589063441E+02  0.10944344914E+02 -0.31160222720E+02  0.95598265956E+02  0.47000000000E+01 0. -1.
          1    1    1    2  502    0  0.16769360402E+03  0.68721820891E+02 -0.72365744284E+03  0.74600531371E+03  0.00000000000E+00 0. -1.
          1    1    1    2  503    0 -0.27101545079E+03  0.13561942307E+02  0.84640173816E+03  0.88883586966E+03  0.00000000000E+00 0. -1.
<mgrwt>
<rscale>  0 0.16701705E+03</rscale>
<asrwt>0</asrwt>
<pdfrwt beam="1">  1        2 0.15121862E+00 0.23981122E+03</pdfrwt>
<pdfrwt beam="2">  1        2 0.50211447E+00 0.11631939E+03</pdfrwt>
<totfact> 0.70170448E+00</totfact>
</mgrwt>
</event>
<event>
13    1  0.2038932E-008  0.1274579E+03  0.7546771E-02  0.1260659E+00
          2   -1    0    0  503    0  0.00000000000E+00  0.00000000000E+00  0.42414912664E+04  0.42414912664E+04  0.00000000000E+00 0. -1.
          2   -1    0    0  502    0 -0.00000000000E+00 -0.00000000000E+00 -0.17770187157E+03  0.17770187157E+03  0.00000000000E+00 0. -1.
         24    2    1    2    0    0  0.44070120691E+02 -0.47571040078E+02  0.15976996523E+03  0.18927965709E+03  0.78071553128E+02 0.  0.
         25    2    1    2    0    0  0.39523735308E+02 -0.13265876326E+03  0.31412966851E+03  0.36532603576E+03  0.12500076259E+03 0.  0.
         24    2    1    2    0    0 -0.38435596193E+02  0.18317760996E+03  0.15901652605E+04  0.16031148994E+04  0.79501529040E+02 0.  0.
        -13    1    3    3    0    0  0.63531837473E+02 -0.50682355563E+02  0.12055962588E+03  0.14539470049E+03  0.00000000000E+00 0.  1.
         14    1    3    3    0    0 -0.19461716782E+02  0.31113154853E+01  0.39210339347E+02  0.43884956601E+02  0.00000000000E+00 0. -1.
        -13    1    5    5    0    0 -0.11179403661E+02 -0.15571652694E+01  0.21925177416E+03  0.21954212421E+03  0.00000000000E+00 0.  1.
         14    1    5    5    0    0 -0.27256192532E+02  0.18473477523E+03  0.13709134863E+04  0.13835727752E+04  0.00000000000E+00 0. -1.
          5    1    4    4  501    0  0.12820527578E+02 -0.68379020924E+02  0.35792324008E+02  0.78378803817E+02  0.47000000000E+01 0.  1.
         -5    1    4    4    0  501  0.26703207730E+02 -0.64279742332E+02  0.27833734450E+03  0.28694723194E+03  0.47000000000E+01 0.  1.
          1    1    1    2  502    0  0.87868133143E+02 -0.35718810362E+02 -0.11117104458E+03  0.14613570196E+03  0.00000000000E+00 0. -1.
          1    1    1    2  503    0 -0.13302639295E+03  0.32771003739E+02  0.21108955452E+04  0.21153368437E+04  0.00000000000E+00 0. -1.
<mgrwt>
<rscale>  0 0.10995210E+03</rscale>
<asrwt>0</asrwt>
<pdfrwt beam="1">  1        2 0.62374865E+00 0.12745792E+03</pdfrwt>
<pdfrwt beam="2">  1        2 0.26132631E-01 0.94850631E+02</pdfrwt>
<totfact> 0.14679742E+01</totfact>
</mgrwt>
</event>
<event>
13    1  0.2038932E-008  0.8157342E+02  0.7546771E-02  0.1447802E+00
          2   -1    0    0  503    0  0.00000000000E+00  0.00000000000E+00  0.27658199091E+04  0.27658199091E+04  0.00000000000E+00 0. -1.
         -3   -1    0    0    0  501 -0.00000000000E+00 -0.00000000000E+00 -0.20625028947E+03  0.20625028947E+03  0.00000000000E+00 0.  1.
         24    2    1    2    0    0  0.62811602078E+02  0.17826113232E+03  0.23165082897E+03  0.30718178275E+03  0.70542274124E+02 0.  0.
         25    2    1    2    0    0 -0.27500055551E+02  0.23939698450E+01  0.17149132695E+03  0.21400149556E+03  0.12500152294E+03 0.  0.
         24    2    1    2    0    0  0.34589065582E+02 -0.14677579053E+03  0.14235167032E+04  0.14337969500E+04  0.81451539584E+02 0.  0.
        -11    1    5    5    0    0  0.21825105788E+01 -0.96759031041E+02  0.11390429063E+04  0.11431473290E+04  0.00000000000E+00 0.  1.
         12    1    5    5    0    0  0.32406555003E+02 -0.50016759492E+02  0.28447379692E+03  0.29064962097E+03  0.00000000000E+00 0. -1.
        -13    1    3    3    0    0  0.16447044082E+02  0.14130565112E+03  0.15736467534E+03  0.21213541275E+03  0.00000000000E+00 0.  1.
         14    1    3    3    0    0  0.46364557996E+02  0.36955481199E+02  0.74286153632E+02  0.95046370000E+02  0.00000000000E+00 0. -1.
          5    1    4    4  502    0  0.30403856745E+02 -0.25447346818E+02  0.11532898031E+02  0.41557907816E+02  0.47000000000E+01 0. -1.
         -5    1    4    4    0  502 -0.57903912296E+02  0.27841316663E+02  0.15995842892E+03  0.17244358775E+03  0.47000000000E+01 0. -1.
          1    1    1    2  503    0 -0.14700585017E+02  0.26259073822E+02  0.86299199481E+03  0.86351654835E+03  0.00000000000E+00 0. -1.
         -4    1    1    2    0  501 -0.55200027091E+02 -0.60138385450E+02 -0.13008123433E+03  0.15357342192E+03  0.00000000000E+00 0.  1.
<mgrwt>
<rscale>  0 0.49546614E+02</rscale>
<asrwt>0</asrwt>
<pdfrwt beam="1">  1        2 0.40673820E+00 0.30093956E+02</pdfrwt>
<pdfrwt beam="2">  1       -3 0.30330927E-01 0.81573424E+02</pdfrwt>
<totfact> 0.28251754E+01</totfact>
</mgrwt>
</event>
<event>
13    1  0.2038932E-008  0.3160055E+02  0.7546771E-02  0.1615058E+00
          2   -1    0    0  502    0  0.00000000000E+00  0.00000000000E+00  0.18828034048E+04  0.18828034048E+04  0.00000000000E+00 0. -1.
          2   -1    0    0  503    0 -0.00000000000E+00 -0.00000000000E+00 -0.10712326040E+04  0.10712326040E+04  0.00000000000E+00 0. -1.
         24    2    1    2    0    0 -0.12386589535E+03  0.35085746158E+01 -0.22189710839E+03  0.26796741442E+03  0.84930196949E+02 0.  0.
         25    2    1    2    0    0  0.14568491752E+03  0.71759503293E+01  0.51378532556E+03  0.54851980933E+03  0.12499212378E+03 0.  0.
         24    2    1    2    0    0  0.12849554689E+02  0.34965783080E+02 -0.40980614112E+02  0.96509439566E+02  0.79037612250E+02 0.  0.
        -11    1    3    3    0    0 -0.10094663366E+03  0.38613438652E+02 -0.15317895478E+03  0.18747003141E+03  0.00000000000E+00 0.  1.
         12    1    3    3    0    0 -0.22919261694E+02 -0.35104864036E+02 -0.68718153611E+02  0.80497383009E+02  0.00000000000E+00 0. -1.
        -13    1    5    5    0    0  0.12830920333E+01  0.59867503512E+02 -0.29419757539E+02  0.66717961866E+02  0.00000000000E+00 0.  1.
         14    1    5    5    0    0  0.11566462656E+02 -0.24901720432E+02 -0.11560856573E+02  0.29791477700E+02  0.00000000000E+00 0. -1.
          5    1    4    4  501    0 -0.41490313029E+00  0.13568747434E+02  0.21850582451E+03  0.21897755226E+03  0.47000000000E+01 0.  1.
         -5    1    4    4    0  501  0.14609982065E+03 -0.63927971049E+01  0.29527950105E+03  0.32954225706E+03  0.47000000000E+01 0.  1.
          1    1    1    2  502    0 -0.15731941548E+02 -0.20370724098E+02  0.13003869083E+04  0.13006416001E+04  0.00000000000E+00 0. -1.
          1    1    1    2  503    0 -0.18936635309E+02 -0.25279583927E+02 -0.73972371060E+03  0.74039774550E+03  0.00000000000E+00 0. -1.
<mgrwt>
<rscale>  0 0.28519197E+02</rscale>
<asrwt>0</asrwt>
<pdfrwt beam="1">  1        2 0.27688285E+00 0.25738306E+02</pdfrwt>
<pdfrwt beam="2">  1        2 0.15753421E+00 0.31600549E+02</pdfrwt>
<totfact> 0.53465120E+01</totfact>
</mgrwt>
</event>
<event>
13    1  0.2038932E-008  0.2673824E+03  0.7546771E-02  0.1263290E+00
         -1   -1    0    0    0  501 -0.00000000000E+00  0.00000000000E+00  0.86329873497E+03  0.86329873497E+03  0.00000000000E+00 0.  1.
          2   -1    0    0  503    0  0.00000000000E+00 -0.00000000000E+00 -0.15778948637E+04  0.15778948637E+04  0.00000000000E+00 0. -1.
         24    2    1    2    0    0  0.48698082122E+01 -0.10902577121E+03  0.25519823139E+03  0.28898718113E+03  0.80480554995E+02 0.  0.
         25    2    1    2    0    0  0.19361216306E+03  0.25842361552E+03 -0.95774463396E+02  0.35925952907E+03  0.12500490647E+03 0.  0.
         24    2    1    2    0    0  0.18082368739E+02 -0.54785689138E+02 -0.24113347618E+02  0.10130840696E+03  0.79708820052E+02 0.  0.
        -11    1    5    5    0    0  0.16288752451E+02 -0.84735509281E+01  0.26782689464E+02  0.32472095354E+02  0.00000000000E+00 0.  1.
         12    1    5    5    0    0  0.17936162888E+01 -0.46312138210E+02 -0.50896037083E+02  0.68836311607E+02  0.00000000000E+00 0. -1.
        -11    1    3    3    0    0  0.40051947206E+02 -0.33257049116E+02  0.98806331751E+02  0.11168205310E+03  0.00000000000E+00 0.  1.
         12    1    3    3    0    0 -0.35182138994E+02 -0.75768722097E+02  0.15639189964E+03  0.17730512803E+03  0.00000000000E+00 0. -1.
          5    1    4    4  502    0  0.35825394756E+02  0.89030669301E+02  0.23333933366E+02  0.98876091306E+02  0.47000000000E+01 0. -1.
         -5    1    4    4    0  502  0.15778676830E+03  0.16939294622E+03 -0.11910839676E+03  0.26038343776E+03  0.47000000000E+01 0. -1.
          1    1    1    2  503    0 -0.22478572034E+03 -0.13790213711E+03 -0.12558857725E+04  0.12832749873E+04  0.00000000000E+00 0. -1.
         -2    1    1    2    0  501  0.82213803261E+01  0.43289981945E+02  0.40597922336E+03  0.40836349424E+03  0.00000000000E+00 0.  1.
<mgrwt>
<rscale>  0 0.10854432E+03</rscale>
<asrwt>0</asrwt>
<pdfrwt beam="2">  1        2 0.23204336E+00 0.26738238E+03</pdfrwt>
<pdfrwt beam="1">  1       -1 0.12695570E+00 0.44063745E+02</pdfrwt>
<totfact> 0.10014394E+01</totfact>
</mgrwt>
</event>
<event>
13    1  0.2038932E-008  0.1333931E+03  0.7546771E-02  0.1351864E+00
          2   -1    0    0  503    0  0.00000000000E+00  0.00000000000E+00  0.28380460005E+03  0.28380460005E+03  0.00000000000E+00 0. -1.
          2   -1    0    0  502    0 -0.00000000000E+00 -0.00000000000E+00 -0.21516183532E+04  0.21516183532E+04  0.00000000000E+00 0. -1.
         24    2    1    2    0    0  0.10093499235E+02 -0.53263634735E+02 -0.59287057110E+02  0.11869875981E+03  0.87381616648E+02 0.  0.
         25    2    1    2    0    0  0.47286947249E+02  0.11619765399E+03  0.34939497090E+02  0.18051030652E+03  0.12500100851E+03 0.  0.
         24    2    1    2    0    0 -0.51952080458E+02  0.31253044916E+02  0.14235222908E+02  0.10516194321E+03  0.84738546410E+02 0.  0.
        -11    1    5    5    0    0 -0.30169871393E+02 -0.13343271118E+02 -0.25409570601E+02  0.41640248584E+02  0.00000000000E+00 0.  1.
         12    1    5    5    0    0 -0.21782209065E+02  0.44596316034E+02  0.39644793509E+02  0.63521694624E+02  0.00000000000E+00 0. -1.
        -13    1    3    3    0    0 -0.12681974287E+02  0.19213709383E+02 -0.28720671236E+02  0.36808641055E+02  0.00000000000E+00 0.  1.
         14    1    3    3    0    0  0.22775473522E+02 -0.72477344119E+02 -0.30566385874E+02  0.81890118757E+02  0.00000000000E+00 0. -1.
          5    1    4    4  501    0  0.62478021832E+02  0.16078248857E+02 -0.16608439012E+02  0.66782808752E+02  0.47000000000E+01 0. -1.
         -5    1    4    4    0  501 -0.15191074583E+02  0.10011940513E+03  0.51547936102E+02  0.11372749776E+03  0.47000000000E+01 0. -1.
          1    1    1    2  502    0 -0.95505374781E+01 -0.13335081327E+03 -0.19374779972E+04  0.19420851273E+04  0.00000000000E+00 0. -1.
          1    1    1    2  503    0  0.41221714514E+01  0.39163749100E+02  0.79776581084E+02  0.88966816457E+02  0.00000000000E+00 0. -1.
<mgrwt>
<rscale>  0 0.72477805E+02</rscale>
<asrwt>0</asrwt>
<pdfrwt beam="1">  1        2 0.41735973E-01 0.39380091E+02</pdfrwt>
<pdfrwt beam="2">  1        2 0.31641445E+00 0.13339310E+03</pdfrwt>
<totfact> 0.13882465E+02</totfact>
</mgrwt>
</event>
<event>
13    1  0.2038932E-008  0.1629845E+03  0.7546771E-02  0.1256678E+00
          2   -1    0    0  503    0  0.00000000000E+00  0.00000000000E+00  0.12034169384E+04  0.12034169384E+04  0.00000000000E+00 0. -1.
          2   -1    0    0  502    0 -0.00000000000E+00 -0.00000000000E+00 -0.89321986806E+03  0.89321986806E+03  0.00000000000E+00 0. -1.
         24    2    1    2    0    0 -0.12634032470E+03  0.72418802622E+02 -0.16853548534E+03  0.23744379657E+03  0.82273848182E+02 0.  0.
         25    2    1    2    0    0  0.19494068352E+03 -0.17721822032E+03  0.67918393178E+03  0.73913572996E+03  0.12499058527E+03 0.  0.
         24    2    1    2    0    0 -0.84612150142E+01  0.14306468734E+02  0.91687953548E+02  0.12343016958E+03  0.80944788148E+02 0.  0.
        -11    1    5    5    0    0 -0.22015263220E+02 -0.29302856675E+02  0.46213664571E+02  0.58983319820E+02  0.00000000000E+00 0.  1.
         12    1    5    5    0    0  0.13554048206E+02  0.43609325409E+02  0.45474288978E+02  0.64446849755E+02  0.00000000000E+00 0. -1.
        -11    1    3    3    0    0 -0.81171542262E+02 -0.41772288776E+00 -0.89990197442E+02  0.12119088003E+03  0.00000000000E+00 0.  1.
         12    1    3    3    0    0 -0.45168782433E+02  0.72836525509E+02 -0.78545287897E+02  0.11625291655E+03  0.00000000000E+00 0. -1.
          5    1    4    4  501    0  0.14566510050E+03 -0.77519606680E+02  0.51473687107E+03  0.54055873627E+03  0.47000000000E+01 0.  1.
         -5    1    4    4    0  501  0.49275583018E+02 -0.99698613644E+02  0.16444706071E+03  0.19857699368E+03  0.47000000000E+01 0.  1.
          1    1    1    2  502    0 -0.13726843735E+03  0.89124414684E+02 -0.62956773473E+03  0.65049313432E+03  0.00000000000E+00 0. -1.
          1    1    1    2  503    0  0.77129293537E+02  0.13685342855E+01  0.33742840513E+03  0.34613397608E+03  0.00000000000E+00 0. -1.
<mgrwt>
<rscale>  0 0.11212875E+03</rscale>
<asrwt>0</asrwt>
<pdfrwt beam="1">  1        2 0.17697308E+00 0.77141434E+02</pdfrwt>
<pdfrwt beam="2">  1        2 0.13135586E+00 0.16298448E+03</pdfrwt>
<totfact> 0.11957586E+02</totfact>
</mgrwt>
</event>
<event>
13    1  0.2038932E-008  0.9310543E+02  0.7546771E-02  0.1437931E+00
          2   -1    0    0  503    0  0.00000000000E+00  0.00000000000E+00  0.14770629403E+04  0.14770629403E+04  0.00000000000E+00 0. -1.
          2   -1    0    0  502    0 -0.00000000000E+00 -0.00000000000E+00 -0.28345221413E+04  0.28345221413E+04  0.00000000000E+00 0. -1.
         24    2    1    2    0    0 -0.37718563774E+02 -0.16753021212E+03 -0.13026565784E+04  0.13163764723E+04  0.80273243121E+02 0.  0.
         25    2    1    2    0    0  0.25773387711E+03  0.13076420064E+03 -0.31786172274E+03  0.44742022858E+03  0.12499103401E+03 0.  0.
         24    2    1    2    0    0 -0.16014609204E+03  0.14004512145E+03  0.35635390560E+03  0.42268319150E+03  0.80084752005E+02 0.  0.
        -11    1    5    5    0    0 -0.73634864545E+02  0.10405116384E+03  0.15566105299E+03  0.20119418827E+03  0.00000000000E+00 0.  1.
         12    1    5    5    0    0 -0.86511227493E+02  0.35993957611E+02  0.20069285261E+03  0.22148900324E+03  0.00000000000E+00 0. -1.
        -11    1    3    3    0    0 -0.13447493975E+02  0.14862766377E+00 -0.23274101299E+03  0.23312922664E+03  0.00000000000E+00 0.  1.
         12    1    3    3    0    0 -0.24271069800E+02 -0.16767883979E+03 -0.10699155654E+04  0.10832472456E+04  0.00000000000E+00 0. -1.
          5    1    4    4  501    0 -0.28042111576E+01 -0.14216194395E+02 -0.26168537876E+02  0.30279467595E+02  0.47000000000E+01 0. -1.
         -5    1    4    4    0  501  0.26053808826E+03  0.14498039503E+03 -0.29169318487E+03  0.41714076099E+03  0.47000000000E+01 0. -1.
          1    1    1    2  502    0 -0.21552504032E+02 -0.18458445939E+02 -0.11068860058E+04  0.11072496803E+04  0.00000000000E+00 0. -1.
          1    1    1    2  503    0 -0.38316717261E+02 -0.84820664024E+02  0.10135912003E+04  0.10178555090E+04  0.00000000000E+00 0. -1.
<mgrwt>
<rscale>  0 0.51400432E+02</rscale>
<asrwt>0</asrwt>
<pdfrwt beam="1">  1        2 0.21721514E+00 0.93105427E+02</pdfrwt>
<pdfrwt beam="2">  1        2 0.41684149E+00 0.28376481E+02</pdfrwt>
<totfact> 0.11126085E+01</totfact>
</mgrwt>
</event>
<event>
13    1  0.2038932E-008  0.8888644E+02  0.7546771E-02  0.1314130E+00
          2   -1    0    0  503    0  0.00000000000E+00  0.00000000000E+00  0.78682922418E+03  0.78682922418E+03  0.00000000000E+00 0. -1.
          2   -1    0    0  502    0 -0.00000000000E+00 -0.00000000000E+00 -0.43089062212E+04  0.43089062212E+04  0.00000000000E+00 0. -1.
         24    2    1    2    0    0 -0.25387880607E+03  0.41663519223E+03 -0.15041302006E+04  0.15833321075E+04  0.80582695644E+02 0.  0.
         25    2    1    2    0    0  0.25035760475E+03 -0.36878725976E+03 -0.30519807385E+03  0.55448762063E+03  0.12501073530E+03 0.  0.
         24    2    1    2    0    0  0.32363834088E+02 -0.17321041036E+03 -0.81387179440E+03  0.83681611172E+03  0.82611398144E+02 0.  0.
        -11    1    5    5    0    0 -0.11794543036E+01 -0.42622488514E+02 -0.38238784139E+03  0.38475775351E+03  0.00000000000E+00 0.  1.
         12    1    5    5    0    0  0.33543288392E+02 -0.13058792185E+03 -0.43148395300E+03  0.45205835821E+03  0.00000000000E+00 0. -1.
        -11    1    3    3    0    0 -0.19624785508E+03  0.37394927702E+03 -0.13090659455E+04  0.13755017019E+04  0.00000000000E+00 0.  1.
         12    1    3    3    0    0 -0.57630950987E+02  0.42685915208E+02 -0.19506425509E+03  0.20783040558E+03  0.00000000000E+00 0. -1.
          5    1    4    4  501    0  0.60533675918E+01 -0.51610723689E+02 -0.19276096019E+01  0.52212218280E+02  0.47000000000E+01 0. -1.
         -5    1    4    4    0  501  0.24430423716E+03 -0.31717653607E+03 -0.30327046424E+03  0.50227540235E+03  0.47000000000E+01 0. -1.
          1    1    1    2  502    0 -0.68343854774E+02  0.45749256946E+02 -0.15056288113E+04  0.15078733350E+04  0.00000000000E+00 0. -1.
          1    1    1    2  503    0  0.39501222004E+02  0.79613220941E+02  0.60675188298E+03  0.61322627063E+03  0.00000000000E+00 0. -1.
<mgrwt>
<rscale>  0 0.85500109E+02</rscale>
<asrwt>0</asrwt>
<pdfrwt beam="1">  1        2 0.11571018E+00 0.88886435E+02</pdfrwt>
<pdfrwt beam="2">  1        2 0.63366266E+00 0.82242793E+02</pdfrwt>
<totfact> 0.29068763E+00</totfact>
</mgrwt>
</event>
<event>
13    1  0.2038932E-008  0.3433539E+02  0.7546771E-02  0.1613061E+00
          2   -1    0    0  503    0  0.00000000000E+00  0.00000000000E+00  0.30780259461E+04  0.30780259461E+04  0.00000000000E+00 0. -1.
          2   -1    0    0  502    0 -0.00000000000E+00 -0.00000000000E+00 -0.28072224933E+04  0.28072224933E+04  0.00000000000E+00 0. -1.
         24    2    1    2    0    0 -0.12283021768E+03 -0.96955229707E+03  0.36214639485E+03  0.10458590222E+04  0.86903186480E+02 0.  0.
         25    2    1    2    0    0  0.51179786474E+03  0.31379919037E+03  0.57710177788E+03  0.84206799940E+03  0.12500026937E+03 0.  0.
         24    2    1    2    0    0 -0.35104091215E+03  0.67724943537E+03  0.29834928264E+03  0.82303320881E+03  0.80466444176E+02 0.  0.
        -11    1    3    3    0    0  0.30620621550E+01 -0.23412330866E+03  0.67694485868E+02  0.24373272924E+03  0.00000000000E+00 0.  1.
         12    1    3    3    0    0 -0.12589227983E+03 -0.73542898841E+03  0.29445190898E+03  0.80212629293E+03  0.00000000000E+00 0. -1.
        -11    1    5    5    0    0 -0.20645722615E+03  0.41661345314E+03  0.22261796646E+03  0.51550956786E+03  0.00000000000E+00 0.  1.
         12    1    5    5    0    0 -0.14458368600E+03  0.26063598223E+03  0.75731316177E+02  0.30752364095E+03  0.00000000000E+00 0. -1.
          5    1    4    4  501    0  0.22274345934E+03  0.78731472921E+02  0.27349594125E+03  0.36143521326E+03  0.47000000000E+01 0.  1.
         -5    1    4    4    0  501  0.28905440541E+03  0.23506771745E+03  0.30360583663E+03  0.48063278614E+03  0.47000000000E+01 0.  1.
          1    1    1    2  502    0 -0.34265206853E+02  0.21917878519E+01 -0.20702686045E+04  0.20705533085E+04  0.00000000000E+00 0. -1.
          1    1    1    2  503    0 -0.36615280673E+01 -0.23688116522E+02  0.11034746020E+04  0.11037349006E+04  0.00000000000E+00 0. -1.
<mgrwt>
<rscale>  0 0.28687972E+02</rscale>
<asrwt>0</asrwt>
<pdfrwt beam="1">  1        2 0.45265087E+00 0.23969432E+02</pdfrwt>
<pdfrwt beam="2">  1        2 0.41282684E+00 0.34335389E+02</pdfrwt>
<totfact> 0.22675420E+00</totfact>
</mgrwt>
</event>
<event>
13    1  0.2038932E-008  0.2646694E+03  0.7546771E-02  0.1236652E+00
          2   -1    0    0  503    0  0.00000000000E+00  0.00000000000E+00  0.16600703384E+04  0.16600703384E+04  0.00000000000E+00 0. -1.
          2   -1    0    0  502    0 -0.00000000000E+00 -0.00000000000E+00 -0.18100544929E+04  0.18100544929E+04  0.00000000000E+00 0. -1.
         24    2    1    2    0    0 -0.10662539874E+03  0.16319900860E+03 -0.34415948838E+03  0.40341844827E+03  0.79358672466E+02 0.  0.
         25    2    1    2    0    0 -0.19478018870E+03 -0.47086664510E+03  0.64130327308E+03  0.82858314009E+03  0.12500165043E+03 0.  0.
         24    2    1    2    0    0  0.18028927220E+03  0.82420853454E+02  0.22323616225E+03  0.30935953043E+03  0.81064888681E+02 0.  0.
        -11    1    5    5    0    0  0.47018322338E+02  0.90453755185E+00  0.99554607801E+02  0.11010295526E+03  0.00000000000E+00 0.  1.
         12    1    5    5    0    0  0.13327094986E+03  0.81516315903E+02  0.12368155445E+03  0.19925657517E+03  0.00000000000E+00 0. -1.
        -13    1    3    3    0    0  0.12822705381E+01 -0.55222732151E+01 -0.54200824911E+00  0.56950410127E+01  0.00000000000E+00 0.  1.
         14    1    3    3    0    0 -0.10790766927E+03  0.16872128182E+03 -0.34361748013E+03  0.39772340725E+03  0.00000000000E+00 0. -1.
          5    1    4    4  501    0 -0.17339158868E+03 -0.28106037674E+03  0.36025078494E+03  0.48873540536E+03  0.47000000000E+01 0.  1.
         -5    1    4    4    0  501 -0.21388600025E+02 -0.18980626836E+03  0.28105248813E+03  0.33984773474E+03  0.47000000000E+01 0.  1.
          1    1    1    2  502    0  0.13613830110E+03  0.16913464735E+03 -0.12891256360E+04  0.13072815578E+04  0.00000000000E+00 0. -1.
          1    1    1    2  503    0 -0.15021985858E+02  0.56112135687E+02  0.61876153458E+03  0.62148215462E+03  0.00000000000E+00 0. -1.
<mgrwt>
<rscale>  0 0.12399254E+03</rscale>
<asrwt>0</asrwt>
<pdfrwt beam="1">  1        2 0.24412799E+00 0.58088138E+02</pdfrwt>
<pdfrwt beam="2">  1        2 0.26618448E+00 0.26466937E+03</pdfrwt>
<totfact> 0.22648463E+01</totfact>
</mgrwt>
</event>
<event>
13    1  0.2038932E-008  0.8867964E+02  0.7546771E-02  0.1354170E+00
          2   -1    0    0  502    0  0.00000000000E+00  0.00000000000E+00  0.28481269255E+03  0.28481269255E+03  0.00000000000E+00 0. -1.
          2   -1    0    0  503    0 -0.00000000000E+00 -0.00000000000E+00 -0.22285016078E+04  0.22285016078E+04  0.00000000000E+00 0. -1.
         24    2    1    2    0    0 -0.14458825392E+03  0.27016185199E+02 -0.11543506628E+04  0.11664976861E+04  0.80967657271E+02 0.  0.
         25    2    1    2    0    0  0.26382215006E+02 -0.17799159050E+03 -0.16289731077E+02  0.21969984340E+03  0.12500255314E+03 0.  0.
         24    2    1    2    0    0  0.90102665517E+02  0.61438294746E+02 -0.19744744182E+02  0.13642654501E+03  0.79556224554E+02 0.  0.
        -11    1    3    3    0    0 -0.19510242629E+02  0.37617080230E+02 -0.29297155503E+03  0.29602031408E+03  0.00000000000E+00 0.  1.
         12    1    3    3    0    0 -0.12507801130E+03 -0.10600895031E+02 -0.86137910774E+03  0.87047737198E+03  0.00000000000E+00 0. -1.
        -11    1    5    5    0    0 -0.43286163553E+01  0.33012955941E+02 -0.17878832398E+02  0.37792126527E+02  0.00000000000E+00 0.  1.
         12    1    5    5    0    0  0.94431281872E+02  0.28425338805E+02 -0.18659117841E+01  0.98634418480E+02  0.00000000000E+00 0. -1.
          5    1    4    4  501    0  0.76509562952E+02 -0.11448772565E+03 -0.49390323175E+01  0.13786818555E+03  0.47000000000E+01 0. -1.
         -5    1    4    4    0  501 -0.50127347946E+02 -0.63503864856E+02 -0.11350698760E+02  0.81831657848E+02  0.47000000000E+01 0. -1.
          1    1    1    2  502    0  0.72219404765E+02  0.51749186169E+02  0.10094148089E+03  0.13447231409E+03  0.00000000000E+00 0. -1.
          1    1    1    2  503    0 -0.44116031363E+02  0.37787924388E+02 -0.85424525810E+03  0.85621791178E+03  0.00000000000E+00 0. -1.
<mgrwt>
<rscale>  0 0.71771677E+02</rscale>
<asrwt>0</asrwt>
<pdfrwt beam="1">  1        2 0.41884219E-01 0.88679636E+02</pdfrwt>
<pdfrwt beam="2">  1        2 0.32772083E+00 0.58087447E+02</pdfrwt>
<totfact> 0.14146424E+02</totfact>
</mgrwt>
</event>
<event>
13    1  0.2038932E-008  0.1046483E+03  0.7546771E-02  0.1381436E+00
          2   -1    0    0  502    0  0.00000000000E+00  0.00000000000E+00  0.16857072638E+04  0.16857072638E+04  0.00000000000E+00 0. -1.
          2   -1    0    0  503    0 -0.00000000000E+00 -0.00000000000E+00 -0.89989656040E+03  0.89989656040E+03  0.00000000000E+00 0. -1.
         24    2    1    2    0    0  0.23796396892E+02 -0.11007278348E+03 -0.55863810711E+03  0.57538076312E+03  0.79399003098E+02 0.  0.
         25    2    1    2    0    0  0.32530092144E+02  0.20449546082E+02  0.10031048064E+04  0.10115937723E+04  0.12500526715E+03 0.  0.
         24    2    1    2    0    0 -0.86315230531E+02  0.29913189723E+02 -0.35085199441E+02  0.12602189397E+03  0.79406728927E+02 0.  0.
        -11    1    3    3    0    0  0.12058874977E+02  0.61549483589E+01 -0.19547454588E+02  0.23778200855E+02  0.00000000000E+00 0.  1.
         12    1    3    3    0    0  0.11737521916E+02 -0.11622773184E+03 -0.53909065252E+03  0.55160256227E+03  0.00000000000E+00 0. -1.
        -11    1    5    5    0    0 -0.48809288881E+02  0.55286686242E+02 -0.32707960810E+02  0.80676979722E+02  0.00000000000E+00 0.  1.
         12    1    5    5    0    0 -0.37505941650E+02 -0.25373496519E+02 -0.23772386304E+01  0.45344914247E+02  0.00000000000E+00 0. -1.
          5    1    4    4  501    0 -0.55300105965E+01  0.48701070728E+02  0.16634785889E+03  0.17348220503E+03  0.47000000000E+01 0.  1.
         -5    1    4    4    0  501  0.38060102741E+02 -0.28251524646E+02  0.83675694748E+03  0.83811156728E+03  0.47000000000E+01 0.  1.
          1    1    1    2  502    0  0.57364735931E+02  0.87834390641E+02  0.61852106344E+03  0.62735468359E+03  0.00000000000E+00 0. -1.
          1    1    1    2  503    0 -0.27375994437E+02 -0.28124342968E+02 -0.24209185986E+03  0.24525271120E+03  0.00000000000E+00 0. -1.
<mgrwt>
<rscale>  0 0.64087919E+02</rscale>
<asrwt>0</asrwt>
<pdfrwt beam="1">  1        2 0.24789813E+00 0.10464832E+03</pdfrwt>
<pdfrwt beam="2">  1        2 0.13233773E+00 0.39248232E+02</pdfrwt>
<totfact> 0.70560325E+01</totfact>
</mgrwt>
</event>
<event>
13    1  0.2038932E-008  0.7960001E+02  0.7546771E-02  0.1335501E+00
          2   -1    0    0  502    0  0.00000000000E+00  0.00000000000E+00  0.25835142040E+04  0.25835142040E+04  0.00000000000E+00 0. -1.
          2   -1    0    0  503    0 -0.00000000000E+00 -0.00000000000E+00 -0.24329839716E+04  0.24329839716E+04  0.00000000000E+00 0. -1.
         24    2    1    2    0    0 -0.20985180837E+03  0.19724218182E+02 -0.44282686858E+03  0.49722599103E+03  0.81922062732E+02 0.  0.
         25    2    1    2    0    0 -0.96426651731E+02  0.81300338563E+02  0.78164036005E+03  0.80155751925E+03  0.12499983998E+03 0.  0.
         24    2    1    2    0    0  0.21190324477E+03  0.15738918544E+02  0.49966722182E+03  0.55049190829E+03  0.90682467059E+02 0.  0.
        -11    1    5    5    0    0  0.98020247011E+02 -0.95260883798E+01  0.33155382720E+03  0.34587086537E+03  0.00000000000E+00 0.  1.
         12    1    5    5    0    0  0.11388299776E+03  0.25265006924E+02  0.16811339462E+03  0.20462104292E+03  0.00000000000E+00 0. -1.
        -11    1    3    3    0    0 -0.12338906375E+03  0.41821466509E+02 -0.20173746047E+03  0.24014974301E+03  0.00000000000E+00 0.  1.
         12    1    3    3    0    0 -0.86462744619E+02 -0.22097248327E+02 -0.24108940811E+03  0.25707624802E+03  0.00000000000E+00 0. -1.
          5    1    4    4  501    0 -0.10662026981E+03  0.19250217039E+02  0.58775227220E+03  0.59767321863E+03  0.47000000000E+01 0. -1.
         -5    1    4    4    0  501  0.10193618074E+02  0.62050121524E+02  0.19388808785E+03  0.20388430062E+03  0.47000000000E+01 0. -1.
          1    1    1    2  502    0  0.30216717314E+02 -0.69715932510E+02  0.12376495970E+04  0.12399797926E+04  0.00000000000E+00 0. -1.
          1    1    1    2  503    0  0.64158498009E+02 -0.47047542779E+02 -0.19256000778E+04  0.19272429644E+04  0.00000000000E+00 0. -1.
<mgrwt>
<rscale>  0 0.77770296E+02</rscale>
<asrwt>0</asrwt>
<pdfrwt beam="1">  1        2 0.37992856E+00 0.75982638E+02</pdfrwt>
<pdfrwt beam="2">  1        2 0.35779176E+00 0.79600014E+02</pdfrwt>
<totfact> 0.44586868E+00</totfact>
</mgrwt>
</event>
<event>
13    1  0.2038932E-008  0.1656025E+03  0.7546771E-02  0.1370474E+00
          2   -1    0    0  502    0  0.00000000000E+00  0.00000000000E+00  0.14622593884E+04  0.14622593884E+04  0.00000000000E+00 0. -1.
          2   -1    0    0  503    0 -0.00000000000E+00 -0.00000000000E+00 -0.51995825412E+03  0.51995825412E+03  0.00000000000E+00 0. -1.
         24    2    1    2    0    0  0.52716863843E+00  0.96220191164E+02 -0.42766106959E+02  0.13322327786E+03  0.81614329415E+02 0.  0.
         25    2    1    2    0    0 -0.13683512576E+03  0.10350906875E+02  0.43652317385E+03  0.47435528479E+03  0.12501784667E+03 0.  0.
         24    2    1    2    0    0  0.11095580159E+03 -0.22875835439E+03  0.66649589766E+03  0.71786667334E+03  0.80462441439E+02 0.  0.
        -11    1    3    3    0    0 -0.29968317946E+02  0.11568794104E+02 -0.26812274248E+02  0.41842981823E+02  0.00000000000E+00 0.  1.
         12    1    3    3    0    0  0.30495486584E+02  0.84651397060E+02 -0.15953832711E+02  0.91380296040E+02  0.00000000000E+00 0. -1.
        -13    1    5    5    0    0  0.16213026088E+02 -0.11657757170E+03  0.25202005757E+03  0.27814978313E+03  0.00000000000E+00 0.  1.
         14    1    5    5    0    0  0.94742775502E+02 -0.11218078269E+03  0.41447584009E+03  0.43971689020E+03  0.00000000000E+00 0. -1.
          5    1    4    4  501    0 -0.15537054750E+03 -0.49069879399E+01  0.32652159170E+03  0.36166631776E+03  0.47000000000E+01 0. -1.
         -5    1    4    4    0  501  0.18535421738E+02  0.15257894815E+02  0.11000158215E+03  0.11268896703E+03  0.47000000000E+01 0. -1.
          1    1    1    2  502    0  0.25760755517E+02 -0.85286695030E+01  0.25764976588E+03  0.25907480886E+03  0.00000000000E+00 0. -1.
          1    1    1    2  503    0 -0.40859998530E+00  0.13071592585E+03 -0.37560159611E+03  0.39769759771E+03  0.00000000000E+00 0. -1.
<mgrwt>
<rscale>  0 0.67035564E+02</rscale>
<asrwt>0</asrwt>
<pdfrwt beam="1">  1        2 0.21503814E+00 0.27135857E+02</pdfrwt>
<pdfrwt beam="2">  1        2 0.76464450E-01 0.16560254E+03</pdfrwt>
<totfact> 0.18224059E+02</totfact>
</mgrwt>
</event>
<event>
13    1  0.2038932E-008  0.1173869E+03  0.7546771E-02  0.1277426E+00
         -1   -1    0    0    0  501 -0.00000000000E+00  0.00000000000E+00  0.13899253105E+04  0.13899253105E+04  0.00000000000E+00 0.  1.
          2   -1    0    0  503    0  0.00000000000E+00 -0.00000000000E+00 -0.82605149429E+03  0.82605149429E+03  0.00000000000E+00 0. -1.
         24    2    1    2    0    0  0.61902828445E+02  0.12382831168E+02  0.74616095377E+03  0.75328985777E+03  0.81878850892E+02 0.  0.
         25    2    1    2    0    0 -0.73064567115E+02 -0.42906740969E+02  0.48291048921E+01  0.15108940726E+03  0.12500107737E+03 0.  0.
         24    2    1    2    0    0  0.62959138165E+02 -0.28638884524E+02  0.91264281114E+02  0.14038452160E+03  0.81207180184E+02 0.  0.
        -11    1    5    5    0    0  0.27052211710E+02 -0.53170912588E+02  0.34628249481E+02  0.68978864633E+02  0.00000000000E+00 0.  1.
         12    1    5    5    0    0  0.35906926455E+02  0.24532028064E+02  0.56636031632E+02  0.71405656971E+02  0.00000000000E+00 0. -1.
        -13    1    3    3    0    0  0.16181983863E+02 -0.33898444991E+02  0.23036568406E+03  0.23340803235E+03  0.00000000000E+00 0.  1.
         14    1    3    3    0    0  0.45720844582E+02  0.46281276159E+02  0.51579526971E+03  0.51988182542E+03  0.00000000000E+00 0. -1.
          5    1    4    4  502    0  0.34883068723E+02 -0.18465339849E+02 -0.40541204781E+01  0.39954012966E+02  0.47000000000E+01 0.  1.
         -5    1    4    4    0  502 -0.10794763584E+03 -0.24441401120E+02  0.88832253702E+01  0.11113539429E+03  0.47000000000E+01 0.  1.
          1    1    1    2  503    0  0.53086373874E+02  0.10803470460E+03 -0.71216219871E+03  0.72226356530E+03  0.00000000000E+00 0. -1.
         -2    1    1    2    0  501 -0.10488377337E+03 -0.48871910272E+02  0.43378167510E+03  0.44894945282E+03  0.00000000000E+00 0.  1.
<mgrwt>
<rscale>  0 0.10137736E+03</rscale>
<asrwt>0</asrwt>
<pdfrwt beam="2">  1        2 0.12147816E+00 0.11738692E+03</pdfrwt>
<pdfrwt beam="1">  1       -1 0.20440078E+00 0.87551229E+02</pdfrwt>
<totfact> 0.74011935E+00</totfact>
</mgrwt>
</event>
<event>
13    1  0.2038932E-008  0.2047235E+03  0.7546771E-02  0.1303121E+00
          2   -1    0    0  502    0  0.00000000000E+00  0.00000000000E+00  0.13668734923E+04  0.13668734923E+04  0.00000000000E+00 0. -1.
          2   -1    0    0  503    0 -0.00000000000E+00 -0.00000000000E+00 -0.12988850678E+04  0.12988850678E+04  0.00000000000E+00 0. -1.
         24    2    1    2    0    0  0.10149301481E+03 -0.91375394441E+02 -0.56729897886E+03  0.58840942086E+03  0.75810423893E+02 0.  0.
         25    2    1    2    0    0 -0.15158582269E+03 -0.29177011620E+03  0.28085812131E+03  0.45012868316E+03  0.12500593887E+03 0.  0.
         24    2    1    2    0    0 -0.26561893967E+02  0.70892325842E+02 -0.53668249908E+02  0.12308839091E+03  0.80865411983E+02 0.  0.
        -11    1    3    3    0    0  0.60689313408E+00 -0.44996312138E+02 -0.15177096762E+03  0.15830180996E+03  0.00000000000E+00 0.  1.
         12    1    3    3    0    0  0.10088612167E+03 -0.46379082303E+02 -0.41552801124E+03  0.43010761090E+03  0.00000000000E+00 0. -1.
        -13    1    5    5    0    0  0.24691424458E+02  0.43362623848E+02 -0.38328847956E+02  0.62921253757E+02  0.00000000000E+00 0.  1.
         14    1    5    5    0    0 -0.51253318425E+02  0.27529701994E+02 -0.15339401953E+02  0.60167137157E+02  0.00000000000E+00 0. -1.
          5    1    4    4  501    0 -0.92093736345E+02 -0.13191411338E+03  0.21188719884E+03  0.26608431862E+03  0.47000000000E+01 0. -1.
         -5    1    4    4    0  501 -0.59492086347E+02 -0.15985600281E+03  0.68970922470E+02  0.18404436454E+03  0.47000000000E+01 0. -1.
          1    1    1    2  502    0  0.38850410863E+02  0.69549690360E+01  0.91248251112E+03  0.91333567713E+03  0.00000000000E+00 0. -1.
          1    1    1    2  503    0  0.37804290988E+02  0.30529821576E+03 -0.50438497914E+03  0.59079638806E+03  0.00000000000E+00 0. -1.
<mgrwt>
<rscale>  0 0.89889015E+02</rscale>
<asrwt>0</asrwt>
<pdfrwt beam="1">  1        2 0.20101081E+00 0.39468038E+02</pdfrwt>
<pdfrwt beam="2">  1        2 0.19101251E+00 0.20472350E+03</pdfrwt>
<totfact> 0.60136819E+01</totfact>
</mgrwt>
</event>
<event>
13    1  0.2038932E-008  0.1145316E+03  0.7546771E-02  0.1258371E+00
          2   -1    0    0  503    0  0.00000000000E+00  0.00000000000E+00  0.19814457228E+04  0.19814457228E+04  0.00000000000E+00 0. -1.
         -3   -1    0    0    0  501 -0.00000000000E+00 -0.00000000000E+00 -0.13945868181E+04  0.13945868181E+04  0.00000000000E+00 0.  1.
         24    2    1    2    0    0  0.31990459494E+02  0.82631370229E+02 -0.13901167370E+03  0.18072873300E+03  0.74076289466E+02 0.  0.
         25    2    1    2    0    0  0.35629719745E+02 -0.99042823446E+02  0.20359786061E+03  0.26106897644E+03  0.12500385517E+03 0.  0.
         24    2    1    2    0    0 -0.19066273595E+02 -0.13536641961E+02 -0.37375893781E+02  0.91545898261E+02  0.80230484157E+02 0.  0.
        -11    1    3    3    0    0 -0.12172544504E+02 -0.80070460954E+01 -0.15165364781E+02  0.21030261906E+02  0.00000000000E+00 0.  1.
         12    1    3    3    0    0  0.44163003998E+02  0.90638416324E+02 -0.12384630892E+03  0.15969847109E+03  0.00000000000E+00 0. -1.
        -13    1    5    5    0    0  0.30540943300E+02 -0.35408167389E+01 -0.41877336075E+01  0.31029400794E+02  0.00000000000E+00 0.  1.
         14    1    5    5    0    0 -0.49607216896E+02 -0.99958252220E+01 -0.33188160174E+02  0.60516497467E+02  0.00000000000E+00 0. -1.
          5    1    4    4  502    0 -0.12758660420E+02 -0.73374452587E+02  0.32568818018E+02  0.81421198808E+02  0.47000000000E+01 0.  1.
         -5    1    4    4    0  502  0.48388380165E+02 -0.25668370859E+02  0.17102904259E+03  0.17964777763E+03  0.47000000000E+01 0.  1.
          1    1    1    2  503    0  0.34462720320E+02  0.11779398459E+03  0.16957453377E+04  0.17001809763E+04  0.00000000000E+00 0. -1.
         -4    1    1    2    0  501 -0.83016625964E+02 -0.87845889407E+02 -0.11360967261E+04  0.11425079569E+04  0.00000000000E+00 0.  1.
<mgrwt>
<rscale>  0 0.11119572E+03</rscale>
<asrwt>0</asrwt>
<pdfrwt beam="1">  1        2 0.29138908E+00 0.11453158E+03</pdfrwt>
<pdfrwt beam="2">  1       -3 0.20508630E+00 0.10795702E+03</pdfrwt>
<totfact> 0.87069895E-01</totfact>
</mgrwt>
</event>
<event>
13    1  0.2038932E-008  0.8289307E+02  0.7546771E-02  0.1485378E+00
          2   -1    0    0  502    0  0.00000000000E+00  0.00000000000E+00  0.15910103055E+04  0.15910103055E+04  0.00000000000E+00 0. -1.
          2   -1    0    0  503    0 -0.00000000000E+00 -0.00000000000E+00 -0.18118946963E+04  0.18118946963E+04  0.00000000000E+00 0. -1.
         24    2    1    2    0    0 -0.47159016027E+02 -0.13540721738E+02 -0.97434313063E+03  0.97885124974E+03  0.79986929941E+02 0.  0.
         25    2    1    2    0    0  0.18758856845E+01 -0.77854693849E+02  0.12485345834E+03  0.19307516956E+03  0.12499905095E+03 0.  0.
         24    2    1    2    0    0  0.17512111197E+02  0.13808256909E+02 -0.29135988680E+03  0.30378937826E+03  0.83066604068E+02 0.  0.
        -13    1    5    5    0    0 -0.27419107806E+02  0.13543831185E+02 -0.52647958056E+02  0.60885551024E+02  0.00000000000E+00 0.  1.
         14    1    5    5    0    0  0.44931219004E+02  0.26442572363E+00 -0.23871192874E+03  0.24290382724E+03  0.00000000000E+00 0. -1.
        -13    1    3    3    0    0 -0.29147172604E+02 -0.16145406070E+02 -0.12655708706E+03  0.13086988994E+03  0.00000000000E+00 0.  1.
         14    1    3    3    0    0 -0.18011843423E+02  0.26046843327E+01 -0.84778604357E+03  0.84798135980E+03  0.00000000000E+00 0. -1.
          5    1    4    4  501    0 -0.17558813497E+02 -0.99026266719E+02  0.49298418732E+02  0.11210235288E+03  0.47000000000E+01 0. -1.
         -5    1    4    4    0  501  0.19434699182E+02  0.21171572870E+02  0.75555039609E+02  0.80972816676E+02  0.47000000000E+01 0. -1.
          1    1    1    2  502    0  0.48024963014E+02  0.67567811092E+02  0.14221161032E+04  0.14245301040E+04  0.00000000000E+00 0. -1.
          1    1    1    2  503    0 -0.20253943870E+02  0.10019347585E+02 -0.50215093493E+03  0.50265910021E+03  0.00000000000E+00 0. -1.
<mgrwt>
<rscale>  0 0.43279412E+02</rscale>
<asrwt>0</asrwt>
<pdfrwt beam="1">  1        2 0.23397210E+00 0.82893073E+02</pdfrwt>
<pdfrwt beam="2">  1        2 0.26645510E+00 0.22596672E+02</pdfrwt>
<totfact> 0.30048586E+01</totfact>
</mgrwt>
</event>
<event>
13    1  0.2038932E-008  0.1130591E+03  0.7546771E-02  0.1275366E+00
          2   -1    0    0  502    0  0.00000000000E+00  0.00000000000E+00  0.16802796102E+04  0.16802796102E+04  0.00000000000E+00 0. -1.
          2   -1    0    0  503    0 -0.00000000000E+00 -0.00000000000E+00 -0.39798143938E+03  0.39798143938E+03  0.00000000000E+00 0. -1.
         24    2    1    2    0    0  0.58969014364E+02 -0.22979180764E+03  0.83263030688E+02  0.26360223035E+03  0.79194596118E+02 0.  0.
         25    2    1    2    0    0 -0.12215776386E+03 -0.59252478898E+02  0.10769491924E+03  0.21367318516E+03  0.12499863559E+03 0.  0.
         24    2    1    2    0    0  0.12835221501E+03  0.13694790901E+03  0.48055630475E+03  0.52732084599E+03  0.10910495726E+03 0.  0.
        -11    1    3    3    0    0 -0.33961985633E+01 -0.95758997664E+02  0.40949245401E+01  0.95906664029E+02  0.00000000000E+00 0.  1.
         12    1    3    3    0    0  0.62365212927E+02 -0.13403280997E+03  0.79168106148E+02  0.16769556632E+03  0.00000000000E+00 0. -1.
        -13    1    5    5    0    0  0.49296817848E+02  0.60330591541E+01  0.21696750560E+03  0.22257913770E+03  0.00000000000E+00 0.  1.
         14    1    5    5    0    0  0.79055397165E+02  0.13091484986E+03  0.26358879915E+03  0.30474170829E+03  0.00000000000E+00 0. -1.
          5    1    4    4  501    0 -0.20902930026E+02  0.27130149584E+02  0.65340086317E+02  0.73921542057E+02  0.47000000000E+01 0. -1.
         -5    1    4    4    0  501 -0.10125483384E+03 -0.86382628482E+02  0.42354832925E+02  0.13975164311E+03  0.47000000000E+01 0. -1.
          1    1    1    2  502    0 -0.83184447975E+02  0.40938412841E+02  0.82577720493E+03  0.83096546150E+03  0.00000000000E+00 0. -1.
          1    1    1    2  503    0  0.18020982461E+02  0.11115796468E+03 -0.21499328876E+03  0.24269932660E+03  0.00000000000E+00 0. -1.
<mgrwt>
<rscale>  0 0.10238161E+03</rscale>
<asrwt>0</asrwt>
<pdfrwt beam="1">  1        2 0.24709994E+00 0.92712491E+02</pdfrwt>
<pdfrwt beam="2">  1        2 0.58526683E-01 0.11305913E+03</pdfrwt>
<totfact> 0.17290197E+02</totfact>
</mgrwt>
</event>
<event>
13    1  0.2038932E-008  0.1108459E+03  0.7546771E-02  0.1273506E+00
          2   -1    0    0  503    0  0.00000000000E+00  0.00000000000E+00  0.30777019488E+04  0.30777019488E+04  0.00000000000E+00 0. -1.
         -1   -1    0    0    0  501 -0.00000000000E+00 -0.00000000000E+00 -0.15240935963E+04  0.15240935963E+04  0.00000000000E+00 0.  1.
         24    2    1    2    0    0 -0.97390839522E+02  0.73413413498E+03  0.15181314659E+03  0.76227875802E+03  0.97896729660E+02 0.  0.
         25    2    1    2    0    0  0.15430334560E+03 -0.19796929769E+02 -0.46867037893E+02  0.20504266460E+03  0.12507811229E+03 0.  0.
         24    2    1    2    0    0 -0.11733950081E+03 -0.83370203804E+03  0.49517279708E+03  0.98013364960E+03  0.81475305713E+02 0.  0.
        -13    1    5    5    0    0 -0.24672927910E+02 -0.34381605708E+03  0.16508494668E+03  0.38219271853E+03  0.00000000000E+00 0.  1.
         14    1    5    5    0    0 -0.92666572896E+02 -0.48988598096E+03  0.33008785040E+03  0.59794093108E+03  0.00000000000E+00 0. -1.
        -13    1    3    3    0    0 -0.11550887933E+03  0.68429054316E+03  0.14159082784E+03  0.70826817746E+03  0.00000000000E+00 0.  1.
         14    1    3    3    0    0  0.18118039812E+02  0.49843591820E+02  0.10222318750E+02  0.54010580563E+02  0.00000000000E+00 0. -1.
          5    1    4    4  502    0  0.13365379038E+03 -0.43442839921E+02  0.88757755759E+01  0.14089529948E+03  0.47000000000E+01 0.  1.
         -5    1    4    4    0  502  0.20649555211E+02  0.23645910153E+02 -0.55742813469E+02  0.64147365112E+02  0.47000000000E+01 0.  1.
          1    1    1    2  503    0 -0.45033693877E+02  0.85084169732E+02  0.17990075692E+04  0.18015814118E+04  0.00000000000E+00 0. -1.
         -2    1    1    2    0  501  0.10546068861E+03  0.34280663091E+02 -0.84551812246E+03  0.85275906099E+03  0.00000000000E+00 0.  1.
<mgrwt>
<rscale>  0 0.10329960E+03</rscale>
<asrwt>0</asrwt>
<pdfrwt beam="1">  1        2 0.45260323E+00 0.96267074E+02</pdfrwt>
<pdfrwt beam="2">  1       -1 0.22413141E+00 0.11084587E+03</pdfrwt>
<totfact> 0.38521835E-01</totfact>
</mgrwt>
</event>
<event>
13    1  0.2038932E-008  0.1179172E+03  0.7546771E-02  0.1249081E+00
          2   -1    0    0  503    0  0.00000000000E+00  0.00000000000E+00  0.45810385169E+04  0.45810385169E+04  0.00000000000E+00 0. -1.
          2   -1    0    0  502    0 -0.00000000000E+00 -0.00000000000E+00 -0.54332047131E+03  0.54332047131E+03  0.00000000000E+00 0. -1.
         24    2    1    2    0    0 -0.12094267792E+03  0.11080956670E+03 -0.14769091340E+03  0.23574001075E+03  0.82794053858E+02 0.  0.
         25    2    1    2    0    0  0.14801269641E+03 -0.13380478143E+03  0.95591288149E+03  0.98447484898E+03  0.12493923904E+03 0.  0.
         24    2    1    2    0    0 -0.59930125463E+02 -0.28534701682E+02  0.82104604843E+02  0.13200333763E+03  0.79232984742E+02 0.  0.
        -11    1    3    3    0    0 -0.29055913921E+02  0.94501859673E+01 -0.74633441031E+02  0.80645537190E+02  0.00000000000E+00 0.  1.
         12    1    3    3    0    0 -0.91886763994E+02  0.10135938073E+03 -0.73057472369E+02  0.15509447356E+03  0.00000000000E+00 0. -1.
        -13    1    5    5    0    0 -0.62199580709E+02 -0.51002798420E+02  0.59502862380E+02  0.10005330539E+03  0.00000000000E+00 0.  1.
         14    1    5    5    0    0  0.22694552464E+01  0.22468096738E+02  0.22601742463E+02  0.31950032245E+02  0.00000000000E+00 0. -1.
          5    1    4    4  501    0  0.95600676022E+02 -0.11674473065E+02  0.51477370908E+03  0.52372687933E+03  0.47000000000E+01 0.  1.
         -5    1    4    4    0  501  0.52412020389E+02 -0.12213030836E+03  0.44113917241E+03  0.46074796965E+03  0.47000000000E+01 0.  1.
          1    1    1    2  502    0 -0.78706674916E+02  0.89988544366E+02 -0.29988919014E+03  0.32284083564E+03  0.00000000000E+00 0. -1.
          1    1    1    2  503    0  0.11156678188E+03 -0.38458627959E+02  0.34472806628E+04  0.34492999552E+04  0.00000000000E+00 0. -1.
<mgrwt>
<rscale>  0 0.11644447E+03</rscale>
<asrwt>0</asrwt>
<pdfrwt beam="1">  1        2 0.67368211E+00 0.11791717E+03</pdfrwt>
<pdfrwt beam="2">  1        2 0.79900072E-01 0.11499016E+03</pdfrwt>
<totfact> 0.24896941E+00</totfact>
</mgrwt>
</event>
<event>
13    1  0.2038932E-008  0.2542903E+03  0.7546771E-02  0.1291816E+00
          2   -1    0    0  503    0  0.00000000000E+00  0.00000000000E+00  0.39523403457E+04  0.39523403457E+04  0.00000000000E+00 0. -1.
          2   -1    0    0  502    0 -0.00000000000E+00 -0.00000000000E+00 -0.59375571946E+03  0.59375571946E+03  0.00000000000E+00 0. -1.
         24    2    1    2    0    0 -0.43166686489E+03 -0.18152008793E+03 -0.27123674379E+02  0.47646934993E+03  0.83675104714E+02 0.  0.
         25    2    1    2    0    0  0.21816928132E+03 -0.87747696648E+02  0.11237478353E+04  0.11548769001E+04  0.12503584874E+03 0.  0.
         24    2    1    2    0    0  0.93540188122E+02  0.48073747342E+02  0.24855085596E+03  0.28107315757E+03  0.78509489431E+02 0.  0.
        -11    1    3    3    0    0 -0.12217178259E+02 -0.10530604848E+02 -0.16941998681E+02  0.23391973033E+02  0.00000000000E+00 0.  1.
         12    1    3    3    0    0 -0.41944968663E+03 -0.17098948308E+03 -0.10181675698E+02  0.45307737690E+03  0.00000000000E+00 0. -1.
        -11    1    5    5    0    0  0.76867042102E+02 -0.25769908451E+01  0.16353804988E+03  0.18072043825E+03  0.00000000000E+00 0.  1.
         12    1    5    5    0    0  0.16673146020E+02  0.50650738187E+02  0.85012806085E+02  0.10035271932E+03  0.00000000000E+00 0. -1.
          5    1    4    4  501    0  0.52171813033E+02 -0.49876641210E+02  0.59479732566E+03  0.59917904338E+03  0.47000000000E+01 0. -1.
         -5    1    4    4    0  501  0.16599746829E+03 -0.37871055438E+02  0.52895050967E+03  0.55569785675E+03  0.47000000000E+01 0. -1.
          1    1    1    2  502    0  0.14935517134E+03  0.20168974303E+03 -0.25920112420E+03  0.36079210418E+03  0.00000000000E+00 0. -1.
          1    1    1    2  503    0 -0.29397775894E+02  0.19504294204E+02  0.22726107335E+04  0.22728845533E+04  0.00000000000E+00 0. -1.
<mgrwt>
<rscale>  0 0.94716662E+02</rscale>
<asrwt>0</asrwt>
<pdfrwt beam="1">  1        2 0.58122651E+00 0.35279551E+02</pdfrwt>
<pdfrwt beam="2">  1        2 0.87317019E-01 0.25429025E+03</pdfrwt>
<totfact> 0.83794650E+00</totfact>
</mgrwt>
</event>
<event>
13    1  0.2038932E-008  0.1946450E+03  0.7546771E-02  0.1276828E+00
         -3   -1    0    0    0  501 -0.00000000000E+00  0.00000000000E+00  0.13978842508E+04  0.13978842508E+04  0.00000000000E+00 0.  1.
          2   -1    0    0  503    0  0.00000000000E+00 -0.00000000000E+00 -0.28421888188E+04  0.28421888188E+04  0.00000000000E+00 0. -1.
         24    2    1    2    0    0  0.64107385766E+02  0.61578230894E+03  0.39841860891E+03  0.74050380216E+03  0.79441073563E+02 0.  0.
         25    2    1    2    0    0  0.18923836766E+03 -0.33717629164E+03 -0.49941745445E+03  0.64385005140E+03  0.12500433366E+03 0.  0.
         24    2    1    2    0    0 -0.34496649819E+02 -0.63925246234E+02  0.31139571181E+02  0.11199695255E+03  0.79354826780E+02 0.  0.
        -13    1    5    5    0    0 -0.19348167081E+02 -0.73245258572E+02  0.46163652127E+02  0.88714723977E+02  0.00000000000E+00 0.  1.
         14    1    5    5    0    0 -0.15148482738E+02  0.93200123386E+01 -0.15024080945E+02  0.23282228577E+02  0.00000000000E+00 0. -1.
        -13    1    3    3    0    0  0.68119669429E+02  0.37742045653E+03  0.27605433946E+03  0.47253834628E+03  0.00000000000E+00 0.  1.
         14    1    3    3    0    0 -0.40122836638E+01  0.23836185241E+03  0.12236426945E+03  0.26796545588E+03  0.00000000000E+00 0. -1.
          5    1    4    4  502    0  0.13699629716E+02 -0.14446269973E+03 -0.19331008021E+03  0.24176027089E+03  0.47000000000E+01 0.  1.
         -5    1    4    4    0  502  0.17553873795E+03 -0.19271359190E+03 -0.30610737424E+03  0.40208978051E+03  0.47000000000E+01 0.  1.
          1    1    1    2  503    0 -0.31137195541E+02  0.43016610336E+02 -0.20216003697E+04  0.20222977052E+04  0.00000000000E+00 0. -1.
         -4    1    1    2    0  501 -0.18771190807E+03 -0.25769738141E+03  0.64715507607E+03  0.72142455828E+03  0.00000000000E+00 0.  1.
<mgrwt>
<rscale>  0 0.10166751E+03</rscale>
<asrwt>0</asrwt>
<pdfrwt beam="2">  1        2 0.41796894E+00 0.53103236E+02</pdfrwt>
<pdfrwt beam="1">  1       -3 0.20557122E+00 0.19464505E+03</pdfrwt>
<totfact> 0.35320289E-01</totfact>
</mgrwt>
</event>
<event>
13    1  0.2038932E-008  0.1026733E+03  0.7546771E-02  0.1284511E+00
          2   -1    0    0  502    0  0.00000000000E+00  0.00000000000E+00  0.44868498714E+03  0.44868498714E+03  0.00000000000E+00 0. -1.
          2   -1    0    0  503    0 -0.00000000000E+00 -0.00000000000E+00 -0.13602466293E+04  0.13602466293E+04  0.00000000000E+00 0. -1.
         24    2    1    2    0    0 -0.42957424554E+02  0.97722016242E+02 -0.90771552886E+01  0.13452022127E+03  0.81353318301E+02 0.  0.
         25    2    1    2    0    0  0.33253223851E+02  0.35750922522E+02  0.38899588998E+02  0.13972213883E+03  0.12500077079E+03 0.  0.
         24    2    1    2    0    0 -0.18632648739E+01 -0.14478452463E+03 -0.36065906636E+02  0.16935143654E+03  0.80082014887E+02 0.  0.
        -11    1    3    3    0    0 -0.23824207811E+02  0.78336235134E+02 -0.41810817868E+02  0.91936407933E+02  0.00000000000E+00 0.  1.
         12    1    3    3    0    0 -0.19133216743E+02  0.19385781108E+02  0.32733662580E+02  0.42583813333E+02  0.00000000000E+00 0. -1.
        -13    1    5    5    0    0  0.23697862680E+02 -0.74705647451E+02 -0.50687718179E+02  0.93336848195E+02  0.00000000000E+00 0.  1.
         14    1    5    5    0    0 -0.25561127554E+02 -0.70078877180E+02  0.14621811544E+02  0.76014588347E+02  0.00000000000E+00 0. -1.
          5    1    4    4  501    0  0.64133700854E+02  0.61631075618E+02  0.94001896305E+01  0.89565476787E+02  0.47000000000E+01 0. -1.
         -5    1    4    4    0  501 -0.30880477002E+02 -0.25880153096E+02  0.29499399368E+02  0.50156662042E+02  0.47000000000E+01 0. -1.
          1    1    1    2  502    0 -0.91919356298E+02  0.17561640244E+02  0.21800423267E+03  0.23724127957E+03  0.00000000000E+00 0. -1.
          1    1    1    2  503    0  0.10348682187E+03 -0.62500543766E+01 -0.11233224019E+04  0.11280965402E+04  0.00000000000E+00 0. -1.
<mgrwt>
<rscale>  0 0.98022265E+02</rscale>
<asrwt>0</asrwt>
<pdfrwt beam="1">  1        2 0.65983086E-01 0.93581939E+02</pdfrwt>
<pdfrwt beam="2">  1        2 0.20003627E+00 0.10267328E+03</pdfrwt>
<totfact> 0.21766234E+02</totfact>
</mgrwt>
</event>
<event>
13    1  0.2038932E-008  0.2456127E+03  0.7546771E-02  0.1181859E+00
          2   -1    0    0  503    0  0.00000000000E+00  0.00000000000E+00  0.42786628051E+04  0.42786628051E+04  0.00000000000E+00 0. -1.
          2   -1    0    0  502    0 -0.00000000000E+00 -0.00000000000E+00 -0.22629685739E+04  0.22629685739E+04  0.00000000000E+00 0. -1.
         24    2    1    2    0    0 -0.30407729101E+02  0.11384069354E+02 -0.48707176246E+03  0.49479604288E+03  0.80808385969E+02 0.  0.
         25    2    1    2    0    0 -0.57969383847E+03  0.33444746164E+03  0.16534384939E+04  0.17881233246E+04  0.12500447940E+03 0.  0.
         24    2    1    2    0    0 -0.38515704909E+02  0.68951683172E+02  0.12159201238E+03  0.16655360870E+03  0.81961533406E+02 0.  0.
        -11    1    3    3    0    0  0.13861087055E+02 -0.15893810759E+02 -0.45227365069E+02  0.49902479957E+02  0.00000000000E+00 0.  1.
         12    1    3    3    0    0 -0.44268816156E+02  0.27277880112E+02 -0.44184439739E+03  0.44489356292E+03  0.00000000000E+00 0. -1.
        -13    1    5    5    0    0 -0.62898868538E+02  0.55400508709E+02  0.76217078419E+02  0.11328957177E+03  0.00000000000E+00 0.  1.
         14    1    5    5    0    0  0.24383163629E+02  0.13551174463E+02  0.45374933966E+02  0.53264036932E+02  0.00000000000E+00 0. -1.
          5    1    4    4  501    0 -0.27187860861E+03  0.14838222371E+03  0.92919065293E+03  0.97946547751E+03  0.47000000000E+01 0. -1.
         -5    1    4    4    0  501 -0.30781522986E+03  0.18606523793E+03  0.72424784099E+03  0.80865784710E+03  0.47000000000E+01 0. -1.
          1    1    1    2  502    0  0.65822420488E+03 -0.30271095084E+03 -0.16027856383E+04  0.17589243378E+04  0.00000000000E+00 0. -1.
          1    1    1    2  503    0 -0.96069323961E+01 -0.11207226333E+03  0.23305211256E+04  0.23332340651E+04  0.00000000000E+00 0. -1.
<mgrwt>
<rscale>  0 0.16620972E+03</rscale>
<asrwt>0</asrwt>
<pdfrwt beam="1">  1        2 0.62921512E+00 0.11247658E+03</pdfrwt>
<pdfrwt beam="2">  1        2 0.33278949E+00 0.24561266E+03</pdfrwt>
<totfact> 0.44234357E-01</totfact>
</mgrwt>
</event>
<event>
13    1  0.2038932E-008  0.1041172E+03  0.7546771E-02  0.1345777E+00
          2   -1    0    0  503    0  0.00000000000E+00  0.00000000000E+00  0.10154935675E+04  0.10154935675E+04  0.00000000000E+00 0. -1.
          2   -1    0    0  502    0 -0.00000000000E+00 -0.00000000000E+00 -0.18229383751E+03  0.18229383751E+03  0.00000000000E+00 0. -1.
         24    2    1    2    0    0 -0.21944982038E+02  0.26737354601E+02  0.35845212767E+01  0.88168984209E+02  0.81021309641E+02 0.  0.
         25    2    1    2    0    0 -0.16631549463E+03  0.54113485917E+02  0.43020730999E+03  0.48092954521E+03  0.12500313908E+03 0.  0.
         24    2    1    2    0    0  0.65329793757E+02  0.55964572234E+01 -0.31456042512E+02  0.10806396235E+03  0.79931439759E+02 0.  0.
        -11    1    3    3    0    0 -0.48837409572E+02  0.17119171561E+02 -0.15257231258E+02  0.53953143693E+02  0.00000000000E+00 0.  1.
         12    1    3    3    0    0  0.26892427534E+02  0.96181830403E+01  0.18841752535E+02  0.34215840517E+02  0.00000000000E+00 0. -1.
        -13    1    5    5    0    0 -0.12696017473E+01 -0.19500936956E+02 -0.31291430218E+02  0.36892438735E+02  0.00000000000E+00 0.  1.
         14    1    5    5    0    0  0.66599395504E+02  0.25097394179E+02 -0.16461229429E+00  0.71171523612E+02  0.00000000000E+00 0. -1.
          5    1    4    4  501    0 -0.17963127015E+03  0.59720687990E+02  0.42428581320E+03  0.46462296012E+03  0.47000000000E+01 0.  1.
         -5    1    4    4    0  501  0.13315775527E+02 -0.56072020728E+01  0.59214967837E+01  0.16306585084E+02  0.47000000000E+01 0.  1.
          1    1    1    2  502    0  0.52002327056E+02 -0.10973179576E+02 -0.20923305169E+02  0.57117750204E+02  0.00000000000E+00 0. -1.
          1    1    1    2  503    0  0.70928355851E+02 -0.75474118166E+02  0.45178724637E+03  0.46350716301E+03  0.00000000000E+00 0. -1.
<mgrwt>
<rscale>  0 0.74387946E+02</rscale>
<asrwt>0</asrwt>
<pdfrwt beam="1">  1        2 0.14933729E+00 0.10411723E+03</pdfrwt>
<pdfrwt beam="2">  1        2 0.26807918E-01 0.53147462E+02</pdfrwt>
<totfact> 0.84679381E+02</totfact>
</mgrwt>
</event>
<event>
13    1  0.2038932E-008  0.9338551E+02  0.7546771E-02  0.1348498E+00
          2   -1    0    0  503    0  0.00000000000E+00  0.00000000000E+00  0.22566336268E+04  0.22566336268E+04  0.00000000000E+00 0. -1.
          2   -1    0    0  502    0 -0.00000000000E+00 -0.00000000000E+00 -0.17220217432E+04  0.17220217432E+04  0.00000000000E+00 0. -1.
         24    2    1    2    0    0 -0.21172083607E+03  0.96139352152E+03 -0.71876055890E+03  0.12217648338E+04  0.83602347697E+02 0.  0.
         25    2    1    2    0    0  0.76741866263E+02 -0.54903930436E+03 -0.24871579407E+03  0.62033705624E+03  0.12500018144E+03 0.  0.
         24    2    1    2    0    0  0.65406647913E+02 -0.49666818801E+03  0.80500734615E+03  0.95191824420E+03  0.84582490601E+02 0.  0.
        -11    1    3    3    0    0 -0.14672701187E+02  0.76731798646E+02 -0.87234855585E+02  0.11710242146E+03  0.00000000000E+00 0.  1.
         12    1    3    3    0    0 -0.19704813488E+03  0.88466172287E+03 -0.63152570331E+03  0.11046624124E+04  0.00000000000E+00 0. -1.
        -13    1    5    5    0    0 -0.10835771238E+02 -0.24094940969E+03  0.37902937548E+03  0.44926306263E+03  0.00000000000E+00 0.  1.
         14    1    5    5    0    0  0.76242419150E+02 -0.25571877832E+03  0.42597797067E+03  0.50265518157E+03  0.00000000000E+00 0. -1.
          5    1    4    4  501    0  0.22974480868E+02 -0.98468824246E+01 -0.19110803255E+02  0.31813529601E+02  0.47000000000E+01 0. -1.
         -5    1    4    4    0  501  0.53767385395E+02 -0.53919242194E+03 -0.22960499081E+03  0.58852352664E+03  0.47000000000E+01 0. -1.
          1    1    1    2  502    0 -0.18989668278E+02  0.54686067141E+02 -0.23798146147E+03  0.24492110861E+03  0.00000000000E+00 0. -1.
          1    1    1    2  503    0  0.88561990169E+02  0.29627903714E+02  0.93506235188E+03  0.93971412711E+03  0.00000000000E+00 0. -1.
<mgrwt>
<rscale>  0 0.73525668E+02</rscale>
<asrwt>0</asrwt>
<pdfrwt beam="1">  1        2 0.33185789E+00 0.93385511E+02</pdfrwt>
<pdfrwt beam="2">  1        2 0.25323849E+00 0.57889321E+02</pdfrwt>
<totfact> 0.14177688E+01</totfact>
</mgrwt>
</event>
<event>
13    1  0.2038932E-008  0.1146026E+03  0.7546771E-02  0.1315560E+00
         -1   -1    0    0    0  501  0.00000000000E+00  0.00000000000E+00  0.68287513988E+03  0.68287513988E+03  0.00000000000E+00 0.  1.
         -3   -1    0    0    0  502 -0.00000000000E+00 -0.00000000000E+00 -0.11138304024E+04  0.11138304024E+04  0.00000000000E+00 0.  1.
         24    2    1    2    0    0 -0.86878466005E+02 -0.63552212516E+01 -0.15523077458E+03  0.19529036367E+03  0.80333530183E+02 0.  0.
         25    2    1    2    0    0 -0.63956326283E+02  0.32643307081E+02  0.18840482087E+03  0.23722461041E+03  0.12499256813E+03 0.  0.
         24    2    1    2    0    0  0.59758275386E+02 -0.42495557525E+02 -0.18611539089E+02  0.11166904747E+03  0.82138072098E+02 0.  0.
        -13    1    5    5    0    0  0.91085955307E+01  0.24065146924E+02 -0.99239799659E+01  0.27578672691E+02  0.00000000000E+00 0.  1.
         14    1    5    5    0    0  0.50649679855E+02 -0.66560704449E+02 -0.86875591235E+01  0.84090374774E+02  0.00000000000E+00 0. -1.
        -13    1    3    3    0    0 -0.63224070308E+02 -0.31406349602E+02 -0.55571423793E+02  0.89843335891E+02  0.00000000000E+00 0.  1.
         14    1    3    3    0    0 -0.23654395698E+02  0.25051128350E+02 -0.99659350787E+02  0.10544702778E+03  0.00000000000E+00 0. -1.
          5    1    4    4  503    0 -0.83292073779E+02  0.47718807392E+02  0.18923963452E+03  0.21224604450E+03  0.47000000000E+01 0.  1.
         -5    1    4    4    0  503  0.19335747496E+02 -0.15075500312E+02 -0.83481364926E+00  0.24978565905E+02  0.47000000000E+01 0.  1.
         -2    1    1    2    0  501 -0.13583548092E+02  0.61489396933E+02  0.39718096857E+03  0.40214199048E+03  0.00000000000E+00 0.  1.
         -4    1    1    2    0  502  0.10466006500E+03 -0.45281925237E+02 -0.84269873829E+03  0.85037953026E+03  0.00000000000E+00 0.  1.
<mgrwt>
<rscale>  0 0.84951408E+02</rscale>
<asrwt>0</asrwt>
<pdfrwt beam="1">  1       -1 0.10042282E+00 0.62971888E+02</pdfrwt>
<pdfrwt beam="2">  1       -3 0.16379859E+00 0.11460259E+03</pdfrwt>
<totfact> 0.13448624E+00</totfact>
</mgrwt>
</event>
<event>
13    1  0.2038932E-008  0.1693046E+03  0.7546771E-02  0.1321712E+00
          2   -1    0    0  503    0  0.00000000000E+00  0.00000000000E+00  0.17754480132E+04  0.17754480132E+04  0.00000000000E+00 0. -1.
          2   -1    0    0  502    0 -0.00000000000E+00 -0.00000000000E+00 -0.15462004069E+04  0.15462004069E+04  0.00000000000E+00 0. -1.
         24    2    1    2    0    0 -0.11209219627E+02  0.76984419767E+02 -0.80295209134E+02  0.13734866067E+03  0.79781492126E+02 0.  0.
         25    2    1    2    0    0 -0.58658903967E+02  0.12616550915E+03  0.89110167276E+02  0.20718290897E+03  0.12500213256E+03 0.  0.
         24    2    1    2    0    0  0.10906391191E+02 -0.78818765340E+00  0.57303985453E+03  0.57865151069E+03  0.79644995617E+02 0.  0.
        -13    1    5    5    0    0 -0.32819732026E+02 -0.11972325220E+02  0.27602251375E+03  0.27822454866E+03  0.00000000000E+00 0.  1.
         14    1    5    5    0    0  0.43726123217E+02  0.11184137566E+02  0.29701734078E+03  0.30042696202E+03  0.00000000000E+00 0. -1.
        -13    1    3    3    0    0 -0.44620274573E+02  0.45232486400E+02 -0.58486305124E+02  0.86357365730E+02  0.00000000000E+00 0.  1.
         14    1    3    3    0    0  0.33411054947E+02  0.31751933367E+02 -0.21808904010E+02  0.50991294937E+02  0.00000000000E+00 0. -1.
          5    1    4    4  501    0 -0.45741466033E+02  0.12269396695E+03  0.15177915304E+02  0.13190356460E+03  0.47000000000E+01 0. -1.
         -5    1    4    4    0  501 -0.12917437934E+02  0.34715422035E+01  0.73932251971E+02  0.75279344376E+02  0.47000000000E+01 0. -1.
          1    1    1    2  502    0  0.47700252029E+02 -0.16362417156E+03 -0.13698555099E+04  0.13804174375E+04  0.00000000000E+00 0. -1.
          1    1    1    2  503    0  0.11261480373E+02 -0.38737569703E+02  0.10172483036E+04  0.10180479023E+04  0.00000000000E+00 0. -1.
<mgrwt>
<rscale>  0 0.82643612E+02</rscale>
<asrwt>0</asrwt>
<pdfrwt beam="1">  1        2 0.26109530E+00 0.40341297E+02</pdfrwt>
<pdfrwt beam="2">  1        2 0.22738241E+00 0.16930459E+03</pdfrwt>
<totfact> 0.29159169E+01</totfact>
</mgrwt>
</event>
<event>
13    1  0.2038932E-008  0.1495747E+03  0.7546771E-02  0.1283654E+00
          2   -1    0    0  502    0  0.00000000000E+00  0.00000000000E+00  0.42452499006E+04  0.42452499006E+04  0.00000000000E+00 0. -1.
          2   -1    0    0  503    0 -0.00000000000E+00 -0.00000000000E+00 -0.14131039945E+03  0.14131039945E+03  0.00000000000E+00 0. -1.
         24    2    1    2    0    0 -0.18838536820E+03  0.10563279306E+03  0.98132084934E+02  0.25036822400E+03  0.80043785365E+02 0.  0.
         25    2    1    2    0    0  0.83110529715E+02  0.16663096966E+03  0.18308555129E+04  0.18445406233E+04  0.12499984677E+03 0.  0.
         24    2    1    2    0    0  0.15200012855E+03 -0.17428699234E+03  0.27257601454E+03  0.36638568920E+03  0.80379069218E+02 0.  0.
        -13    1    5    5    0    0  0.94172618869E+02 -0.53296536007E+02  0.14809433775E+03  0.18341465527E+03  0.00000000000E+00 0.  1.
         14    1    5    5    0    0  0.57827509683E+02 -0.12099045633E+03  0.12448167679E+03  0.18297103392E+03  0.00000000000E+00 0. -1.
        -13    1    3    3    0    0 -0.92493378481E+02  0.29055803031E+02  0.64096508593E+01  0.97161455201E+02  0.00000000000E+00 0.  1.
         14    1    3    3    0    0 -0.95891989717E+02  0.76576990031E+02  0.91722434075E+02  0.15320676880E+03  0.00000000000E+00 0. -1.
          5    1    4    4  501    0  0.68616375976E+02  0.43381902843E+02  0.11176111854E+04  0.11205655038E+04  0.47000000000E+01 0.  1.
         -5    1    4    4    0  501  0.14494153739E+02  0.12324906682E+03  0.71324432745E+03  0.72397511947E+03  0.47000000000E+01 0.  1.
          1    1    1    2  502    0 -0.11138340474E+03 -0.10161643524E+03  0.17837773469E+04  0.17901379238E+04  0.00000000000E+00 0. -1.
          1    1    1    2  503    0  0.64658114671E+02  0.36396648538E+01  0.11859854185E+03  0.13512783978E+03  0.00000000000E+00 0. -1.
<mgrwt>
<rscale>  0 0.98420146E+02</rscale>
<asrwt>0</asrwt>
<pdfrwt beam="1">  1        2 0.62430137E+00 0.14957465E+03</pdfrwt>
<pdfrwt beam="2">  1        2 0.20780944E-01 0.64760474E+02</pdfrwt>
<totfact> 0.17883771E+01</totfact>
</mgrwt>
</event>
<event>
13    1  0.2038932E-008  0.6329676E+02  0.7546771E-02  0.1402821E+00
          2   -1    0    0  502    0  0.00000000000E+00  0.00000000000E+00  0.12525311462E+04  0.12525311462E+04  0.00000000000E+00 0. -1.
          2   -1    0    0  503    0 -0.00000000000E+00 -0.00000000000E+00 -0.17280190191E+03  0.17280190191E+03  0.00000000000E+00 0. -1.
         24    2    1    2    0    0  0.24036465370E+02 -0.13685862639E+02  0.68699462194E+02  0.10878504786E+03  0.79683850491E+02 0.  0.
         25    2    1    2    0    0 -0.28695830063E+02  0.33970965868E+02  0.36016328283E+03  0.38382191320E+03  0.12499677423E+03 0.  0.
         24    2    1    2    0    0  0.31849012740E+02 -0.27953699410E+02  0.11303879865E+02  0.92813828744E+02  0.81797678347E+02 0.  0.
        -11    1    5    5    0    0  0.56613197123E+02 -0.22048202460E+02 -0.74266670107E+01  0.61207292891E+02  0.00000000000E+00 0.  1.
         12    1    5    5    0    0 -0.24764184383E+02 -0.59054969497E+01  0.18730546876E+02  0.31606535853E+02  0.00000000000E+00 0. -1.
        -11    1    3    3    0    0  0.12239229618E+02 -0.46609954616E+02  0.30687098154E+02  0.57131292687E+02  0.00000000000E+00 0.  1.
         12    1    3    3    0    0  0.11797235752E+02  0.32924091977E+02  0.38012364039E+02  0.51653755176E+02  0.00000000000E+00 0. -1.
          5    1    4    4  501    0 -0.72588540569E+02  0.57251374957E+01  0.14443345260E+03  0.16181775444E+03  0.47000000000E+01 0.  1.
         -5    1    4    4    0  501  0.43892710506E+02  0.28245828373E+02  0.21572983023E+03  0.22200415876E+03  0.47000000000E+01 0.  1.
          1    1    1    2  502    0 -0.47705437740E+02 -0.43009016255E+02  0.73076260649E+03  0.73357996927E+03  0.00000000000E+00 0. -1.
          1    1    1    2  503    0  0.20515789693E+02  0.50677612435E+02 -0.91199987137E+02  0.10633228899E+03  0.00000000000E+00 0. -1.
<mgrwt>
<rscale>  0 0.58826974E+02</rscale>
<asrwt>0</asrwt>
<pdfrwt beam="1">  1        2 0.18419575E+00 0.63296760E+02</pdfrwt>
<pdfrwt beam="2">  1        2 0.25412045E-01 0.54672827E+02</pdfrwt>
<totfact> 0.68801634E+02</totfact>
</mgrwt>
</event>
<event>
13    1  0.2038932E-008  0.1117733E+03  0.7546771E-02  0.1262497E+00
          2   -1    0    0  503    0  0.00000000000E+00  0.00000000000E+00  0.42077565500E+04  0.42077565500E+04  0.00000000000E+00 0. -1.
          2   -1    0    0  502    0 -0.00000000000E+00 -0.00000000000E+00 -0.17993233417E+04  0.17993233417E+04  0.00000000000E+00 0. -1.
         24    2    1    2    0    0 -0.13058252875E+03  0.11521865501E+03  0.15746910740E+03  0.24749385097E+03  0.78291450391E+02 0.  0.
         25    2    1    2    0    0  0.25410144967E+03 -0.11124099542E+03  0.15740776721E+04  0.16032117576E+04  0.12500126448E+03 0.  0.
         24    2    1    2    0    0 -0.60810759528E+02  0.21704988660E+02 -0.21753276942E+02  0.10405194681E+03  0.78641894493E+02 0.  0.
        -11    1    3    3    0    0 -0.12701102708E+03  0.10896311141E+03  0.11179052580E+03  0.20125079455E+03  0.00000000000E+00 0.  1.
         12    1    3    3    0    0 -0.35715016673E+01  0.62555436051E+01  0.45678581602E+02  0.46243056421E+02  0.00000000000E+00 0. -1.
        -11    1    5    5    0    0 -0.67737598582E+02  0.37126496804E+02 -0.95660377399E+00  0.77250722439E+02  0.00000000000E+00 0.  1.
         12    1    5    5    0    0  0.69268390542E+01 -0.15421508144E+02 -0.20796673168E+02  0.26801224367E+02  0.00000000000E+00 0. -1.
          5    1    4    4  501    0 -0.11103580133E+02  0.68502674261E+01  0.66871788464E+02  0.68294522093E+02  0.47000000000E+01 0. -1.
         -5    1    4    4    0  501  0.26520502981E+03 -0.11809126285E+03  0.15072058836E+04  0.15349172355E+04  0.47000000000E+01 0. -1.
          1    1    1    2  502    0 -0.14967994468E+02 -0.12054395217E+03 -0.16734519559E+04  0.16778546820E+04  0.00000000000E+00 0. -1.
          1    1    1    2  503    0 -0.47740166932E+02  0.94861303918E+02  0.23720916616E+04  0.23744676544E+04  0.00000000000E+00 0. -1.
<mgrwt>
<rscale>  0 0.10896583E+03</rscale>
<asrwt>0</asrwt>
<pdfrwt beam="1">  1        2 0.61878773E+00 0.10622891E+03</pdfrwt>
<pdfrwt beam="2">  1        2 0.26460637E+00 0.11177326E+03</pdfrwt>
<totfact> 0.92356679E-01</totfact>
</mgrwt>
</event>
<event>
13    1  0.2038932E-008  0.7115004E+02  0.7546771E-02  0.1463836E+00
          2   -1    0    0  502    0  0.00000000000E+00  0.00000000000E+00  0.53992078145E+03  0.53992078145E+03  0.00000000000E+00 0. -1.
          2   -1    0    0  503    0 -0.00000000000E+00 -0.00000000000E+00 -0.20349902105E+04  0.20349902105E+04  0.00000000000E+00 0. -1.
         24    2    1    2    0    0  0.15180486920E+02 -0.20122700527E+01 -0.32489089586E+03  0.33489972691E+03  0.79807496244E+02 0.  0.
         25    2    1    2    0    0  0.83391473813E+02 -0.75789205104E+02  0.11374593034E+03  0.20307001946E+03  0.12490458206E+03 0.  0.
         24    2    1    2    0    0 -0.91111014675E+02  0.12290174866E+03 -0.26769576970E+03  0.31886569450E+03  0.81291138503E+02 0.  0.
        -11    1    3    3    0    0 -0.28450911993E+02  0.58638105537E+01 -0.20548683537E+03  0.20752994525E+03  0.00000000000E+00 0.  1.
         12    1    3    3    0    0  0.43631398913E+02 -0.78760806065E+01 -0.11940406050E+03  0.12736978166E+03  0.00000000000E+00 0. -1.
        -13    1    5    5    0    0 -0.52980906340E+02  0.12422169371E+03 -0.21170933940E+03  0.25111521263E+03  0.00000000000E+00 0.  1.
         14    1    5    5    0    0 -0.38130108335E+02 -0.13199450544E+01 -0.55986430304E+02  0.67750481879E+02  0.00000000000E+00 0. -1.
          5    1    4    4  501    0  0.86252095066E+02 -0.44036687267E+02  0.13370818026E+03  0.16516240855E+03  0.47000000000E+01 0.  1.
         -5    1    4    4    0  501 -0.28606212531E+01 -0.31752517837E+02 -0.19962249921E+02  0.37907610909E+02  0.47000000000E+01 0.  1.
          1    1    1    2  502    0  0.24330302670E+02  0.18703155985E+02  0.34932104131E+03  0.35066645345E+03  0.00000000000E+00 0. -1.
          1    1    1    2  503    0 -0.31791248728E+02 -0.63803429485E+02 -0.13655497352E+04  0.13674090977E+04  0.00000000000E+00 0. -1.
<mgrwt>
<rscale>  0 0.46727656E+02</rscale>
<asrwt>0</asrwt>
<pdfrwt beam="1">  1        2 0.79400115E-01 0.30688299E+02</pdfrwt>
<pdfrwt beam="2">  1        2 0.29926327E+00 0.71150044E+02</pdfrwt>
<totfact> 0.88170031E+01</totfact>
</mgrwt>
</event>
<event>
13    1  0.2038932E-008  0.4302948E+02  0.7546771E-02  0.1581631E+00
          2   -1    0    0  503    0  0.00000000000E+00  0.00000000000E+00  0.11391245770E+04  0.11391245770E+04  0.00000000000E+00 0. -1.
          2   -1    0    0  502    0 -0.00000000000E+00 -0.00000000000E+00 -0.16607101591E+04  0.16607101591E+04  0.00000000000E+00 0. -1.
         24    2    1    2    0    0 -0.19236543501E+02 -0.15183990826E+03 -0.95601589396E+03  0.97150608754E+03  0.80201535414E+02 0.  0.
         25    2    1    2    0    0 -0.63130895773E+02  0.23234416342E+03  0.80769752917E+03  0.85203848192E+03  0.12499982307E+03 0.  0.
         24    2    1    2    0    0  0.88944526865E+02 -0.20765969388E+02  0.16875760216E+03  0.20804826042E+03  0.80390273261E+02 0.  0.
        -11    1    3    3    0    0 -0.46051574139E+02 -0.83948689059E+02 -0.43585995461E+03  0.44625332482E+03  0.00000000000E+00 0.  1.
         12    1    3    3    0    0  0.26815030638E+02 -0.67891219197E+02 -0.52015593934E+03  0.52525276272E+03  0.00000000000E+00 0. -1.
        -13    1    5    5    0    0  0.15036671822E+02  0.59703289195E+01  0.10666488021E+03  0.10788485990E+03  0.00000000000E+00 0.  1.
         14    1    5    5    0    0  0.73907855044E+02 -0.26736298308E+02  0.62092721952E+02  0.10016340052E+03  0.00000000000E+00 0. -1.
          5    1    4    4  501    0  0.35472574509E+02  0.83748732829E+02  0.32127972445E+03  0.33393847507E+03  0.47000000000E+01 0. -1.
         -5    1    4    4    0  501 -0.98603470282E+02  0.14859543059E+03  0.48641780473E+03  0.51810000685E+03  0.47000000000E+01 0. -1.
          1    1    1    2  502    0 -0.17440321163E+02 -0.39325896503E+02 -0.65323663791E+03  0.65465166008E+03  0.00000000000E+00 0. -1.
          1    1    1    2  503    0  0.10863233571E+02 -0.20412389272E+02  0.11121181843E+03  0.11359024623E+03  0.00000000000E+00 0. -1.
<mgrwt>
<rscale>  0 0.31543191E+02</rscale>
<asrwt>0</asrwt>
<pdfrwt beam="1">  1        2 0.16751832E+00 0.23123051E+02</pdfrwt>
<pdfrwt beam="2">  1        2 0.24422208E+00 0.43029483E+02</pdfrwt>
<totfact> 0.60154019E+01</totfact>
</mgrwt>
</event>
<event>
13    1  0.2038932E-008  0.7061756E+02  0.7546771E-02  0.1361446E+00
          2   -1    0    0  503    0  0.00000000000E+00  0.00000000000E+00  0.22214611544E+04  0.22214611544E+04  0.00000000000E+00 0. -1.
          2   -1    0    0  502    0 -0.00000000000E+00 -0.00000000000E+00 -0.15366832946E+04  0.15366832946E+04  0.00000000000E+00 0. -1.
         24    2    1    2    0    0  0.73495695911E+02 -0.12795301428E+03 -0.64606576414E+03  0.66723624265E+03  0.77650761295E+02 0.  0.
         25    2    1    2    0    0 -0.16445932963E+02  0.34034825629E+03  0.40699758254E+03  0.54532624839E+03  0.12500512276E+03 0.  0.
         24    2    1    2    0    0 -0.72768219908E+02 -0.93010898882E+02 -0.28022238309E+02  0.14218515350E+03  0.74061669549E+02 0.  0.
        -11    1    3    3    0    0  0.84780141657E-01  0.96161870461E+01 -0.22482859711E+02  0.24453163839E+02  0.00000000000E+00 0.  1.
         12    1    3    3    0    0  0.73410915769E+02 -0.13756920133E+03 -0.62358290443E+03  0.64278307881E+03  0.00000000000E+00 0. -1.
        -11    1    5    5    0    0  0.51567430592E+01  0.89208664542E+01 -0.62322256089E+01  0.12042196366E+02  0.00000000000E+00 0.  1.
         12    1    5    5    0    0 -0.77924962967E+02 -0.10193176534E+03 -0.21790012700E+02  0.13014295713E+03  0.00000000000E+00 0. -1.
          5    1    4    4  501    0 -0.54319236992E+02  0.26122363095E+03  0.35186982418E+03  0.44161389023E+03  0.47000000000E+01 0.  1.
         -5    1    4    4    0  501  0.37873304029E+02  0.79124625346E+02  0.55127758364E+02  0.10371235817E+03  0.47000000000E+01 0.  1.
          1    1    1    2  502    0  0.42314509933E+02 -0.54000238237E+02 -0.72339816502E+03  0.72664396277E+03  0.00000000000E+00 0. -1.
          1    1    1    2  503    0 -0.26596052973E+02 -0.65384104891E+02  0.16752664447E+04  0.16767528416E+04  0.00000000000E+00 0. -1.
<mgrwt>
<rscale>  0 0.69603628E+02</rscale>
<asrwt>0</asrwt>
<pdfrwt beam="1">  1        2 0.32668547E+00 0.70617562E+02</pdfrwt>
<pdfrwt beam="2">  1        2 0.22598284E+00 0.68604253E+02</pdfrwt>
<totfact> 0.18400549E+01</totfact>
</mgrwt>
</event>
<event>
13    1  0.2038932E-008  0.1499775E+03  0.7546771E-02  0.1281345E+00
          2   -1    0    0  503    0  0.00000000000E+00  0.00000000000E+00  0.23854679922E+04  0.23854679922E+04  0.00000000000E+00 0. -1.
          2   -1    0    0  502    0 -0.00000000000E+00 -0.00000000000E+00 -0.22473747750E+04  0.22473747750E+04  0.00000000000E+00 0. -1.
         24    2    1    2    0    0 -0.17397152861E+03  0.84084633977E+02 -0.15708445621E+04  0.15852352928E+04  0.89899814914E+02 0.  0.
         25    2    1    2    0    0  0.51908620107E+02  0.13687272791E+03  0.61811434028E+03  0.64739319938E+03  0.12499587376E+03 0.  0.
         24    2    1    2    0    0  0.61069545444E+02 -0.14015024283E+03 -0.20632504704E+03  0.26889328843E+03  0.79762118707E+02 0.  0.
        -11    1    3    3    0    0 -0.79919856381E+02  0.87817701632E+02 -0.91416737615E+03  0.92184658365E+03  0.00000000000E+00 0.  1.
         12    1    3    3    0    0 -0.94051672227E+02 -0.37330676555E+01 -0.65667718596E+03  0.66338870913E+03  0.00000000000E+00 0. -1.
        -13    1    5    5    0    0  0.58693632491E+02 -0.39034737763E+02 -0.97654995971E+02  0.12043733427E+03  0.00000000000E+00 0.  1.
         14    1    5    5    0    0  0.23759129532E+01 -0.10111550506E+03 -0.10867005107E+03  0.14845595416E+03  0.00000000000E+00 0. -1.
          5    1    4    4  501    0  0.55373462244E+02  0.85090788403E+00  0.20638610696E+03  0.21373876465E+03  0.47000000000E+01 0. -1.
         -5    1    4    4    0  501 -0.34648421364E+01  0.13602182003E+03  0.41172823331E+03  0.43365443473E+03  0.47000000000E+01 0. -1.
          1    1    1    2  502    0  0.43914922726E+02 -0.14457498729E+03 -0.40274002413E+03  0.43015110650E+03  0.00000000000E+00 0. -1.
          1    1    1    2  503    0  0.17078440330E+02  0.63767868224E+02  0.16998885102E+04  0.17011698802E+04  0.00000000000E+00 0. -1.
<mgrwt>
<rscale>  0 0.99502785E+02</rscale>
<asrwt>0</asrwt>
<pdfrwt beam="1">  1        2 0.35080412E+00 0.66015257E+02</pdfrwt>
<pdfrwt beam="2">  1        2 0.33049629E+00 0.14997752E+03</pdfrwt>
<totfact> 0.64943063E+00</totfact>
</mgrwt>
</event>
<event>
13    1  0.2038932E-008  0.8009126E+02  0.7546771E-02  0.1474187E+00
          4   -1    0    0  503    0 -0.00000000000E+00  0.00000000000E+00  0.19459478066E+04  0.19459478066E+04  0.00000000000E+00 0. -1.
          2   -1    0    0  502    0  0.00000000000E+00 -0.00000000000E+00 -0.25017345071E+04  0.25017345071E+04  0.00000000000E+00 0. -1.
         24    2    1    2    0    0  0.16149379343E+03 -0.27910223319E+02  0.86885803757E+03  0.88796328994E+03  0.81885828780E+02 0.  0.
         25    2    1    2    0    0 -0.23329598544E+03  0.12227760741E+03 -0.28048215998E+03  0.40456674341E+03  0.12500071083E+03 0.  0.
         24    2    1    2    0    0 -0.25610582233E+02 -0.10934778702E+03  0.19268696723E+03  0.23717736305E+03  0.80696925330E+02 0.  0.
        -11    1    3    3    0    0  0.13439916701E+03 -0.54350788922E+02  0.71095134797E+03  0.72558181036E+03  0.00000000000E+00 0.  1.
         12    1    3    3    0    0  0.27094626421E+02  0.26440565603E+02  0.15790668960E+03  0.16238147958E+03  0.00000000000E+00 0. -1.
        -13    1    5    5    0    0 -0.28702904332E+02 -0.42950710906E+01  0.69084285900E+02  0.74932922745E+02  0.00000000000E+00 0.  1.
         14    1    5    5    0    0  0.30923220992E+01 -0.10505271593E+03  0.12360268133E+03  0.16224444031E+03  0.00000000000E+00 0. -1.
          5    1    4    4  501    0 -0.36126077749E+02  0.29590602459E+02 -0.13402450941E+03  0.14200477588E+03  0.47000000000E+01 0.  1.
         -5    1    4    4    0  501 -0.19716990769E+03  0.92687004947E+02 -0.14645765057E+03  0.26256196753E+03  0.47000000000E+01 0.  1.
          1    1    1    2  502    0  0.75290620638E+02  0.27279992448E+02 -0.21264557664E+04  0.21279631111E+04  0.00000000000E+00 0. -1.
          3    1    1    2  503    0  0.22122153608E+02 -0.12299589515E+02  0.78960622109E+03  0.79001180622E+03  0.00000000000E+00 0. -1.
<mgrwt>
<rscale>  0 0.45024727E+02</rscale>
<asrwt>0</asrwt>
<pdfrwt beam="2">  1        2 0.36790213E+00 0.80091260E+02</pdfrwt>
<pdfrwt beam="1">  1        4 0.28616880E+00 0.25311452E+02</pdfrwt>
<totfact> 0.14167356E-01</totfact>
</mgrwt>
</event>
<event>
13    1  0.2038932E-008  0.1695137E+03  0.7546771E-02  0.1304812E+00
          2   -1    0    0  503    0  0.00000000000E+00  0.00000000000E+00  0.10852076791E+04  0.10852076791E+04  0.00000000000E+00 0. -1.
          2   -1    0    0  502    0 -0.00000000000E+00 -0.00000000000E+00 -0.85508584279E+03  0.85508584279E+03  0.00000000000E+00 0. -1.
         24    2    1    2    0    0 -0.21871325970E+03  0.76045632566E+01 -0.41572302293E+03  0.47703291992E+03  0.82713091720E+02 0.  0.
         25    2    1    2    0    0 -0.59585252469E+02 -0.88298832732E+02  0.34735415877E+03  0.38422296032E+03  0.12500114177E+03 0.  0.
         24    2    1    2    0    0 -0.58139576582E+02  0.49260113013E+02 -0.99969089792E+02  0.14900274316E+03  0.80007683732E+02 0.  0.
        -11    1    5    5    0    0 -0.34588357309E+02 -0.17630848732E+02 -0.43863721081E+02  0.58576678938E+02  0.00000000000E+00 0.  1.
         12    1    5    5    0    0 -0.23551219273E+02  0.66890961745E+02 -0.56105368711E+02  0.90426064222E+02  0.00000000000E+00 0. -1.
        -11    1    3    3    0    0 -0.13546515268E+03 -0.34687356721E+02 -0.23037920225E+03  0.26949693345E+03  0.00000000000E+00 0.  1.
         12    1    3    3    0    0 -0.83248107022E+02  0.42291919977E+02 -0.18534382068E+03  0.20753598648E+03  0.00000000000E+00 0. -1.
          5    1    4    4  501    0  0.27710685750E+01 -0.62399505882E+02  0.52589022676E+02  0.81786749913E+02  0.47000000000E+01 0.  1.
         -5    1    4    4    0  501 -0.62356321044E+02 -0.25899326850E+02  0.29476513610E+03  0.30243621040E+03  0.47000000000E+01 0.  1.
          1    1    1    2  502    0  0.29884336892E+03  0.59529311526E+02 -0.17718173582E+03  0.35248328412E+03  0.00000000000E+00 0. -1.
          1    1    1    2  503    0  0.37594719828E+02 -0.28095155064E+02  0.57564152608E+03  0.57755161436E+03  0.00000000000E+00 0. -1.
<mgrwt>
<rscale>  0 0.89195168E+02</rscale>
<asrwt>0</asrwt>
<pdfrwt beam="1">  1        2 0.15958936E+00 0.46932938E+02</pdfrwt>
<pdfrwt beam="2">  1        2 0.12574792E+00 0.16951374E+03</pdfrwt>
<totfact> 0.15003387E+02</totfact>
</mgrwt>
</event>
<event>
13    1  0.2038932E-008  0.5051156E+03  0.7546771E-02  0.1168233E+00
          2   -1    0    0  502    0  0.00000000000E+00  0.00000000000E+00  0.22432747073E+04  0.22432747073E+04  0.00000000000E+00 0. -1.
          2   -1    0    0  503    0 -0.00000000000E+00 -0.00000000000E+00 -0.50974488305E+03  0.50974488305E+03  0.00000000000E+00 0. -1.
         24    2    1    2    0    0 -0.24226156498E+02  0.32003713896E+02  0.12576634056E+03  0.15423688513E+03  0.79753996470E+02 0.  0.
         25    2    1    2    0    0 -0.12504964183E+03 -0.48244618406E+03  0.16064438946E+04  0.16866176731E+04  0.12500181985E+03 0.  0.
         24    2    1    2    0    0  0.17759135953E+02 -0.51863532338E+02  0.18982557475E+03  0.21339254325E+03  0.80606549299E+02 0.  0.
        -11    1    3    3    0    0  0.59075697861E+01  0.47259433138E+02  0.40479211840E+02  0.62505359710E+02  0.00000000000E+00 0.  1.
         12    1    3    3    0    0 -0.30133726284E+02 -0.15255719242E+02  0.85287128723E+02  0.91731525416E+02  0.00000000000E+00 0. -1.
        -13    1    5    5    0    0  0.45545628490E+02 -0.51914050662E+02  0.14584091800E+03  0.16136618696E+03  0.00000000000E+00 0.  1.
         14    1    5    5    0    0 -0.27786492537E+02  0.50518323598E-01  0.43984656744E+02  0.52026356287E+02  0.00000000000E+00 0. -1.
          5    1    4    4  501    0 -0.26233690445E+02 -0.31446389701E+03  0.10831767685E+04  0.11282152946E+04  0.47000000000E+01 0.  1.
         -5    1    4    4    0  501 -0.98815951383E+02 -0.16798228705E+03  0.52326712613E+03  0.55840237849E+03  0.47000000000E+01 0.  1.
          1    1    1    2  502    0  0.63822207147E+02  0.84444851206E+00  0.98246747985E+02  0.11715976574E+03  0.00000000000E+00 0. -1.
          1    1    1    2  503    0  0.67694455226E+02  0.50146155399E+03 -0.28675273374E+03  0.58161272313E+03  0.00000000000E+00 0. -1.
<mgrwt>
<rscale>  0 0.17955616E+03</rscale>
<asrwt>0</asrwt>
<pdfrwt beam="1">  1        2 0.32989334E+00 0.63827793E+02</pdfrwt>
<pdfrwt beam="2">  1        2 0.74962483E-01 0.50511560E+03</pdfrwt>
<totfact> 0.72740139E+01</totfact>
</mgrwt>
</event>
<event>
13    1  0.2038932E-008  0.7805754E+02  0.7546771E-02  0.1404884E+00
          2   -1    0    0  503    0  0.00000000000E+00  0.00000000000E+00  0.21457021069E+04  0.21457021069E+04  0.00000000000E+00 0. -1.
          2   -1    0    0  502    0 -0.00000000000E+00 -0.00000000000E+00 -0.15649144156E+04  0.15649144156E+04  0.00000000000E+00 0. -1.
         24    2    1    2    0    0 -0.32080510717E+03 -0.41641467676E+02  0.61142382654E+03  0.69757577565E+03  0.90127345967E+02 0.  0.
         25    2    1    2    0    0  0.22336187886E+03 -0.16592457550E+03  0.21549960697E+02  0.30579446392E+03  0.12499743866E+03 0.  0.
         24    2    1    2    0    0  0.62698986270E+02  0.21167083942E+03 -0.77052826702E+02  0.25766141987E+03  0.10824306929E+03 0.  0.
        -11    1    5    5    0    0  0.92255096315E+02  0.15512512828E+03 -0.69532332971E+02  0.19341549459E+03  0.00000000000E+00 0.  1.
         12    1    5    5    0    0 -0.29556110044E+02  0.56545711141E+02 -0.75204937318E+01  0.64245925282E+02  0.00000000000E+00 0. -1.
        -13    1    3    3    0    0 -0.63958980538E+02  0.39617489626E+01  0.20370465202E+03  0.21354632261E+03  0.00000000000E+00 0.  1.
         14    1    3    3    0    0 -0.25684612663E+03 -0.45603216639E+02  0.40771917452E+03  0.48402945303E+03  0.00000000000E+00 0. -1.
          5    1    4    4  501    0  0.71618403965E+02 -0.57954291785E+02 -0.51544421836E+02  0.10567314297E+03  0.47000000000E+01 0.  1.
         -5    1    4    4    0  501  0.15174347490E+03 -0.10797028372E+03  0.73094382533E+02  0.20012132095E+03  0.47000000000E+01 0.  1.
          1    1    1    2  502    0  0.75837881609E+02 -0.18734293446E+02 -0.12107154397E+04  0.12132329677E+04  0.00000000000E+00 0. -1.
          1    1    1    2  503    0 -0.41093639575E+02  0.14629497210E+02  0.12355821704E+04  0.12363518954E+04  0.00000000000E+00 0. -1.
<mgrwt>
<rscale>  0 0.58351300E+02</rscale>
<asrwt>0</asrwt>
<pdfrwt beam="1">  1        2 0.31554443E+00 0.43620057E+02</pdfrwt>
<pdfrwt beam="2">  1        2 0.23013447E+00 0.78057537E+02</pdfrwt>
<totfact> 0.20307319E+01</totfact>
</mgrwt>
</event>
<event>
13    1  0.2038932E-008  0.1085255E+03  0.7546771E-02  0.1273597E+00
          2   -1    0    0  503    0  0.00000000000E+00  0.00000000000E+00  0.54037273959E+03  0.54037273959E+03  0.00000000000E+00 0. -1.
          2   -1    0    0  502    0 -0.00000000000E+00 -0.00000000000E+00 -0.97496596230E+03  0.97496596230E+03  0.00000000000E+00 0. -1.
         24    2    1    2    0    0  0.77317772264E+02  0.10405918435E+03 -0.37970633301E+02  0.15554815478E+03  0.77117492877E+02 0.  0.
         25    2    1    2    0    0  0.25653579143E+03 -0.70636189153E+02  0.89760344817E+02  0.30737921137E+03  0.12499990630E+03 0.  0.
         24    2    1    2    0    0 -0.13992851552E+03 -0.33981103823E+02  0.63891896409E+02  0.17663774307E+03  0.79900018623E+02 0.  0.
        -11    1    5    5    0    0 -0.10746687410E+03 -0.50900275753E+02  0.72181324694E+02  0.13910467546E+03  0.00000000000E+00 0.  1.
         12    1    5    5    0    0 -0.32461641428E+02  0.16919171930E+02 -0.82894282849E+01  0.37533067611E+02  0.00000000000E+00 0. -1.
        -13    1    3    3    0    0  0.20417001802E+02  0.89046756045E+02 -0.30033136529E+02  0.96167395797E+02  0.00000000000E+00 0.  1.
         14    1    3    3    0    0  0.56900770462E+02  0.15012428306E+02 -0.79374967725E+01  0.59380758986E+02  0.00000000000E+00 0. -1.
          5    1    4    4  501    0  0.22206831977E+03 -0.11330157300E+02  0.86214458357E+02  0.23853245888E+03  0.47000000000E+01 0.  1.
         -5    1    4    4    0  501  0.34467471655E+02 -0.59306031853E+02  0.35458864602E+01  0.68846752481E+02  0.47000000000E+01 0.  1.
          1    1    1    2  502    0 -0.10208369247E+03 -0.34315013846E+02 -0.69365553544E+03  0.70196624013E+03  0.00000000000E+00 0. -1.
          1    1    1    2  503    0 -0.91841355702E+02  0.34873122471E+02  0.14338070480E+03  0.17380735254E+03  0.00000000000E+00 0. -1.
<mgrwt>
<rscale>  0 0.10325441E+03</rscale>
<asrwt>0</asrwt>
<pdfrwt beam="1">  1        2 0.79466580E-01 0.98239347E+02</pdfrwt>
<pdfrwt beam="2">  1        2 0.14337735E+00 0.10852550E+03</pdfrwt>
<totfact> 0.28688540E+02</totfact>
</mgrwt>
</event>
<event>
13    1  0.2038932E-008  0.7918002E+02  0.7546771E-02  0.1455769E+00
          2   -1    0    0  503    0  0.00000000000E+00  0.00000000000E+00  0.53286517235E+03  0.53286517235E+03  0.00000000000E+00 0. -1.
          2   -1    0    0  502    0 -0.00000000000E+00 -0.00000000000E+00 -0.27689210668E+04  0.27689210668E+04  0.00000000000E+00 0. -1.
         24    2    1    2    0    0  0.40137737620E+03 -0.43011953591E+03 -0.11444486261E+04  0.12910447030E+04  0.10453302796E+03 0.  0.
         25    2    1    2    0    0 -0.41353698235E+03  0.22212878753E+03  0.11172592493E+03  0.49845994672E+03  0.12500240865E+03 0.  0.
         24    2    1    2    0    0  0.79500560663E+02  0.17028003607E+03 -0.10679492017E+03  0.23061592186E+03  0.80392279554E+02 0.  0.
        -13    1    5    5    0    0  0.96092944001E+02  0.14931782578E+03 -0.90375389989E+02  0.19924200887E+03  0.00000000000E+00 0.  1.
         14    1    5    5    0    0 -0.16592383338E+02  0.20962210291E+02 -0.16419530184E+02  0.31373912994E+02  0.00000000000E+00 0. -1.
        -13    1    3    3    0    0  0.37521030955E+03 -0.35554345786E+03 -0.95851488556E+03  0.10890108873E+04  0.00000000000E+00 0.  1.
         14    1    3    3    0    0  0.26167066657E+02 -0.74576078048E+02 -0.18593374058E+03  0.20203381569E+03  0.00000000000E+00 0. -1.
          5    1    4    4  501    0 -0.36829753381E+02  0.67515035442E+02  0.36684728253E+01  0.77137918288E+02  0.47000000000E+01 0.  1.
         -5    1    4    4    0  501 -0.37670722897E+03  0.15461375209E+03  0.10805745210E+03  0.42132202844E+03  0.47000000000E+01 0.  1.
          1    1    1    2  502    0 -0.17183878926E+02 -0.23658737171E+02 -0.11719195706E+04  0.11722843092E+04  0.00000000000E+00 0. -1.
          1    1    1    2  503    0 -0.50157075594E+02  0.61369449486E+02  0.75381297510E+02  0.10938135845E+03  0.00000000000E+00 0. -1.
<mgrwt>
<rscale>  0 0.48117390E+02</rscale>
<asrwt>0</asrwt>
<pdfrwt beam="1">  1        2 0.78362525E-01 0.79180018E+02</pdfrwt>
<pdfrwt beam="2">  1        2 0.40719428E+00 0.29240751E+02</pdfrwt>
<totfact> 0.44695372E+01</totfact>
</mgrwt>
</event>
<event>
13    1  0.2038932E-008  0.2029156E+03  0.7546771E-02  0.1292338E+00
          2   -1    0    0  503    0  0.00000000000E+00  0.00000000000E+00  0.24995022751E+04  0.24995022751E+04  0.00000000000E+00 0. -1.
          2   -1    0    0  502    0 -0.00000000000E+00 -0.00000000000E+00 -0.80406646258E+03  0.80406646258E+03  0.00000000000E+00 0. -1.
         24    2    1    2    0    0  0.40790133989E+02 -0.19893579538E+02 -0.35776721463E+02  0.98562066441E+02  0.79843081133E+02 0.  0.
         25    2    1    2    0    0  0.25552919097E+03 -0.66436298550E+02  0.18619164155E+03  0.34640957013E+03  0.12499325460E+03 0.  0.
         24    2    1    2    0    0 -0.97714235851E+02  0.19724569461E+03  0.27900943052E+03  0.36308678218E+03  0.74376159784E+02 0.  0.
        -11    1    3    3    0    0 -0.81228843385E+01 -0.32511610463E+01  0.20425047689E+02  0.22220123114E+02  0.00000000000E+00 0.  1.
         12    1    3    3    0    0  0.48913018327E+02 -0.16642418492E+02 -0.56201769152E+02  0.76341943327E+02  0.00000000000E+00 0. -1.
        -11    1    5    5    0    0 -0.10052576459E+03  0.14853612221E+03  0.24491047831E+03  0.30356144573E+03  0.00000000000E+00 0.  1.
         12    1    5    5    0    0  0.28115287351E+01  0.48709572409E+02  0.34098952201E+02  0.59525336449E+02  0.00000000000E+00 0. -1.
          5    1    4    4  501    0  0.25240070886E+03 -0.29649430816E+02  0.15393438715E+03  0.29715836203E+03  0.47000000000E+01 0.  1.
         -5    1    4    4    0  501  0.31284821119E+01 -0.36786867734E+02  0.32257254397E+02  0.49251208099E+02  0.47000000000E+01 0.  1.
          1    1    1    2  502    0 -0.67408686643E+01 -0.43477311109E+02 -0.60845504958E+03  0.61004365684E+03  0.00000000000E+00 0. -1.
          1    1    1    2  503    0 -0.19186422044E+03 -0.67438505418E+02  0.18744665115E+04  0.18854666621E+04  0.00000000000E+00 0. -1.
<mgrwt>
<rscale>  0 0.94486149E+02</rscale>
<asrwt>0</asrwt>
<pdfrwt beam="1">  1        2 0.36757386E+00 0.20291563E+03</pdfrwt>
<pdfrwt beam="2">  1        2 0.11824507E+00 0.43996771E+02</pdfrwt>
<totfact> 0.29711279E+01</totfact>
</mgrwt>
</event>
<event>
13    1  0.2038932E-008  0.7916298E+02  0.7546771E-02  0.1342441E+00
          2   -1    0    0  503    0  0.00000000000E+00  0.00000000000E+00  0.15663900399E+04  0.15663900399E+04  0.00000000000E+00 0. -1.
          2   -1    0    0  502    0 -0.00000000000E+00 -0.00000000000E+00 -0.18436876168E+04  0.18436876168E+04  0.00000000000E+00 0. -1.
         24    2    1    2    0    0  0.14423645588E+02 -0.10123050615E+03  0.10184730579E+02  0.11763198067E+03  0.57252923168E+02 0.  0.
         25    2    1    2    0    0 -0.19252427795E+03 -0.39960222389E+01  0.43303121066E+02  0.23362287743E+03  0.12499169081E+03 0.  0.
         24    2    1    2    0    0  0.25988900431E+03  0.94980441018E+02 -0.13105218677E+03  0.31658436725E+03  0.80544442348E+02 0.  0.
        -13    1    5    5    0    0  0.14475895874E+03  0.84367108954E+02 -0.48200446027E+02  0.17434519840E+03  0.00000000000E+00 0.  1.
         14    1    5    5    0    0  0.11513004557E+03  0.10613332064E+02 -0.82851740745E+02  0.14223916885E+03  0.00000000000E+00 0. -1.
        -13    1    3    3    0    0  0.33174094273E+02 -0.82628723756E+02 -0.75792903240E+00  0.89042691877E+02  0.00000000000E+00 0.  1.
         14    1    3    3    0    0 -0.18750448685E+02 -0.18601782393E+02  0.10942659612E+02  0.28589288789E+02  0.00000000000E+00 0. -1.
          5    1    4    4  501    0 -0.72424385450E+02 -0.46668513773E+02  0.59850812545E+02  0.10501167339E+03  0.47000000000E+01 0. -1.
         -5    1    4    4    0  501 -0.12009989250E+03  0.42672491534E+02 -0.16547691479E+02  0.12861120404E+03  0.47000000000E+01 0. -1.
          1    1    1    2  502    0 -0.42077362906E+02 -0.58348168580E+02 -0.14688693038E+04  0.14706298123E+04  0.00000000000E+00 0. -1.
          1    1    1    2  503    0 -0.39711009037E+02  0.68594255951E+02  0.12691360620E+04  0.12716086191E+04  0.00000000000E+00 0. -1.
<mgrwt>
<rscale>  0 0.75463844E+02</rscale>
<asrwt>0</asrwt>
<pdfrwt beam="1">  1        2 0.23035148E+00 0.79162977E+02</pdfrwt>
<pdfrwt beam="2">  1        2 0.27113053E+00 0.71937565E+02</pdfrwt>
<totfact> 0.26528566E+01</totfact>
</mgrwt>
</event>
<event>
13    1  0.2038932E-008  0.2184898E+03  0.7546771E-02  0.1256684E+00
         -1   -1    0    0    0  501 -0.00000000000E+00  0.00000000000E+00  0.56561248140E+03  0.56561248140E+03  0.00000000000E+00 0.  1.
          2   -1    0    0  503    0  0.00000000000E+00 -0.00000000000E+00 -0.28247964671E+04  0.28247964671E+04  0.00000000000E+00 0. -1.
         24    2    1    2    0    0 -0.15032286599E+02  0.16879225896E+02 -0.47289164507E+02  0.97334616679E+02  0.82017587243E+02 0.  0.
         25    2    1    2    0    0  0.68560834206E+02  0.24600739624E+03  0.21607332541E+03  0.35711734430E+03  0.12499955461E+03 0.  0.
         24    2    1    2    0    0  0.13535578849E+02 -0.94867133112E+02 -0.13187648536E+03  0.18115866829E+03  0.79019433478E+02 0.  0.
        -11    1    3    3    0    0  0.15198973589E+02 -0.25120246142E+02 -0.31881514683E+02  0.43341279895E+02  0.00000000000E+00 0.  1.
         12    1    3    3    0    0 -0.30231260188E+02  0.41999472038E+02 -0.15407649823E+02  0.53993336784E+02  0.00000000000E+00 0. -1.
        -11    1    5    5    0    0  0.30404889236E+02 -0.22928986778E+02 -0.11263942442E+02  0.39712367387E+02  0.00000000000E+00 0.  1.
         12    1    5    5    0    0 -0.16869310387E+02 -0.71938146334E+02 -0.12061254292E+03  0.14144630091E+03  0.00000000000E+00 0. -1.
          5    1    4    4  502    0  0.65300050684E+02  0.11002089074E+03  0.17125750317E+03  0.21382215837E+03  0.47000000000E+01 0.  1.
         -5    1    4    4    0  502  0.32607835221E+01  0.13598650550E+03  0.44815822241E+02  0.14329518593E+03  0.47000000000E+01 0.  1.
          1    1    1    2  503    0 -0.34151073053E+02 -0.21521805407E+03 -0.25170527944E+04  0.25264678657E+04  0.00000000000E+00 0. -1.
         -2    1    1    2    0  501 -0.32913053404E+02  0.47198565044E+02  0.22096113318E+03  0.22833045352E+03  0.00000000000E+00 0.  1.
<mgrwt>
<rscale>  0 0.11212554E+03</rscale>
<asrwt>0</asrwt>
<pdfrwt beam="2">  1        2 0.41541123E+00 0.21848985E+03</pdfrwt>
<pdfrwt beam="1">  1       -1 0.83178308E-01 0.57541060E+02</pdfrwt>
<totfact> 0.58496192E+00</totfact>
</mgrwt>
</event>
<event>
13    1  0.2038932E-008  0.1675367E+03  0.7546771E-02  0.1214616E+00
          2   -1    0    0  502    0  0.00000000000E+00  0.00000000000E+00  0.18097278761E+04  0.18097278761E+04  0.00000000000E+00 0. -1.
          2   -1    0    0  503    0 -0.00000000000E+00 -0.00000000000E+00 -0.14087536477E+04  0.14087536477E+04  0.00000000000E+00 0. -1.
         24    2    1    2    0    0  0.80489161275E+02 -0.39515594878E+02 -0.37857464092E+03  0.39718906517E+03  0.80002546361E+02 0.  0.
         25    2    1    2    0    0 -0.21538654021E+02 -0.33461380773E+03 -0.78616203638E+02  0.36638006305E+03  0.12499411661E+03 0.  0.
         24    2    1    2    0    0  0.13043667062E+02  0.75766035932E+02 -0.48215441262E+02  0.12171347100E+03  0.81109868663E+02 0.  0.
        -11    1    3    3    0    0  0.41152238067E+01  0.10442097501E+02 -0.15911166584E+03  0.15950703644E+03  0.00000000000E+00 0.  1.
         12    1    3    3    0    0  0.76373937468E+02 -0.49957692380E+02 -0.21946297508E+03  0.23768202873E+03  0.00000000000E+00 0. -1.
        -11    1    5    5    0    0  0.44045442158E+02  0.21640036785E+02 -0.25715113306E+02  0.55403602945E+02  0.00000000000E+00 0.  1.
         12    1    5    5    0    0 -0.31001775096E+02  0.54125999148E+02 -0.22500327956E+02  0.66309868051E+02  0.00000000000E+00 0. -1.
          5    1    4    4  501    0 -0.23215083887E+02 -0.81018425242E+02  0.31189217986E+02  0.89987680640E+02  0.47000000000E+01 0. -1.
         -5    1    4    4    0  501  0.16764298660E+01 -0.25359538249E+03 -0.10980542162E+03  0.27639238241E+03  0.47000000000E+01 0. -1.
          1    1    1    2  502    0  0.45959978393E+01  0.11519311754E+03  0.16038675289E+04  0.16080054813E+04  0.00000000000E+00 0. -1.
          1    1    1    2  503    0 -0.76590172155E+02  0.18317024914E+03 -0.69748701464E+03  0.72519344332E+03  0.00000000000E+00 0. -1.
<mgrwt>
<rscale>  0 0.13904814E+03</rscale>
<asrwt>0</asrwt>
<pdfrwt beam="1">  1        2 0.26613645E+00 0.11540390E+03</pdfrwt>
<pdfrwt beam="2">  1        2 0.20716965E+00 0.16753666E+03</pdfrwt>
<totfact> 0.29821714E+01</totfact>
</mgrwt>
</event>
<event>
13    1  0.2038932E-008  0.2195974E+03  0.7546771E-02  0.1338468E+00
          2   -1    0    0  502    0  0.00000000000E+00  0.00000000000E+00  0.40728830778E+03  0.40728830778E+03  0.00000000000E+00 0. -1.
          2   -1    0    0  503    0 -0.00000000000E+00 -0.00000000000E+00 -0.20793529963E+04  0.20793529963E+04  0.00000000000E+00 0. -1.
         24    2    1    2    0    0 -0.18268586447E+03 -0.11457488940E+03 -0.32239997430E+03  0.39604975024E+03  0.80075782101E+02 0.  0.
         25    2    1    2    0    0  0.19924650644E+03  0.27507001674E+03 -0.20291057573E+03  0.41491908211E+03  0.12498983364E+03 0.  0.
         24    2    1    2    0    0 -0.23768902414E+01  0.59508461121E+02 -0.80831503276E+02  0.13318314764E+03  0.87504927524E+02 0.  0.
        -13    1    5    5    0    0 -0.19354595073E+02  0.39391092092E+02 -0.94005794234E+02  0.10374655578E+03  0.00000000000E+00 0.  1.
         14    1    5    5    0    0  0.16977704832E+02  0.20117369030E+02  0.13174290958E+02  0.29436591859E+02  0.00000000000E+00 0. -1.
        -13    1    3    3    0    0 -0.39141617080E+02 -0.67131552082E+02 -0.12861911941E+03  0.15027171840E+03  0.00000000000E+00 0.  1.
         14    1    3    3    0    0 -0.14354424739E+03 -0.47443337317E+02 -0.19378085489E+03  0.24577803184E+03  0.00000000000E+00 0. -1.
          5    1    4    4  501    0  0.13088495889E+03  0.23419585434E+03 -0.20072956947E+03  0.33510150807E+03  0.47000000000E+01 0. -1.
         -5    1    4    4    0  501  0.68361547556E+02  0.40874162402E+02 -0.21810062590E+01  0.79817574034E+02  0.47000000000E+01 0. -1.
          1    1    1    2  502    0  0.12355046593E+02 -0.22401408698E+03  0.18529752310E+03  0.29098132313E+03  0.00000000000E+00 0. -1.
          1    1    1    2  503    0 -0.26538798326E+02  0.40104985164E+01 -0.12512201583E+04  0.12515080010E+04  0.00000000000E+00 0. -1.
<mgrwt>
<rscale>  0 0.76772515E+02</rscale>
<asrwt>0</asrwt>
<pdfrwt beam="1">  1        2 0.59895339E-01 0.21959736E+03</pdfrwt>
<pdfrwt beam="2">  1        2 0.30578721E+00 0.26840118E+02</pdfrwt>
<totfact> 0.12510856E+02</totfact>
</mgrwt>
</event>
<event>
13    1  0.2038932E-008  0.9200135E+02  0.7546771E-02  0.1361908E+00
          2   -1    0    0  503    0  0.00000000000E+00  0.00000000000E+00  0.17154266154E+04  0.17154266154E+04  0.00000000000E+00 0. -1.
         -1   -1    0    0    0  501 -0.00000000000E+00 -0.00000000000E+00 -0.30468731429E+03  0.30468731429E+03  0.00000000000E+00 0.  1.
         24    2    1    2    0    0  0.61651343985E+02  0.30919542196E+02  0.15707584585E+02  0.10753148049E+03  0.80990028884E+02 0.  0.
         25    2    1    2    0    0 -0.35133115049E+02 -0.64643122372E+02  0.70011437188E+03  0.71498130320E+03  0.12500024467E+03 0.  0.
         24    2    1    2    0    0  0.83937899498E+02 -0.55863533169E+02  0.14620291032E+03  0.19440643971E+03  0.79071281167E+02 0.  0.
        -11    1    3    3    0    0  0.51984828770E+02 -0.37455264626E+01  0.38620213110E+02  0.64868885079E+02  0.00000000000E+00 0.  1.
         12    1    3    3    0    0  0.96665152152E+01  0.34665068659E+02 -0.22912628525E+02  0.42662595414E+02  0.00000000000E+00 0. -1.
        -13    1    5    5    0    0  0.55165277118E+02 -0.52204531619E+02  0.43155870544E+02  0.87355309418E+02  0.00000000000E+00 0.  1.
         14    1    5    5    0    0  0.28772622380E+02 -0.36590015499E+01  0.10304703977E+03  0.10705113029E+03  0.00000000000E+00 0. -1.
          5    1    4    4  502    0 -0.51386840026E+02 -0.30087233146E+02  0.64503107782E+03  0.64779088468E+03  0.47000000000E+01 0.  1.
         -5    1    4    4    0  502  0.16253724976E+02 -0.34555889226E+02  0.55083294066E+02  0.67190418520E+02  0.47000000000E+01 0.  1.
          1    1    1    2  503    0 -0.46653588344E+02  0.23978458776E+02  0.76580674752E+03  0.76760113232E+03  0.00000000000E+00 0. -1.
         -2    1    1    2    0  501 -0.63802540090E+02  0.65608654568E+02 -0.21709231316E+03  0.23559357400E+03  0.00000000000E+00 0.  1.
<mgrwt>
<rscale>  0 0.69468899E+02</rscale>
<asrwt>0</asrwt>
<pdfrwt beam="1">  1        2 0.25226862E+00 0.52454969E+02</pdfrwt>
<pdfrwt beam="2">  1       -1 0.44806959E-01 0.92001349E+02</pdfrwt>
<totfact> 0.77348680E+01</totfact>
</mgrwt>
</event>
<event>
13    1  0.2038932E-008  0.2324944E+03  0.7546771E-02  0.1241427E+00
          2   -1    0    0  503    0  0.00000000000E+00  0.00000000000E+00  0.18195597744E+04  0.18195597744E+04  0.00000000000E+00 0. -1.
          2   -1    0    0  502    0 -0.00000000000E+00 -0.00000000000E+00 -0.21281315348E+04  0.21281315348E+04  0.00000000000E+00 0. -1.
         24    2    1    2    0    0  0.63958808313E+02 -0.43547473983E+02 -0.47240571624E+03  0.48540677188E+03  0.80408095352E+02 0.  0.
         25    2    1    2    0    0  0.30461563768E+03  0.31594521877E+02 -0.99996710610E+03  0.10532556318E+04  0.12499724817E+03 0.  0.
         24    2    1    2    0    0  0.76577419155E+02 -0.10252313455E+03  0.31206931726E+03  0.34746984570E+03  0.83504135521E+02 0.  0.
        -11    1    5    5    0    0  0.76827364098E+02 -0.10672202774E+03  0.31565000992E+03  0.34194584928E+03  0.00000000000E+00 0.  1.
         12    1    5    5    0    0 -0.24994494322E+00  0.41988931830E+01 -0.35806926608E+01  0.55239964127E+01  0.00000000000E+00 0. -1.
        -13    1    3    3    0    0  0.31668747533E+02  0.13397681191E+02 -0.28142800072E+03  0.28352094635E+03  0.00000000000E+00 0.  1.
         14    1    3    3    0    0  0.32290060780E+02 -0.56945155174E+02 -0.19097771553E+03  0.20188582553E+03  0.00000000000E+00 0. -1.
          5    1    4    4  501    0  0.23372034520E+03  0.76410479042E+02 -0.71155360572E+03  0.75285747979E+03  0.47000000000E+01 0.  1.
         -5    1    4    4    0  501  0.70895292485E+02 -0.44815957165E+02 -0.28841350038E+03  0.30039815198E+03  0.47000000000E+01 0.  1.
          1    1    1    2  502    0 -0.25109446357E+02 -0.57771329697E+02 -0.56775622279E+03  0.57124000153E+03  0.00000000000E+00 0. -1.
          1    1    1    2  503    0 -0.42004241879E+03  0.17224741636E+03  0.14194879674E+04  0.14903190584E+04  0.00000000000E+00 0. -1.
<mgrwt>
<rscale>  0 0.12101786E+03</rscale>
<asrwt>0</asrwt>
<pdfrwt beam="1">  1        2 0.26758232E+00 0.23249440E+03</pdfrwt>
<pdfrwt beam="2">  1        2 0.31296052E+00 0.62992149E+02</pdfrwt>
<totfact> 0.13525085E+01</totfact>
</mgrwt>
</event>
<event>
13    1  0.2038932E-008  0.6814233E+02  0.7546771E-02  0.1436735E+00
         -3   -1    0    0    0  501 -0.00000000000E+00  0.00000000000E+00  0.96330660205E+02  0.96330660205E+02  0.00000000000E+00 0.  1.
          2   -1    0    0  503    0  0.00000000000E+00 -0.00000000000E+00 -0.31477734359E+04  0.31477734359E+04  0.00000000000E+00 0. -1.
         24    2    1    2    0    0 -0.14836929370E+02  0.29692574111E+02 -0.89261253028E+02  0.12558490373E+03  0.81867046625E+02 0.  0.
         25    2    1    2    0    0  0.13764442850E+03  0.33449832123E+02 -0.11068534386E+04  0.11228599846E+04  0.12500052213E+03 0.  0.
         24    2    1    2    0    0 -0.40484230717E+02 -0.58120221677E+02 -0.21939564543E+03  0.24450257833E+03  0.81425600833E+02 0.  0.
        -13    1    5    5    0    0 -0.59452293508E+02 -0.26748823846E+02 -0.98088840750E+02  0.11777731301E+03  0.00000000000E+00 0.  1.
         14    1    5    5    0    0  0.18968062791E+02 -0.31371397831E+02 -0.12130680468E+03  0.12672526532E+03  0.00000000000E+00 0. -1.
        -13    1    3    3    0    0  0.13562331503E+02  0.27615358136E+02 -0.91971647033E+02  0.96981073920E+02  0.00000000000E+00 0.  1.
         14    1    3    3    0    0 -0.28399260873E+02  0.20772159757E+01  0.27103940050E+01  0.28603829813E+02  0.00000000000E+00 0. -1.
          5    1    4    4  502    0 -0.39425210525E+01 -0.10793048378E+01  0.21286070669E+00  0.62324698846E+01  0.47000000000E+01 0. -1.
         -5    1    4    4    0  502  0.14158694955E+03  0.34529136961E+02 -0.11070662993E+04  0.11166275147E+04  0.47000000000E+01 0. -1.
          1    1    1    2  503    0 -0.20427584999E+02 -0.33364466235E+02 -0.16731255589E+04  0.16735828661E+04  0.00000000000E+00 0. -1.
         -4    1    1    2    0  501 -0.61895683415E+02  0.28342281678E+02  0.37193120297E+02  0.77573763306E+02  0.00000000000E+00 0.  1.
<mgrwt>
<rscale>  0 0.51631528E+02</rscale>
<asrwt>0</asrwt>
<pdfrwt beam="2">  1        2 0.46290785E+00 0.39121271E+02</pdfrwt>
<pdfrwt beam="1">  1       -3 0.14166274E-01 0.68142332E+02</pdfrwt>
<totfact> 0.64233134E+01</totfact>
</mgrwt>
</event>
<event>
13    1  0.2038932E-008  0.8007229E+02  0.7546771E-02  0.1481563E+00
          4   -1    0    0  503    0 -0.00000000000E+00  0.00000000000E+00  0.29219349874E+03  0.29219349874E+03  0.00000000000E+00 0. -1.
          2   -1    0    0  502    0  0.00000000000E+00 -0.00000000000E+00 -0.80772998354E+03  0.80772998354E+03  0.00000000000E+00 0. -1.
         24    2    1    2    0    0  0.72069117334E+02  0.33828351318E+02  0.69285536685E+02  0.13772919672E+03  0.88490287661E+02 0.  0.
         25    2    1    2    0    0 -0.74353403112E+02 -0.12509178679E+00 -0.33315165050E+03  0.36351235150E+03  0.12499105271E+03 0.  0.
         24    2    1    2    0    0 -0.20345605170E+02  0.23260845514E+02 -0.66431409040E+02  0.10857168317E+03  0.80122828804E+02 0.  0.
        -13    1    5    5    0    0 -0.36055908748E+02 -0.18512465806E+02 -0.24659008416E+02  0.47442666893E+02  0.00000000000E+00 0.  1.
         14    1    5    5    0    0  0.15710303578E+02  0.41773311320E+02 -0.41772400623E+02  0.61129016277E+02  0.00000000000E+00 0. -1.
        -13    1    3    3    0    0  0.49632526307E+02  0.19340304307E+02  0.89555877798E+02  0.10420024130E+03  0.00000000000E+00 0.  1.
         14    1    3    3    0    0  0.22436591027E+02  0.14488047011E+02 -0.20270341113E+02  0.33528955426E+02  0.00000000000E+00 0. -1.
          5    1    4    4  501    0 -0.90712136798E+01 -0.27682055993E+02 -0.25960163430E+03  0.26127319356E+03  0.47000000000E+01 0. -1.
         -5    1    4    4    0  501 -0.65282189432E+02  0.27556964206E+02 -0.73550016207E+02  0.10223915795E+03  0.47000000000E+01 0. -1.
          1    1    1    2  502    0 -0.21738515857E+02  0.10237536456E+02 -0.32656731249E+03  0.32745011805E+03  0.00000000000E+00 0. -1.
          3    1    1    2  503    0  0.44368406805E+02 -0.67201641502E+02  0.14132835055E+03  0.16266013283E+03  0.00000000000E+00 0. -1.
<mgrwt>
<rscale>  0 0.43863646E+02</rscale>
<asrwt>0</asrwt>
<pdfrwt beam="2">  1        2 0.11878382E+00 0.24028529E+02</pdfrwt>
<pdfrwt beam="1">  1        4 0.42969632E-01 0.80072294E+02</pdfrwt>
<totfact> 0.10475325E+02</totfact>
</mgrwt>
</event>
<event>
13    1  0.2038932E-008  0.1069074E+03  0.7546771E-02  0.1456816E+00
          2   -1    0    0  503    0  0.00000000000E+00  0.00000000000E+00  0.11837449954E+04  0.11837449954E+04  0.00000000000E+00 0. -1.
          2   -1    0    0  502    0 -0.00000000000E+00 -0.00000000000E+00 -0.23097720385E+04  0.23097720385E+04  0.00000000000E+00 0. -1.
         24    2    1    2    0    0 -0.44279529926E+03 -0.34849888782E+03 -0.33060165343E+03  0.65775057925E+03  0.76283808253E+02 0.  0.
         25    2    1    2    0    0  0.25503491098E+03 -0.63801520931E+02 -0.29649141284E+03  0.41550556140E+03  0.12499709507E+03 0.  0.
         24    2    1    2    0    0  0.18192868572E+03  0.29171197672E+03 -0.77785762079E+00  0.35108124274E+03  0.71158343805E+02 0.  0.
        -11    1    5    5    0    0  0.62096330616E+02  0.67634133438E+02  0.26367392394E+02  0.95527847581E+02  0.00000000000E+00 0.  1.
         12    1    5    5    0    0  0.11983235510E+03  0.22407784328E+03 -0.27145250015E+02  0.25555339516E+03  0.00000000000E+00 0. -1.
        -13    1    3    3    0    0 -0.33900027499E+03 -0.28541110490E+03 -0.22598056446E+03  0.49744135409E+03  0.00000000000E+00 0.  1.
         14    1    3    3    0    0 -0.10379502427E+03 -0.63087782924E+02 -0.10462108896E+03  0.16030922516E+03  0.00000000000E+00 0. -1.
          5    1    4    4  501    0 -0.40308520867E+01 -0.44167705569E+01  0.81793855514E+01  0.11169063465E+02  0.47000000000E+01 0.  1.
         -5    1    4    4    0  501  0.25906576307E+03 -0.59384750374E+02 -0.30467079839E+03  0.40433649793E+03  0.47000000000E+01 0.  1.
          1    1    1    2  502    0 -0.14666369579E+02  0.15709937131E+02 -0.12799427860E+04  0.12801232128E+04  0.00000000000E+00 0. -1.
          1    1    1    2  503    0  0.20498072133E+02  0.10487849491E+03  0.78178666672E+03  0.78905643773E+03  0.00000000000E+00 0. -1.
<mgrwt>
<rscale>  0 0.47933801E+02</rscale>
<asrwt>0</asrwt>
<pdfrwt beam="1">  1        2 0.17408015E+00 0.10690737E+03</pdfrwt>
<pdfrwt beam="2">  1        2 0.33967235E+00 0.21491964E+02</pdfrwt>
<totfact> 0.28674017E+01</totfact>
</mgrwt>
</event>
<event>
13    1  0.2038932E-008  0.6534008E+02  0.7546771E-02  0.1459238E+00
          2   -1    0    0  503    0  0.00000000000E+00  0.00000000000E+00  0.17130067673E+04  0.17130067673E+04  0.00000000000E+00 0. -1.
          2   -1    0    0  502    0 -0.00000000000E+00 -0.00000000000E+00 -0.21582429887E+04  0.21582429887E+04  0.00000000000E+00 0. -1.
         24    2    1    2    0    0  0.51549092198E+03 -0.41986932495E+02 -0.68001555520E+03  0.85796281223E+03  0.78646288610E+02 0.  0.
         25    2    1    2    0    0 -0.71094793021E+03 -0.14272926728E+02 -0.72418673197E+02  0.72561736020E+03  0.12500165313E+03 0.  0.
         24    2    1    2    0    0  0.27434967148E+03  0.32184315562E+01  0.26238620223E+03  0.38801054800E+03  0.80172100495E+02 0.  0.
        -13    1    5    5    0    0  0.21839083221E+03 -0.16580897465E+02  0.16602460660E+03  0.27483386209E+03  0.00000000000E+00 0.  1.
         14    1    5    5    0    0  0.55958839272E+02  0.19799329021E+02  0.96361595631E+02  0.11317668592E+03  0.00000000000E+00 0. -1.
        -13    1    3    3    0    0  0.12021274118E+03  0.17972855316E+02 -0.18984741218E+03  0.22542441434E+03  0.00000000000E+00 0.  1.
         14    1    3    3    0    0  0.39527818080E+03 -0.59959787812E+02 -0.49016814302E+03  0.63253839789E+03  0.00000000000E+00 0. -1.
          5    1    4    4  501    0 -0.61938252493E+03 -0.51741791099E+02 -0.77893750854E+02  0.62641954915E+03  0.47000000000E+01 0.  1.
         -5    1    4    4    0  501 -0.91565405280E+02  0.37468864371E+02  0.54750776563E+01  0.99197811048E+02  0.47000000000E+01 0.  1.
          1    1    1    2  502    0 -0.17961849276E+02  0.29513275148E+02 -0.92600411043E+03  0.92664840904E+03  0.00000000000E+00 0. -1.
          1    1    1    2  503    0 -0.60930813972E+02  0.23528152519E+02  0.97081591524E+03  0.97301062653E+03  0.00000000000E+00 0. -1.
<mgrwt>
<rscale>  0 0.47512744E+02</rscale>
<asrwt>0</asrwt>
<pdfrwt beam="1">  1        2 0.25191276E+00 0.65340079E+02</pdfrwt>
<pdfrwt beam="2">  1        2 0.31738867E+00 0.34549406E+02</pdfrwt>
<totfact> 0.17800671E+01</totfact>
</mgrwt>
</event>
<event>
13    1  0.2038932E-008  0.6614444E+02  0.7546771E-02  0.1527858E+00
          2   -1    0    0  502    0  0.00000000000E+00  0.00000000000E+00  0.13713629617E+03  0.13713629617E+03  0.00000000000E+00 0. -1.
          2   -1    0    0  503    0 -0.00000000000E+00 -0.00000000000E+00 -0.29047872292E+04  0.29047872292E+04  0.00000000000E+00 0. -1.
         24    2    1    2    0    0  0.74600370081E+02  0.75102676754E+01 -0.18923237170E+04  0.18955312813E+04  0.80797086151E+02 0.  0.
         25    2    1    2    0    0 -0.75766054095E+02  0.47212278750E+02 -0.37476503147E+02  0.15810659083E+03  0.12499484612E+03 0.  0.
         24    2    1    2    0    0 -0.66657897365E+02 -0.25227140359E+02 -0.25029892719E+03  0.27226713539E+03  0.80000976072E+02 0.  0.
        -11    1    5    5    0    0 -0.72779258465E+02 -0.33871649557E+02 -0.13938563884E+03  0.16084920087E+03  0.00000000000E+00 0.  1.
         12    1    5    5    0    0  0.61213610999E+01  0.86445091984E+01 -0.11091328835E+03  0.11141793452E+03  0.00000000000E+00 0. -1.
        -13    1    3    3    0    0  0.59377788914E+02 -0.14840817223E+02 -0.64098985814E+03  0.64390524917E+03  0.00000000000E+00 0.  1.
         14    1    3    3    0    0  0.15222581168E+02  0.22351084899E+02 -0.12513338588E+04  0.12516260321E+04  0.00000000000E+00 0. -1.
          5    1    4    4  501    0  0.10001388031E+02  0.15949381686E+02  0.35954602346E+02  0.40856259846E+02  0.47000000000E+01 0.  1.
         -5    1    4    4    0  501 -0.85767442126E+02  0.31262897065E+02 -0.73431105493E+02  0.11725033098E+03  0.47000000000E+01 0.  1.
          1    1    1    2  502    0  0.23322524441E+01 -0.21075450154E+02  0.60759574802E+02  0.64353243359E+02  0.00000000000E+00 0. -1.
          1    1    1    2  503    0  0.65491328935E+02 -0.84199559129E+01 -0.64831136057E+03  0.65166527456E+03  0.00000000000E+00 0. -1.
<mgrwt>
<rscale>  0 0.37450413E+02</rscale>
<asrwt>0</asrwt>
<pdfrwt beam="1">  1        2 0.20167101E-01 0.21204103E+02</pdfrwt>
<pdfrwt beam="2">  1        2 0.42717463E+00 0.66144435E+02</pdfrwt>
<totfact> 0.13218480E+02</totfact>
</mgrwt>
</event>
<event>
13    1  0.2038932E-008  0.1434297E+03  0.7546771E-02  0.1360313E+00
          2   -1    0    0  503    0  0.00000000000E+00  0.00000000000E+00  0.14248791461E+04  0.14248791461E+04  0.00000000000E+00 0. -1.
         -1   -1    0    0    0  501 -0.00000000000E+00 -0.00000000000E+00 -0.30344548892E+04  0.30344548892E+04  0.00000000000E+00 0.  1.
         24    2    1    2    0    0  0.87577884132E+02 -0.19589214305E+03 -0.19404911627E+04  0.19538886807E+04  0.78303296832E+02 0.  0.
         25    2    1    2    0    0 -0.36321312190E+02  0.22318412508E+03  0.12480014762E+02  0.25867283141E+03  0.12500196612E+03 0.  0.
         24    2    1    2    0    0  0.62559707676E+02  0.77953787313E+02 -0.33627028557E+02  0.13278398616E+03  0.80686429780E+02 0.  0.
        -11    1    3    3    0    0  0.95997341736E+02 -0.19223040421E+03 -0.19099263069E+04  0.19219746397E+04  0.00000000000E+00 0.  1.
         12    1    3    3    0    0 -0.84194576042E+01 -0.36617388436E+01 -0.30564855824E+02  0.31914040942E+02  0.00000000000E+00 0. -1.
        -13    1    5    5    0    0  0.86638771308E+00 -0.31684534819E+01  0.18167333158E+02  0.18461899122E+02  0.00000000000E+00 0.  1.
         14    1    5    5    0    0  0.61693319963E+02  0.81122240795E+02 -0.51794361715E+02  0.11432208704E+03  0.00000000000E+00 0. -1.
          5    1    4    4  502    0  0.32024250607E+02  0.11814101590E+03 -0.30268067803E+02  0.12617883417E+03  0.47000000000E+01 0.  1.
         -5    1    4    4    0  502 -0.68345562797E+02  0.10504310918E+03  0.42748082565E+02  0.13249399723E+03  0.47000000000E+01 0.  1.
          1    1    1    2  503    0  0.13399958647E+02 -0.31356949800E+02  0.12266448791E+04  0.12271187704E+04  0.00000000000E+00 0. -1.
         -2    1    1    2    0  501 -0.12721623827E+03 -0.73888819542E+02 -0.87458244569E+03  0.88686976678E+03  0.00000000000E+00 0.  1.
<mgrwt>
<rscale>  0 0.69935465E+02</rscale>
<asrwt>0</asrwt>
<pdfrwt beam="1">  1        2 0.20954105E+00 0.34100105E+02</pdfrwt>
<pdfrwt beam="2">  1       -1 0.44624337E+00 0.14342974E+03</pdfrwt>
<totfact> 0.10372311E-01</totfact>
</mgrwt>
</event>
<event>
13    1  0.2038932E-008  0.1080908E+03  0.7546771E-02  0.1344371E+00
          2   -1    0    0  502    0  0.00000000000E+00  0.00000000000E+00  0.57107684750E+03  0.57107684750E+03  0.00000000000E+00 0. -1.
          2   -1    0    0  503    0 -0.00000000000E+00 -0.00000000000E+00 -0.16919370896E+04  0.16919370896E+04  0.00000000000E+00 0. -1.
         24    2    1    2    0    0 -0.84205197942E+02 -0.92138163210E+02 -0.36666988785E+03  0.39563834738E+03  0.80640800967E+02 0.  0.
         25    2    1    2    0    0  0.19938356183E+03  0.11451511490E+03  0.53172974398E+02  0.26705748490E+03  0.12499927506E+03 0.  0.
         24    2    1    2    0    0  0.33357678355E+02  0.90783536526E+02 -0.26250396599E+03  0.29105403801E+03  0.80310246378E+02 0.  0.
        -11    1    5    5    0    0 -0.89980535215E+01 -0.70838034848E+01 -0.70495630886E+02  0.71419739659E+02  0.00000000000E+00 0.  1.
         12    1    5    5    0    0  0.42355731876E+02  0.97867340011E+02 -0.19200833511E+03  0.21963429836E+03  0.00000000000E+00 0. -1.
        -13    1    3    3    0    0 -0.42148461129E+02 -0.15948319754E+02 -0.50380288414E+02  0.67594490450E+02  0.00000000000E+00 0.  1.
         14    1    3    3    0    0 -0.42056736812E+02 -0.76189843456E+02 -0.31628959944E+03  0.32804385693E+03  0.00000000000E+00 0. -1.
          5    1    4    4  501    0  0.10982086474E+03  0.73556032640E+02 -0.32771269329E+02  0.13626136050E+03  0.47000000000E+01 0.  1.
         -5    1    4    4    0  501  0.89562697089E+02  0.40959082263E+02  0.85944243727E+02  0.13079612441E+03  0.47000000000E+01 0.  1.
          1    1    1    2  502    0 -0.36078726620E+02 -0.37191858813E+02  0.37544668889E+03  0.37900544201E+03  0.00000000000E+00 0. -1.
          1    1    1    2  503    0 -0.11245731563E+03 -0.75968629406E+02 -0.92030605155E+03  0.93025862480E+03  0.00000000000E+00 0. -1.
<mgrwt>
<rscale>  0 0.74838792E+02</rscale>
<asrwt>0</asrwt>
<pdfrwt beam="1">  1        2 0.83981890E-01 0.51816106E+02</pdfrwt>
<pdfrwt beam="2">  1        2 0.24881428E+00 0.10809081E+03</pdfrwt>
<totfact> 0.11564195E+02</totfact>
</mgrwt>
</event>
<event>
13    1  0.2038932E-008  0.1258478E+03  0.7546771E-02  0.1249151E+00
          4   -1    0    0  503    0 -0.00000000000E+00  0.00000000000E+00  0.14804306872E+04  0.14804306872E+04  0.00000000000E+00 0. -1.
          2   -1    0    0  502    0  0.00000000000E+00 -0.00000000000E+00 -0.42230872908E+03  0.42230872908E+03  0.00000000000E+00 0. -1.
         24    2    1    2    0    0 -0.46707411149E+02 -0.30321407750E+02  0.86873008909E+02  0.12720856822E+03  0.74391734277E+02 0.  0.
         25    2    1    2    0    0  0.22263949640E+03 -0.46369481793E+02  0.49268131504E+02  0.26414216270E+03  0.12500103653E+03 0.  0.
         24    2    1    2    0    0 -0.22770483456E+02 -0.25997395944E+02 -0.23727805263E+02  0.91802636528E+02  0.81672246316E+02 0.  0.
        -13    1    5    5    0    0 -0.51129681541E+02 -0.31480865506E+01 -0.20725183100E+02  0.55260184563E+02  0.00000000000E+00 0.  1.
         14    1    5    5    0    0  0.28359198085E+02 -0.22849309393E+02 -0.30026221630E+01  0.36542451965E+02  0.00000000000E+00 0. -1.
        -13    1    3    3    0    0 -0.41750712969E+02 -0.53975647667E+02  0.58013075746E+02  0.89565671616E+02  0.00000000000E+00 0.  1.
         14    1    3    3    0    0 -0.49566981796E+01  0.23654239918E+02  0.28859933163E+02  0.37642896609E+02  0.00000000000E+00 0. -1.
          5    1    4    4  501    0  0.66674188907E+02 -0.16828785715E+02 -0.42256945331E+02  0.80847974147E+02  0.47000000000E+01 0. -1.
         -5    1    4    4    0  501  0.15596530749E+03 -0.29540696078E+02  0.91525076835E+02  0.18329418855E+03  0.47000000000E+01 0. -1.
          1    1    1    2  502    0 -0.40623175983E+02  0.13542691566E+03 -0.21262223198E+03  0.25534076338E+03  0.00000000000E+00 0. -1.
          3    1    1    2  503    0 -0.11253842581E+03 -0.32738630175E+02  0.11583308550E+04  0.11642452855E+04  0.00000000000E+00 0. -1.
<mgrwt>
<rscale>  0 0.11640352E+03</rscale>
<asrwt>0</asrwt>
<pdfrwt beam="2">  1        2 0.62104225E-01 0.10766796E+03</pdfrwt>
<pdfrwt beam="1">  1        4 0.21771039E+00 0.12584784E+03</pdfrwt>
<totfact> 0.47639628E+00</totfact>
</mgrwt>
</event>
<event>
13    1  0.2038932E-008  0.1106183E+03  0.7546771E-02  0.1336776E+00
          2   -1    0    0  502    0  0.00000000000E+00  0.00000000000E+00  0.80501573605E+03  0.80501573605E+03  0.00000000000E+00 0. -1.
          2   -1    0    0  503    0 -0.00000000000E+00 -0.00000000000E+00 -0.80089743296E+03  0.80089743296E+03  0.00000000000E+00 0. -1.
         24    2    1    2    0    0  0.50919799099E+02  0.32945062163E+02 -0.30859854145E+03  0.32487869631E+03  0.81454922942E+02 0.  0.
         25    2    1    2    0    0 -0.39686020901E+02  0.11666170738E+03  0.82945888050E+02  0.19413842748E+03  0.12499909782E+03 0.  0.
         24    2    1    2    0    0 -0.10514130207E+03 -0.12841320368E+03 -0.18470130036E+03  0.26273060711E+03  0.85837971066E+02 0.  0.
        -11    1    5    5    0    0 -0.33551397218E+01  0.73640193927E+01 -0.36643073147E+02  0.37525998372E+02  0.00000000000E+00 0.  1.
         12    1    5    5    0    0 -0.10178616235E+03 -0.13577722307E+03 -0.14805822722E+03  0.22520460874E+03  0.00000000000E+00 0. -1.
        -11    1    3    3    0    0 -0.75675934313E+01 -0.94144443434E+01 -0.15145551843E+03  0.15193641530E+03  0.00000000000E+00 0.  1.
         12    1    3    3    0    0  0.58487392530E+02  0.42359506506E+02 -0.15714302302E+03  0.17294228101E+03  0.00000000000E+00 0. -1.
          5    1    4    4  501    0 -0.69715311702E+02  0.29134241532E+02  0.64959606887E+02  0.99754043739E+02  0.47000000000E+01 0. -1.
         -5    1    4    4    0  501  0.30029290801E+02  0.87527465852E+02  0.17986281162E+02  0.94384383743E+02  0.47000000000E+01 0. -1.
          1    1    1    2  502    0  0.10237661637E+02  0.53094084512E+02  0.60273888559E+03  0.60515944653E+03  0.00000000000E+00 0. -1.
          1    1    1    2  503    0  0.83669862238E+02 -0.74287650381E+02 -0.18826662874E+03  0.21900599157E+03  0.00000000000E+00 0. -1.
<mgrwt>
<rscale>  0 0.77339270E+02</rscale>
<asrwt>0</asrwt>
<pdfrwt beam="1">  1        2 0.11838467E+00 0.54072096E+02</pdfrwt>
<pdfrwt beam="2">  1        2 0.11777903E+00 0.11061829E+03</pdfrwt>
<totfact> 0.23810182E+02</totfact>
</mgrwt>
</event>
<event>
13    1  0.2038932E-008  0.1301313E+03  0.7546771E-02  0.1325581E+00
          2   -1    0    0  502    0  0.00000000000E+00  0.00000000000E+00  0.24590899445E+04  0.24590899445E+04  0.00000000000E+00 0. -1.
          2   -1    0    0  503    0 -0.00000000000E+00 -0.00000000000E+00 -0.12111673394E+04  0.12111673394E+04  0.00000000000E+00 0. -1.
         24    2    1    2    0    0  0.28440237876E+02  0.22729959699E+02 -0.60655010742E+03  0.61320001624E+03  0.82375535882E+02 0.  0.
         25    2    1    2    0    0 -0.13137267803E+03  0.18367752965E+03  0.57223817630E+03  0.62775280484E+03  0.12498335142E+03 0.  0.
         24    2    1    2    0    0 -0.11348989990E+02 -0.13615138437E+03 -0.42633185215E+01  0.15831994741E+03  0.79881354670E+02 0.  0.
        -11    1    3    3    0    0 -0.13042423318E+02  0.31200830366E+02 -0.44194922751E+03  0.44324114917E+03  0.00000000000E+00 0.  1.
         12    1    3    3    0    0  0.41482661194E+02 -0.84708706667E+01 -0.16460087991E+03  0.16995886707E+03  0.00000000000E+00 0. -1.
        -13    1    5    5    0    0  0.14949047719E+02 -0.12459400442E+03  0.10677638263E+02  0.12594106528E+03  0.00000000000E+00 0.  1.
         14    1    5    5    0    0 -0.26298037709E+02 -0.11557379956E+02 -0.14940956785E+02  0.32378882137E+02  0.00000000000E+00 0. -1.
          5    1    4    4  501    0 -0.83022407407E+02  0.17687771494E+02  0.17914590379E+03  0.19829503836E+03  0.47000000000E+01 0. -1.
         -5    1    4    4    0  501 -0.48350270621E+02  0.16598975816E+03  0.39309227251E+03  0.42945776648E+03  0.47000000000E+01 0. -1.
          1    1    1    2  502    0 -0.48114052125E+02 -0.16024178483E+02  0.17634779905E+04  0.17642070058E+04  0.00000000000E+00 0. -1.
          1    1    1    2  503    0  0.16239548227E+03 -0.54231926497E+02 -0.47698013566E+03  0.50677750969E+03  0.00000000000E+00 0. -1.
<mgrwt>
<rscale>  0 0.81235807E+02</rscale>
<asrwt>0</asrwt>
<pdfrwt beam="1">  1        2 0.36163087E+00 0.50712290E+02</pdfrwt>
<pdfrwt beam="2">  1        2 0.17811284E+00 0.13013130E+03</pdfrwt>
<totfact> 0.20652455E+01</totfact>
</mgrwt>
</event>
<event>
13    1  0.2038932E-008  0.6313890E+02  0.7546771E-02  0.1523720E+00
          2   -1    0    0  503    0  0.00000000000E+00  0.00000000000E+00  0.90107966210E+03  0.90107966210E+03  0.00000000000E+00 0. -1.
          2   -1    0    0  502    0 -0.00000000000E+00 -0.00000000000E+00 -0.24092866887E+04  0.24092866887E+04  0.00000000000E+00 0. -1.
         24    2    1    2    0    0 -0.71782430873E+02 -0.65040182795E+02 -0.14183634809E+04  0.14239037931E+04  0.79775342620E+02 0.  0.
         25    2    1    2    0    0  0.16833612336E+03  0.65071153529E+02 -0.49475825974E+03  0.54127847299E+03  0.12500137718E+03 0.  0.
         24    2    1    2    0    0 -0.48643695971E+02  0.40531628406E+02  0.81230767572E+02  0.13129281327E+03  0.81426919117E+02 0.  0.
        -13    1    5    5    0    0  0.11977405217E+02 -0.78810750185E+01 -0.51068406253E+01  0.15220032863E+02  0.00000000000E+00 0.  1.
         14    1    5    5    0    0 -0.60621101188E+02  0.48412703424E+02  0.86337608197E+02  0.11607278041E+03  0.00000000000E+00 0. -1.
        -13    1    3    3    0    0  0.14605281497E+01 -0.25922876953E+02 -0.11484654021E+03  0.11774487883E+03  0.00000000000E+00 0.  1.
         14    1    3    3    0    0 -0.73242959023E+02 -0.39117305842E+02 -0.13035169407E+04  0.13061589143E+04  0.00000000000E+00 0. -1.
          5    1    4    4  501    0  0.58098765241E+02  0.88367604587E+02 -0.21506106555E+03  0.23970325817E+03  0.47000000000E+01 0.  1.
         -5    1    4    4    0  501  0.11023735812E+03 -0.23296451058E+02 -0.27969719419E+03  0.30157521482E+03  0.47000000000E+01 0.  1.
          1    1    1    2  502    0  0.11660950736E+02 -0.19629433292E+02 -0.44351303082E+03  0.44410032755E+03  0.00000000000E+00 0. -1.
          1    1    1    2  503    0 -0.59570947248E+02 -0.20933165847E+02  0.76719697733E+03  0.76979094384E+03  0.00000000000E+00 0. -1.
<mgrwt>
<rscale>  0 0.37968100E+02</rscale>
<asrwt>0</asrwt>
<pdfrwt beam="1">  1        2 0.13251172E+00 0.63138902E+02</pdfrwt>
<pdfrwt beam="2">  1        2 0.35430686E+00 0.22831829E+02</pdfrwt>
<totfact> 0.37903417E+01</totfact>
</mgrwt>
</event>
<event>
13    1  0.2038932E-008  0.1860763E+03  0.7546771E-02  0.1360197E+00
          2   -1    0    0  503    0  0.00000000000E+00  0.00000000000E+00  0.48466595595E+03  0.48466595595E+03  0.00000000000E+00 0. -1.
          2   -1    0    0  502    0 -0.00000000000E+00 -0.00000000000E+00 -0.12789860509E+04  0.12789860509E+04  0.00000000000E+00 0. -1.
         24    2    1    2    0    0 -0.39128919128E+02  0.12764538614E+03 -0.88205075980E+03  0.89692991927E+03  0.92980214585E+02 0.  0.
         25    2    1    2    0    0  0.29438677379E+03  0.22338611893E+02 -0.31897167960E+02  0.32219656292E+03  0.12502243666E+03 0.  0.
         24    2    1    2    0    0 -0.64246576493E+02 -0.80381226238E+02  0.17353144032E+02  0.13005388875E+03  0.77615193416E+02 0.  0.
        -11    1    5    5    0    0 -0.50191061668E+02 -0.63622244586E+02 -0.22927640086E+02  0.84217630918E+02  0.00000000000E+00 0.  1.
         12    1    5    5    0    0 -0.14055514825E+02 -0.16758981652E+02  0.40280784118E+02  0.45836257834E+02  0.00000000000E+00 0. -1.
        -11    1    3    3    0    0 -0.26153464560E+02  0.28678602804E+02 -0.82512485736E+02  0.91185395046E+02  0.00000000000E+00 0.  1.
         12    1    3    3    0    0 -0.12975454568E+02  0.98966783331E+02 -0.79953827407E+03  0.80574452423E+03  0.00000000000E+00 0. -1.
          5    1    4    4  501    0 -0.94745553901E+01 -0.64633764761E+01  0.73722235147E+01  0.14421585033E+02  0.47000000000E+01 0.  1.
         -5    1    4    4    0  501  0.30386132918E+03  0.28801988369E+02 -0.39269391474E+02  0.30777497789E+03  0.47000000000E+01 0.  1.
          1    1    1    2  502    0  0.18237399624E+02  0.18963769477E+02 -0.10418906661E+03  0.10745970825E+03  0.00000000000E+00 0. -1.
          1    1    1    2  503    0 -0.20924867780E+03 -0.88566541267E+02  0.20646375542E+03  0.30701192761E+03  0.00000000000E+00 0. -1.
<mgrwt>
<rscale>  0 0.69969331E+02</rscale>
<asrwt>0</asrwt>
<pdfrwt beam="1">  1        2 0.71274405E-01 0.18607631E+03</pdfrwt>
<pdfrwt beam="2">  1        2 0.18808618E+00 0.26310213E+02</pdfrwt>
<totfact> 0.24038490E+02</totfact>
</mgrwt>
</event>
<event>
13    1  0.2038932E-008  0.3320174E+03  0.7546771E-02  0.1114848E+00
          2   -1    0    0  503    0  0.00000000000E+00  0.00000000000E+00  0.74953347969E+03  0.74953347969E+03  0.00000000000E+00 0. -1.
          2   -1    0    0  502    0 -0.00000000000E+00 -0.00000000000E+00 -0.21924669088E+04  0.21924669088E+04  0.00000000000E+00 0. -1.
         24    2    1    2    0    0 -0.13509707728E+03 -0.40192973396E+03 -0.67767416325E+03  0.80336658463E+03  0.79729959490E+02 0.  0.
         25    2    1    2    0    0  0.12817538735E+02 -0.84419086883E+02 -0.15907181206E+03  0.21958899599E+03  0.12499845694E+03 0.  0.
         24    2    1    2    0    0 -0.32804301291E+02 -0.14550062766E+03  0.14690309041E+03  0.22486080929E+03  0.82068939018E+02 0.  0.
        -13    1    5    5    0    0 -0.59819457609E+02 -0.87948403977E+02  0.85429324592E+02  0.13642382039E+03  0.00000000000E+00 0.  1.
         14    1    5    5    0    0  0.27015156318E+02 -0.57552223683E+02  0.61473765818E+02  0.88436988899E+02  0.00000000000E+00 0. -1.
        -13    1    3    3    0    0  0.20717672290E+01 -0.38385988380E+02 -0.10036266408E+03  0.10747297644E+03  0.00000000000E+00 0.  1.
         14    1    3    3    0    0 -0.13716884451E+03 -0.36354374558E+03 -0.57731149917E+03  0.69589360820E+03  0.00000000000E+00 0. -1.
          5    1    4    4  501    0  0.42198412913E+01 -0.11708701395E+03 -0.12453630888E+03  0.17105133185E+03  0.47000000000E+01 0. -1.
         -5    1    4    4    0  501  0.85976974441E+01  0.32667927071E+02 -0.34535503177E+02  0.48537664140E+02  0.47000000000E+01 0. -1.
          1    1    1    2  502    0 -0.14112459518E+03 -0.11588139277E+03 -0.86330257187E+03  0.88240352399E+03  0.00000000000E+00 0. -1.
          1    1    1    2  503    0  0.29620843501E+03  0.74773084127E+03  0.11021202761E+03  0.81178047463E+03  0.00000000000E+00 0. -1.
<mgrwt>
<rscale>  0 0.24757287E+03</rscale>
<asrwt>0</asrwt>
<pdfrwt beam="1">  1        2 0.11022551E+00 0.33201737E+03</pdfrwt>
<pdfrwt beam="2">  1        2 0.32242161E+00 0.18460579E+03</pdfrwt>
<totfact> 0.43645505E+01</totfact>
</mgrwt>
</event>
<event>
13    1  0.2038932E-008  0.2218155E+03  0.7546771E-02  0.1208775E+00
          2   -1    0    0  503    0  0.00000000000E+00  0.00000000000E+00  0.23632690786E+04  0.23632690786E+04  0.00000000000E+00 0. -1.
          2   -1    0    0  502    0 -0.00000000000E+00 -0.00000000000E+00 -0.21233638449E+04  0.21233638449E+04  0.00000000000E+00 0. -1.
         24    2    1    2    0    0  0.42518911015E+02  0.39105581606E+02 -0.52877149824E+03  0.53780301738E+03  0.79345345452E+02 0.  0.
         25    2    1    2    0    0 -0.28460572389E+03  0.15584477908E+03  0.39482669700E+03  0.52611936142E+03  0.12500179423E+03 0.  0.
         24    2    1    2    0    0 -0.11548343281E+02 -0.19694391182E+03 -0.10555772139E+04  0.10769463330E+04  0.81546802618E+02 0.  0.
        -11    1    5    5    0    0 -0.13482799465E+02  0.26778761619E+01 -0.76278947302E+02  0.77507642873E+02  0.00000000000E+00 0.  1.
         12    1    5    5    0    0  0.19344561839E+01 -0.19962178798E+03 -0.97929826664E+03  0.99943869016E+03  0.00000000000E+00 0. -1.
        -13    1    3    3    0    0  0.13080824825E+02  0.39817351742E+02 -0.47192581329E+03  0.47378318113E+03  0.00000000000E+00 0.  1.
         14    1    3    3    0    0  0.29438086190E+02 -0.71177013638E+00 -0.56845684951E+02  0.64019836244E+02  0.00000000000E+00 0. -1.
          5    1    4    4  501    0 -0.26004140260E+03  0.16375908091E+03  0.30679521319E+03  0.43426254787E+03  0.47000000000E+01 0. -1.
         -5    1    4    4    0  501 -0.24564321298E+02 -0.79143018369E+01  0.88031483811E+02  0.91856813554E+02  0.47000000000E+01 0. -1.
          1    1    1    2  502    0  0.54001493136E+02  0.75415934730E+02 -0.44740400106E+03  0.45691800647E+03  0.00000000000E+00 0. -1.
          1    1    1    2  503    0  0.19963366302E+03 -0.73422383592E+02  0.18768312499E+04  0.18888462051E+04  0.00000000000E+00 0. -1.
<mgrwt>
<rscale>  0 0.14343910E+03</rscale>
<asrwt>0</asrwt>
<pdfrwt beam="1">  1        2 0.34753957E+00 0.22181548E+03</pdfrwt>
<pdfrwt beam="2">  1        2 0.31225939E+00 0.92756264E+02</pdfrwt>
<totfact> 0.69801911E+00</totfact>
</mgrwt>
</event>
<event>
13    1  0.2038932E-008  0.4023627E+02  0.7546771E-02  0.1552456E+00
          4   -1    0    0  503    0 -0.00000000000E+00  0.00000000000E+00  0.10719910796E+04  0.10719910796E+04  0.00000000000E+00 0. -1.
          2   -1    0    0  502    0  0.00000000000E+00 -0.00000000000E+00 -0.13071275484E+04  0.13071275484E+04  0.00000000000E+00 0. -1.
         24    2    1    2    0    0  0.16523406625E+02  0.14899477939E+03 -0.25206115124E+03  0.30411166318E+03  0.80477403424E+02 0.  0.
         25    2    1    2    0    0 -0.11266522176E+03 -0.47828168858E-01 -0.19501480401E+02  0.16940543443E+03  0.12499775596E+03 0.  0.
         24    2    1    2    0    0  0.87411371231E+02 -0.20961787653E+03 -0.46073812727E+03  0.51995086714E+03  0.80553586730E+02 0.  0.
        -11    1    5    5    0    0  0.52577889052E+02 -0.98129288191E+02 -0.30913595305E+03  0.32857088899E+03  0.00000000000E+00 0.  1.
         12    1    5    5    0    0  0.34833482179E+02 -0.11148858834E+03 -0.15160217422E+03  0.19137997815E+03  0.00000000000E+00 0. -1.
        -11    1    3    3    0    0  0.17123658805E+02  0.77679249615E+02 -0.61205357033E+02  0.10036623556E+03  0.00000000000E+00 0.  1.
         12    1    3    3    0    0 -0.60025217980E+00  0.71315529778E+02 -0.19085579421E+03  0.20374542762E+03  0.00000000000E+00 0. -1.
          5    1    4    4  501    0  0.10679946261E+02 -0.78710034230E+01  0.32361241678E+02  0.35289572256E+02  0.47000000000E+01 0. -1.
         -5    1    4    4    0  501 -0.12334516802E+03  0.78231752542E+01 -0.51862722079E+02  0.13411586217E+03  0.47000000000E+01 0. -1.
          1    1    1    2  502    0 -0.11101526369E+02  0.38560993416E+02 -0.44310207250E+03  0.44491531863E+03  0.00000000000E+00 0. -1.
          3    1    1    2  503    0  0.19831970269E+02  0.22109931889E+02  0.94026636254E+03  0.94073534464E+03  0.00000000000E+00 0. -1.
<mgrwt>
<rscale>  0 0.34569667E+02</rscale>
<asrwt>0</asrwt>
<pdfrwt beam="2">  1        2 0.19222464E+00 0.40236265E+02</pdfrwt>
<pdfrwt beam="1">  1        4 0.15764575E+00 0.29701113E+02</pdfrwt>
<totfact> 0.30070853E+00</totfact>
</mgrwt>
</event>
<event>
13    1  0.2038932E-008  0.2261301E+03  0.7546771E-02  0.1183793E+00
          2   -1    0    0  502    0  0.00000000000E+00  0.00000000000E+00  0.30096717929E+04  0.30096717929E+04  0.00000000000E+00 0. -1.
          2   -1    0    0  503    0 -0.00000000000E+00 -0.00000000000E+00 -0.11901295383E+04  0.11901295383E+04  0.00000000000E+00 0. -1.
         24    2    1    2    0    0  0.10962251573E+02 -0.28817372738E+02 -0.31468159428E+03  0.32620221397E+03  0.80204530338E+02 0.  0.
         25    2    1    2    0    0  0.25045831192E+03  0.53710435940E+03  0.71689446753E+03  0.93849523605E+03  0.12500068650E+03 0.  0.
         24    2    1    2    0    0 -0.53329731695E+02  0.45313303753E+02  0.30595501537E+03  0.32402992635E+03  0.80557842338E+02 0.  0.
        -11    1    5    5    0    0  0.15911853142E+02 -0.36422710211E+01  0.99625190097E+02  0.10095361168E+03  0.00000000000E+00 0.  1.
         12    1    5    5    0    0 -0.69241584837E+02  0.48955574774E+02  0.20632982527E+03  0.22307631467E+03  0.00000000000E+00 0. -1.
        -11    1    3    3    0    0  0.35024057654E+02  0.13253313461E+02 -0.13432978346E+03  0.13945187578E+03  0.00000000000E+00 0.  1.
         12    1    3    3    0    0 -0.24061806081E+02 -0.42070686199E+02 -0.18035181082E+03  0.18675033819E+03  0.00000000000E+00 0. -1.
          5    1    4    4  501    0  0.23885026432E+02  0.16023326844E+03  0.24201417794E+03  0.29126988709E+03  0.47000000000E+01 0.  1.
         -5    1    4    4    0  501  0.22657328548E+03  0.37687109096E+03  0.47488028959E+03  0.64722534897E+03  0.47000000000E+01 0.  1.
          1    1    1    2  502    0 -0.79666464110E+02 -0.46165338863E+03  0.18229476598E+04  0.18821819166E+04  0.00000000000E+00 0. -1.
          1    1    1    2  503    0 -0.12842436768E+03 -0.91946901789E+02 -0.71157329380E+03  0.72889203824E+03  0.00000000000E+00 0. -1.
<mgrwt>
<rscale>  0 0.16442165E+03</rscale>
<asrwt>0</asrwt>
<pdfrwt beam="1">  1        2 0.44259879E+00 0.22613010E+03</pdfrwt>
<pdfrwt beam="2">  1        2 0.17501905E+00 0.11955276E+03</pdfrwt>
<totfact> 0.90122118E+00</totfact>
</mgrwt>
</event>
<event>
13    1  0.2038932E-008  0.1047566E+03  0.7546771E-02  0.1444100E+00
          2   -1    0    0  502    0  0.00000000000E+00  0.00000000000E+00  0.13777385300E+04  0.13777385300E+04  0.00000000000E+00 0. -1.
          2   -1    0    0  503    0 -0.00000000000E+00 -0.00000000000E+00 -0.26130173545E+04  0.26130173545E+04  0.00000000000E+00 0. -1.
         24    2    1    2    0    0  0.72678055863E+02  0.54873730520E+02 -0.15890569362E+03  0.19994980920E+03  0.80222693985E+02 0.  0.
         25    2    1    2    0    0  0.58569459209E+01 -0.74145764955E+01  0.43850307282E+02  0.13276998294E+03  0.12496295115E+03 0.  0.
         24    2    1    2    0    0  0.39860664183E+02 -0.29111210835E+02 -0.39411918750E+03  0.40528902230E+03  0.80578672724E+02 0.  0.
        -11    1    5    5    0    0  0.17772250541E+02 -0.53550068927E+02 -0.30716771052E+03  0.31230668446E+03  0.00000000000E+00 0.  1.
         12    1    5    5    0    0  0.22088413642E+02  0.24438858091E+02 -0.86951476984E+02  0.92982337849E+02  0.00000000000E+00 0. -1.
        -13    1    3    3    0    0  0.43691588302E+02  0.16899509128E+02 -0.16374211526E+02  0.49625226450E+02  0.00000000000E+00 0.  1.
         14    1    3    3    0    0  0.28986467561E+02  0.37974221392E+02 -0.14253148209E+03  0.15032458275E+03  0.00000000000E+00 0. -1.
          5    1    4    4  501    0 -0.37084174846E+02 -0.32827746315E+02  0.61977110110E+02  0.79474204178E+02  0.47000000000E+01 0. -1.
         -5    1    4    4    0  501  0.42941120767E+02  0.25413169820E+02 -0.18126802827E+02  0.53295778761E+02  0.47000000000E+01 0. -1.
          1    1    1    2  502    0  0.18021285095E+02  0.15979979281E+02  0.12607195915E+04  0.12609496480E+04  0.00000000000E+00 0. -1.
          1    1    1    2  503    0 -0.13641695106E+03 -0.34327922470E+02 -0.19868238421E+04  0.19917974221E+04  0.00000000000E+00 0. -1.
<mgrwt>
<rscale>  0 0.50230942E+02</rscale>
<asrwt>0</asrwt>
<pdfrwt beam="1">  1        2 0.20260861E+00 0.24085814E+02</pdfrwt>
<pdfrwt beam="2">  1        2 0.38426725E+00 0.10475658E+03</pdfrwt>
<totfact> 0.14576382E+01</totfact>
</mgrwt>
</event>
<event>
13    1  0.2038932E-008  0.1077100E+03  0.7546771E-02  0.1347399E+00
          2   -1    0    0  502    0  0.00000000000E+00  0.00000000000E+00  0.41220805436E+03  0.41220805436E+03  0.00000000000E+00 0. -1.
          2   -1    0    0  503    0 -0.00000000000E+00 -0.00000000000E+00 -0.17216977987E+04  0.17216977987E+04  0.00000000000E+00 0. -1.
         24    2    1    2    0    0 -0.86124965414E+02  0.64643623570E+02 -0.18695720281E+03  0.22546530150E+03  0.65462193372E+02 0.  0.
         25    2    1    2    0    0  0.14014124378E+03 -0.14025216712E+03  0.12153056217E+03  0.26398549138E+03  0.12493367651E+03 0.  0.
         24    2    1    2    0    0  0.93706667366E+01 -0.62089015325E+02 -0.13456523188E+03  0.16939534244E+03  0.81511503416E+02 0.  0.
        -13    1    5    5    0    0  0.62947436712E+01 -0.33307419709E+02 -0.22726121978E+01  0.33973118370E+02  0.00000000000E+00 0.  1.
         14    1    5    5    0    0  0.30759230654E+01 -0.28781595616E+02 -0.13229261968E+03  0.13542222407E+03  0.00000000000E+00 0. -1.
        -13    1    3    3    0    0 -0.70621376910E+02  0.42212294885E+02 -0.17909068790E+03  0.19708559361E+03  0.00000000000E+00 0.  1.
         14    1    3    3    0    0 -0.15503588504E+02  0.22431328685E+02 -0.78665149133E+01  0.28379707891E+02  0.00000000000E+00 0. -1.
          5    1    4    4  501    0  0.28386336228E+02 -0.66058899738E+02  0.10697135903E+03  0.12897489667E+03  0.47000000000E+01 0. -1.
         -5    1    4    4    0  501  0.11175490755E+03 -0.74193267382E+02  0.14559203143E+02  0.13501059471E+03  0.47000000000E+01 0. -1.
          1    1    1    2  502    0 -0.23524343494E+02  0.10642626961E+03  0.16598427483E+03  0.19857171271E+03  0.00000000000E+00 0. -1.
          1    1    1    2  503    0 -0.39862601609E+02  0.31271289267E+02 -0.12754821466E+04  0.12764880050E+04  0.00000000000E+00 0. -1.
<mgrwt>
<rscale>  0 0.73872204E+02</rscale>
<asrwt>0</asrwt>
<pdfrwt beam="1">  1        2 0.60618832E-01 0.10770997E+03</pdfrwt>
<pdfrwt beam="2">  1        2 0.25319085E+00 0.50664786E+02</pdfrwt>
<totfact> 0.16831934E+02</totfact>
</mgrwt>
</event>
<event>
13    1  0.2038932E-008  0.1933815E+03  0.7546771E-02  0.1222129E+00
          2   -1    0    0  502    0  0.00000000000E+00  0.00000000000E+00  0.20583010476E+04  0.20583010476E+04  0.00000000000E+00 0. -1.
          4   -1    0    0  503    0 -0.00000000000E+00 -0.00000000000E+00 -0.89981467451E+03  0.89981467451E+03  0.00000000000E+00 0. -1.
         24    2    1    2    0    0 -0.92041525625E+01 -0.16679475292E+02 -0.15112051959E+03  0.17381495244E+03  0.83733535276E+02 0.  0.
         25    2    1    2    0    0  0.32129961936E+03  0.16850942840E+03  0.47050258053E+03  0.60714642997E+03  0.12500094513E+03 0.  0.
         24    2    1    2    0    0 -0.49565971355E+00  0.32743701262E+01  0.92519166681E+02  0.12343430972E+03  0.81641076884E+02 0.  0.
        -11    1    3    3    0    0  0.23885824632E+02 -0.16016172736E+01 -0.12910654622E+03  0.13130726588E+03  0.00000000000E+00 0.  1.
         12    1    3    3    0    0 -0.33089977194E+02 -0.15077858019E+02 -0.22013973373E+02  0.42507686561E+02  0.00000000000E+00 0. -1.
        -11    1    5    5    0    0 -0.33599366075E+02  0.18599436509E+02  0.22571391199E+02  0.44545753331E+02  0.00000000000E+00 0.  1.
         12    1    5    5    0    0  0.33103706362E+02 -0.15325066383E+02  0.69947775482E+02  0.78888556391E+02  0.00000000000E+00 0. -1.
          5    1    4    4  501    0  0.81132793811E+02  0.60672152871E+02  0.22647775179E+03  0.24814895209E+03  0.47000000000E+01 0.  1.
         -5    1    4    4    0  501  0.24016682555E+03  0.10783727553E+03  0.24402482874E+03  0.35899747788E+03  0.47000000000E+01 0.  1.
          1    1    1    2  502    0  0.42690365311E+02  0.93589443503E+02  0.13262698517E+04  0.13302530476E+04  0.00000000000E+00 0. -1.
          3    1    1    2  503    0 -0.35429017239E+03 -0.24869376673E+03 -0.57968470624E+03  0.72346698233E+03  0.00000000000E+00 0. -1.
<mgrwt>
<rscale>  0 0.13365622E+03</rscale>
<asrwt>0</asrwt>
<pdfrwt beam="1">  1        2 0.30269133E+00 0.92376913E+02</pdfrwt>
<pdfrwt beam="2">  1        4 0.13232569E+00 0.19338148E+03</pdfrwt>
<totfact> 0.19820436E+00</totfact>
</mgrwt>
</event>
<event>
13    1  0.2038932E-008  0.1214845E+03  0.7546771E-02  0.1368108E+00
          2   -1    0    0  503    0  0.00000000000E+00  0.00000000000E+00  0.34601936780E+04  0.34601936780E+04  0.00000000000E+00 0. -1.
          2   -1    0    0  502    0 -0.00000000000E+00 -0.00000000000E+00 -0.15440106914E+04  0.15440106914E+04  0.00000000000E+00 0. -1.
         24    2    1    2    0    0 -0.96448556219E+02 -0.11310558690E+03 -0.13129967138E+03  0.21446755119E+03  0.81618190527E+02 0.  0.
         25    2    1    2    0    0  0.18671164026E+03  0.98287590372E+02  0.19791183491E+04  0.19942597687E+04  0.12506357717E+03 0.  0.
         24    2    1    2    0    0 -0.12234801627E+03  0.11718973900E+03  0.54920233210E+03  0.58002684572E+03  0.78137495162E+02 0.  0.
        -11    1    3    3    0    0 -0.39564568182E+02  0.35379430331E+01 -0.27998625471E+02  0.48598303722E+02  0.00000000000E+00 0.  1.
         12    1    3    3    0    0 -0.56883988036E+02 -0.11664352994E+03 -0.10330104591E+03  0.16586924747E+03  0.00000000000E+00 0. -1.
        -13    1    5    5    0    0 -0.43440459027E+02  0.31645389976E+02  0.78395756517E+02  0.95049454638E+02  0.00000000000E+00 0.  1.
         14    1    5    5    0    0 -0.78907557239E+02  0.85544349028E+02  0.47080657559E+03  0.48497739108E+03  0.00000000000E+00 0. -1.
          5    1    4    4  501    0  0.20399856273E+03  0.97135404409E+02  0.17692491682E+04  0.17836242344E+04  0.47000000000E+01 0.  1.
         -5    1    4    4    0  501 -0.17286922471E+02  0.11521859627E+01  0.20986918085E+03  0.21063553426E+03  0.47000000000E+01 0.  1.
          1    1    1    2  502    0  0.69700107286E+02 -0.99525493513E+02 -0.13449940676E+04  0.13504712032E+04  0.00000000000E+00 0. -1.
          1    1    1    2  503    0 -0.37615175064E+02 -0.28462489605E+01  0.86415604441E+03  0.86497900068E+03  0.00000000000E+00 0. -1.
<mgrwt>
<rscale>  0 0.67695834E+02</rscale>
<asrwt>0</asrwt>
<pdfrwt beam="1">  1        2 0.50885201E+00 0.37722706E+02</pdfrwt>
<pdfrwt beam="2">  1        2 0.22706040E+00 0.12148455E+03</pdfrwt>
<totfact> 0.45128333E+00</totfact>
</mgrwt>
</event>
<event>
13    1  0.2038932E-008  0.6545560E+02  0.7546771E-02  0.1490033E+00
         -1   -1    0    0    0  501 -0.00000000000E+00  0.00000000000E+00  0.10663353129E+04  0.10663353129E+04  0.00000000000E+00 0.  1.
          2   -1    0    0  503    0  0.00000000000E+00 -0.00000000000E+00 -0.12944414496E+04  0.12944414496E+04  0.00000000000E+00 0. -1.
         24    2    1    2    0    0 -0.39533501817E+03  0.21199341893E+03 -0.29152483242E+02  0.45611696588E+03  0.77212907137E+02 0.  0.
         25    2    1    2    0    0  0.34561822896E+03 -0.37703032806E+02 -0.14959745500E+03  0.39859481540E+03  0.12499979779E+03 0.  0.
         24    2    1    2    0    0  0.87525201326E+02 -0.18012805015E+03 -0.17937244328E+03  0.28068319176E+03  0.80633773371E+02 0.  0.
        -11    1    3    3    0    0 -0.36572929839E+02  0.21673740939E+01  0.11792821462E+02  0.38488275430E+02  0.00000000000E+00 0.  1.
         12    1    3    3    0    0 -0.35876208833E+03  0.20982604483E+03 -0.40945304704E+02  0.41762869045E+03  0.00000000000E+00 0. -1.
        -13    1    5    5    0    0  0.91303183465E+02 -0.18079680022E+03 -0.18470340316E+03  0.27411512439E+03  0.00000000000E+00 0.  1.
         14    1    5    5    0    0 -0.37779821390E+01  0.66875006758E+00  0.53309598801E+01  0.65680673671E+01  0.00000000000E+00 0. -1.
          5    1    4    4  502    0  0.27528808144E+02 -0.29758781944E+02 -0.51264129434E+02  0.65524967359E+02  0.47000000000E+01 0. -1.
         -5    1    4    4    0  502  0.31808942081E+03 -0.79442508619E+01 -0.98333325568E+02  0.33306984804E+03  0.47000000000E+01 0. -1.
          1    1    1    2  503    0 -0.63675395441E+02  0.15748090005E+02 -0.54543388797E+03  0.54936389076E+03  0.00000000000E+00 0. -1.
         -2    1    1    2    0  501  0.25866983322E+02 -0.99104259770E+01  0.67545013283E+03  0.67601789866E+03  0.00000000000E+00 0.  1.
<mgrwt>
<rscale>  0 0.42581127E+02</rscale>
<asrwt>0</asrwt>
<pdfrwt beam="2">  1        2 0.19035904E+00 0.65455599E+02</pdfrwt>
<pdfrwt beam="1">  1       -1 0.15681402E+00 0.27700494E+02</pdfrwt>
<totfact> 0.95164299E+00</totfact>
</mgrwt>
</event>
<event>
13    1  0.2038932E-008  0.2570258E+03  0.7546771E-02  0.1220458E+00
          2   -1    0    0  502    0  0.00000000000E+00  0.00000000000E+00  0.13417081076E+04  0.13417081076E+04  0.00000000000E+00 0. -1.
          2   -1    0    0  503    0 -0.00000000000E+00 -0.00000000000E+00 -0.26751351894E+04  0.26751351894E+04  0.00000000000E+00 0. -1.
         24    2    1    2    0    0 -0.15769383017E+03 -0.12483926783E+03 -0.86394052542E+03  0.89186030537E+03  0.92570977991E+02 0.  0.
         25    2    1    2    0    0  0.14636672456E+03  0.10757278916E+03 -0.24247833798E+03  0.32774303537E+03  0.12499851926E+03 0.  0.
         24    2    1    2    0    0  0.15772597845E+03  0.77226343336E+02 -0.45649641376E+03  0.49633857616E+03  0.84389655893E+02 0.  0.
        -13    1    3    3    0    0 -0.44970837812E+02 -0.84918092077E+02 -0.28706429726E+03  0.30271995207E+03  0.00000000000E+00 0.  1.
         14    1    3    3    0    0 -0.11272299236E+03 -0.39921175757E+02 -0.57687622816E+03  0.58914035330E+03  0.00000000000E+00 0. -1.
        -13    1    5    5    0    0  0.13930363718E+03  0.95403242040E+02 -0.40153069147E+03  0.43558486902E+03  0.00000000000E+00 0.  1.
         14    1    5    5    0    0  0.18422341273E+02 -0.18176898705E+02 -0.54965722290E+02  0.60753707141E+02  0.00000000000E+00 0. -1.
          5    1    4    4  501    0  0.16821365248E+03  0.99129376988E+02 -0.22612691994E+03  0.29879414349E+03  0.47000000000E+01 0.  1.
         -5    1    4    4    0  501 -0.21846927927E+02  0.84434121676E+01 -0.16351418045E+02  0.28948891878E+02  0.47000000000E+01 0.  1.
          1    1    1    2  502    0  0.70618911585E+02  0.39631033451E+01  0.12518300030E+04  0.12538265803E+04  0.00000000000E+00 0. -1.
          1    1    1    2  503    0 -0.21701778443E+03 -0.63922968003E+02 -0.10223418077E+04  0.10470747998E+04  0.00000000000E+00 0. -1.
<mgrwt>
<rscale>  0 0.13483116E+03</rscale>
<asrwt>0</asrwt>
<pdfrwt beam="1">  1        2 0.19731002E+00 0.70730028E+02</pdfrwt>
<pdfrwt beam="2">  1        2 0.39340223E+00 0.25702578E+03</pdfrwt>
<totfact> 0.11577831E+01</totfact>
</mgrwt>
</event>
<event>
13    1  0.2038932E-008  0.1088278E+03  0.7546771E-02  0.1445543E+00
         -1   -1    0    0    0  501 -0.00000000000E+00  0.00000000000E+00  0.20168672944E+03  0.20168672944E+03  0.00000000000E+00 0.  1.
          2   -1    0    0  503    0  0.00000000000E+00 -0.00000000000E+00 -0.40030518927E+04  0.40030518927E+04  0.00000000000E+00 0. -1.
         24    2    1    2    0    0  0.10675156694E+03  0.51413137082E+02  0.10105394070E+03  0.17560716638E+03  0.81158919666E+02 0.  0.
         25    2    1    2    0    0 -0.35564711787E+02 -0.23323194827E+02 -0.20446131725E+04  0.20488721285E+04  0.12500061504E+03 0.  0.
         24    2    1    2    0    0 -0.18719760268E+02 -0.97155059723E+02 -0.61874434280E+02  0.14220353431E+03  0.81264164918E+02 0.  0.
        -11    1    5    5    0    0 -0.41249629372E+02 -0.91714648155E+02 -0.34459617026E+02  0.10630415709E+03  0.00000000000E+00 0.  1.
         12    1    5    5    0    0  0.22529869104E+02 -0.54404115673E+01 -0.27414817254E+02  0.35899377222E+02  0.00000000000E+00 0. -1.
        -11    1    3    3    0    0  0.72991144399E+02  0.57828298364E+02  0.10576795119E+03  0.14092082440E+03  0.00000000000E+00 0.  1.
         12    1    3    3    0    0  0.33760422545E+02 -0.64151612818E+01 -0.47140104816E+01  0.34686341974E+02  0.00000000000E+00 0. -1.
          5    1    4    4  502    0 -0.72579448310E+02  0.21379373066E+01 -0.76260979920E+03  0.76607319684E+03  0.47000000000E+01 0.  1.
         -5    1    4    4    0  502  0.37014736524E+02 -0.25461132134E+02 -0.12820033733E+04  0.12827989317E+04  0.47000000000E+01 0.  1.
          1    1    1    2  503    0 -0.61044398389E+02  0.90338765824E+02 -0.18085789231E+04  0.18118623657E+04  0.00000000000E+00 0. -1.
         -2    1    1    2    0  501  0.85773034994E+01 -0.21273648357E+02  0.12647425877E+02  0.26193427249E+02  0.00000000000E+00 0.  1.
<mgrwt>
<rscale>  0 0.49962595E+02</rscale>
<asrwt>0</asrwt>
<pdfrwt beam="2">  1        2 0.58868409E+00 0.10882785E+03</pdfrwt>
<pdfrwt beam="1">  1       -1 0.29659814E-01 0.22937704E+02</pdfrwt>
<totfact> 0.81558681E+00</totfact>
</mgrwt>
</event>
<event>
13    1  0.2038932E-008  0.7400084E+02  0.7546771E-02  0.1387600E+00
         -3   -1    0    0    0  501 -0.00000000000E+00  0.00000000000E+00  0.44132121095E+04  0.44132121095E+04  0.00000000000E+00 0.  1.
          2   -1    0    0  503    0  0.00000000000E+00 -0.00000000000E+00 -0.18491344627E+04  0.18491344627E+04  0.00000000000E+00 0. -1.
         24    2    1    2    0    0  0.79412615251E+02 -0.10337697482E+03  0.13189045917E+04  0.13277441354E+04  0.80012528349E+02 0.  0.
         25    2    1    2    0    0 -0.22517517602E+02 -0.21404738964E+03 -0.10561609433E+02  0.24911378651E+03  0.12499122938E+03 0.  0.
         24    2    1    2    0    0 -0.73562817498E+02  0.21863843697E+03  0.10708651051E+04  0.10986140973E+04  0.83585926753E+02 0.  0.
        -11    1    5    5    0    0 -0.73452363305E+02  0.22464109374E+03  0.10614760147E+04  0.10874696319E+04  0.00000000000E+00 0.  1.
         12    1    5    5    0    0 -0.11045419238E+00 -0.60026567658E+01  0.93890904519E+01  0.11144465348E+02  0.00000000000E+00 0. -1.
        -13    1    3    3    0    0 -0.10743879268E+01 -0.11664508833E+02  0.20439331828E+02  0.23558042391E+02  0.00000000000E+00 0.  1.
         14    1    3    3    0    0  0.80487003178E+02 -0.91712465991E+02  0.12984652598E+04  0.13041860930E+04  0.00000000000E+00 0. -1.
          5    1    4    4  502    0  0.39953243733E+02 -0.48105490283E+02  0.26213584979E+02  0.67967947722E+02  0.47000000000E+01 0.  1.
         -5    1    4    4    0  502 -0.62470761335E+02 -0.16594189936E+03 -0.36775194412E+02  0.18114583878E+03  0.47000000000E+01 0.  1.
          1    1    1    2  503    0  0.43522010085E+02  0.29893037655E+02 -0.16998676597E+04  0.17006874550E+04  0.00000000000E+00 0. -1.
         -4    1    1    2    0  501 -0.26854290236E+02  0.68892889836E+02  0.18847372192E+04  0.18861870980E+04  0.00000000000E+00 0.  1.
<mgrwt>
<rscale>  0 0.62507501E+02</rscale>
<asrwt>0</asrwt>
<pdfrwt beam="2">  1        2 0.27193154E+00 0.52799234E+02</pdfrwt>
<pdfrwt beam="1">  1       -3 0.64900178E+00 0.74000841E+02</pdfrwt>
<totfact> 0.60321447E-03</totfact>
</mgrwt>
</event>
<event>
13    1  0.2038932E-008  0.8887093E+02  0.7546771E-02  0.1380537E+00
          2   -1    0    0  502    0  0.00000000000E+00  0.00000000000E+00  0.91108041999E+03  0.91108041999E+03  0.00000000000E+00 0. -1.
          4   -1    0    0  503    0 -0.00000000000E+00 -0.00000000000E+00 -0.35275478008E+03  0.35275478008E+03  0.00000000000E+00 0. -1.
         24    2    1    2    0    0  0.97325683685E+02 -0.12460761911E+03  0.92468774984E+02  0.19963067890E+03  0.79388828973E+02 0.  0.
         25    2    1    2    0    0 -0.10743113210E+03  0.84020798063E+02 -0.67901985146E+02  0.19706724352E+03  0.12499550484E+03 0.  0.
         24    2    1    2    0    0 -0.85158180866E+02 -0.53829075345E+02  0.36977457485E+03  0.39112113510E+03  0.78057805504E+02 0.  0.
        -11    1    3    3    0    0  0.21860866155E+02 -0.65543296128E+02  0.40019839992E+01  0.69208648392E+02  0.00000000000E+00 0.  1.
         12    1    3    3    0    0  0.75464817530E+02 -0.59064322978E+02  0.88466790985E+02  0.13042203050E+03  0.00000000000E+00 0. -1.
        -11    1    5    5    0    0  0.13048115645E+02 -0.17993271694E+02  0.50714728211E+02  0.55371425895E+02  0.00000000000E+00 0.  1.
         12    1    5    5    0    0 -0.98206296511E+02 -0.35835803651E+02  0.31905984664E+03  0.33574970921E+03  0.00000000000E+00 0. -1.
          5    1    4    4  501    0  0.59215054279E+00 -0.26083976100E+02  0.40164800086E+01  0.26813178907E+02  0.47000000000E+01 0. -1.
         -5    1    4    4    0  501 -0.10802328264E+03  0.11010477416E+03 -0.71918465154E+02  0.17025406461E+03  0.47000000000E+01 0. -1.
          1    1    1    2  502    0  0.36132990384E+02  0.29356521776E+02  0.30571124960E+03  0.30923577816E+03  0.00000000000E+00 0. -1.
          3    1    1    2  503    0  0.59130638899E+02  0.65059374611E+02 -0.14172697437E+03  0.16678036439E+03  0.00000000000E+00 0. -1.
<mgrwt>
<rscale>  0 0.64322741E+02</rscale>
<asrwt>0</asrwt>
<pdfrwt beam="1">  1        2 0.13398241E+00 0.46555326E+02</pdfrwt>
<pdfrwt beam="2">  1        4 0.51875703E-01 0.88870929E+02</pdfrwt>
<totfact> 0.61386489E+01</totfact>
</mgrwt>
</event>
<event>
13    1  0.2038932E-008  0.1419623E+03  0.7546771E-02  0.1283574E+00
          2   -1    0    0  502    0  0.00000000000E+00  0.00000000000E+00  0.22737047642E+04  0.22737047642E+04  0.00000000000E+00 0. -1.
          2   -1    0    0  503    0 -0.00000000000E+00 -0.00000000000E+00 -0.10171216947E+04  0.10171216947E+04  0.00000000000E+00 0. -1.
         24    2    1    2    0    0 -0.81176579029E+02  0.60476121342E+01 -0.16785488204E+03  0.20412017137E+03  0.82846679707E+02 0.  0.
         25    2    1    2    0    0  0.17341453474E+03  0.10919031687E+03  0.42536976045E+03  0.48842143851E+03  0.12498376827E+03 0.  0.
         24    2    1    2    0    0  0.28773342418E+02  0.25861765049E+02  0.60534303912E+02  0.10778427715E+03  0.80351181227E+02 0.  0.
        -11    1    3    3    0    0 -0.76377887174E+02 -0.26175934635E+02 -0.13824959920E+03  0.16009907209E+03  0.00000000000E+00 0.  1.
         12    1    3    3    0    0 -0.47986918544E+01  0.32223546770E+02 -0.29605282841E+02  0.44021099282E+02  0.00000000000E+00 0. -1.
        -13    1    5    5    0    0  0.48009393448E+02 -0.14101950265E+01  0.13097346481E+02  0.49783842701E+02  0.00000000000E+00 0.  1.
         14    1    5    5    0    0 -0.19236051029E+02  0.27271960076E+02  0.47436957431E+02  0.58000434446E+02  0.00000000000E+00 0. -1.
          5    1    4    4  501    0  0.31706392373E+02  0.25067512576E+02  0.10543166526E+02  0.42034793498E+02  0.47000000000E+01 0. -1.
         -5    1    4    4    0  501  0.14170814237E+03  0.84122804298E+02  0.41482659393E+03  0.44638664501E+03  0.47000000000E+01 0. -1.
          1    1    1    2  502    0 -0.54498138745E+02 -0.41142888762E+02  0.17091871754E+04  0.17105506671E+04  0.00000000000E+00 0. -1.
          1    1    1    2  503    0 -0.66513159387E+02 -0.99956805295E+02 -0.77065328822E+03  0.77994990477E+03  0.00000000000E+00 0. -1.
<mgrwt>
<rscale>  0 0.98457273E+02</rscale>
<asrwt>0</asrwt>
<pdfrwt beam="1">  1        2 0.33436835E+00 0.68284584E+02</pdfrwt>
<pdfrwt beam="2">  1        2 0.14957672E+00 0.14196227E+03</pdfrwt>
<totfact> 0.31092080E+01</totfact>
</mgrwt>
</event>
<event>
13    1  0.2038932E-008  0.6494364E+02  0.7546771E-02  0.1398874E+00
          2   -1    0    0  502    0  0.00000000000E+00  0.00000000000E+00  0.22216878221E+04  0.22216878221E+04  0.00000000000E+00 0. -1.
          4   -1    0    0  503    0 -0.00000000000E+00 -0.00000000000E+00 -0.29367297862E+03  0.29367297862E+03  0.00000000000E+00 0. -1.
         24    2    1    2    0    0  0.22071922572E+02  0.49272484245E+01 -0.63021152686E+02  0.10611553453E+03  0.82324925989E+02 0.  0.
         25    2    1    2    0    0  0.85737235965E+02  0.66213859194E+02  0.32717279646E+00  0.16541371817E+03  0.12500576922E+03 0.  0.
         24    2    1    2    0    0 -0.57132643045E+02 -0.41042271676E+02  0.12083932012E+04  0.12131480930E+04  0.81028142533E+02 0.  0.
        -11    1    5    5    0    0  0.83366783382E+01  0.75111330215E+01  0.31559182158E+02  0.33494765315E+02  0.00000000000E+00 0.  1.
         12    1    5    5    0    0 -0.65469321383E+02 -0.48553404697E+02  0.11768340190E+04  0.11796533277E+04  0.00000000000E+00 0. -1.
        -13    1    3    3    0    0 -0.10012428053E+02  0.34790452475E+02 -0.10473849954E+02  0.37687210454E+02  0.00000000000E+00 0.  1.
         14    1    3    3    0    0  0.32084350626E+02 -0.29863204050E+02 -0.52547302731E+02  0.68428324074E+02  0.00000000000E+00 0. -1.
          5    1    4    4  501    0  0.24791845867E+02  0.14988996096E+02 -0.59079068896E+02  0.65967658796E+02  0.47000000000E+01 0. -1.
         -5    1    4    4    0  501  0.60945390098E+02  0.51224863098E+02  0.59406241692E+02  0.99446059377E+02  0.47000000000E+01 0. -1.
          1    1    1    2  502    0  0.98793459264E+01 -0.54081261466E+02  0.89705966585E+03  0.89874269311E+03  0.00000000000E+00 0. -1.
          3    1    1    2  503    0 -0.60555861419E+02  0.23982425523E+02 -0.11474404369E+03  0.13194076189E+03  0.00000000000E+00 0. -1.
<mgrwt>
<rscale>  0 0.59752452E+02</rscale>
<asrwt>0</asrwt>
<pdfrwt beam="1">  1        2 0.32671879E+00 0.54976216E+02</pdfrwt>
<pdfrwt beam="2">  1        4 0.43187204E-01 0.64943639E+02</pdfrwt>
<totfact> 0.19309370E+01</totfact>
</mgrwt>
</event>
<event>
13    1  0.2038932E-008  0.1163471E+03  0.7546771E-02  0.1317255E+00
          2   -1    0    0  502    0  0.00000000000E+00  0.00000000000E+00  0.33905576948E+03  0.33905576948E+03  0.00000000000E+00 0. -1.
          2   -1    0    0  503    0 -0.00000000000E+00 -0.00000000000E+00 -0.10197937377E+04  0.10197937377E+04  0.00000000000E+00 0. -1.
         24    2    1    2    0    0  0.22545218778E+02 -0.10670325253E+03 -0.47134598453E+03  0.49048284232E+03  0.80700126942E+02 0.  0.
         25    2    1    2    0    0  0.44910157179E+02  0.28492282296E+02  0.14671479248E+03  0.19994816295E+03  0.12500122067E+03 0.  0.
         24    2    1    2    0    0 -0.44501763305E+02  0.19192947814E+02 -0.60378724276E+02  0.11264374291E+03  0.81818373779E+02 0.  0.
        -11    1    3    3    0    0  0.38701732665E+02 -0.30036305275E+02 -0.10519961605E+03  0.11604724453E+03  0.00000000000E+00 0.  1.
         12    1    3    3    0    0 -0.16156513887E+02 -0.76666947256E+02 -0.36614636848E+03  0.37443559779E+03  0.00000000000E+00 0. -1.
        -13    1    5    5    0    0 -0.17686380729E+02 -0.28842909534E+02 -0.43480347983E+02  0.55093213325E+02  0.00000000000E+00 0.  1.
         14    1    5    5    0    0 -0.26815382576E+02  0.48035857348E+02 -0.16898376292E+02  0.57550529582E+02  0.00000000000E+00 0. -1.
          5    1    4    4  501    0  0.86789363920E+02  0.58802613819E+01  0.10546172722E+03  0.13678902395E+03  0.47000000000E+01 0.  1.
         -5    1    4    4    0  501 -0.41879206741E+02  0.22612020914E+02  0.41253065254E+02  0.63159139006E+02  0.47000000000E+01 0.  1.
          1    1    1    2  502    0 -0.76341986302E+02  0.88711248277E+02  0.10086503489E+03  0.15450417375E+03  0.00000000000E+00 0. -1.
          1    1    1    2  503    0  0.53388373650E+02 -0.29693225857E+02 -0.39659308682E+03  0.40127058529E+03  0.00000000000E+00 0. -1.
<mgrwt>
<rscale>  0 0.84306959E+02</rscale>
<asrwt>0</asrwt>
<pdfrwt beam="1">  1        2 0.49861143E-01 0.11634713E+03</pdfrwt>
<pdfrwt beam="2">  1        2 0.14996967E+00 0.61090147E+02</pdfrwt>
<totfact> 0.45644737E+02</totfact>
</mgrwt>
</event>
<event>
13    1  0.2038932E-008  0.1118048E+03  0.7546771E-02  0.1264405E+00
          2   -1    0    0  502    0  0.00000000000E+00  0.00000000000E+00  0.28816887819E+04  0.28816887819E+04  0.00000000000E+00 0. -1.
          2   -1    0    0  503    0 -0.00000000000E+00 -0.00000000000E+00 -0.12602911003E+04  0.12602911003E+04  0.00000000000E+00 0. -1.
         24    2    1    2    0    0  0.98991557827E+02  0.49972885954E+02 -0.37889158460E+03  0.40294393812E+03  0.80674447852E+02 0.  0.
         25    2    1    2    0    0 -0.81696546230E+01 -0.15127913517E+03  0.18465324005E+03  0.26958014958E+03  0.12499807195E+03 0.  0.
         24    2    1    2    0    0 -0.15705060114E+02 -0.23228502390E+02  0.12539274331E+04  0.12564005573E+04  0.73635185966E+02 0.  0.
        -11    1    5    5    0    0 -0.15893594687E+02  0.21213716337E+02  0.76451629277E+03  0.76497567937E+03  0.00000000000E+00 0.  1.
         12    1    5    5    0    0  0.18853457341E+00 -0.44442218727E+02  0.48941114036E+03  0.49142487794E+03  0.00000000000E+00 0. -1.
        -13    1    3    3    0    0  0.67186567582E+02  0.48551615603E+02 -0.14603604436E+03  0.16792206673E+03  0.00000000000E+00 0.  1.
         14    1    3    3    0    0  0.31804990246E+02  0.14212703509E+01 -0.23285554024E+03  0.23502187139E+03  0.00000000000E+00 0. -1.
          5    1    4    4  501    0 -0.32118705408E+02 -0.12605106639E+01  0.76280513684E+02  0.82909630876E+02  0.47000000000E+01 0.  1.
         -5    1    4    4    0  501  0.23949050785E+02 -0.15001862451E+03  0.10837272636E+03  0.18667051870E+03  0.47000000000E+01 0.  1.
          1    1    1    2  502    0  0.32521623170E+02  0.15458647172E+03  0.13790705768E+04  0.13880887180E+04  0.00000000000E+00 0. -1.
          1    1    1    2  503    0 -0.10763846626E+03 -0.30051720108E+02 -0.81736198373E+03  0.82496651917E+03  0.00000000000E+00 0. -1.
<mgrwt>
<rscale>  0 0.10795486E+03</rscale>
<asrwt>0</asrwt>
<pdfrwt beam="1">  1        2 0.42377776E+00 0.10423748E+03</pdfrwt>
<pdfrwt beam="2">  1        2 0.18533693E+00 0.11180482E+03</pdfrwt>
<totfact> 0.10877653E+01</totfact>
</mgrwt>
</event>
<event>
13    1  0.2038932E-008  0.1982447E+03  0.7546771E-02  0.1191949E+00
          2   -1    0    0  503    0  0.00000000000E+00  0.00000000000E+00  0.30927770818E+04  0.30927770818E+04  0.00000000000E+00 0. -1.
         -1   -1    0    0    0  501 -0.00000000000E+00 -0.00000000000E+00 -0.11491945885E+04  0.11491945885E+04  0.00000000000E+00 0.  1.
         24    2    1    2    0    0 -0.73046221895E-01 -0.11977511706E+03  0.98711767274E+02  0.17387926483E+03  0.78383044963E+02 0.  0.
         25    2    1    2    0    0 -0.25553969965E+03  0.24941701053E+03  0.16516517223E+03  0.41281345429E+03  0.12500412266E+03 0.  0.
         24    2    1    2    0    0 -0.36788217582E+02  0.93902692510E+01  0.29373740483E+03  0.30639604047E+03  0.78455850689E+02 0.  0.
        -13    1    3    3    0    0 -0.12349128620E+02 -0.11571717830E+03  0.10735336264E+03  0.15832785858E+03  0.00000000000E+00 0.  1.
         14    1    3    3    0    0  0.12276082398E+02 -0.40579387551E+01 -0.86415953645E+01  0.15551406253E+02  0.00000000000E+00 0. -1.
        -13    1    5    5    0    0  0.12024807960E+02 -0.18207756502E+02  0.32079663718E+02  0.38797206440E+02  0.00000000000E+00 0.  1.
         14    1    5    5    0    0 -0.48813025542E+02  0.27598025753E+02  0.26165774111E+03  0.26759883403E+03  0.00000000000E+00 0. -1.
          5    1    4    4  502    0 -0.21821048745E+02  0.28569002278E+02  0.67668524750E+02  0.76768908429E+02  0.47000000000E+01 0.  1.
         -5    1    4    4    0  502 -0.23371865091E+03  0.22084800825E+03  0.97496647479E+02  0.33604454586E+03  0.47000000000E+01 0. -1.
          1    1    1    2  503    0  0.47254030778E+02 -0.18427865826E+03  0.23476859844E+04  0.23553812958E+04  0.00000000000E+00 0. -1.
         -2    1    1    2    0  501  0.24514693268E+03  0.45246495544E+02 -0.96171783536E+03  0.99350161490E+03  0.00000000000E+00 0.  1.
<mgrwt>
<rscale>  0 0.15715269E+03</rscale>
<asrwt>0</asrwt>
<pdfrwt beam="1">  1        2 0.45482016E+00 0.12457821E+03</pdfrwt>
<pdfrwt beam="2">  1       -1 0.16899920E+00 0.19824468E+03</pdfrwt>
<totfact> 0.80626533E-01</totfact>
</mgrwt>
</event>
<event>
13    1  0.2038932E-008  0.9362752E+02  0.7546771E-02  0.1389556E+00
         -1   -1    0    0    0  501 -0.00000000000E+00  0.00000000000E+00  0.86022028311E+03  0.86022028311E+03  0.00000000000E+00 0.  1.
          2   -1    0    0  503    0  0.00000000000E+00 -0.00000000000E+00 -0.15271191121E+04  0.15271191121E+04  0.00000000000E+00 0. -1.
         24    2    1    2    0    0  0.35041894767E+02  0.15029087186E+03  0.32978591202E+03  0.37293161832E+03  0.80647155088E+02 0.  0.
         25    2    1    2    0    0 -0.26030983731E+02 -0.21504484097E+03 -0.51100405775E+03  0.56892794430E+03  0.12502784899E+03 0.  0.
         24    2    1    2    0    0  0.25296389706E+02 -0.79251515991E+01  0.92341054782E+02  0.12422825050E+03  0.78759586482E+02 0.  0.
        -11    1    5    5    0    0  0.49207295167E+02  0.84459678735E+01  0.38363454760E+02  0.62963854172E+02  0.00000000000E+00 0.  1.
         12    1    5    5    0    0 -0.23910905461E+02 -0.16371119473E+02  0.53977600022E+02  0.61264396324E+02  0.00000000000E+00 0. -1.
        -13    1    3    3    0    0  0.42860578053E+02  0.15457336603E+03  0.32583999795E+03  0.36318267979E+03  0.00000000000E+00 0.  1.
         14    1    3    3    0    0 -0.78186832860E+01 -0.42824941657E+01  0.39459140663E+01  0.97489385281E+01  0.00000000000E+00 0. -1.
          5    1    4    4  502    0 -0.19258647844E+02 -0.10520217907E+02 -0.16798795642E+03  0.16948042365E+03  0.47000000000E+01 0. -1.
         -5    1    4    4    0  502 -0.67723358871E+01 -0.20452462306E+03 -0.34301610134E+03  0.39944752064E+03  0.47000000000E+01 0. -1.
          1    1    1    2  503    0  0.35748148990E+02 -0.20237496960E+02 -0.94006735581E+03  0.94096446261E+03  0.00000000000E+00 0. -1.
         -2    1    1    2    0  501 -0.70055449733E+02  0.92916617665E+02  0.36204561779E+03  0.38028711947E+03  0.00000000000E+00 0.  1.
<mgrwt>
<rscale>  0 0.62017155E+02</rscale>
<asrwt>0</asrwt>
<pdfrwt beam="2">  1        2 0.22457634E+00 0.41079027E+02</pdfrwt>
<pdfrwt beam="1">  1       -1 0.12650298E+00 0.93627523E+02</pdfrwt>
<totfact> 0.11909437E+01</totfact>
</mgrwt>
</event>
<event>
13    1  0.2038932E-008  0.1322068E+03  0.7546771E-02  0.1408036E+00
          2   -1    0    0  503    0  0.00000000000E+00  0.00000000000E+00  0.33952516298E+04  0.33952516298E+04  0.00000000000E+00 0. -1.
          2   -1    0    0  502    0 -0.00000000000E+00 -0.00000000000E+00 -0.91099924667E+03  0.91099924667E+03  0.00000000000E+00 0. -1.
         24    2    1    2    0    0  0.49576592996E+02  0.13013815273E+02 -0.15864318976E+03  0.18592385637E+03  0.82297149092E+02 0.  0.
         25    2    1    2    0    0  0.17985125966E+03  0.11465760784E+02  0.14471386311E+04  0.14636646194E+04  0.12500384467E+03 0.  0.
         24    2    1    2    0    0 -0.17532464193E+01 -0.43679436506E+02  0.92794975611E+02  0.12984421516E+03  0.79609331522E+02 0.  0.
        -13    1    5    5    0    0  0.30540253862E+02 -0.21941735738E+02  0.80779856680E+02  0.89104052200E+02  0.00000000000E+00 0.  1.
         14    1    5    5    0    0 -0.32293500282E+02 -0.21737700767E+02  0.12015118931E+02  0.40740162960E+02  0.00000000000E+00 0. -1.
        -13    1    3    3    0    0  0.13653720986E+02 -0.34309785547E+02 -0.71195893686E+02  0.80202498458E+02  0.00000000000E+00 0.  1.
         14    1    3    3    0    0  0.35922872009E+02  0.47323600820E+02 -0.87447296075E+02  0.10572135791E+03  0.00000000000E+00 0. -1.
          5    1    4    4  501    0  0.17661996052E+03  0.42846407322E+02  0.10851996513E+04  0.11003230427E+04  0.47000000000E+01 0. -1.
         -5    1    4    4    0  501  0.32312991385E+01 -0.31380646538E+02  0.36193897984E+03  0.36334157675E+03  0.47000000000E+01 0. -1.
          1    1    1    2  502    0 -0.22799229572E+03 -0.59233669768E+01 -0.69357227403E+03  0.73010826080E+03  0.00000000000E+00 0. -1.
          1    1    1    2  503    0  0.31768948247E+00  0.25123227426E+02  0.17965342402E+04  0.17967099248E+04  0.00000000000E+00 0. -1.
<mgrwt>
<rscale>  0 0.57634416E+02</rscale>
<asrwt>0</asrwt>
<pdfrwt beam="1">  1        2 0.49930171E+00 0.25125236E+02</pdfrwt>
<pdfrwt beam="2">  1        2 0.13397048E+00 0.13220675E+03</pdfrwt>
<totfact> 0.11646126E+01</totfact>
</mgrwt>
</event>
<event>
13    1  0.2038932E-008  0.1789461E+03  0.7546771E-02  0.1235419E+00
          2   -1    0    0  502    0  0.00000000000E+00  0.00000000000E+00  0.33735713980E+04  0.33735713980E+04  0.00000000000E+00 0. -1.
          2   -1    0    0  503    0 -0.00000000000E+00 -0.00000000000E+00 -0.18801984052E+04  0.18801984052E+04  0.00000000000E+00 0. -1.
         24    2    1    2    0    0 -0.11011770838E+04  0.53086753298E+03  0.22392536682E+03  0.12453507295E+04  0.79652760820E+02 0.  0.
         25    2    1    2    0    0  0.76718829904E+03 -0.26492473066E+03  0.16425351201E+03  0.83747720321E+03  0.12500340230E+03 0.  0.
         24    2    1    2    0    0  0.55300731390E+03 -0.11548182800E+03 -0.52738820767E+03  0.77656345479E+03  0.75890288647E+02 0.  0.
        -13    1    5    5    0    0  0.24611357336E+03 -0.69712907703E+02 -0.19337039886E+03  0.32066164667E+03  0.00000000000E+00 0.  1.
         14    1    5    5    0    0  0.30689374054E+03 -0.45768920298E+02 -0.33401780881E+03  0.45590180812E+03  0.00000000000E+00 0. -1.
        -13    1    3    3    0    0 -0.54989381153E+03  0.22108717507E+03  0.10470849881E+03  0.60185265029E+03  0.00000000000E+00 0.  1.
         14    1    3    3    0    0 -0.55128327222E+03  0.30978035791E+03  0.11921686801E+03  0.64349807924E+03  0.00000000000E+00 0. -1.
          5    1    4    4  501    0  0.11456354604E+03 -0.10491578670E+02  0.58194352826E+02  0.12900989111E+03  0.47000000000E+01 0.  1.
         -5    1    4    4    0  501  0.65262475300E+03 -0.25443315199E+03  0.10605915918E+03  0.70846731209E+03  0.47000000000E+01 0.  1.
          1    1    1    2  502    0 -0.14737543998E+03 -0.10109352136E+03  0.20044839112E+04  0.20124351345E+04  0.00000000000E+00 0. -1.
          1    1    1    2  503    0 -0.71643089199E+02 -0.49367452957E+02 -0.37190158959E+03  0.38194328110E+03  0.00000000000E+00 0. -1.
<mgrwt>
<rscale>  0 0.12477666E+03</rscale>
<asrwt>0</asrwt>
<pdfrwt beam="1">  1        2 0.49611345E+00 0.17894613E+03</pdfrwt>
<pdfrwt beam="2">  1        2 0.27649976E+00 0.87005044E+02</pdfrwt>
<totfact> 0.26988319E+00</totfact>
</mgrwt>
</event>
<event>
13    1  0.2038932E-008  0.1832743E+03  0.7546771E-02  0.1310620E+00
          2   -1    0    0  502    0  0.00000000000E+00  0.00000000000E+00  0.14660763684E+04  0.14660763684E+04  0.00000000000E+00 0. -1.
          2   -1    0    0  503    0 -0.00000000000E+00 -0.00000000000E+00 -0.12011019505E+04  0.12011019505E+04  0.00000000000E+00 0. -1.
         24    2    1    2    0    0  0.98917222366E+02 -0.12271330257E+02 -0.16690423649E+02  0.13179462662E+03  0.84593445003E+02 0.  0.
         25    2    1    2    0    0  0.60052574142E+01  0.40912425655E+02  0.72337435523E+03  0.73525879442E+03  0.12500058907E+03 0.  0.
         24    2    1    2    0    0  0.84847340621E+02  0.20247800901E+03  0.72707645086E+02  0.24502042582E+03  0.80945611818E+02 0.  0.
        -11    1    3    3    0    0  0.53173769768E+02 -0.25062579268E+02 -0.47160031140E+02  0.75363460696E+02  0.00000000000E+00 0.  1.
         12    1    3    3    0    0  0.45743452597E+02  0.12791249011E+02  0.30469607492E+02  0.56431165924E+02  0.00000000000E+00 0. -1.
        -11    1    5    5    0    0  0.63143641566E+02  0.54758500263E+02  0.37571604791E+02  0.91636446395E+02  0.00000000000E+00 0.  1.
         12    1    5    5    0    0  0.21703699055E+02  0.14771950875E+03  0.35136040294E+02  0.15338397943E+03  0.00000000000E+00 0. -1.
          5    1    4    4  501    0  0.69758143916E+01 -0.40143471786E+02  0.38946116476E+03  0.39161492460E+03  0.47000000000E+01 0. -1.
         -5    1    4    4    0  501 -0.97055697740E+00  0.81055897440E+02  0.33391319047E+03  0.34364386982E+03  0.47000000000E+01 0. -1.
          1    1    1    2  502    0  0.38891469994E+02 -0.13515811298E+02  0.49539724336E+03  0.49710527288E+03  0.00000000000E+00 0. -1.
          1    1    1    2  503    0 -0.22866129040E+03 -0.21760329311E+03 -0.10098144021E+04  0.10579991993E+04  0.00000000000E+00 0. -1.
<mgrwt>
<rscale>  0 0.86867535E+02</rscale>
<asrwt>0</asrwt>
<pdfrwt beam="1">  1        2 0.21559947E+00 0.41173093E+02</pdfrwt>
<pdfrwt beam="2">  1        2 0.17663264E+00 0.18327427E+03</pdfrwt>
<totfact> 0.61056733E+01</totfact>
</mgrwt>
</event>
<event>
13    1  0.2038932E-008  0.1272944E+03  0.7546771E-02  0.1300158E+00
          2   -1    0    0  503    0  0.00000000000E+00  0.00000000000E+00  0.46703724812E+03  0.46703724812E+03  0.00000000000E+00 0. -1.
         -1   -1    0    0    0  501 -0.00000000000E+00 -0.00000000000E+00 -0.15215175825E+04  0.15215175825E+04  0.00000000000E+00 0.  1.
         24    2    1    2    0    0 -0.52233098134E+02 -0.32811987494E+02 -0.35053101175E+03  0.36504797429E+03  0.81136368377E+02 0.  0.
         25    2    1    2    0    0  0.88555062192E+02 -0.25197881929E+02  0.17990473831E+03  0.23762805953E+03  0.12499779005E+03 0.  0.
         24    2    1    2    0    0  0.25778317946E+02  0.53059310866E+01 -0.13048384238E+02  0.80828775998E+02  0.75301767026E+02 0.  0.
        -11    1    3    3    0    0  0.13032776158E+02  0.14666144452E+02 -0.97594519363E+02  0.99547171015E+02  0.00000000000E+00 0.  1.
         12    1    3    3    0    0 -0.65265874293E+02 -0.47478131946E+02 -0.25293649238E+03  0.26550080328E+03  0.00000000000E+00 0. -1.
        -13    1    5    5    0    0  0.12613513737E+02  0.38311425873E+02  0.55620935860E+01  0.40716126612E+02  0.00000000000E+00 0.  1.
         14    1    5    5    0    0  0.13164804208E+02 -0.33005494786E+02 -0.18610477824E+02  0.40112649386E+02  0.00000000000E+00 0. -1.
          5    1    4    4  502    0  0.99689631335E+02  0.97857245326E+01  0.17302183707E+03  0.19998107186E+03  0.47000000000E+01 0. -1.
         -5    1    4    4    0  502 -0.11134569143E+02 -0.34983606462E+02  0.68829012386E+01  0.37646987668E+02  0.47000000000E+01 0. -1.
          1    1    1    2  503    0  0.55730115940E+02  0.33894936097E+02  0.20886109294E+03  0.21880966309E+03  0.00000000000E+00 0. -1.
         -2    1    1    2    0  501 -0.11783039794E+03  0.18809002239E+02 -0.10796667696E+04  0.10862403577E+04  0.00000000000E+00 0.  1.
<mgrwt>
<rscale>  0 0.91121767E+02</rscale>
<asrwt>0</asrwt>
<pdfrwt beam="1">  1        2 0.68681948E-01 0.65228157E+02</pdfrwt>
<pdfrwt beam="2">  1       -1 0.22375259E+00 0.12729436E+03</pdfrwt>
<totfact> 0.10337527E+01</totfact>
</mgrwt>
</event>
<event>
13    1  0.2038932E-008  0.2616706E+03  0.7546771E-02  0.1293745E+00
          2   -1    0    0  502    0  0.00000000000E+00  0.00000000000E+00  0.18253159329E+04  0.18253159329E+04  0.00000000000E+00 0. -1.
          2   -1    0    0  503    0 -0.00000000000E+00 -0.00000000000E+00 -0.15308405696E+04  0.15308405696E+04  0.00000000000E+00 0. -1.
         24    2    1    2    0    0  0.40229808527E+03  0.19267770228E+03 -0.51247160501E+03  0.68416492986E+03  0.80536072270E+02 0.  0.
         25    2    1    2    0    0 -0.17701370687E+03  0.16668871381E+02 -0.75745553306E+03  0.78801979775E+03  0.12499845355E+03 0.  0.
         24    2    1    2    0    0 -0.69694544610E+02 -0.31851016997E+02 -0.32226130101E+02  0.11808589162E+03  0.83868572817E+02 0.  0.
        -11    1    3    3    0    0  0.25425991923E+03  0.78237897673E+02 -0.30894889700E+03  0.40769927167E+03  0.00000000000E+00 0.  1.
         12    1    3    3    0    0  0.14803816603E+03  0.11443980461E+03 -0.20352270801E+03  0.27646565819E+03  0.00000000000E+00 0. -1.
        -13    1    5    5    0    0 -0.86758665889E+02 -0.12376110439E+02 -0.26645974622E+02  0.91598265158E+02  0.00000000000E+00 0.  1.
         14    1    5    5    0    0  0.17064121278E+02 -0.19474906559E+02 -0.55801554783E+01  0.26487626463E+02  0.00000000000E+00 0. -1.
          5    1    4    4  501    0 -0.31285050724E+02  0.49433219926E+02 -0.33040106274E+03  0.33557316623E+03  0.47000000000E+01 0.  1.
         -5    1    4    4    0  501 -0.14572865614E+03 -0.32764348545E+02 -0.42705447032E+03  0.45244663153E+03  0.47000000000E+01 0.  1.
          1    1    1    2  502    0 -0.18925367273E+03 -0.17670605886E+03  0.16674676892E+04  0.16874508818E+04  0.00000000000E+00 0. -1.
          1    1    1    2  503    0  0.33663838938E+02 -0.78949780264E+00 -0.70839057700E+02  0.78435001464E+02  0.00000000000E+00 0. -1.
<mgrwt>
<rscale>  0 0.93868313E+02</rscale>
<asrwt>0</asrwt>
<pdfrwt beam="1">  1        2 0.26842881E+00 0.26167063E+03</pdfrwt>
<pdfrwt beam="2">  1        2 0.22512361E+00 0.33673095E+02</pdfrwt>
<totfact> 0.26892324E+01</totfact>
</mgrwt>
</event>
<event>
13    1  0.2038932E-008  0.5044172E+02  0.7546771E-02  0.1461850E+00
          2   -1    0    0  502    0  0.00000000000E+00  0.00000000000E+00  0.14710857164E+04  0.14710857164E+04  0.00000000000E+00 0. -1.
          2   -1    0    0  503    0 -0.00000000000E+00 -0.00000000000E+00 -0.67466682320E+03  0.67466682320E+03  0.00000000000E+00 0. -1.
         24    2    1    2    0    0  0.74649005589E+02 -0.23932620504E+03 -0.21934505691E+02  0.26447256002E+03  0.81333301982E+02 0.  0.
         25    2    1    2    0    0  0.15813705565E+02  0.27606277447E+03 -0.28965246114E+02  0.30482289035E+03  0.12496911725E+03 0.  0.
         24    2    1    2    0    0 -0.14166266204E+03  0.32738828688E+02  0.10199555747E+04  0.10333936468E+04  0.80330032333E+02 0.  0.
        -13    1    5    5    0    0 -0.26514525723E+02 -0.21030550977E+02  0.12664255095E+03  0.13108638320E+03  0.00000000000E+00 0.  1.
         14    1    5    5    0    0 -0.11514813632E+03  0.53769379665E+02  0.89331302374E+03  0.90230726356E+03  0.00000000000E+00 0. -1.
        -13    1    3    3    0    0  0.91764036376E+02 -0.20778764315E+03 -0.24676506174E+02  0.22848473247E+03  0.00000000000E+00 0.  1.
         14    1    3    3    0    0 -0.17115030787E+02 -0.31538561890E+02  0.27420004834E+01  0.35987827547E+02  0.00000000000E+00 0. -1.
          5    1    4    4  501    0  0.58415733661E+02  0.14956854067E+03 -0.52922031199E+02  0.16913301772E+03  0.47000000000E+01 0. -1.
         -5    1    4    4    0  501 -0.42602028096E+02  0.12649423380E+03  0.23956785084E+02  0.13568987263E+03  0.47000000000E+01 0. -1.
          1    1    1    2  502    0  0.82297860245E+01 -0.43135486468E+02  0.18079716748E+03  0.18605379690E+03  0.00000000000E+00 0. -1.
          1    1    1    2  503    0  0.42970164864E+02 -0.26339911654E+02 -0.35343409715E+03  0.35700964559E+03  0.00000000000E+00 0. -1.
<mgrwt>
<rscale>  0 0.47064579E+02</rscale>
<asrwt>0</asrwt>
<pdfrwt beam="1">  1        2 0.21633613E+00 0.43913547E+02</pdfrwt>
<pdfrwt beam="2">  1        2 0.99215709E-01 0.50441715E+02</pdfrwt>
<totfact> 0.13305968E+02</totfact>
</mgrwt>
</event>
<event>
13    1  0.2038932E-008  0.1578073E+03  0.7546771E-02  0.1263743E+00
          2   -1    0    0  503    0  0.00000000000E+00  0.00000000000E+00  0.48041265809E+04  0.48041265809E+04  0.00000000000E+00 0. -1.
          2   -1    0    0  502    0 -0.00000000000E+00 -0.00000000000E+00 -0.33913610933E+04  0.33913610933E+04  0.00000000000E+00 0. -1.
         24    2    1    2    0    0 -0.10743149621E+03  0.38590499316E+03 -0.10970017517E+04  0.11705233437E+04  0.79043436096E+02 0.  0.
         25    2    1    2    0    0  0.27152551098E+03 -0.22707191079E+03  0.21434217894E+03  0.43226804796E+03  0.12500135931E+03 0.  0.
         24    2    1    2    0    0 -0.77910746798E+02  0.25514943289E+02  0.99718542797E+02  0.15040623204E+03  0.77182576146E+02 0.  0.
        -11    1    3    3    0    0 -0.53929912859E+02  0.29147238113E+03 -0.73241333114E+03  0.79012269433E+03  0.00000000000E+00 0.  1.
         12    1    3    3    0    0 -0.53501583355E+02  0.94432612033E+02 -0.36458842052E+03  0.38040064933E+03  0.00000000000E+00 0. -1.
        -13    1    5    5    0    0 -0.60632536489E+02  0.58106545705E+01  0.16423302462E+02  0.63085600983E+02  0.00000000000E+00 0.  1.
         14    1    5    5    0    0 -0.17278210310E+02  0.19704288718E+02  0.83295240335E+02  0.87320631055E+02  0.00000000000E+00 0. -1.
          5    1    4    4  501    0  0.25083111006E+03 -0.15754312634E+03  0.20194143539E+03  0.35852268514E+03  0.47000000000E+01 0.  1.
         -5    1    4    4    0  501  0.20694400915E+02 -0.69528784450E+02  0.12400743552E+02  0.73745362817E+02  0.47000000000E+01 0.  1.
          1    1    1    2  502    0 -0.17179342567E+02 -0.15671805268E+03 -0.21200447530E+04  0.21258987353E+04  0.00000000000E+00 0. -1.
          1    1    1    2  503    0 -0.69003925399E+02 -0.27629972986E+02  0.43157512706E+04  0.43163913153E+04  0.00000000000E+00 0. -1.
<mgrwt>
<rscale>  0 0.10830430E+03</rscale>
<asrwt>0</asrwt>
<pdfrwt beam="1">  1        2 0.70648920E+00 0.74330055E+02</pdfrwt>
<pdfrwt beam="2">  1        2 0.49872957E+00 0.15780726E+03</pdfrwt>
<totfact> 0.48590965E-02</totfact>
</mgrwt>
</event>
<event>
13    1  0.2038932E-008  0.8027145E+02  0.7546771E-02  0.1409009E+00
          2   -1    0    0  503    0  0.00000000000E+00  0.00000000000E+00  0.33535900278E+04  0.33535900278E+04  0.00000000000E+00 0. -1.
          2   -1    0    0  502    0 -0.00000000000E+00 -0.00000000000E+00 -0.13364611472E+04  0.13364611472E+04  0.00000000000E+00 0. -1.
         24    2    1    2    0    0 -0.27114760105E+02  0.10453917747E+02 -0.52671090694E+03  0.53352606257E+03  0.79882321845E+02 0.  0.
         25    2    1    2    0    0 -0.15925238975E+03  0.38100882524E+02  0.63660078191E+03  0.66910225196E+03  0.12499706860E+03 0.  0.
         24    2    1    2    0    0  0.67138851094E+02  0.13205577515E+02 -0.13968608284E+03  0.17566283192E+03  0.81628525497E+02 0.  0.
        -11    1    3    3    0    0  0.18058001687E+02 -0.12204695076E+02 -0.31945537640E+03  0.32019803797E+03  0.00000000000E+00 0.  1.
         12    1    3    3    0    0 -0.45172761792E+02  0.22658612823E+02 -0.20725553054E+03  0.21332802461E+03  0.00000000000E+00 0. -1.
        -13    1    5    5    0    0  0.76030715013E+02  0.16608651510E+02 -0.67997952047E+02  0.10334523895E+03  0.00000000000E+00 0.  1.
         14    1    5    5    0    0 -0.88918639193E+01 -0.34030739954E+01 -0.71688130796E+02  0.72317592975E+02  0.00000000000E+00 0. -1.
          5    1    4    4  501    0 -0.42669367478E+02 -0.36685434824E+02  0.29684551133E+03  0.30216856827E+03  0.47000000000E+01 0.  1.
         -5    1    4    4    0  501 -0.11658302227E+03  0.74786317348E+02  0.33975527057E+03  0.36693368369E+03  0.47000000000E+01 0.  1.
          1    1    1    2  502    0  0.93794874851E+02 -0.29516461913E+02 -0.62843680913E+03  0.63608295304E+03  0.00000000000E+00 0. -1.
          1    1    1    2  503    0  0.25433423908E+02 -0.32243915872E+02  0.26753618976E+04  0.26756770755E+04  0.00000000000E+00 0. -1.
<mgrwt>
<rscale>  0 0.57415481E+02</rscale>
<asrwt>0</asrwt>
<pdfrwt beam="1">  1        2 0.49317500E+00 0.41067373E+02</pdfrwt>
<pdfrwt beam="2">  1        2 0.19653840E+00 0.80271445E+02</pdfrwt>
<totfact> 0.66560284E+00</totfact>
</mgrwt>
</event>
<event>
13    1  0.2038932E-008  0.2186438E+03  0.7546771E-02  0.1258924E+00
          2   -1    0    0  503    0  0.00000000000E+00  0.00000000000E+00  0.21764645995E+04  0.21764645995E+04  0.00000000000E+00 0. -1.
          2   -1    0    0  502    0 -0.00000000000E+00 -0.00000000000E+00 -0.21261219808E+04  0.21261219808E+04  0.00000000000E+00 0. -1.
         24    2    1    2    0    0 -0.30672551903E+03  0.73301537770E+02 -0.60906203464E+03  0.69056292779E+03  0.80417260136E+02 0.  0.
         25    2    1    2    0    0  0.15949687647E+03 -0.19651418877E+03  0.58050905806E+03  0.64550071440E+03  0.12499330304E+03 0.  0.
         24    2    1    2    0    0  0.35309921790E+02 -0.43434507263E+02 -0.51404982474E+01  0.96856595775E+02  0.78876032005E+02 0.  0.
        -13    1    3    3    0    0 -0.12695909569E+03  0.44861839700E+02 -0.18252133577E+03  0.22681541978E+03  0.00000000000E+00 0.  1.
         14    1    3    3    0    0 -0.17976642335E+03  0.28439698070E+02 -0.42654069887E+03  0.46374750801E+03  0.00000000000E+00 0. -1.
        -13    1    5    5    0    0  0.20225460112E+02 -0.66261965483E+02 -0.54460325913E+01  0.69493716100E+02  0.00000000000E+00 0.  1.
         14    1    5    5    0    0  0.15084461678E+02  0.22827458220E+02  0.30553434389E+00  0.27362879675E+02  0.00000000000E+00 0. -1.
          5    1    4    4  501    0  0.35667125362E+02  0.11971020832E+02  0.55943535665E+02  0.67581198229E+02  0.47000000000E+01 0.  1.
         -5    1    4    4    0  501  0.12382975111E+03 -0.20848520960E+03  0.52456552240E+03  0.57791951617E+03  0.47000000000E+01 0.  1.
          1    1    1    2  502    0  0.72691440542E+02  0.20695325315E+03 -0.13836370897E+04  0.14009158756E+04  0.00000000000E+00 0. -1.
          1    1    1    2  503    0  0.39227280234E+02 -0.40306094888E+02  0.14676731832E+04  0.14687504667E+04  0.00000000000E+00 0. -1.
<mgrwt>
<rscale>  0 0.11089341E+03</rscale>
<asrwt>0</asrwt>
<pdfrwt beam="1">  1        2 0.32006833E+00 0.56243762E+02</pdfrwt>
<pdfrwt beam="2">  1        2 0.31266499E+00 0.21864377E+03</pdfrwt>
<totfact> 0.91999894E+00</totfact>
</mgrwt>
</event>
<event>
13    1  0.2038932E-008  0.1551775E+03  0.7546771E-02  0.1411382E+00
          2   -1    0    0  502    0  0.00000000000E+00  0.00000000000E+00  0.32554280703E+04  0.32554280703E+04  0.00000000000E+00 0. -1.
          2   -1    0    0  503    0 -0.00000000000E+00 -0.00000000000E+00 -0.33163424014E+04  0.33163424014E+04  0.00000000000E+00 0. -1.
         24    2    1    2    0    0  0.72593074875E+02 -0.57019706200E+02 -0.18546954773E+03  0.22243905279E+03  0.80988750176E+02 0.  0.
         25    2    1    2    0    0 -0.20459328215E+03  0.31014846083E+03  0.20206396261E+04  0.20583146991E+04  0.12499769132E+03 0.  0.
         24    2    1    2    0    0  0.72959710528E+02 -0.13135408064E+03 -0.42943653396E+03  0.46189343332E+03  0.79704411349E+02 0.  0.
        -11    1    5    5    0    0  0.34255637848E+02 -0.10412484568E+02 -0.48047439209E+02  0.59920154988E+02  0.00000000000E+00 0.  1.
         12    1    5    5    0    0  0.38704072680E+02 -0.12094159607E+03 -0.38138909475E+03  0.40197327834E+03  0.00000000000E+00 0. -1.
        -13    1    3    3    0    0  0.80103147157E+02 -0.29243212971E+02 -0.16897457632E+03  0.18927252081E+03  0.00000000000E+00 0.  1.
         14    1    3    3    0    0 -0.75100722816E+01 -0.27776493229E+02 -0.16494971402E+02  0.33166531976E+02  0.00000000000E+00 0. -1.
          5    1    4    4  501    0 -0.17452316337E+03  0.16975152625E+03  0.11084388995E+04  0.11348712699E+04  0.47000000000E+01 0. -1.
         -5    1    4    4    0  501 -0.30070118779E+02  0.14039693458E+03  0.91220072662E+03  0.92344342920E+03  0.47000000000E+01 0. -1.
          1    1    1    2  502    0  0.20459649797E+02 -0.40366908200E+01  0.11796961633E+04  0.11798804727E+04  0.00000000000E+00 0. -1.
          1    1    1    2  503    0  0.38580846951E+02 -0.11773798317E+03 -0.26463440389E+04  0.26492428138E+04  0.00000000000E+00 0. -1.
<mgrwt>
<rscale>  0 0.56886580E+02</rscale>
<asrwt>0</asrwt>
<pdfrwt beam="1">  1        2 0.47873942E+00 0.20854068E+02</pdfrwt>
<pdfrwt beam="2">  1        2 0.48769741E+00 0.15517754E+03</pdfrwt>
<totfact> 0.79158154E-01</totfact>
</mgrwt>
</event>
<event>
13    1  0.2038932E-008  0.9480041E+02  0.7546771E-02  0.1350326E+00
          2   -1    0    0  502    0  0.00000000000E+00  0.00000000000E+00  0.14500923433E+04  0.14500923433E+04  0.00000000000E+00 0. -1.
          2   -1    0    0  503    0 -0.00000000000E+00 -0.00000000000E+00 -0.22560331751E+04  0.22560331751E+04  0.00000000000E+00 0. -1.
         24    2    1    2    0    0 -0.28668700530E+02 -0.37374233430E+02 -0.10409619919E+04  0.10452266645E+04  0.81720155351E+02 0.  0.
         25    2    1    2    0    0  0.13260824568E+03  0.16237396125E+03 -0.41998368550E+03  0.48574534395E+03  0.12494796105E+03 0.  0.
         24    2    1    2    0    0 -0.10416487850E+02 -0.16213683850E+02  0.18867114239E+02  0.84992386731E+02  0.80599944413E+02 0.  0.
        -13    1    5    5    0    0 -0.19329599559E+02  0.16288374759E+02  0.38449501183E+02  0.46014222939E+02  0.00000000000E+00 0.  1.
         14    1    5    5    0    0  0.89131117084E+01 -0.32502058610E+02 -0.19582386944E+02  0.38978163792E+02  0.00000000000E+00 0. -1.
        -13    1    3    3    0    0 -0.55495276828E+02 -0.16831560416E+02 -0.76693855743E+03  0.76912793347E+03  0.00000000000E+00 0.  1.
         14    1    3    3    0    0  0.26826576297E+02 -0.20542673014E+02 -0.27402343449E+03  0.27609873100E+03  0.00000000000E+00 0. -1.
          5    1    4    4  501    0  0.13744267302E+03  0.81630042201E+02 -0.24047959003E+03  0.28880179254E+03  0.47000000000E+01 0.  1.
         -5    1    4    4    0  501 -0.48344273347E+01  0.80743919049E+02 -0.17950409547E+03  0.19694355141E+03  0.47000000000E+01 0.  1.
          1    1    1    2  502    0 -0.51696293198E+02 -0.71336500036E+02  0.13606388615E+04  0.13634879957E+04  0.00000000000E+00 0. -1.
          1    1    1    2  503    0 -0.41826764102E+02 -0.37449543932E+02 -0.72450113024E+03  0.72667312752E+03  0.00000000000E+00 0. -1.
<mgrwt>
<rscale>  0 0.72954118E+02</rscale>
<asrwt>0</asrwt>
<pdfrwt beam="1">  1        2 0.21324887E+00 0.94800407E+02</pdfrwt>
<pdfrwt beam="2">  1        2 0.33176958E+00 0.56142199E+02</pdfrwt>
<totfact> 0.19592297E+01</totfact>
</mgrwt>
</event>
<event>
13    1  0.2038932E-008  0.1529766E+03  0.7546771E-02  0.1224675E+00
          2   -1    0    0  502    0  0.00000000000E+00  0.00000000000E+00  0.86330162301E+03  0.86330162301E+03  0.00000000000E+00 0. -1.
          2   -1    0    0  503    0 -0.00000000000E+00 -0.00000000000E+00 -0.30437949126E+04  0.30437949126E+04  0.00000000000E+00 0. -1.
         24    2    1    2    0    0 -0.80959312313E+01 -0.56732014668E+02 -0.23782982171E+03  0.25809492768E+03  0.82255103244E+02 0.  0.
         25    2    1    2    0    0  0.15093636176E+03 -0.73873870533E+02  0.51108043874E+03  0.55232901835E+03  0.12499998241E+03 0.  0.
         24    2    1    2    0    0  0.43392831201E+02 -0.76825641830E+02 -0.15868095277E+03  0.19719905343E+03  0.76959111600E+02 0.  0.
        -11    1    5    5    0    0  0.39394941989E+02 -0.92672362445E+02 -0.13824903224E+03  0.17103485940E+03  0.00000000000E+00 0.  1.
         12    1    5    5    0    0  0.39978892125E+01  0.15846720615E+02 -0.20431920529E+02  0.26164194024E+02  0.00000000000E+00 0. -1.
        -11    1    3    3    0    0 -0.90069353902E+01  0.20664254499E+02 -0.45606541548E+02  0.50873302734E+02  0.00000000000E+00 0.  1.
         12    1    3    3    0    0  0.91100415894E+00 -0.77396269167E+02 -0.19222328016E+03  0.20722162495E+03  0.00000000000E+00 0. -1.
          5    1    4    4  501    0  0.69957618047E+02 -0.78487377446E+02  0.15675596899E+03  0.18880905846E+03  0.47000000000E+01 0. -1.
         -5    1    4    4    0  501  0.80978743713E+02  0.46135069132E+01  0.35432446975E+03  0.36351995989E+03  0.47000000000E+01 0. -1.
          1    1    1    2  502    0 -0.21303615015E+03  0.27011717664E+02  0.26039191981E+03  0.33751738631E+03  0.00000000000E+00 0. -1.
          1    1    1    2  503    0  0.26802888419E+02  0.18041980937E+03 -0.25554548737E+04  0.25619561499E+04  0.00000000000E+00 0. -1.
<mgrwt>
<rscale>  0 0.13189238E+03</rscale>
<asrwt>0</asrwt>
<pdfrwt beam="1">  1        2 0.12695612E+00 0.15297661E+03</pdfrwt>
<pdfrwt beam="2">  1        2 0.44761690E+00 0.11371412E+03</pdfrwt>
<totfact> 0.14596834E+01</totfact>
</mgrwt>
</event>
<event>
13    1  0.2038932E-008  0.6015114E+02  0.7546771E-02  0.1446306E+00
          2   -1    0    0  503    0  0.00000000000E+00  0.00000000000E+00  0.19708282165E+04  0.19708282165E+04  0.00000000000E+00 0. -1.
          2   -1    0    0  502    0 -0.00000000000E+00 -0.00000000000E+00 -0.15081020939E+04  0.15081020939E+04  0.00000000000E+00 0. -1.
         24    2    1    2    0    0  0.58616928996E+02  0.28858187676E+02 -0.23669176593E+03  0.25828605005E+03  0.80124604397E+02 0.  0.
         25    2    1    2    0    0 -0.17384474904E+02 -0.13897863381E+03  0.11905854802E+04  0.12052950408E+04  0.12500027637E+03 0.  0.
         24    2    1    2    0    0 -0.60450889109E+02  0.11139846427E+03 -0.26123921184E+02  0.15138508011E+03  0.78556065249E+02 0.  0.
        -11    1    3    3    0    0  0.76328861096E+02  0.28267902489E+02 -0.15928698050E+03  0.17887848250E+03  0.00000000000E+00 0.  1.
         12    1    3    3    0    0 -0.17711932100E+02  0.59028518740E+00 -0.77404785433E+02  0.79407567544E+02  0.00000000000E+00 0. -1.
        -11    1    5    5    0    0 -0.35287135865E+02  0.10084605953E+03 -0.47301818066E+02  0.11684421968E+03  0.00000000000E+00 0.  1.
         12    1    5    5    0    0 -0.25163753244E+02  0.10552404737E+02  0.21177896882E+02  0.34540860432E+02  0.00000000000E+00 0. -1.
          5    1    4    4  501    0  0.30073212098E+02 -0.76177385163E+01  0.48436319434E+03  0.48537843180E+03  0.47000000000E+01 0.  1.
         -5    1    4    4    0  501 -0.47457687002E+02 -0.13136089530E+03  0.70622228584E+03  0.71991660898E+03  0.47000000000E+01 0.  1.
          1    1    1    2  502    0 -0.40984280896E+02 -0.48142841003E+01 -0.11628373480E+04  0.11635693303E+04  0.00000000000E+00 0. -1.
          1    1    1    2  503    0  0.60202715913E+02  0.35362659685E+01  0.69779367759E+03  0.70039480913E+03  0.00000000000E+00 0. -1.
<mgrwt>
<rscale>  0 0.49821695E+02</rscale>
<asrwt>0</asrwt>
<pdfrwt beam="1">  1        2 0.28982768E+00 0.60151141E+02</pdfrwt>
<pdfrwt beam="2">  1        2 0.22177972E+00 0.41266071E+02</pdfrwt>
<totfact> 0.26513256E+01</totfact>
</mgrwt>
</event>
<event>
13    1  0.2038932E-008  0.1022131E+03  0.7546771E-02  0.1314475E+00
          2   -1    0    0  503    0  0.00000000000E+00  0.00000000000E+00  0.21414924492E+04  0.21414924492E+04  0.00000000000E+00 0. -1.
          2   -1    0    0  502    0 -0.00000000000E+00 -0.00000000000E+00 -0.18103774949E+04  0.18103774949E+04  0.00000000000E+00 0. -1.
         24    2    1    2    0    0  0.31036119346E+03 -0.27017258918E+03 -0.45997245146E+02  0.42815870112E+03  0.10902673264E+03 0.  0.
         25    2    1    2    0    0 -0.16921876265E+03  0.37931824727E+03 -0.14752120111E+03  0.45815432843E+03  0.12500224611E+03 0.  0.
         24    2    1    2    0    0 -0.15251621949E+03 -0.31179446237E+02  0.44175720885E+01  0.17568949038E+03  0.81326053717E+02 0.  0.
        -11    1    3    3    0    0  0.19793343189E+03 -0.21465007720E+03 -0.70560884152E+02  0.30038498211E+03  0.00000000000E+00 0.  1.
         12    1    3    3    0    0  0.11242776158E+03 -0.55522511973E+02  0.24563639006E+02  0.12777371901E+03  0.00000000000E+00 0. -1.
        -11    1    5    5    0    0 -0.12678671471E+03 -0.45822524606E+02 -0.21286488340E+02  0.13648329339E+03  0.00000000000E+00 0.  1.
         12    1    5    5    0    0 -0.25729504776E+02  0.14643078369E+02  0.25704060429E+02  0.39206196993E+02  0.00000000000E+00 0. -1.
          5    1    4    4  501    0 -0.14421478235E+03  0.37206351774E+03 -0.15866343781E+03  0.42944771646E+03  0.47000000000E+01 0.  1.
         -5    1    4    4    0  501 -0.25003980305E+02  0.72547295375E+01  0.11142236704E+02  0.28706611965E+02  0.47000000000E+01 0.  1.
          1    1    1    2  502    0 -0.69610134331E+02 -0.15420366337E+02 -0.11822156330E+04  0.11843636103E+04  0.00000000000E+00 0. -1.
          1    1    1    2  503    0  0.80983923007E+02 -0.62545845523E+02  0.17024314614E+04  0.17055038139E+04  0.00000000000E+00 0. -1.
<mgrwt>
<rscale>  0 0.85367180E+02</rscale>
<asrwt>0</asrwt>
<pdfrwt beam="1">  1        2 0.31492536E+00 0.10221309E+03</pdfrwt>
<pdfrwt beam="2">  1        2 0.26623198E+00 0.71297675E+02</pdfrwt>
<totfact> 0.14206501E+01</totfact>
</mgrwt>
</event>
<event>
13    1  0.2038932E-008  0.6915826E+02  0.7546771E-02  0.1461554E+00
          2   -1    0    0  503    0  0.00000000000E+00  0.00000000000E+00  0.31639376420E+04  0.31639376420E+04  0.00000000000E+00 0. -1.
          2   -1    0    0  502    0 -0.00000000000E+00 -0.00000000000E+00 -0.52586060276E+04  0.52586060276E+04  0.00000000000E+00 0. -1.
         24    2    1    2    0    0 -0.87553174195E+03  0.19442501922E+03 -0.80388648086E+03  0.12071638345E+04  0.81572850335E+02 0.  0.
         25    2    1    2    0    0 -0.64855567793E+03 -0.15237301485E+04 -0.58150828870E+02  0.16617413634E+04  0.12499922890E+03 0.  0.
         24    2    1    2    0    0  0.16168671409E+04  0.13559601159E+04  0.88704204624E+03  0.22902001026E+04  0.72703033434E+02 0.  0.
        -11    1    5    5    0    0  0.13895804845E+04  0.11314227907E+04  0.75445003129E+03  0.19442855510E+04  0.00000000000E+00 0.  1.
         12    1    5    5    0    0  0.22728665638E+03  0.22453732516E+03  0.13259201495E+03  0.34591455157E+03  0.00000000000E+00 0. -1.
        -11    1    3    3    0    0 -0.43988852301E+03  0.55919106496E+02 -0.39461206021E+03  0.59358869363E+03  0.00000000000E+00 0.  1.
         12    1    3    3    0    0 -0.43564321893E+03  0.13850591273E+03 -0.40927442065E+03  0.61357514085E+03  0.00000000000E+00 0. -1.
          5    1    4    4  501    0 -0.49394773392E+02 -0.11805159003E+03 -0.37927837231E+02  0.13355385574E+03  0.47000000000E+01 0. -1.
         -5    1    4    4    0  501 -0.59916090454E+03 -0.14056785585E+04 -0.20222991639E+02  0.15281875077E+04  0.47000000000E+01 0. -1.
          1    1    1    2  502    0 -0.61173397121E+02 -0.32250255111E+02 -0.26906607458E+04  0.26915492774E+04  0.00000000000E+00 0. -1.
          1    1    1    2  503    0 -0.31606323869E+02  0.55952684782E+01  0.57098762370E+03  0.57188909166E+03  0.00000000000E+00 0. -1.
<mgrwt>
<rscale>  0 0.47115026E+02</rscale>
<asrwt>0</asrwt>
<pdfrwt beam="1">  1        2 0.46528495E+00 0.32097768E+02</pdfrwt>
<pdfrwt beam="2">  1        2 0.77332441E+00 0.69158256E+02</pdfrwt>
<totfact> 0.31071657E-02</totfact>
</mgrwt>
</event>
<event>
13    1  0.2038932E-008  0.1134705E+03  0.7546771E-02  0.1255503E+00
          2   -1    0    0  502    0  0.00000000000E+00  0.00000000000E+00  0.78929963631E+03  0.78929963631E+03  0.00000000000E+00 0. -1.
          2   -1    0    0  503    0 -0.00000000000E+00 -0.00000000000E+00 -0.12986196192E+04  0.12986196192E+04  0.00000000000E+00 0. -1.
         24    2    1    2    0    0 -0.25703803540E+02  0.42442664586E+02 -0.13629808371E+03  0.16755042384E+03  0.83868418440E+02 0.  0.
         25    2    1    2    0    0  0.60949488019E+02  0.60964787803E+02  0.16120843504E+03  0.22145490160E+03  0.12499027352E+03 0.  0.
         24    2    1    2    0    0 -0.52845181297E+02 -0.50721372506E+01  0.92234456898E+02  0.13321772293E+03  0.80133806225E+02 0.  0.
        -11    1    3    3    0    0 -0.11386140893E+02  0.62818901289E+02 -0.61228267822E+02  0.88457669787E+02  0.00000000000E+00 0.  1.
         12    1    3    3    0    0 -0.14317662647E+02 -0.20376236703E+02 -0.75069815891E+02  0.79092754054E+02  0.00000000000E+00 0. -1.
        -13    1    5    5    0    0 -0.72415200201E+02  0.84677120190E+00  0.84672403555E+02  0.11141855395E+03  0.00000000000E+00 0.  1.
         14    1    5    5    0    0  0.19570018904E+02 -0.59189084525E+01  0.75620533438E+01  0.21799168973E+02  0.00000000000E+00 0. -1.
          5    1    4    4  501    0  0.46208389124E+02 -0.32048057089E+02  0.73621539574E+02  0.92760521117E+02  0.47000000000E+01 0.  1.
         -5    1    4    4    0  501  0.14741098895E+02  0.93012844893E+02  0.87586895466E+02  0.12869438049E+03  0.47000000000E+01 0.  1.
          1    1    1    2  502    0 -0.85717414557E+02  0.57088500920E+02  0.45588532906E+03  0.46737351802E+03  0.00000000000E+00 0. -1.
          1    1    1    2  503    0  0.10331691138E+03 -0.15542381606E+03 -0.10823501201E+04  0.10983226891E+04  0.00000000000E+00 0. -1.
<mgrwt>
<rscale>  0 0.11278181E+03</rscale>
<asrwt>0</asrwt>
<pdfrwt beam="1">  1        2 0.11607348E+00 0.11347045E+03</pdfrwt>
<pdfrwt beam="2">  1        2 0.19097347E+00 0.11209735E+03</pdfrwt>
<totfact> 0.12319201E+02</totfact>
</mgrwt>
</event>
<event>
13    1  0.2038932E-008  0.1066976E+03  0.7546771E-02  0.1413329E+00
          2   -1    0    0  503    0  0.00000000000E+00  0.00000000000E+00  0.42488011089E+04  0.42488011089E+04  0.00000000000E+00 0. -1.
          2   -1    0    0  502    0 -0.00000000000E+00 -0.00000000000E+00 -0.40023259031E+04  0.40023259031E+04  0.00000000000E+00 0. -1.
         24    2    1    2    0    0 -0.15828258526E+04 -0.15899400366E+04  0.33927792106E+02  0.22456626066E+04  0.92749382343E+02 0.  0.
         25    2    1    2    0    0  0.10882256208E+04  0.12759414643E+04 -0.59962222076E+03  0.17853382935E+04  0.12499756967E+03 0.  0.
         24    2    1    2    0    0  0.47226749346E+03  0.39848906764E+03  0.16292539082E+04  0.17447434332E+04  0.88494223898E+02 0.  0.
        -11    1    3    3    0    0 -0.44827337687E+03 -0.40553726491E+03 -0.17239003403E+02  0.60473686582E+03  0.00000000000E+00 0.  1.
         12    1    3    3    0    0 -0.11345524758E+04 -0.11844027717E+04  0.51166795509E+02  0.16409257408E+04  0.00000000000E+00 0. -1.
        -11    1    5    5    0    0  0.52461026262E+02  0.62354442005E+02  0.14907143055E+03  0.16988974990E+03  0.00000000000E+00 0.  1.
         12    1    5    5    0    0  0.41980646720E+03  0.33613462563E+03  0.14801824777E+04  0.15748536833E+04  0.00000000000E+00 0. -1.
          5    1    4    4  501    0  0.94635009040E+02  0.14471241751E+03 -0.29984350234E+02  0.17555232832E+03  0.47000000000E+01 0.  1.
         -5    1    4    4    0  501  0.99359061181E+03  0.11312290467E+04 -0.56963787053E+03  0.16097859652E+04  0.47000000000E+01 0.  1.
          1    1    1    2  502    0  0.23343191588E+01 -0.10668307172E+03 -0.16442343363E+04  0.16476933208E+04  0.00000000000E+00 0. -1.
          1    1    1    2  503    0  0.19998419154E+02  0.22192576422E+02  0.82715006258E+03  0.82768935794E+03  0.00000000000E+00 0. -1.
<mgrwt>
<rscale>  0 0.56457675E+02</rscale>
<asrwt>0</asrwt>
<pdfrwt beam="1">  1        2 0.62482370E+00 0.29873855E+02</pdfrwt>
<pdfrwt beam="2">  1        2 0.58857733E+00 0.10669761E+03</pdfrwt>
<totfact> 0.75032016E-02</totfact>
</mgrwt>
</event>
<event>
13    1  0.2038932E-008  0.1290669E+03  0.7546771E-02  0.1339516E+00
          2   -1    0    0  502    0  0.00000000000E+00  0.00000000000E+00  0.51095832618E+03  0.51095832618E+03  0.00000000000E+00 0. -1.
          2   -1    0    0  503    0 -0.00000000000E+00 -0.00000000000E+00 -0.20421103259E+04  0.20421103259E+04  0.00000000000E+00 0. -1.
         24    2    1    2    0    0  0.15812293516E+02  0.19344524857E+03 -0.15442506312E+04  0.15584020136E+04  0.78966646118E+02 0.  0.
         25    2    1    2    0    0  0.75800764169E+02 -0.21069185498E+02  0.62153540548E+02  0.16024606485E+03  0.12500428901E+03 0.  0.
         24    2    1    2    0    0 -0.39340631031E+02  0.20711695847E+02 -0.21651120432E+02  0.95060448116E+02  0.81185332329E+02 0.  0.
        -11    1    5    5    0    0 -0.20668296825E+01  0.23903604583E+02 -0.44975309610E+02  0.50974822918E+02  0.00000000000E+00 0.  1.
         12    1    5    5    0    0 -0.37273801348E+02 -0.31919087369E+01  0.23324189178E+02  0.44085625198E+02  0.00000000000E+00 0. -1.
        -13    1    3    3    0    0 -0.29657951110E+02  0.51782823116E+02 -0.51712009147E+03  0.52055186470E+03  0.00000000000E+00 0.  1.
         14    1    3    3    0    0  0.45470244626E+02  0.14166242545E+03 -0.10271305397E+04  0.10378501489E+04  0.00000000000E+00 0. -1.
          5    1    4    4  501    0  0.84561849176E+02 -0.60134811705E+02  0.28434179861E+02  0.10769166402E+03  0.47000000000E+01 0.  1.
         -5    1    4    4    0  501 -0.87610850077E+01  0.39065626207E+02  0.33719360686E+02  0.52554400829E+02  0.47000000000E+01 0.  1.
          1    1    1    2  502    0 -0.82337213643E+02 -0.15926507446E+03  0.33189353077E+03  0.37722419920E+03  0.00000000000E+00 0. -1.
          1    1    1    2  503    0  0.30064786989E+02 -0.33822684453E+02 -0.35929731937E+03  0.36213592628E+03  0.00000000000E+00 0. -1.
<mgrwt>
<rscale>  0 0.76424545E+02</rscale>
<asrwt>0</asrwt>
<pdfrwt beam="1">  1        2 0.75140931E-01 0.12906694E+03</pdfrwt>
<pdfrwt beam="2">  1        2 0.30031034E+00 0.45253347E+02</pdfrwt>
<totfact> 0.95901912E+01</totfact>
</mgrwt>
</event>
<event>
13    1  0.2038932E-008  0.1822927E+03  0.7546771E-02  0.1253451E+00
          2   -1    0    0  503    0  0.00000000000E+00  0.00000000000E+00  0.20932406016E+04  0.20932406016E+04  0.00000000000E+00 0. -1.
         -1   -1    0    0    0  501 -0.00000000000E+00 -0.00000000000E+00 -0.65875682098E+03  0.65875682098E+03  0.00000000000E+00 0.  1.
         24    2    1    2    0    0  0.44837419246E+02  0.20441364591E+02 -0.61387644916E+02  0.11316514258E+03  0.81299833927E+02 0.  0.
         25    2    1    2    0    0 -0.25240128510E+03  0.32125278511E+02  0.13377872982E+04  0.13674935907E+04  0.12500169235E+03 0.  0.
         24    2    1    2    0    0  0.15543169800E+02 -0.16712114049E+02 -0.18362330269E+03  0.20263620278E+03  0.82601625299E+02 0.  0.
        -11    1    5    5    0    0 -0.24464049008E+02 -0.31887113757E+02 -0.63815284063E+02  0.75416630776E+02  0.00000000000E+00 0.  1.
         12    1    5    5    0    0  0.40007218808E+02  0.15174999707E+02 -0.11980801863E+03  0.12721957200E+03  0.00000000000E+00 0. -1.
        -13    1    3    3    0    0  0.66428713742E+02  0.17516298008E+02 -0.60201274811E+02  0.91344338599E+02  0.00000000000E+00 0.  1.
         14    1    3    3    0    0 -0.21591294495E+02  0.29250665824E+01 -0.11863701052E+01  0.21820803984E+02  0.00000000000E+00 0. -1.
          5    1    4    4  502    0 -0.34705745658E+02 -0.28925128862E+02  0.10925790447E+03  0.11832384185E+03  0.47000000000E+01 0. -1.
         -5    1    4    4    0  502 -0.21769553944E+03  0.61050407373E+02  0.12285293937E+04  0.12491697488E+04  0.47000000000E+01 0. -1.
          1    1    1    2  503    0  0.13050148002E+03 -0.71720783546E+02  0.69373886309E+03  0.70954077913E+03  0.00000000000E+00 0. -1.
         -2    1    1    2    0  501  0.61519216027E+02  0.35866254494E+02 -0.35203143310E+03  0.35916170737E+03  0.00000000000E+00 0.  1.
<mgrwt>
<rscale>  0 0.11393523E+03</rscale>
<asrwt>0</asrwt>
<pdfrwt beam="1">  1        2 0.30782950E+00 0.18229267E+03</pdfrwt>
<pdfrwt beam="2">  1       -1 0.96876004E-01 0.71210969E+02</pdfrwt>
<totfact> 0.10219958E+01</totfact>
</mgrwt>
</event>
<event>
13    1  0.2038932E-008  0.1606531E+03  0.7546771E-02  0.1245532E+00
          2   -1    0    0  502    0  0.00000000000E+00  0.00000000000E+00  0.14367837729E+04  0.14367837729E+04  0.00000000000E+00 0. -1.
          2   -1    0    0  503    0 -0.00000000000E+00 -0.00000000000E+00 -0.27008059879E+04  0.27008059879E+04  0.00000000000E+00 0. -1.
         24    2    1    2    0    0 -0.78520271309E+01 -0.40320514108E+02 -0.28538491224E+03  0.29914147955E+03  0.79709964662E+02 0.  0.
         25    2    1    2    0    0 -0.19820100138E+03 -0.17496874138E+03 -0.33536942329E+03  0.44496725647E+03  0.12500204736E+03 0.  0.
         24    2    1    2    0    0  0.10052460949E+02  0.70290835075E+02 -0.60406966292E+03  0.61335204820E+03  0.79112097082E+02 0.  0.
        -11    1    5    5    0    0  0.39576964484E+01 -0.14038211636E+02 -0.20001843851E+03  0.20054952129E+03  0.00000000000E+00 0.  1.
         12    1    5    5    0    0  0.60947645009E+01  0.84329046711E+02 -0.40405122441E+03  0.41280252691E+03  0.00000000000E+00 0. -1.
        -13    1    3    3    0    0  0.31489582517E+02 -0.17019807518E+02 -0.66396840385E+02  0.75430816436E+02  0.00000000000E+00 0.  1.
         14    1    3    3    0    0 -0.39341609648E+02 -0.23300706590E+02 -0.21898807185E+03  0.22371066311E+03  0.00000000000E+00 0. -1.
          5    1    4    4  501    0 -0.20521850424E+03 -0.17795724076E+03 -0.28473892769E+03  0.39355020133E+03  0.47000000000E+01 0. -1.
         -5    1    4    4    0  501  0.70175028586E+01  0.29884993806E+01 -0.50630495600E+02  0.51417055144E+02  0.47000000000E+01 0. -1.
          1    1    1    2  502    0  0.11625195921E+03  0.10908921006E+03  0.13644635115E+04  0.13737451176E+04  0.00000000000E+00 0. -1.
          1    1    1    2  503    0  0.79748608351E+02  0.35909210346E+02 -0.14036617281E+04  0.14063838590E+04  0.00000000000E+00 0. -1.
<mgrwt>
<rscale>  0 0.11853597E+03</rscale>
<asrwt>0</asrwt>
<pdfrwt beam="1">  1        2 0.21129174E+00 0.16065311E+03</pdfrwt>
<pdfrwt beam="2">  1        2 0.39717734E+00 0.87460345E+02</pdfrwt>
<totfact> 0.10938841E+01</totfact>
</mgrwt>
</event>
<event>
13    1  0.2038932E-008  0.1632326E+03  0.7546771E-02  0.1188993E+00
          2   -1    0    0  503    0  0.00000000000E+00  0.00000000000E+00  0.31582890238E+04  0.31582890238E+04  0.00000000000E+00 0. -1.
          2   -1    0    0  502    0 -0.00000000000E+00 -0.00000000000E+00 -0.72124139591E+03  0.72124139591E+03  0.00000000000E+00 0. -1.
         24    2    1    2    0    0  0.41234872039E+02 -0.14048586557E+03 -0.16519727242E+03  0.23522171254E+03  0.81255905255E+02 0.  0.
         25    2    1    2    0    0 -0.23819874235E+01  0.13417156559E+03  0.14364475796E+04  0.14481071059E+04  0.12499943300E+03 0.  0.
         24    2    1    2    0    0  0.97743276721E+02  0.16800096729E+03  0.11455870405E+03  0.25021675059E+03  0.10819728483E+03 0.  0.
        -13    1    5    5    0    0  0.36372109130E+02  0.34148859078E+02  0.87174322610E+02  0.10044121376E+03  0.00000000000E+00 0.  1.
         14    1    5    5    0    0  0.61371167591E+02  0.13385210822E+03  0.27384381444E+02  0.14977553683E+03  0.00000000000E+00 0. -1.
        -13    1    3    3    0    0 -0.17537043299E+02 -0.45082943848E+02 -0.83674335671E+02  0.96650991530E+02  0.00000000000E+00 0.  1.
         14    1    3    3    0    0  0.58771915338E+02 -0.95402921718E+02 -0.81522936749E+02  0.13857072101E+03  0.00000000000E+00 0. -1.
          5    1    4    4  501    0  0.41793687097E+02  0.88750717425E+02  0.11730960070E+04  0.11771999549E+04  0.47000000000E+01 0. -1.
         -5    1    4    4    0  501 -0.44175674521E+02  0.45420848169E+02  0.26335157266E+03  0.27090715105E+03  0.47000000000E+01 0. -1.
          1    1    1    2  502    0 -0.16466492818E+03 -0.79097060220E+01 -0.42792653244E+03  0.45858283787E+03  0.00000000000E+00 0. -1.
          1    1    1    2  503    0  0.28068766845E+02 -0.15377696130E+03  0.14791651490E+04  0.14874020128E+04  0.00000000000E+00 0. -1.
<mgrwt>
<rscale>  0 0.15973774E+03</rscale>
<asrwt>0</asrwt>
<pdfrwt beam="1">  1        2 0.46445426E+00 0.15631766E+03</pdfrwt>
<pdfrwt beam="2">  1        2 0.10606491E+00 0.16323264E+03</pdfrwt>
<totfact> 0.14960668E+01</totfact>
</mgrwt>
</event>
<event>
13    1  0.2038932E-008  0.3924247E+02  0.7546771E-02  0.1539959E+00
          2   -1    0    0  503    0  0.00000000000E+00  0.00000000000E+00  0.16721528855E+04  0.16721528855E+04  0.00000000000E+00 0. -1.
          2   -1    0    0  502    0 -0.00000000000E+00 -0.00000000000E+00 -0.87771096675E+03  0.87771096675E+03  0.00000000000E+00 0. -1.
         24    2    1    2    0    0 -0.82108076296E+02  0.15187506791E+03 -0.14764924951E+03  0.24096760564E+03  0.80357411858E+02 0.  0.
         25    2    1    2    0    0  0.61071669440E+02 -0.19753628690E+03  0.10423370271E+03  0.26313754875E+03  0.12500548521E+03 0.  0.
         24    2    1    2    0    0  0.10480964754E+02  0.15982793107E+02 -0.35552385859E+02  0.86769252992E+02  0.76809054329E+02 0.  0.
        -13    1    3    3    0    0 -0.67246517339E+02  0.12344337307E+03 -0.70176288978E+02  0.15711483693E+03  0.00000000000E+00 0.  1.
         14    1    3    3    0    0 -0.14861558957E+02  0.28431694838E+02 -0.77472960533E+02  0.83852768707E+02  0.00000000000E+00 0. -1.
        -13    1    5    5    0    0  0.15203238926E+02 -0.25935621334E+02 -0.32804313009E+02  0.44496268155E+02  0.00000000000E+00 0.  1.
         14    1    5    5    0    0 -0.47222741720E+01  0.41918414441E+02 -0.27480728506E+01  0.42272984837E+02  0.00000000000E+00 0. -1.
          5    1    4    4  501    0 -0.20252912116E+01 -0.15880532532E+03  0.10221235155E+03  0.18892508558E+03  0.47000000000E+01 0.  1.
         -5    1    4    4    0  501  0.63096960652E+02 -0.38730961584E+02  0.20213511538E+01  0.74212463166E+02  0.47000000000E+01 0.  1.
          1    1    1    2  502    0  0.32909693107E+02 -0.25952360340E+01 -0.54201542817E+03  0.54301980399E+03  0.00000000000E+00 0. -1.
          1    1    1    2  503    0 -0.22354251005E+02  0.32273661918E+02  0.14154252796E+04  0.14159696409E+04  0.00000000000E+00 0. -1.
<mgrwt>
<rscale>  0 0.35992599E+02</rscale>
<asrwt>0</asrwt>
<pdfrwt beam="1">  1        2 0.24590484E+00 0.39242474E+02</pdfrwt>
<pdfrwt beam="2">  1        2 0.12907514E+00 0.33011864E+02</pdfrwt>
<totfact> 0.81277836E+01</totfact>
</mgrwt>
</event>
<event>
13    1  0.2038932E-008  0.9264980E+02  0.7546771E-02  0.1463873E+00
          2   -1    0    0  503    0  0.00000000000E+00  0.00000000000E+00  0.45899319429E+03  0.45899319429E+03  0.00000000000E+00 0. -1.
          2   -1    0    0  502    0 -0.00000000000E+00 -0.00000000000E+00 -0.12466271704E+04  0.12466271704E+04  0.00000000000E+00 0. -1.
         24    2    1    2    0    0  0.25705409988E+03  0.83577548163E+02 -0.65255158722E+03  0.71113383224E+03  0.82618015924E+02 0.  0.
         25    2    1    2    0    0 -0.96883092924E+02 -0.10513268056E+03  0.13772287261E+03  0.23458836786E+03  0.12499959391E+03 0.  0.
         24    2    1    2    0    0 -0.12990707469E+03  0.94089640213E+02 -0.19598352131E+03  0.26602227418E+03  0.81422363533E+02 0.  0.
        -11    1    5    5    0    0 -0.11784626651E+03  0.10533671850E+03 -0.15299716953E+03  0.21998113710E+03  0.00000000000E+00 0.  1.
         12    1    5    5    0    0 -0.12060808183E+02 -0.11247078291E+02 -0.42986351781E+02  0.46041137079E+02  0.00000000000E+00 0. -1.
        -13    1    3    3    0    0  0.82216870984E+02  0.24406985231E+02 -0.11995768039E+03  0.14746240161E+03  0.00000000000E+00 0.  1.
         14    1    3    3    0    0  0.17483722890E+03  0.59170562933E+02 -0.53259390683E+03  0.56367143064E+03  0.00000000000E+00 0. -1.
          5    1    4    4  501    0 -0.11441877136E+03 -0.38469617109E+02  0.86430014649E+02  0.14853889764E+03  0.47000000000E+01 0. -1.
         -5    1    4    4    0  501  0.17535678438E+02 -0.66663063446E+02  0.51292857960E+02  0.86049470213E+02  0.47000000000E+01 0. -1.
          1    1    1    2  502    0 -0.16502190010E+02 -0.91658318933E+02 -0.27704054096E+03  0.29227560802E+03  0.00000000000E+00 0. -1.
          1    1    1    2  503    0 -0.13761742258E+02  0.19123811112E+02  0.20021880075E+03  0.20160028243E+03  0.00000000000E+00 0. -1.
<mgrwt>
<rscale>  0 0.46721434E+02</rscale>
<asrwt>0</asrwt>
<pdfrwt beam="1">  1        2 0.67499000E-01 0.23560681E+02</pdfrwt>
<pdfrwt beam="2">  1        2 0.18332752E+00 0.92649801E+02</pdfrwt>
<totfact> 0.24633650E+02</totfact>
</mgrwt>
</event>
<event>
13    1  0.2038932E-008  0.2463267E+03  0.7546771E-02  0.1240947E+00
          2   -1    0    0  503    0  0.00000000000E+00  0.00000000000E+00  0.32158573212E+04  0.32158573212E+04  0.00000000000E+00 0. -1.
         -3   -1    0    0    0  501 -0.00000000000E+00 -0.00000000000E+00 -0.60476668702E+03  0.60476668702E+03  0.00000000000E+00 0.  1.
         24    2    1    2    0    0 -0.29641054571E+02 -0.26714743751E+02  0.80070520866E+02  0.11850108878E+03  0.77710681896E+02 0.  0.
         25    2    1    2    0    0  0.34337124595E+03 -0.22007170480E+03  0.23387097302E+04  0.23772938264E+04  0.12500946927E+03 0.  0.
         24    2    1    2    0    0 -0.29570822429E+02  0.15591240195E+03  0.71391848998E+02  0.19278629061E+03  0.82985824846E+02 0.  0.
        -13    1    3    3    0    0 -0.54849019244E+02 -0.70763035911E+01  0.48014162680E+02  0.73238301472E+02  0.00000000000E+00 0.  1.
         14    1    3    3    0    0  0.25207964673E+02 -0.19638440160E+02  0.32056358186E+02  0.45262787309E+02  0.00000000000E+00 0. -1.
        -13    1    5    5    0    0 -0.43107047469E+02  0.54398754128E+02  0.26805862918E+01  0.69459538834E+02  0.00000000000E+00 0.  1.
         14    1    5    5    0    0  0.13536225041E+02  0.10151364782E+03  0.68711262706E+02  0.12332675178E+03  0.00000000000E+00 0. -1.
          5    1    4    4  502    0  0.24560915608E+03 -0.21825257537E+03  0.17828565397E+04  0.18128865313E+04  0.47000000000E+01 0.  1.
         -5    1    4    4    0  502  0.97762089868E+02 -0.18191294278E+01  0.55585319049E+03  0.56440729516E+03  0.47000000000E+01 0.  1.
          1    1    1    2  503    0 -0.44253786781E+02  0.40137904725E+02  0.59516319049E+03  0.59815438839E+03  0.00000000000E+00 0. -1.
         -4    1    1    2    0  501 -0.23990558217E+03  0.50736141881E+02 -0.47424465638E+03  0.53388841396E+03  0.00000000000E+00 0.  1.
<mgrwt>
<rscale>  0 0.12131263E+03</rscale>
<asrwt>0</asrwt>
<pdfrwt beam="1">  1        2 0.47292019E+00 0.59744866E+02</pdfrwt>
<pdfrwt beam="2">  1       -3 0.88936279E-01 0.24632667E+03</pdfrwt>
<totfact> 0.17585296E+00</totfact>
</mgrwt>
</event>
<event>
13    1  0.2038932E-008  0.1165022E+03  0.7546771E-02  0.1258805E+00
          2   -1    0    0  503    0  0.00000000000E+00  0.00000000000E+00  0.70467455411E+03  0.70467455411E+03  0.00000000000E+00 0. -1.
         -1   -1    0    0    0  501 -0.00000000000E+00 -0.00000000000E+00 -0.73455650309E+03  0.73455650309E+03  0.00000000000E+00 0.  1.
         24    2    1    2    0    0 -0.27382285121E+02  0.15711944086E+02 -0.50240308482E+03  0.51019026688E+03  0.82997554511E+02 0.  0.
         25    2    1    2    0    0  0.46761725083E+02  0.70213979077E+02  0.11267955096E+03  0.18825422630E+03  0.12500524279E+03 0.  0.
         24    2    1    2    0    0  0.73965970229E+02 -0.13502837719E+02  0.42373536876E+02  0.11768107343E+03  0.80000168987E+02 0.  0.
        -11    1    3    3    0    0 -0.56288801554E+02  0.19921341106E+01 -0.29423570703E+03  0.29957811848E+03  0.00000000000E+00 0.  1.
         12    1    3    3    0    0  0.28906516434E+02  0.13719809976E+02 -0.20816737779E+03  0.21061214841E+03  0.00000000000E+00 0. -1.
        -13    1    5    5    0    0  0.29447495474E+02 -0.38951682936E+02  0.44905988646E+02  0.66339553884E+02  0.00000000000E+00 0.  1.
         14    1    5    5    0    0  0.44518474756E+02  0.25448845216E+02 -0.25324517697E+01  0.51341519547E+02  0.00000000000E+00 0. -1.
          5    1    4    4  502    0 -0.27459439302E+02  0.57007072411E+02  0.88598016153E+02  0.10897488508E+03  0.47000000000E+01 0.  1.
         -5    1    4    4    0  502  0.74221164385E+02  0.13206906666E+02  0.24081534811E+02  0.79279341226E+02  0.47000000000E+01 0.  1.
          1    1    1    2  503    0  0.90417763510E+02 -0.56524573405E+02  0.40509867942E+03  0.41889776727E+03  0.00000000000E+00 0. -1.
         -2    1    1    2    0  501 -0.18376317370E+03 -0.15898512039E+02 -0.87630631416E+02  0.20420772330E+03  0.00000000000E+00 0.  1.
<mgrwt>
<rscale>  0 0.11095844E+03</rscale>
<asrwt>0</asrwt>
<pdfrwt beam="1">  1        2 0.10362861E+00 0.10567851E+03</pdfrwt>
<pdfrwt beam="2">  1       -1 0.10802301E+00 0.11650216E+03</pdfrwt>
<totfact> 0.45846353E+01</totfact>
</mgrwt>
</event>
<event>
13    1  0.2038932E-008  0.1157901E+03  0.7546771E-02  0.1276637E+00
          2   -1    0    0  502    0  0.00000000000E+00  0.00000000000E+00  0.20443866172E+04  0.20443866172E+04  0.00000000000E+00 0. -1.
          2   -1    0    0  503    0 -0.00000000000E+00 -0.00000000000E+00 -0.15892400772E+04  0.15892400772E+04  0.00000000000E+00 0. -1.
         24    2    1    2    0    0 -0.40564462189E+02  0.71942982095E+01 -0.33109673429E+03  0.34280435047E+03  0.78692704413E+02 0.  0.
         25    2    1    2    0    0  0.26435734213E+03  0.49290086924E+03  0.14623530310E+03  0.59147772856E+03  0.12500027310E+03 0.  0.
         24    2    1    2    0    0 -0.67547377524E+02 -0.33907977818E+03 -0.30499847021E+03  0.46809426187E+03  0.80934708170E+02 0.  0.
        -11    1    3    3    0    0  0.22007438128E+02 -0.57589183943E+01 -0.12416055709E+03  0.12622732038E+03  0.00000000000E+00 0.  1.
         12    1    3    3    0    0 -0.62571900317E+02  0.12953216604E+02 -0.20693617720E+03  0.21657703009E+03  0.00000000000E+00 0. -1.
        -11    1    5    5    0    0 -0.23035264317E+02 -0.42046303748E+02 -0.78226122122E+02  0.91748794233E+02  0.00000000000E+00 0.  1.
         12    1    5    5    0    0 -0.44512113207E+02 -0.29703347443E+03 -0.22677234809E+03  0.37634546764E+03  0.00000000000E+00 0. -1.
          5    1    4    4  501    0  0.26086311632E+03  0.41267248177E+03  0.98918906704E+02  0.49815176680E+03  0.47000000000E+01 0. -1.
         -5    1    4    4    0  501  0.34942258083E+01  0.80228387473E+02  0.47316396392E+02  0.93325961758E+02  0.47000000000E+01 0. -1.
          1    1    1    2  502    0 -0.74103076369E+02 -0.50012129571E+02  0.15794370187E+04  0.15819651624E+04  0.00000000000E+00 0. -1.
          1    1    1    2  503    0 -0.82142426048E+02 -0.11100325970E+03 -0.63443057734E+03  0.64928519103E+03  0.00000000000E+00 0. -1.
<mgrwt>
<rscale>  0 0.10176039E+03</rscale>
<asrwt>0</asrwt>
<pdfrwt beam="1">  1        2 0.30064509E+00 0.89430548E+02</pdfrwt>
<pdfrwt beam="2">  1        2 0.23371178E+00 0.11579015E+03</pdfrwt>
<totfact> 0.19662003E+01</totfact>
</mgrwt>
</event>
<event>
13    1  0.2038932E-008  0.8172177E+02  0.7546771E-02  0.1364296E+00
          2   -1    0    0  503    0  0.00000000000E+00  0.00000000000E+00  0.32077953941E+04  0.32077953941E+04  0.00000000000E+00 0. -1.
          2   -1    0    0  502    0 -0.00000000000E+00 -0.00000000000E+00 -0.50962422135E+04  0.50962422135E+04  0.00000000000E+00 0. -1.
         24    2    1    2    0    0  0.92972216079E+03  0.65302725232E+03 -0.51545816120E+03  0.12506479007E+04  0.87150255760E+02 0.  0.
         25    2    1    2    0    0 -0.16715009680E+03 -0.69496673783E+03 -0.87797296073E+02  0.73092337792E+03  0.12499079018E+03 0.  0.
         24    2    1    2    0    0 -0.69089409372E+03  0.55222165468E+02 -0.29016075533E+03  0.75573735953E+03  0.81003434197E+02 0.  0.
        -11    1    5    5    0    0 -0.53992789661E+03  0.28127924458E+02 -0.19250456968E+03  0.57390881071E+03  0.00000000000E+00 0.  1.
         12    1    5    5    0    0 -0.15096619712E+03  0.27094241009E+02 -0.97656185651E+02  0.18182854881E+03  0.00000000000E+00 0. -1.
        -11    1    3    3    0    0  0.78302953953E+03  0.50913572506E+03 -0.42312364131E+03  0.10253721579E+04  0.00000000000E+00 0.  1.
         12    1    3    3    0    0  0.14669262127E+03  0.14389152726E+03 -0.92334519881E+02  0.22527574284E+03  0.00000000000E+00 0. -1.
          5    1    4    4  501    0  0.35893040716E+01 -0.11586314157E+03  0.19660214340E+02  0.11766802754E+03  0.47000000000E+01 0. -1.
         -5    1    4    4    0  501 -0.17073940087E+03 -0.57910359626E+03 -0.10745751041E+03  0.61325535037E+03  0.47000000000E+01 0. -1.
          1    1    1    2  502    0 -0.48047068634E+02 -0.66125112239E+02 -0.32800040939E+04  0.32810223875E+04  0.00000000000E+00 0. -1.
          1    1    1    2  503    0 -0.23630901637E+02  0.52842432283E+02  0.22849734871E+04  0.22857065820E+04  0.00000000000E+00 0. -1.
<mgrwt>
<rscale>  0 0.68778729E+02</rscale>
<asrwt>0</asrwt>
<pdfrwt beam="1">  1        2 0.47173462E+00 0.57885595E+02</pdfrwt>
<pdfrwt beam="2">  1        2 0.74944738E+00 0.81721774E+02</pdfrwt>
<totfact> 0.37524140E-02</totfact>
</mgrwt>
</event>
<event>
13    1  0.2038932E-008  0.1511860E+03  0.7546771E-02  0.1417662E+00
          2   -1    0    0  503    0  0.00000000000E+00  0.00000000000E+00  0.17966068267E+04  0.17966068267E+04  0.00000000000E+00 0. -1.
          2   -1    0    0  502    0 -0.00000000000E+00 -0.00000000000E+00 -0.23973635294E+04  0.23973635294E+04  0.00000000000E+00 0. -1.
         24    2    1    2    0    0  0.16909981696E+03 -0.92320112922E+02 -0.70679793639E+03  0.73713198580E+03  0.81746499907E+02 0.  0.
         25    2    1    2    0    0 -0.23913695880E+03 -0.15798528592E+02  0.77147523495E+03  0.81745614842E+03  0.12499775150E+03 0.  0.
         24    2    1    2    0    0 -0.81232854708E+02  0.50120770227E+02  0.23280924438E+02  0.12687460992E+03  0.80276378259E+02 0.  0.
        -11    1    5    5    0    0 -0.90307194200E+02  0.24088968906E+02  0.30608879372E+02  0.98349231027E+02  0.00000000000E+00 0.  1.
         12    1    5    5    0    0  0.90743394923E+01  0.26031801321E+02 -0.73279549338E+01  0.28525378888E+02  0.00000000000E+00 0. -1.
        -11    1    3    3    0    0  0.10234499209E+03 -0.90845006656E+02 -0.54879147628E+03  0.56559649670E+03  0.00000000000E+00 0.  1.
         12    1    3    3    0    0  0.66754824872E+02 -0.14751062655E+01 -0.15800646011E+03  0.17153548909E+03  0.00000000000E+00 0. -1.
          5    1    4    4  501    0 -0.23810005496E+03 -0.42615054598E+02  0.66822623838E+03  0.71067297311E+03  0.47000000000E+01 0.  1.
         -5    1    4    4    0  501 -0.10369038411E+01  0.26816526006E+02  0.10324899657E+03  0.10678317531E+03  0.47000000000E+01 0.  1.
          1    1    1    2  502    0  0.13444997220E+03  0.69519110682E+02 -0.15969183376E+04  0.16040753968E+04  0.00000000000E+00 0. -1.
          1    1    1    2  503    0  0.16820024345E+02 -0.11521239396E+02  0.90820341189E+03  0.90843221517E+03  0.00000000000E+00 0. -1.
<mgrwt>
<rscale>  0 0.55518575E+02</rscale>
<asrwt>0</asrwt>
<pdfrwt beam="1">  1        2 0.26420689E+00 0.20387550E+02</pdfrwt>
<pdfrwt beam="2">  1        2 0.35255346E+00 0.15118601E+03</pdfrwt>
<totfact> 0.11758519E+01</totfact>
</mgrwt>
</event>
<event>
13    1  0.2038932E-008  0.5529453E+02  0.7546771E-02  0.1542391E+00
          2   -1    0    0  503    0  0.00000000000E+00  0.00000000000E+00  0.48202876099E+04  0.48202876099E+04  0.00000000000E+00 0. -1.
         -1   -1    0    0    0  501 -0.00000000000E+00 -0.00000000000E+00 -0.10640951622E+03  0.10640951622E+03  0.00000000000E+00 0.  1.
         24    2    1    2    0    0  0.25153034666E+02  0.11351823383E+02  0.54830400183E+02  0.88113286407E+02  0.63214234238E+02 0.  0.
         25    2    1    2    0    0 -0.12624546200E+03 -0.77787044581E+02  0.10264944575E+04  0.10446551715E+04  0.12499926039E+03 0.  0.
         24    2    1    2    0    0  0.62105231326E+02  0.78489512779E+02  0.27368120969E+04  0.27404298443E+04  0.98982899924E+02 0.  0.
        -11    1    3    3    0    0 -0.66098104742E+01 -0.17214017078E+02 -0.20955835545E+00  0.18440604469E+02  0.00000000000E+00 0.  1.
         12    1    3    3    0    0  0.31762845140E+02  0.28565840461E+02  0.55039958538E+02  0.69672681938E+02  0.00000000000E+00 0. -1.
        -13    1    5    5    0    0  0.78739284377E+02  0.56966201299E+02  0.14129732561E+04  0.14163115637E+04  0.00000000000E+00 0.  1.
         14    1    5    5    0    0 -0.16634053051E+02  0.21523311480E+02  0.13238388407E+04  0.13241182806E+04  0.00000000000E+00 0. -1.
          5    1    4    4  502    0 -0.72434230689E+02 -0.19798142159E+02  0.82049906183E+03  0.82394143279E+03  0.47000000000E+01 0.  1.
         -5    1    4    4    0  502 -0.53811231313E+02 -0.57988902422E+02  0.20599539565E+03  0.22071373869E+03  0.47000000000E+01 0.  1.
          1    1    1    2  503    0 -0.40785708401E+01  0.22697487771E+02  0.96475935267E+03  0.96503493163E+03  0.00000000000E+00 0. -1.
         -2    1    1    2    0  501  0.43065766850E+02 -0.34751779351E+02 -0.69018213541E+02  0.88463892311E+02  0.00000000000E+00 0.  1.
<mgrwt>
<rscale>  0 0.35709220E+02</rscale>
<asrwt>0</asrwt>
<pdfrwt beam="1">  1        2 0.70886568E+00 0.23061021E+02</pdfrwt>
<pdfrwt beam="2">  1       -1 0.15648462E-01 0.55294534E+02</pdfrwt>
<totfact> 0.83506463E+00</totfact>
</mgrwt>
</event>
<event>
13    1  0.2038932E-008  0.3713377E+02  0.7546771E-02  0.1543534E+00
          2   -1    0    0  503    0  0.00000000000E+00  0.00000000000E+00  0.11073632832E+04  0.11073632832E+04  0.00000000000E+00 0. -1.
          2   -1    0    0  502    0 -0.00000000000E+00 -0.00000000000E+00 -0.85079281640E+03  0.85079281640E+03  0.00000000000E+00 0. -1.
         24    2    1    2    0    0 -0.40437673352E+02  0.21846188776E+03 -0.68997281849E+03  0.72953133591E+03  0.82417704319E+02 0.  0.
         25    2    1    2    0    0  0.32383901390E+01 -0.30973848706E+03  0.48231219110E+03  0.58667744011E+03  0.12496780193E+03 0.  0.
         24    2    1    2    0    0 -0.35675486938E+01  0.13815271156E+03  0.20722742614E+02  0.16093516904E+03  0.79823539486E+02 0.  0.
        -13    1    3    3    0    0 -0.39557164535E+02  0.84869656256E+02 -0.39120542628E+03  0.40225528383E+03  0.00000000000E+00 0.  1.
         14    1    3    3    0    0 -0.88050881681E+00  0.13359223151E+03 -0.29876739221E+03  0.32727605208E+03  0.00000000000E+00 0. -1.
        -13    1    5    5    0    0  0.28691247291E+02  0.40322401864E+02  0.29393576030E+02  0.57559239702E+02  0.00000000000E+00 0.  1.
         14    1    5    5    0    0 -0.32258795985E+02  0.97830309698E+02 -0.86708334154E+01  0.10337592934E+03  0.00000000000E+00 0. -1.
          5    1    4    4  501    0 -0.41038322931E+02 -0.18948862572E+03  0.36283438939E+03  0.41141337770E+03  0.47000000000E+01 0.  1.
         -5    1    4    4    0  501  0.44276713070E+02 -0.12024986134E+03  0.11947780171E+03  0.17526406241E+03  0.47000000000E+01 0.  1.
          1    1    1    2  502    0  0.32354642642E+02 -0.10724660685E+02 -0.18250531060E+01  0.34134616831E+02  0.00000000000E+00 0. -1.
          1    1    1    2  503    0  0.84121892644E+01 -0.36151451586E+02  0.44533340466E+03  0.44687753768E+03  0.00000000000E+00 0. -1.
<mgrwt>
<rscale>  0 0.35577155E+02</rscale>
<asrwt>0</asrwt>
<pdfrwt beam="1">  1        2 0.16284754E+00 0.37133770E+02</pdfrwt>
<pdfrwt beam="2">  1        2 0.12511659E+00 0.34085792E+02</pdfrwt>
<totfact> 0.15847541E+02</totfact>
</mgrwt>
</event>
<event>
13    1  0.2038932E-008  0.1203794E+03  0.7546771E-02  0.1248579E+00
          2   -1    0    0  503    0  0.00000000000E+00  0.00000000000E+00  0.21584296011E+04  0.21584296011E+04  0.00000000000E+00 0. -1.
          2   -1    0    0  502    0 -0.00000000000E+00 -0.00000000000E+00 -0.13610972678E+04  0.13610972678E+04  0.00000000000E+00 0. -1.
         24    2    1    2    0    0 -0.28409907699E+03 -0.97573062373E+02 -0.31205479117E+03  0.44066513579E+03  0.81085024270E+02 0.  0.
         25    2    1    2    0    0  0.28146589229E+03  0.71421267668E+02  0.72239821347E+03  0.78854798568E+03  0.12499880359E+03 0.  0.
         24    2    1    2    0    0  0.10486054452E+02  0.10124604871E+03 -0.10472767484E+03  0.16655925371E+03  0.80083577609E+02 0.  0.
        -11    1    3    3    0    0 -0.43678706342E+02 -0.20807262570E+02 -0.99752958843E+02  0.11086669636E+03  0.00000000000E+00 0.  1.
         12    1    3    3    0    0 -0.24042037065E+03 -0.76765799803E+02 -0.21230183232E+03  0.32979843943E+03  0.00000000000E+00 0. -1.
        -13    1    5    5    0    0  0.16602001112E+02 -0.82890633797E+01 -0.24077305672E+02  0.30398218057E+02  0.00000000000E+00 0.  1.
         14    1    5    5    0    0 -0.61159466604E+01  0.10953511209E+03 -0.80650369170E+02  0.13616103566E+03  0.00000000000E+00 0. -1.
          5    1    4    4  501    0  0.17792027750E+03  0.10418546580E+03  0.50492259186E+03  0.54541649242E+03  0.47000000000E+01 0. -1.
         -5    1    4    4    0  501  0.10354561480E+03 -0.32764198132E+02  0.21747562161E+03  0.24313149327E+03  0.47000000000E+01 0. -1.
          1    1    1    2  502    0 -0.12088246378E+03 -0.81383282008E+02 -0.80703116868E+03  0.82008238358E+03  0.00000000000E+00 0. -1.
          1    1    1    2  503    0  0.11302959403E+03  0.62890280058E+01  0.12987477545E+04  0.13036721102E+04  0.00000000000E+00 0. -1.
<mgrwt>
<rscale>  0 0.11673680E+03</rscale>
<asrwt>0</asrwt>
<pdfrwt beam="1">  1        2 0.31741612E+00 0.11320442E+03</pdfrwt>
<pdfrwt beam="2">  1        2 0.20016136E+00 0.12037941E+03</pdfrwt>
<totfact> 0.21906999E+01</totfact>
</mgrwt>
</event>
<event>
13    1  0.2038932E-008  0.3493495E+02  0.7546771E-02  0.1559762E+00
          2   -1    0    0  502    0  0.00000000000E+00  0.00000000000E+00  0.13204103243E+04  0.13204103243E+04  0.00000000000E+00 0. -1.
          2   -1    0    0  503    0 -0.00000000000E+00 -0.00000000000E+00 -0.19500998759E+04  0.19500998759E+04  0.00000000000E+00 0. -1.
         24    2    1    2    0    0 -0.58126057268E+02 -0.35237577240E+03 -0.12443725582E+04  0.12968477248E+04  0.76181586421E+02 0.  0.
         25    2    1    2    0    0  0.91464047118E+01  0.32048839209E+03  0.70455290709E+03  0.78410185828E+03  0.12499783633E+03 0.  0.
         24    2    1    2    0    0  0.24956135443E+02  0.46212996233E+02 -0.94352332598E+02  0.13458971435E+03  0.80334169715E+02 0.  0.
        -11    1    3    3    0    0 -0.12197792032E+02 -0.10342735883E+03 -0.49609329713E+03  0.50690685943E+03  0.00000000000E+00 0.  1.
         12    1    3    3    0    0 -0.45928265236E+02 -0.24894841357E+03 -0.74827926112E+03  0.78994086537E+03  0.00000000000E+00 0. -1.
        -11    1    5    5    0    0 -0.13582299549E+02 -0.15934954188E+02 -0.10812610383E+02  0.23565104908E+02  0.00000000000E+00 0.  1.
         12    1    5    5    0    0  0.38538434991E+02  0.62147950421E+02 -0.83539722214E+02  0.11102460944E+03  0.00000000000E+00 0. -1.
          5    1    4    4  501    0 -0.50152395121E+02  0.22710429196E+03  0.45212395009E+03  0.50845823664E+03  0.47000000000E+01 0. -1.
         -5    1    4    4    0  501  0.59298799833E+02  0.93384100138E+02  0.25242895700E+03  0.27564362164E+03  0.47000000000E+01 0. -1.
          1    1    1    2  502    0  0.25333510613E+02  0.20600605656E+02  0.52864096190E+03  0.52964841009E+03  0.00000000000E+00 0. -1.
          1    1    1    2  503    0 -0.13099934988E+01 -0.34926221580E+02 -0.52415852973E+03  0.52532249269E+03  0.00000000000E+00 0. -1.
<mgrwt>
<rscale>  0 0.33774336E+02</rscale>
<asrwt>0</asrwt>
<pdfrwt beam="1">  1        2 0.19417799E+00 0.32652285E+02</pdfrwt>
<pdfrwt beam="2">  1        2 0.28677939E+00 0.34934945E+02</pdfrwt>
<totfact> 0.36048447E+01</totfact>
</mgrwt>
</event>
<event>
13    1  0.2038932E-008  0.1276992E+03  0.7546771E-02  0.1410759E+00
          2   -1    0    0  503    0  0.00000000000E+00  0.00000000000E+00  0.26570226332E+04  0.26570226332E+04  0.00000000000E+00 0. -1.
          2   -1    0    0  502    0 -0.00000000000E+00 -0.00000000000E+00 -0.16344573621E+04  0.16344573621E+04  0.00000000000E+00 0. -1.
         24    2    1    2    0    0 -0.15070872332E+02 -0.17105537240E+03 -0.65076889729E+02  0.20041573390E+03  0.80276978004E+02 0.  0.
         25    2    1    2    0    0  0.44808790600E+02  0.51007894566E+02  0.14858309787E+04  0.14926245093E+04  0.12499838236E+03 0.  0.
         24    2    1    2    0    0  0.78897004526E+02  0.40936871997E+02  0.21085135780E+03  0.24193554331E+03  0.78574469267E+02 0.  0.
        -11    1    3    3    0    0 -0.19914543987E+02 -0.16044998242E+01 -0.53690375819E+01  0.20687920302E+02  0.00000000000E+00 0.  1.
         12    1    3    3    0    0  0.48436716545E+01 -0.16945087258E+03 -0.59707852147E+02  0.17972781360E+03  0.00000000000E+00 0. -1.
        -11    1    5    5    0    0  0.67979420981E+02  0.58880097356E+02  0.19759415006E+03  0.21709794029E+03  0.00000000000E+00 0.  1.
         12    1    5    5    0    0  0.10917583546E+02 -0.17943225360E+02  0.13257207740E+02  0.24837603021E+02  0.00000000000E+00 0. -1.
          5    1    4    4  501    0  0.84745235974E+02  0.11173245243E+02  0.87767264914E+03  0.88183783400E+03  0.47000000000E+01 0. -1.
         -5    1    4    4    0  501 -0.39936445374E+02  0.39834649323E+02  0.60815832955E+03  0.61078667533E+03  0.47000000000E+01 0. -1.
          1    1    1    2  502    0 -0.11553540062E+03  0.54598527963E+02 -0.14798325250E+04  0.14853396009E+04  0.00000000000E+00 0. -1.
          1    1    1    2  503    0  0.69004778286E+01  0.24512077876E+02  0.87079234927E+03  0.87116460792E+03  0.00000000000E+00 0. -1.
<mgrwt>
<rscale>  0 0.57024910E+02</rscale>
<asrwt>0</asrwt>
<pdfrwt beam="1">  1        2 0.39073862E+00 0.25464849E+02</pdfrwt>
<pdfrwt beam="2">  1        2 0.24036138E+00 0.12769918E+03</pdfrwt>
<totfact> 0.11247213E+01</totfact>
</mgrwt>
</event>
<event>
13    1  0.2038932E-008  0.1038342E+03  0.7546771E-02  0.1276373E+00
          2   -1    0    0  502    0  0.00000000000E+00  0.00000000000E+00  0.18573708659E+04  0.18573708659E+04  0.00000000000E+00 0. -1.
          2   -1    0    0  503    0 -0.00000000000E+00 -0.00000000000E+00 -0.92421960978E+03  0.92421960978E+03  0.00000000000E+00 0. -1.
         24    2    1    2    0    0 -0.50354790043E+02 -0.83221430678E+02 -0.16558585391E+03  0.20810163924E+03  0.80163619144E+02 0.  0.
         25    2    1    2    0    0 -0.12565720231E+03 -0.37557929452E+02  0.82439158742E+03  0.84406552104E+03  0.12499913537E+03 0.  0.
         24    2    1    2    0    0  0.13833218012E+02  0.19503753567E+01  0.21337044234E+02  0.83949491457E+02  0.79981784018E+02 0.  0.
        -11    1    5    5    0    0 -0.33360844502E+02 -0.49718863444E+00  0.13750275385E+02  0.36086884260E+02  0.00000000000E+00 0.  1.
         12    1    5    5    0    0  0.47194062514E+02  0.24475639912E+01  0.75867688487E+01  0.47862607197E+02  0.00000000000E+00 0. -1.
        -13    1    3    3    0    0  0.16209488506E+02 -0.11948175108E+02 -0.58866313128E+01  0.20979962684E+02  0.00000000000E+00 0.  1.
         14    1    3    3    0    0 -0.66564278549E+02 -0.71273255569E+02 -0.15969922260E+03  0.18712167656E+03  0.00000000000E+00 0. -1.
          5    1    4    4  501    0 -0.99764579056E+02  0.93504541084E+01  0.28771648185E+03  0.30470193002E+03  0.47000000000E+01 0.  1.
         -5    1    4    4    0  501 -0.25892623258E+02 -0.46908383561E+02  0.53667510556E+03  0.53936359102E+03  0.47000000000E+01 0.  1.
          1    1    1    2  502    0  0.43535510169E+02  0.89978748260E+02  0.94122099874E+03  0.94651385846E+03  0.00000000000E+00 0. -1.
          1    1    1    2  503    0  0.11864326418E+03  0.28850236513E+02 -0.68821252032E+03  0.69895996553E+03  0.00000000000E+00 0. -1.
<mgrwt>
<rscale>  0 0.10188918E+03</rscale>
<asrwt>0</asrwt>
<pdfrwt beam="1">  1        2 0.27314278E+00 0.99980636E+02</pdfrwt>
<pdfrwt beam="2">  1        2 0.13591465E+00 0.10383415E+03</pdfrwt>
<totfact> 0.54295047E+01</totfact>
</mgrwt>
</event>
<event>
13    1  0.2038932E-008  0.4585433E+02  0.7546771E-02  0.1557497E+00
         -1   -1    0    0    0  501 -0.00000000000E+00  0.00000000000E+00  0.19667461219E+04  0.19667461219E+04  0.00000000000E+00 0.  1.
          2   -1    0    0  503    0  0.00000000000E+00 -0.00000000000E+00 -0.23536895241E+04  0.23536895241E+04  0.00000000000E+00 0. -1.
         24    2    1    2    0    0 -0.10895501947E+02  0.14039180329E+03  0.79112298448E+03  0.80751174939E+03  0.79819035523E+02 0.  0.
         25    2    1    2    0    0  0.29492287206E+02 -0.44380254507E+02 -0.71931779885E+03  0.73204085272E+03  0.12500524913E+03 0.  0.
         24    2    1    2    0    0 -0.31721200424E+02 -0.11546396192E+03  0.36643823229E+03  0.39355994574E+03  0.79210427026E+02 0.  0.
        -11    1    3    3    0    0 -0.42858254420E+02  0.69125798736E+02  0.33373772433E+03  0.34350556715E+03  0.00000000000E+00 0.  1.
         12    1    3    3    0    0  0.31962752473E+02  0.71266004558E+02  0.45738526015E+03  0.46400618224E+03  0.00000000000E+00 0. -1.
        -13    1    5    5    0    0 -0.17143088421E+02 -0.22121698223E+02  0.20188162642E+03  0.20381228152E+03  0.00000000000E+00 0.  1.
         14    1    5    5    0    0 -0.14578112003E+02 -0.93342263694E+02  0.16455660587E+03  0.18974766421E+03  0.00000000000E+00 0. -1.
          5    1    4    4  502    0  0.74766872766E+02 -0.48979872680E+02 -0.44150385490E+03  0.45048513526E+03  0.47000000000E+01 0. -1.
         -5    1    4    4    0  502 -0.45274585560E+02  0.45996181734E+01 -0.27781394395E+03  0.28155571746E+03  0.47000000000E+01 0. -1.
          1    1    1    2  503    0  0.10766748915E+02  0.44579155462E+02 -0.16057236238E+04  0.16063784050E+04  0.00000000000E+00 0. -1.
         -2    1    1    2    0  501  0.23576662497E+01 -0.25126742333E+02  0.78053680371E+03  0.78094469312E+03  0.00000000000E+00 0.  1.
<mgrwt>
<rscale>  0 0.34018096E+02</rscale>
<asrwt>0</asrwt>
<pdfrwt beam="2">  1        2 0.34613081E+00 0.45854331E+02</pdfrwt>
<pdfrwt beam="1">  1       -1 0.28922737E+00 0.25237111E+02</pdfrwt>
<totfact> 0.47800766E-01</totfact>
</mgrwt>
</event>
<event>
13    1  0.2038932E-008  0.1408680E+03  0.7546771E-02  0.1232319E+00
          2   -1    0    0  503    0  0.00000000000E+00  0.00000000000E+00  0.17179192442E+04  0.17179192442E+04  0.00000000000E+00 0. -1.
          2   -1    0    0  502    0 -0.00000000000E+00 -0.00000000000E+00 -0.12176209182E+04  0.12176209182E+04  0.00000000000E+00 0. -1.
         24    2    1    2    0    0 -0.21972818980E+02 -0.52780831551E+02 -0.10761383564E+03  0.14637274601E+03  0.81090210257E+02 0.  0.
         25    2    1    2    0    0  0.19256213986E+02 -0.58635806464E+02  0.59706615169E+03  0.61312457370E+03  0.12499917520E+03 0.  0.
         24    2    1    2    0    0  0.54698185175E+02 -0.62894254095E+01  0.65523517317E+02  0.11775972410E+03  0.80886172895E+02 0.  0.
        -13    1    3    3    0    0 -0.27569533008E+01 -0.67262249231E+02 -0.49754787342E+02  0.83709914745E+02  0.00000000000E+00 0.  1.
         14    1    3    3    0    0 -0.19215865679E+02  0.14481417680E+02 -0.57859048302E+02  0.62662831266E+02  0.00000000000E+00 0. -1.
        -13    1    5    5    0    0  0.40965347714E+02  0.34397689070E+02  0.46155277840E+02  0.70651754396E+02  0.00000000000E+00 0.  1.
         14    1    5    5    0    0  0.13732837461E+02 -0.40687114480E+02  0.19368239478E+02  0.47107969706E+02  0.00000000000E+00 0. -1.
          5    1    4    4  501    0  0.22920891679E+02 -0.62284561961E+02  0.13028232397E+03  0.14628844066E+03  0.47000000000E+01 0.  1.
         -5    1    4    4    0  501 -0.36646776934E+01  0.36487554974E+01  0.46678382773E+03  0.46683613304E+03  0.47000000000E+01 0.  1.
          1    1    1    2  502    0 -0.92530358015E+02  0.22386372103E+03 -0.10392842100E+04  0.10671403384E+04  0.00000000000E+00 0. -1.
          1    1    1    2  503    0  0.40548777834E+02 -0.10615765760E+03  0.98460670270E+03  0.99114278016E+03  0.00000000000E+00 0. -1.
<mgrwt>
<rscale>  0 0.12677624E+03</rscale>
<asrwt>0</asrwt>
<pdfrwt beam="1">  1        2 0.25263518E+00 0.11409415E+03</pdfrwt>
<pdfrwt beam="2">  1        2 0.17906190E+00 0.14086800E+03</pdfrwt>
<totfact> 0.42139118E+01</totfact>
</mgrwt>
</event>
<event>
13    1  0.2038932E-008  0.7363064E+02  0.7546771E-02  0.1349169E+00
          2   -1    0    0  502    0  0.00000000000E+00  0.00000000000E+00  0.29677082359E+04  0.29677082359E+04  0.00000000000E+00 0. -1.
          4   -1    0    0  503    0 -0.00000000000E+00 -0.00000000000E+00 -0.10821201734E+04  0.10821201734E+04  0.00000000000E+00 0. -1.
         24    2    1    2    0    0 -0.72910235284E+02 -0.82950349098E+02 -0.96276181900E+02  0.16726919558E+03  0.80704508944E+02 0.  0.
         25    2    1    2    0    0  0.25370717045E+02  0.57783802135E+02 -0.56096918854E+02  0.15085348234E+03  0.12500907069E+03 0.  0.
         24    2    1    2    0    0 -0.83628807677E+00  0.19330704672E+02  0.95040607947E+03  0.95377678949E+03  0.77743634791E+02 0.  0.
        -11    1    3    3    0    0 -0.86223655967E+02 -0.76663153081E+02 -0.64342877510E+02  0.13210512395E+03  0.00000000000E+00 0.  1.
         12    1    3    3    0    0  0.13313420683E+02 -0.62871960171E+01 -0.31933304390E+02  0.35164071626E+02  0.00000000000E+00 0. -1.
        -13    1    5    5    0    0 -0.32778384456E+02  0.29014642127E+02  0.40720373924E+03  0.40954994469E+03  0.00000000000E+00 0.  1.
         14    1    5    5    0    0  0.31942096379E+02 -0.96839374551E+01  0.54320234023E+03  0.54422684480E+03  0.00000000000E+00 0. -1.
          5    1    4    4  501    0  0.30681809593E+02 -0.35065192137E+02 -0.21278698179E+02  0.51437477929E+02  0.47000000000E+01 0. -1.
         -5    1    4    4    0  501 -0.53110925474E+01  0.92848994272E+02 -0.34818220675E+02  0.99416004408E+02  0.47000000000E+01 0. -1.
          1    1    1    2  502    0  0.14828770296E+02  0.71479387236E+02  0.19304433161E+04  0.19318231265E+04  0.00000000000E+00 0. -1.
          3    1    1    2  503    0  0.33547036019E+02 -0.65643544945E+02 -0.84288823236E+03  0.84610581541E+03  0.00000000000E+00 0. -1.
<mgrwt>
<rscale>  0 0.73315313E+02</rscale>
<asrwt>0</asrwt>
<pdfrwt beam="1">  1        2 0.43642768E+00 0.73001337E+02</pdfrwt>
<pdfrwt beam="2">  1        4 0.15913532E+00 0.73630638E+02</pdfrwt>
<totfact> 0.45003799E-01</totfact>
</mgrwt>
</event>
<event>
13    1  0.2038932E-008  0.1175085E+03  0.7546771E-02  0.1272895E+00
          2   -1    0    0  502    0  0.00000000000E+00  0.00000000000E+00  0.20509477263E+04  0.20509477263E+04  0.00000000000E+00 0. -1.
          2   -1    0    0  503    0 -0.00000000000E+00 -0.00000000000E+00 -0.16678529759E+03  0.16678529759E+03  0.00000000000E+00 0. -1.
         24    2    1    2    0    0 -0.20991853096E+02  0.58956046970E+02 -0.13401660351E+02  0.10469987493E+03  0.82861245105E+02 0.  0.
         25    2    1    2    0    0 -0.63939715006E+01  0.25837432584E+02  0.10075053396E+04  0.10155788071E+04  0.12499939393E+03 0.  0.
         24    2    1    2    0    0  0.59305947309E+01 -0.62586026391E+02  0.39079599543E+02  0.10907246874E+03  0.80108711660E+02 0.  0.
        -11    1    3    3    0    0  0.11752269819E+02  0.67266416693E+02 -0.17969731779E+02  0.70610182841E+02  0.00000000000E+00 0.  1.
         12    1    3    3    0    0 -0.32744122915E+02 -0.83103697233E+01  0.45680714284E+01  0.34089692093E+02  0.00000000000E+00 0. -1.
        -13    1    5    5    0    0 -0.35820908954E+02 -0.24230625898E+02  0.66412710177E+01  0.43753482495E+02  0.00000000000E+00 0.  1.
         14    1    5    5    0    0  0.41751503684E+02 -0.38355400493E+02  0.32438328525E+02  0.65318986248E+02  0.00000000000E+00 0. -1.
          5    1    4    4  501    0  0.23584458842E+02  0.44328547984E+02  0.17006788405E+03  0.17738777311E+03  0.47000000000E+01 0. -1.
         -5    1    4    4    0  501 -0.29978430343E+02 -0.18491115400E+02  0.83743745551E+03  0.83819103402E+03  0.47000000000E+01 0. -1.
          1    1    1    2  502    0  0.45397857866E+02 -0.11035802198E+03  0.88342369523E+03  0.89144673639E+03  0.00000000000E+00 0. -1.
          1    1    1    2  503    0 -0.23942628000E+02  0.88150568818E+02 -0.32444545221E+02  0.96935136731E+02  0.00000000000E+00 0. -1.
<mgrwt>
<rscale>  0 0.10360369E+03</rscale>
<asrwt>0</asrwt>
<pdfrwt beam="1">  1        2 0.30160994E+00 0.11750848E+03</pdfrwt>
<pdfrwt beam="2">  1        2 0.24527251E-01 0.91344251E+02</pdfrwt>
<totfact> 0.28103136E+02</totfact>
</mgrwt>
</event>
<event>
13    1  0.2038932E-008  0.1382426E+03  0.7546771E-02  0.1351138E+00
          2   -1    0    0  503    0  0.00000000000E+00  0.00000000000E+00  0.20846885464E+04  0.20846885464E+04  0.00000000000E+00 0. -1.
          2   -1    0    0  502    0 -0.00000000000E+00 -0.00000000000E+00 -0.13098476723E+04  0.13098476723E+04  0.00000000000E+00 0. -1.
         24    2    1    2    0    0  0.95237622169E+03  0.17447924030E+01  0.15370033264E+02  0.95653896053E+03  0.87789709774E+02 0.  0.
         25    2    1    2    0    0 -0.62767576242E+03 -0.62735131850E+02  0.68815932886E+03  0.94186205108E+03  0.12501320678E+03 0.  0.
         24    2    1    2    0    0 -0.23676347306E+03  0.40784534444E+01 -0.41015936654E+02  0.25441331999E+03  0.83488049282E+02 0.  0.
        -11    1    3    3    0    0  0.46046617875E+03 -0.32244567552E+02 -0.21378155149E+02  0.46208856232E+03  0.00000000000E+00 0.  1.
         12    1    3    3    0    0  0.49191004294E+03  0.33989359955E+02  0.36748188413E+02  0.49445039821E+03  0.00000000000E+00 0. -1.
        -13    1    5    5    0    0 -0.72126185040E+02 -0.37258052733E+02 -0.90693413093E+01  0.81685996436E+02  0.00000000000E+00 0.  1.
         14    1    5    5    0    0 -0.16463728802E+03  0.41336506178E+02 -0.31946595345E+02  0.17272732356E+03  0.00000000000E+00 0. -1.
          5    1    4    4  501    0 -0.15232976505E+02 -0.35189044489E+01 -0.28808731949E+01  0.16577565928E+02  0.47000000000E+01 0.  1.
         -5    1    4    4    0  501 -0.61244278592E+03 -0.59216227402E+02  0.69104020206E+03  0.92528448515E+03  0.47000000000E+01 0.  1.
          1    1    1    2  502    0 -0.12617117683E+03  0.57006376229E+02 -0.55565596670E+03  0.57264513106E+03  0.00000000000E+00 0. -1.
          1    1    1    2  503    0  0.38234190618E+02 -0.94490226021E-01  0.66798341535E+03  0.66907675602E+03  0.00000000000E+00 0. -1.
<mgrwt>
<rscale>  0 0.72702193E+02</rscale>
<asrwt>0</asrwt>
<pdfrwt beam="1">  1        2 0.30657185E+00 0.38234307E+02</pdfrwt>
<pdfrwt beam="2">  1        2 0.19262466E+00 0.13824257E+03</pdfrwt>
<totfact> 0.28357207E+01</totfact>
</mgrwt>
</event>
<event>
13    1  0.2038932E-008  0.6837343E+02  0.7546771E-02  0.1378511E+00
          2   -1    0    0  503    0  0.00000000000E+00  0.00000000000E+00  0.73237657945E+03  0.73237657945E+03  0.00000000000E+00 0. -1.
          2   -1    0    0  502    0 -0.00000000000E+00 -0.00000000000E+00 -0.11777464850E+04  0.11777464850E+04  0.00000000000E+00 0. -1.
         24    2    1    2    0    0 -0.12941982940E+03 -0.72078442598E+02 -0.24074447131E+03  0.29418019685E+03  0.81481860676E+02 0.  0.
         25    2    1    2    0    0  0.27400908698E+02  0.67429274434E+02  0.35973928803E+03  0.38773019256E+03  0.12499932009E+03 0.  0.
         24    2    1    2    0    0  0.76037302540E+02 -0.39890388840E+02 -0.34537333983E+03  0.36484904826E+03  0.80368959479E+02 0.  0.
        -13    1    3    3    0    0 -0.63837616545E+02 -0.67005788419E+02 -0.18916532043E+03  0.21059091961E+03  0.00000000000E+00 0.  1.
         14    1    3    3    0    0 -0.65582212854E+02 -0.50726541794E+01 -0.51579150881E+02  0.83589277236E+02  0.00000000000E+00 0. -1.
        -13    1    5    5    0    0  0.81632777332E+00  0.19454767443E+02 -0.35352780229E+02  0.40360543074E+02  0.00000000000E+00 0.  1.
         14    1    5    5    0    0  0.75220974766E+02 -0.59345156284E+02 -0.31002055961E+03  0.32448850518E+03  0.00000000000E+00 0. -1.
          5    1    4    4  501    0  0.32282598705E+02  0.22660189804E+02  0.33255245041E+03  0.33491621737E+03  0.47000000000E+01 0.  1.
         -5    1    4    4    0  501 -0.48816900067E+01  0.44769084630E+02  0.27186837619E+02  0.52813975193E+02  0.47000000000E+01 0.  1.
          1    1    1    2  502    0  0.59593068703E+02 -0.15281398585E+02 -0.53574366664E+03  0.53926443543E+03  0.00000000000E+00 0. -1.
          1    1    1    2  503    0 -0.33611450542E+02  0.59820955588E+02  0.31675228417E+03  0.32409919139E+03  0.00000000000E+00 0. -1.
<mgrwt>
<rscale>  0 0.64856871E+02</rscale>
<asrwt>0</asrwt>
<pdfrwt beam="1">  1        2 0.10770244E+00 0.68373430E+02</pdfrwt>
<pdfrwt beam="2">  1        2 0.17319801E+00 0.61521175E+02</pdfrwt>
<totfact> 0.16414427E+02</totfact>
</mgrwt>
</event>
<event>
13    1  0.2038932E-008  0.1827460E+03  0.7546771E-02  0.1228301E+00
          2   -1    0    0  503    0  0.00000000000E+00  0.00000000000E+00  0.15589361875E+04  0.15589361875E+04  0.00000000000E+00 0. -1.
          2   -1    0    0  502    0 -0.00000000000E+00 -0.00000000000E+00 -0.99927612010E+03  0.99927612010E+03  0.00000000000E+00 0. -1.
         24    2    1    2    0    0  0.10452512325E+03  0.27050985544E+02 -0.37463179026E+03  0.39740824402E+03  0.76987511540E+02 0.  0.
         25    2    1    2    0    0 -0.23808338277E+03 -0.80161378812E+02  0.27474444660E+02  0.28193733442E+03  0.12499708647E+03 0.  0.
         24    2    1    2    0    0  0.52655152785E+01 -0.55474650871E+01 -0.11826008030E+03  0.14216162103E+03  0.78523753612E+02 0.  0.
        -11    1    3    3    0    0  0.25168254058E+02 -0.13895344938E+02 -0.19170913546E+03  0.19385281593E+03  0.00000000000E+00 0.  1.
         12    1    3    3    0    0  0.79356869193E+02  0.40946330483E+02 -0.18292265479E+03  0.20355542809E+03  0.00000000000E+00 0. -1.
        -13    1    5    5    0    0 -0.35227365920E+02  0.32128766164E+01 -0.70924194366E+02  0.79256111640E+02  0.00000000000E+00 0.  1.
         14    1    5    5    0    0  0.40492881199E+02 -0.87603417035E+01 -0.47335885937E+02  0.62905509393E+02  0.00000000000E+00 0. -1.
          5    1    4    4  501    0 -0.24007427825E+03 -0.99631812039E+02  0.21103882323E+02  0.26082488550E+03  0.47000000000E+01 0. -1.
         -5    1    4    4    0  501  0.19908954784E+01  0.19470433227E+02  0.63705623377E+01  0.21112448919E+02  0.47000000000E+01 0. -1.
          1    1    1    2  502    0  0.34757881671E+02 -0.97696460987E+02 -0.34208483776E+03  0.35745593442E+03  0.00000000000E+00 0. -1.
          1    1    1    2  503    0  0.93534862568E+02  0.15635431934E+03  0.13671623311E+04  0.13792491737E+04  0.00000000000E+00 0. -1.
<mgrwt>
<rscale>  0 0.12943180E+03</rscale>
<asrwt>0</asrwt>
<pdfrwt beam="1">  1        2 0.22925532E+00 0.18274601E+03</pdfrwt>
<pdfrwt beam="2">  1        2 0.14695237E+00 0.91671445E+02</pdfrwt>
<totfact> 0.65692047E+01</totfact>
</mgrwt>
</event>
<event>
13    1  0.2038932E-008  0.1292713E+03  0.7546771E-02  0.1247210E+00
          2   -1    0    0  503    0  0.00000000000E+00  0.00000000000E+00  0.32305596892E+04  0.32305596892E+04  0.00000000000E+00 0. -1.
          2   -1    0    0  502    0 -0.00000000000E+00 -0.00000000000E+00 -0.26444406897E+04  0.26444406897E+04  0.00000000000E+00 0. -1.
         24    2    1    2    0    0 -0.16814403557E+03  0.30740339743E+01 -0.12471480618E+04  0.12610291495E+04  0.80835397015E+02 0.  0.
         25    2    1    2    0    0  0.11500972713E+03 -0.32221091519E+02  0.60676128566E+02  0.18325390748E+03  0.12503985747E+03 0.  0.
         24    2    1    2    0    0 -0.66750391194E+02  0.55907359839E+01  0.83172503471E+01  0.10448971940E+03  0.79762483371E+02 0.  0.
        -13    1    3    3    0    0 -0.13301093709E+03  0.16161330259E+02 -0.70720919459E+03  0.71979020755E+03  0.00000000000E+00 0.  1.
         14    1    3    3    0    0 -0.35133098478E+02 -0.13087296284E+02 -0.53993886725E+03  0.54123894197E+03  0.00000000000E+00 0. -1.
        -13    1    5    5    0    0 -0.40146555585E+02 -0.36257304561E+02 -0.63617718633E+00  0.54099378746E+02  0.00000000000E+00 0.  1.
         14    1    5    5    0    0 -0.26603835609E+02  0.41848040545E+02  0.89534275334E+01  0.50390340653E+02  0.00000000000E+00 0. -1.
          5    1    4    4  501    0  0.44822739609E+02 -0.74133962177E+02  0.51412151508E+02  0.10084751686E+03  0.47000000000E+01 0.  1.
         -5    1    4    4    0  501  0.70186987525E+02  0.41912870658E+02  0.92639770583E+01  0.82406390623E+02  0.47000000000E+01 0.  1.
          1    1    1    2  502    0  0.15670666913E+03  0.12388064627E+03 -0.12722435543E+04  0.12878303677E+04  0.00000000000E+00 0. -1.
          1    1    1    2  503    0 -0.36821969500E+02 -0.10032432471E+03  0.30365172367E+04  0.30383972348E+04  0.00000000000E+00 0. -1.
<mgrwt>
<rscale>  0 0.11754078E+03</rscale>
<asrwt>0</asrwt>
<pdfrwt beam="1">  1        2 0.47508231E+00 0.10687470E+03</pdfrwt>
<pdfrwt beam="2">  1        2 0.38888834E+00 0.12927132E+03</pdfrwt>
<totfact> 0.14269971E+00</totfact>
</mgrwt>
</event>
<event>
13    1  0.2038932E-008  0.4122694E+03  0.7546771E-02  0.1207147E+00
          2   -1    0    0  502    0  0.00000000000E+00  0.00000000000E+00  0.91021231712E+03  0.91021231712E+03  0.00000000000E+00 0. -1.
          2   -1    0    0  503    0 -0.00000000000E+00 -0.00000000000E+00 -0.32988653846E+04  0.32988653846E+04  0.00000000000E+00 0. -1.
         24    2    1    2    0    0  0.20155169177E+03  0.20504580093E+02 -0.11166418175E+04  0.11377352790E+04  0.80678958252E+02 0.  0.
         25    2    1    2    0    0 -0.44193764094E+03 -0.35868260811E+03  0.38095860568E+01  0.58275075693E+03  0.12498735901E+03 0.  0.
         24    2    1    2    0    0 -0.37590602050E+03  0.89451057705E+02  0.38744066920E+02  0.39872740897E+03  0.90419112864E+02 0.  0.
        -11    1    5    5    0    0 -0.13681807865E+03 -0.76226721921E+00  0.42142038073E+02  0.14316326019E+03  0.00000000000E+00 0.  1.
         12    1    5    5    0    0 -0.23908794185E+03  0.90213324924E+02 -0.33979711534E+01  0.25556414878E+03  0.00000000000E+00 0. -1.
        -13    1    3    3    0    0  0.70520091467E+02  0.30819805590E+01 -0.61243126349E+03  0.61648571306E+03  0.00000000000E+00 0.  1.
         14    1    3    3    0    0  0.13103160031E+03  0.17422599534E+02 -0.50421055398E+03  0.52124956595E+03  0.00000000000E+00 0. -1.
          5    1    4    4  501    0 -0.81759408735E+02 -0.11420985987E+03  0.39420319784E+02  0.14596076397E+03  0.47000000000E+01 0. -1.
         -5    1    4    4    0  501 -0.36017823220E+03 -0.24447274825E+03 -0.35610733727E+02  0.43678999295E+03  0.47000000000E+01 0. -1.
          1    1    1    2  502    0  0.45129839685E+02  0.23287941549E+02  0.33026942000E+03  0.33415104435E+03  0.00000000000E+00 0. -1.
          1    1    1    2  503    0  0.57116212998E+03  0.22543902877E+03 -0.16448343230E+04  0.17557132125E+04  0.00000000000E+00 0. -1.
<mgrwt>
<rscale>  0 0.14469538E+03</rscale>
<asrwt>0</asrwt>
<pdfrwt beam="1">  1        2 0.13385475E+00 0.50784157E+02</pdfrwt>
<pdfrwt beam="2">  1        2 0.48512727E+00 0.41226937E+03</pdfrwt>
<totfact> 0.84668012E+00</totfact>
</mgrwt>
</event>
<event>
13    1  0.2038932E-008  0.1373761E+03  0.7546771E-02  0.1276575E+00
          2   -1    0    0  503    0  0.00000000000E+00  0.00000000000E+00  0.16613220572E+04  0.16613220572E+04  0.00000000000E+00 0. -1.
          2   -1    0    0  502    0 -0.00000000000E+00 -0.00000000000E+00 -0.72742136133E+03  0.72742136133E+03  0.00000000000E+00 0. -1.
         24    2    1    2    0    0 -0.39494138112E+01 -0.31103519527E+03 -0.28348046059E+03  0.42829757906E+03  0.79493107365E+02 0.  0.
         25    2    1    2    0    0  0.49749772542E+02  0.10547021397E+03  0.25577659323E+03  0.30764500810E+03  0.12499911786E+03 0.  0.
         24    2    1    2    0    0  0.43318953248E+02  0.15398900863E+02  0.73668175189E+02  0.11864475879E+03  0.80845042481E+02 0.  0.
        -11    1    5    5    0    0 -0.20493646748E+02 -0.10455478328E+02  0.10825983380E+02  0.25426531423E+02  0.00000000000E+00 0.  1.
         12    1    5    5    0    0  0.63812599996E+02  0.25854379191E+02  0.62842191809E+02  0.93218227364E+02  0.00000000000E+00 0. -1.
        -13    1    3    3    0    0  0.44531337529E+00 -0.10438040106E+02 -0.40282484369E+02  0.41615256003E+02  0.00000000000E+00 0.  1.
         14    1    3    3    0    0 -0.43947271865E+01 -0.30059715517E+03 -0.24319797623E+03  0.38668232305E+03  0.00000000000E+00 0. -1.
          5    1    4    4  501    0 -0.17172278557E+02  0.99314201976E+01 -0.58039420608E+01  0.21196603535E+02  0.47000000000E+01 0. -1.
         -5    1    4    4    0  501  0.66922051099E+02  0.95538793768E+02  0.26158053529E+03  0.28644840457E+03  0.47000000000E+01 0. -1.
          1    1    1    2  502    0 -0.60009319873E+02  0.12058715481E+03 -0.30783257553E+03  0.33601082562E+03  0.00000000000E+00 0. -1.
          1    1    1    2  503    0 -0.29109992106E+02  0.69578925636E+02  0.11957689636E+04  0.11981452470E+04  0.00000000000E+00 0. -1.
<mgrwt>
<rscale>  0 0.10179051E+03</rscale>
<asrwt>0</asrwt>
<pdfrwt beam="1">  1        2 0.24431207E+00 0.75422931E+02</pdfrwt>
<pdfrwt beam="2">  1        2 0.10697373E+00 0.13737611E+03</pdfrwt>
<totfact> 0.91960489E+01</totfact>
</mgrwt>
</event>
<event>
13    1  0.5409766E-008  0.3389780E+02  0.7546771E-02  0.1566818E+00
          2   -1    0    0  503    0  0.00000000000E+00  0.00000000000E+00  0.10982172756E+04  0.10982172756E+04  0.00000000000E+00 0. -1.
          2   -1    0    0  502    0 -0.00000000000E+00 -0.00000000000E+00 -0.56679882399E+03  0.56679882399E+03  0.00000000000E+00 0. -1.
         24    2    1    2    0    0  0.41328676595E+01 -0.40977825869E+02 -0.35568026172E+03  0.36925147363E+03  0.90232695802E+02 0.  0.
         25    2    1    2    0    0 -0.31931997161E+02  0.23978269722E+02  0.89005360853E+02  0.15854468652E+03  0.12497941231E+03 0.  0.
         24    2    1    2    0    0  0.14887864323E+02  0.16410543117E+02  0.80617987323E+03  0.81051530832E+03  0.80734890775E+02 0.  0.
        -13    1    3    3    0    0 -0.84346783726E+01  0.40122159470E+01  0.11192518244E+01  0.94071462570E+01  0.00000000000E+00 0.  1.
         14    1    3    3    0    0  0.12567546032E+02 -0.44990041816E+02 -0.35679951355E+03  0.35984432737E+03  0.00000000000E+00 0. -1.
        -13    1    5    5    0    0 -0.14223823178E+02 -0.23754713387E+02  0.15537724670E+03  0.15782487873E+03  0.00000000000E+00 0.  1.
         14    1    5    5    0    0  0.29111687501E+02  0.40165256504E+02  0.65080262652E+03  0.65269042958E+03  0.00000000000E+00 0. -1.
          5    1    4    4  501    0 -0.49088569652E+02 -0.22312063053E+02 -0.28037564176E+01  0.54198402911E+02  0.47000000000E+01 0. -1.
         -5    1    4    4    0  501  0.17156572490E+02  0.46290332775E+02  0.91809117270E+02  0.10434628360E+03  0.47000000000E+01 0. -1.
          1    1    1    2  502    0  0.12436555577E+02 -0.31593137180E+02 -0.16401326490E+03  0.16749073197E+03  0.00000000000E+00 0. -1.
          1    1    1    2  503    0  0.47470960146E+00  0.32182150211E+02  0.15592674411E+03  0.15921389911E+03  0.00000000000E+00 0. -1.
<mgrwt>
<rscale>  0 0.33030634E+02</rscale>
<asrwt>0</asrwt>
<pdfrwt beam="1">  1        2 0.16150254E+00 0.32185651E+02</pdfrwt>
<pdfrwt beam="2">  1        2 0.83352768E-01 0.33897800E+02</pdfrwt>
<totfact> 0.25236022E+02</totfact>
</mgrwt>
</event>
<event>
13    1  0.2038932E-008  0.6093876E+02  0.7546771E-02  0.1439948E+00
          2   -1    0    0  502    0  0.00000000000E+00  0.00000000000E+00  0.49222294991E+03  0.49222294991E+03  0.00000000000E+00 0. -1.
          2   -1    0    0  503    0 -0.00000000000E+00 -0.00000000000E+00 -0.31256725027E+04  0.31256725027E+04  0.00000000000E+00 0. -1.
         24    2    1    2    0    0 -0.59586710451E+02  0.32471485636E+02 -0.10835795961E+04  0.10887499902E+04  0.81405324035E+02 0.  0.
         25    2    1    2    0    0 -0.91633934456E+02 -0.11485059971E+03  0.33974148648E+03  0.39068660146E+03  0.12499721889E+03 0.  0.
         24    2    1    2    0    0  0.13316467471E+03  0.70575934077E+02 -0.41841856636E+03  0.45136233706E+03  0.77071846858E+02 0.  0.
        -11    1    5    5    0    0  0.13508582625E+03  0.68873559146E+02 -0.33291026538E+03  0.36581551689E+03  0.00000000000E+00 0.  1.
         12    1    5    5    0    0 -0.19211515477E+01  0.17023749310E+01 -0.85508300981E+02  0.85546820165E+02  0.00000000000E+00 0. -1.
        -11    1    3    3    0    0 -0.26294127159E+02 -0.23181050236E+02 -0.22384634161E+03  0.22657432967E+03  0.00000000000E+00 0.  1.
         12    1    3    3    0    0 -0.33292583293E+02  0.55652535872E+02 -0.85973325447E+03  0.86217566058E+03  0.00000000000E+00 0. -1.
          5    1    4    4  501    0 -0.75422000486E+02  0.10958020155E+01  0.12554145188E+03  0.14653472312E+03  0.47000000000E+01 0.  1.
         -5    1    4    4    0  501 -0.16211933970E+02 -0.11594640173E+03  0.21420003460E+03  0.24415187834E+03  0.47000000000E+01 0.  1.
          1    1    1    2  502    0  0.60613120928E+02  0.82475140531E+01  0.98972294907E+02  0.11635070724E+03  0.00000000000E+00 0. -1.
          1    1    1    2  503    0 -0.42557150727E+02  0.35556659434E+01 -0.15701651717E+04  0.15707458166E+04  0.00000000000E+00 0. -1.
<mgrwt>
<rscale>  0 0.51013880E+02</rscale>
<asrwt>0</asrwt>
<pdfrwt beam="1">  1        2 0.72385726E-01 0.60938758E+02</pdfrwt>
<pdfrwt beam="2">  1        2 0.45965773E+00 0.42705431E+02</pdfrwt>
<totfact> 0.30174366E+01</totfact>
</mgrwt>
</event>
<event>
13    1  0.2038932E-008  0.4946227E+02  0.7546771E-02  0.1536918E+00
          2   -1    0    0  503    0  0.00000000000E+00  0.00000000000E+00  0.57932194610E+03  0.57932194610E+03  0.00000000000E+00 0. -1.
          2   -1    0    0  502    0 -0.00000000000E+00 -0.00000000000E+00 -0.17689364129E+04  0.17689364129E+04  0.00000000000E+00 0. -1.
         24    2    1    2    0    0  0.18099552904E+03 -0.84629285256E+02 -0.28525374888E+03  0.35748263894E+03  0.80638938698E+02 0.  0.
         25    2    1    2    0    0  0.37095594990E+02  0.15028436076E+03  0.28312395581E+03  0.34603977420E+03  0.12499151459E+03 0.  0.
         24    2    1    2    0    0 -0.18914965252E+03 -0.60995394594E+02 -0.50445516246E+03  0.54854400406E+03  0.83231509936E+02 0.  0.
        -11    1    3    3    0    0  0.12088029014E+03 -0.79777224568E+02 -0.14562419289E+03  0.20538465293E+03  0.00000000000E+00 0.  1.
         12    1    3    3    0    0  0.60115238901E+02 -0.48520606887E+01 -0.13962955599E+03  0.15209798601E+03  0.00000000000E+00 0. -1.
        -13    1    5    5    0    0  0.98246886493E+00  0.76629394864E+01 -0.37822371115E+01  0.86018140069E+01  0.00000000000E+00 0.  1.
         14    1    5    5    0    0 -0.19013212139E+03 -0.68658334080E+02 -0.50067292535E+03  0.53994219005E+03  0.00000000000E+00 0. -1.
          5    1    4    4  501    0  0.64471187676E+01  0.16282779990E+03  0.25329995334E+03  0.30122651630E+03  0.47000000000E+01 0. -1.
         -5    1    4    4    0  501  0.30648476222E+02 -0.12543439141E+02  0.29824002474E+02  0.44813257902E+02  0.47000000000E+01 0. -1.
          1    1    1    2  502    0  0.11329024826E+02  0.24194683857E+02 -0.88643646024E+03  0.88683895245E+03  0.00000000000E+00 0. -1.
          1    1    1    2  503    0 -0.40270496339E+02 -0.28854364767E+02  0.20340694899E+03  0.20935298933E+03  0.00000000000E+00 0. -1.
<mgrwt>
<rscale>  0 0.36351340E+02</rscale>
<asrwt>0</asrwt>
<pdfrwt beam="1">  1        2 0.85194403E-01 0.49462267E+02</pdfrwt>
<pdfrwt beam="2">  1        2 0.26013771E+00 0.26715717E+02</pdfrwt>
<totfact> 0.12001960E+02</totfact>
</mgrwt>
</event>
<event>
13    1  0.2038932E-008  0.4232090E+03  0.7546771E-02  0.1286552E+00
          2   -1    0    0  503    0  0.00000000000E+00  0.00000000000E+00  0.40764884119E+04  0.40764884119E+04  0.00000000000E+00 0. -1.
          2   -1    0    0  502    0 -0.00000000000E+00 -0.00000000000E+00 -0.25217917884E+04  0.25217917884E+04  0.00000000000E+00 0. -1.
         24    2    1    2    0    0 -0.12734229914E+04 -0.10274321561E+02 -0.37376590612E+03  0.13299316569E+04  0.85472701266E+02 0.  0.
         25    2    1    2    0    0  0.11308404410E+03 -0.17625635142E+03 -0.10954313871E+03  0.26735562645E+03  0.12500011725E+03 0.  0.
         24    2    1    2    0    0  0.96302944078E+03 -0.17850163174E+03  0.26539358955E+04  0.28300296253E+04  0.80021288870E+02 0.  0.
        -11    1    3    3    0    0 -0.93904324767E+03 -0.13682328965E+02 -0.31393259846E+03  0.99022376435E+03  0.00000000000E+00 0.  1.
         12    1    3    3    0    0 -0.33437974375E+03  0.34080074037E+01 -0.59833307664E+02  0.33970789253E+03  0.00000000000E+00 0. -1.
        -13    1    5    5    0    0  0.10876439556E+03 -0.46053996764E+02  0.33312946956E+03  0.35344859294E+03  0.00000000000E+00 0.  1.
         14    1    5    5    0    0  0.85426504522E+03 -0.13244763498E+03  0.23208064259E+04  0.24765810324E+04  0.00000000000E+00 0. -1.
          5    1    4    4  501    0  0.71761832926E+02 -0.11483530653E+03 -0.52619059288E+00  0.13549640278E+03  0.47000000000E+01 0.  1.
         -5    1    4    4    0  501  0.41322211175E+02 -0.61421044892E+02 -0.10901694811E+03  0.13185922367E+03  0.47000000000E+01 0.  1.
          1    1    1    2  502    0  0.21948935592E+03  0.36302395838E+03 -0.13609893190E+04  0.14255714286E+04  0.00000000000E+00 0. -1.
          1    1    1    2  503    0 -0.22179849387E+02  0.20083463391E+01  0.74505909181E+03  0.74539186302E+03  0.00000000000E+00 0. -1.
<mgrwt>
<rscale>  0 0.97083032E+02</rscale>
<asrwt>0</asrwt>
<pdfrwt beam="1">  1        2 0.59948359E+00 0.22270590E+02</pdfrwt>
<pdfrwt beam="2">  1        2 0.37085173E+00 0.42320905E+03</pdfrwt>
<totfact> 0.62406200E-01</totfact>
</mgrwt>
</event>
<event>
13    1  0.2038932E-008  0.8577527E+02  0.7546771E-02  0.1365466E+00
          2   -1    0    0  502    0  0.00000000000E+00  0.00000000000E+00  0.10882318745E+04  0.10882318745E+04  0.00000000000E+00 0. -1.
          2   -1    0    0  503    0 -0.00000000000E+00 -0.00000000000E+00 -0.18058038423E+04  0.18058038423E+04  0.00000000000E+00 0. -1.
         24    2    1    2    0    0  0.21219274000E+02  0.15421470255E+02 -0.59380112171E+02  0.10293393115E+03  0.79883146698E+02 0.  0.
         25    2    1    2    0    0 -0.41166740576E+02 -0.16723731636E+03  0.23781905608E+02  0.21413410206E+03  0.12499925647E+03 0.  0.
         24    2    1    2    0    0  0.77279425504E+00  0.91751277592E+02 -0.29945324919E+03  0.32363581153E+03  0.81541375417E+02 0.  0.
        -11    1    5    5    0    0 -0.14514213768E+02  0.92487075597E+02 -0.29194550318E+03  0.30658880995E+03  0.00000000000E+00 0.  1.
         12    1    5    5    0    0  0.15287008023E+02 -0.73579800508E+00 -0.75077460040E+01  0.17047001586E+02  0.00000000000E+00 0. -1.
        -11    1    3    3    0    0  0.21870599916E+02 -0.30411296222E+02 -0.33733445982E+02  0.50409477843E+02  0.00000000000E+00 0.  1.
         12    1    3    3    0    0 -0.65132591580E+00  0.45832766477E+02 -0.25646666189E+02  0.52524453305E+02  0.00000000000E+00 0. -1.
          5    1    4    4  501    0 -0.76749420184E+02 -0.13771818287E+03  0.43551180472E+02  0.16363241339E+03  0.47000000000E+01 0. -1.
         -5    1    4    4    0  501  0.35582679608E+02 -0.29519133494E+02 -0.19769274864E+02  0.50501688674E+02  0.47000000000E+01 0. -1.
          1    1    1    2  502    0  0.72095554627E+02  0.46568628743E+02  0.93286906094E+03  0.93680899389E+03  0.00000000000E+00 0. -1.
          1    1    1    2  503    0 -0.52920882307E+02  0.13495939770E+02 -0.13153895730E+04  0.13165228782E+04  0.00000000000E+00 0. -1.
<mgrwt>
<rscale>  0 0.68444041E+02</rscale>
<asrwt>0</asrwt>
<pdfrwt beam="1">  1        2 0.16003410E+00 0.85775274E+02</pdfrwt>
<pdfrwt beam="2">  1        2 0.26555938E+00 0.54614652E+02</pdfrwt>
<totfact> 0.49551493E+01</totfact>
</mgrwt>
</event>
<event>
13    1  0.2038932E-008  0.9681738E+02  0.7546771E-02  0.1414419E+00
          2   -1    0    0  503    0  0.00000000000E+00  0.00000000000E+00  0.51957806370E+03  0.51957806370E+03  0.00000000000E+00 0. -1.
          2   -1    0    0  502    0 -0.00000000000E+00 -0.00000000000E+00 -0.10056428146E+04  0.10056428146E+04  0.00000000000E+00 0. -1.
         24    2    1    2    0    0  0.42733174521E+01 -0.75676477994E+01 -0.29072049260E+03  0.30149023783E+03  0.79387833794E+02 0.  0.
         25    2    1    2    0    0  0.70877250929E+01  0.20460262555E+03  0.12934273300E+03  0.27252060218E+03  0.12500186321E+03 0.  0.
         24    2    1    2    0    0  0.14919250196E+02 -0.98076818251E+02 -0.15752205566E+03  0.20161793049E+03  0.77427033852E+02 0.  0.
        -11    1    5    5    0    0  0.45749382562E+02 -0.66454446799E+02 -0.89296931726E+02  0.12034592440E+03  0.00000000000E+00 0.  1.
         12    1    5    5    0    0 -0.30830132366E+02 -0.31622371451E+02 -0.68225123935E+02  0.81272006090E+02  0.00000000000E+00 0. -1.
        -11    1    3    3    0    0 -0.21077146979E+02 -0.25291853653E+02 -0.23876367551E+03  0.24102285520E+03  0.00000000000E+00 0.  1.
         12    1    3    3    0    0  0.25350464432E+02  0.17724205854E+02 -0.51956817092E+02  0.60467382632E+02  0.00000000000E+00 0. -1.
          5    1    4    4  501    0  0.51063072801E+02  0.10842808494E+03  0.11415194228E+03  0.16558032170E+03  0.47000000000E+01 0. -1.
         -5    1    4    4    0  501 -0.43975347708E+02  0.96174540610E+02  0.15190790721E+02  0.10694028049E+03  0.47000000000E+01 0. -1.
          1    1    1    2  502    0 -0.58925395951E+02 -0.98928156061E+02 -0.45019400306E+03  0.46468658549E+03  0.00000000000E+00 0. -1.
          1    1    1    2  503    0  0.32645103210E+02 -0.30003433819E-01  0.28302906740E+03  0.28490552233E+03  0.00000000000E+00 0. -1.
<mgrwt>
<rscale>  0 0.56219345E+02</rscale>
<asrwt>0</asrwt>
<pdfrwt beam="1">  1        2 0.76408541E-01 0.32645117E+02</pdfrwt>
<pdfrwt beam="2">  1        2 0.14788865E+00 0.96817383E+02</pdfrwt>
<totfact> 0.29269866E+02</totfact>
</mgrwt>
</event>
<event>
13    1  0.2038932E-008  0.1825338E+03  0.7546771E-02  0.1260870E+00
          2   -1    0    0  502    0  0.00000000000E+00  0.00000000000E+00  0.13623673004E+04  0.13623673004E+04  0.00000000000E+00 0. -1.
          2   -1    0    0  503    0 -0.00000000000E+00 -0.00000000000E+00 -0.14428290877E+04  0.14428290877E+04  0.00000000000E+00 0. -1.
         24    2    1    2    0    0 -0.17719813643E+03  0.17972802227E+03 -0.59202511847E+02  0.27101499794E+03  0.79011708991E+02 0.  0.
         25    2    1    2    0    0 -0.32575788005E+01 -0.87678112650E+02  0.67070389382E+03  0.68787378075E+03  0.12501424638E+03 0.  0.
         24    2    1    2    0    0 -0.18076018865E+02 -0.10157718780E+03 -0.13200394184E+03  0.18573692457E+03  0.80177908109E+02 0.  0.
        -13    1    3    3    0    0 -0.11118281850E+03  0.14066564227E+03 -0.72059879043E+02  0.19323837148E+03  0.00000000000E+00 0.  1.
         14    1    3    3    0    0 -0.66015317930E+02  0.39062380001E+02  0.12857367195E+02  0.77776626463E+02  0.00000000000E+00 0. -1.
        -13    1    5    5    0    0 -0.42615562389E+02 -0.26143279571E+02 -0.64284470363E+02  0.81437401447E+02  0.00000000000E+00 0.  1.
         14    1    5    5    0    0  0.24539543524E+02 -0.75433908229E+02 -0.67719471473E+02  0.10429952312E+03  0.00000000000E+00 0. -1.
          5    1    4    4  501    0 -0.10621564772E+01 -0.13749265317E+02  0.51731009538E+03  0.51751521258E+03  0.47000000000E+01 0. -1.
         -5    1    4    4    0  501 -0.21954223233E+01 -0.73928847333E+02  0.15339379845E+03  0.17035856817E+03  0.47000000000E+01 0. -1.
          1    1    1    2  502    0 -0.64400572868E+02  0.14867148965E+02  0.53266126669E+03  0.53674620719E+03  0.00000000000E+00 0. -1.
          1    1    1    2  503    0  0.26293230696E+03 -0.53398707866E+01 -0.10926204941E+04  0.11238244776E+04  0.00000000000E+00 0. -1.
<mgrwt>
<rscale>  0 0.10983831E+03</rscale>
<asrwt>0</asrwt>
<pdfrwt beam="1">  1        2 0.20034813E+00 0.66094371E+02</pdfrwt>
<pdfrwt beam="2">  1        2 0.21218075E+00 0.18253377E+03</pdfrwt>
<totfact> 0.49298267E+01</totfact>
</mgrwt>
</event>
<event>
13    1  0.2038932E-008  0.2428656E+03  0.7546771E-02  0.1210563E+00
          2   -1    0    0  502    0  0.00000000000E+00  0.00000000000E+00  0.34593384286E+04  0.34593384286E+04  0.00000000000E+00 0. -1.
          2   -1    0    0  503    0 -0.00000000000E+00 -0.00000000000E+00 -0.16623091196E+04  0.16623091196E+04  0.00000000000E+00 0. -1.
         24    2    1    2    0    0 -0.46454721791E+02  0.13782248332E+03 -0.36353068962E+02  0.17099051705E+03  0.82238270969E+02 0.  0.
         25    2    1    2    0    0 -0.11520699699E+03  0.47498261408E+03 -0.48582142659E+03  0.70037751933E+03  0.12500030091E+03 0.  0.
         24    2    1    2    0    0 -0.91154584372E+02 -0.40279694784E+03 -0.65728399853E+02  0.42679642453E+03  0.85325412399E+02 0.  0.
        -11    1    5    5    0    0 -0.76511340521E+02 -0.15379181353E+03 -0.16642056247E+02  0.17257712819E+03  0.00000000000E+00 0.  1.
         12    1    5    5    0    0 -0.14643243850E+02 -0.24900513431E+03 -0.49086343605E+02  0.25421929634E+03  0.00000000000E+00 0. -1.
        -13    1    3    3    0    0 -0.29684870596E+02  0.14510651048E+03 -0.27369871523E+02  0.15061939050E+03  0.00000000000E+00 0.  1.
         14    1    3    3    0    0 -0.16769851195E+02 -0.72840271595E+01 -0.89831974389E+01  0.20371126552E+02  0.00000000000E+00 0. -1.
          5    1    4    4  501    0 -0.35881535588E+02  0.37255994140E+03 -0.37474493326E+03  0.52966428003E+03  0.47000000000E+01 0. -1.
         -5    1    4    4    0  501 -0.79325461403E+02  0.10242267267E+03 -0.11107649332E+03  0.17071323930E+03  0.47000000000E+01 0. -1.
          1    1    1    2  502    0  0.66210448736E+02 -0.50239945989E+02  0.30826560359E+04  0.30837762745E+04  0.00000000000E+00 0. -1.
          1    1    1    2  503    0  0.18660585442E+03 -0.15976820357E+03 -0.69772383147E+03  0.73970681272E+03  0.00000000000E+00 0. -1.
<mgrwt>
<rscale>  0 0.14207547E+03</rscale>
<asrwt>0</asrwt>
<pdfrwt beam="1">  1        2 0.50872624E+00 0.83113631E+02</pdfrwt>
<pdfrwt beam="2">  1        2 0.24445722E+00 0.24286557E+03</pdfrwt>
<totfact> 0.32051488E+00</totfact>
</mgrwt>
</event>
<event>
13    1  0.2038932E-008  0.4151436E+02  0.7546771E-02  0.1528680E+00
         -1   -1    0    0    0  501 -0.00000000000E+00  0.00000000000E+00  0.65114772970E+03  0.65114772970E+03  0.00000000000E+00 0.  1.
          2   -1    0    0  503    0  0.00000000000E+00 -0.00000000000E+00 -0.20160718594E+04  0.20160718594E+04  0.00000000000E+00 0. -1.
         24    2    1    2    0    0  0.67847334750E+02 -0.46071060638E+02  0.24557209786E+02  0.11721585852E+03  0.80066831302E+02 0.  0.
         25    2    1    2    0    0 -0.41259619892E+02  0.54147350387E+02 -0.14897394783E+04  0.14965238145E+04  0.12500208889E+03 0.  0.
         24    2    1    2    0    0 -0.68399588879E+02  0.15826054303E+01 -0.29789682568E+03  0.31648325414E+03  0.82086070695E+02 0.  0.
        -13    1    3    3    0    0  0.47788081169E+02 -0.56441310335E+02  0.45155835026E+02  0.86650860648E+02  0.00000000000E+00 0.  1.
         14    1    3    3    0    0  0.20059253581E+02  0.10370249698E+02 -0.20598625240E+02  0.30564997870E+02  0.00000000000E+00 0. -1.
        -13    1    5    5    0    0 -0.59552858099E+02 -0.27985584314E+02 -0.25675055038E+03  0.26504826157E+03  0.00000000000E+00 0.  1.
         14    1    5    5    0    0 -0.88467307808E+01  0.29568189744E+02 -0.41146275294E+02  0.51434992572E+02  0.00000000000E+00 0. -1.
          5    1    4    4  502    0 -0.65423255577E+02  0.41162317018E+02 -0.14089202928E+04  0.14110467817E+04  0.47000000000E+01 0. -1.
         -5    1    4    4    0  502  0.24163635685E+02  0.12985033369E+02 -0.80819185483E+02  0.85477032724E+02  0.47000000000E+01 0. -1.
          1    1    1    2  503    0  0.73335089403E+01 -0.32791144700E+02 -0.16698574492E+03  0.17033284630E+03  0.00000000000E+00 0. -1.
         -2    1    1    2    0  501  0.34478365081E+02  0.23132249521E+02  0.56514070939E+03  0.56666381571E+03  0.00000000000E+00 0.  1.
<mgrwt>
<rscale>  0 0.37348782E+02</rscale>
<asrwt>0</asrwt>
<pdfrwt beam="2">  1        2 0.29648115E+00 0.33601183E+02</pdfrwt>
<pdfrwt beam="1">  1       -1 0.95757022E-01 0.41514358E+02</pdfrwt>
<totfact> 0.14023795E+01</totfact>
</mgrwt>
</event>
<event>
13    1  0.2038932E-008  0.1465959E+03  0.7546771E-02  0.1216338E+00
          2   -1    0    0  502    0  0.00000000000E+00  0.00000000000E+00  0.12310636364E+04  0.12310636364E+04  0.00000000000E+00 0. -1.
          2   -1    0    0  503    0 -0.00000000000E+00 -0.00000000000E+00 -0.14032458500E+04  0.14032458500E+04  0.00000000000E+00 0. -1.
         24    2    1    2    0    0 -0.71613093397E+02  0.54820109142E+02 -0.77087358473E+03  0.77933289900E+03  0.70569145630E+02 0.  0.
         25    2    1    2    0    0  0.12123320496E+02 -0.44499829362E+02  0.31549570220E+03  0.34247564498E+03  0.12499927833E+03 0.  0.
         24    2    1    2    0    0  0.19785444074E+03 -0.64946768343E-01  0.15096196862E+03  0.26122601293E+03  0.79392253552E+02 0.  0.
        -13    1    3    3    0    0 -0.32158284935E+02  0.66056583213E+02 -0.48716330659E+03  0.49267201541E+03  0.00000000000E+00 0.  1.
         14    1    3    3    0    0 -0.39454808462E+02 -0.11236474071E+02 -0.28371027813E+03  0.28666088359E+03  0.00000000000E+00 0. -1.
        -13    1    5    5    0    0  0.27250102504E+02  0.23666265234E+02  0.49686423628E+02  0.61411732508E+02  0.00000000000E+00 0.  1.
         14    1    5    5    0    0  0.17060433824E+03 -0.23731212003E+02  0.10127554499E+03  0.19981428042E+03  0.00000000000E+00 0. -1.
          5    1    4    4  501    0 -0.43817490824E+02 -0.58485719369E+02  0.14520537531E+03  0.16262608306E+03  0.47000000000E+01 0.  1.
         -5    1    4    4    0  501  0.55940811320E+02  0.13985890007E+02  0.17029032689E+03  0.17984956192E+03  0.47000000000E+01 0.  1.
          1    1    1    2  502    0 -0.83471270702E+02  0.12496554898E+03  0.67381787400E+03  0.69037263038E+03  0.00000000000E+00 0. -1.
          1    1    1    2  503    0 -0.54893397140E+02 -0.13522088200E+03 -0.54158417366E+03  0.56090229910E+03  0.00000000000E+00 0. -1.
<mgrwt>
<rscale>  0 0.13778678E+03</rscale>
<asrwt>0</asrwt>
<pdfrwt beam="1">  1        2 0.18103877E+00 0.14659586E+03</pdfrwt>
<pdfrwt beam="2">  1        2 0.20635968E+00 0.12950705E+03</pdfrwt>
<totfact> 0.58669882E+01</totfact>
</mgrwt>
</event>
<event>
13    1  0.2038932E-008  0.1042218E+03  0.7546771E-02  0.1401539E+00
          2   -1    0    0  502    0  0.00000000000E+00  0.00000000000E+00  0.16752864703E+04  0.16752864703E+04  0.00000000000E+00 0. -1.
          2   -1    0    0  503    0 -0.00000000000E+00 -0.00000000000E+00 -0.55421904651E+03  0.55421904651E+03  0.00000000000E+00 0. -1.
         24    2    1    2    0    0  0.19659806887E+03  0.45172894298E+02  0.30423340549E+03  0.37502796726E+03  0.86003605445E+02 0.  0.
         25    2    1    2    0    0 -0.60089683758E+02  0.93486990977E+02 -0.13872756951E+02  0.16783125768E+03  0.12499716034E+03 0.  0.
         24    2    1    2    0    0 -0.11654884908E+03 -0.21921437190E+02  0.33794471647E+03  0.36689687834E+03  0.79639841231E+02 0.  0.
        -11    1    5    5    0    0 -0.10625940328E+03  0.53532133160E+01  0.20694401162E+03  0.23269194576E+03  0.00000000000E+00 0.  1.
         12    1    5    5    0    0 -0.10289445801E+02 -0.27274650506E+02  0.13100070485E+03  0.13420493257E+03  0.00000000000E+00 0. -1.
        -11    1    3    3    0    0  0.73662888757E+02 -0.15131031394E+02  0.15629722182E+03  0.17344737196E+03  0.00000000000E+00 0.  1.
         12    1    3    3    0    0  0.12293518011E+03  0.60303925692E+02  0.14793618367E+03  0.20158059530E+03  0.00000000000E+00 0. -1.
          5    1    4    4  501    0  0.20022777202E+02 -0.13417226478E+02 -0.23266220739E+02  0.33828103712E+02  0.47000000000E+01 0.  1.
         -5    1    4    4    0  501 -0.80112460960E+02  0.10690421746E+03  0.93934637883E+01  0.13400315397E+03  0.47000000000E+01 0.  1.
          1    1    1    2  502    0  0.10836116173E+02 -0.10344556834E+03  0.90258393616E+03  0.90855719074E+03  0.00000000000E+00 0. -1.
          1    1    1    2  503    0 -0.30795652204E+02 -0.13292879749E+02 -0.40982187743E+03  0.41119222277E+03  0.00000000000E+00 0. -1.
<mgrwt>
<rscale>  0 0.59125439E+02</rscale>
<asrwt>0</asrwt>
<pdfrwt beam="1">  1        2 0.24636566E+00 0.10422177E+03</pdfrwt>
<pdfrwt beam="2">  1        2 0.81502801E-01 0.33542106E+02</pdfrwt>
<totfact> 0.12277323E+02</totfact>
</mgrwt>
</event>
<event>
13    1  0.2765767E-008  0.9446071E+02  0.7546771E-02  0.1437295E+00
          2   -1    0    0  502    0  0.00000000000E+00  0.00000000000E+00  0.16020290595E+04  0.16020290595E+04  0.00000000000E+00 0. -1.
          2   -1    0    0  503    0 -0.00000000000E+00 -0.00000000000E+00 -0.18326598722E+04  0.18326598722E+04  0.00000000000E+00 0. -1.
         24    2    1    2    0    0  0.32237461228E+02 -0.66819473027E+02 -0.17832235063E+03  0.20885849557E+03  0.79491600553E+02 0.  0.
         25    2    1    2    0    0  0.85743072700E+02  0.32682421891E+02  0.54958303358E+03  0.57104023417E+03  0.12500169210E+03 0.  0.
         24    2    1    2    0    0  0.30034675761E+01  0.50064991561E+02 -0.41225044127E+03  0.42316756674E+03  0.81270160695E+02 0.  0.
        -11    1    5    5    0    0  0.29561509742E+02  0.13440065620E+02 -0.61830389247E+02  0.69839210023E+02  0.00000000000E+00 0.  1.
         12    1    5    5    0    0 -0.26558042166E+02  0.36624925940E+02 -0.35042005202E+03  0.35332835672E+03  0.00000000000E+00 0. -1.
        -11    1    3    3    0    0  0.28025101258E+02 -0.80503696038E+02 -0.11059079540E+03  0.13963013787E+03  0.00000000000E+00 0.  1.
         12    1    3    3    0    0  0.42123599700E+01  0.13684223011E+02 -0.67731555232E+02  0.69228357701E+02  0.00000000000E+00 0. -1.
          5    1    4    4  501    0  0.72733681039E+02  0.17043662984E+02  0.54440859637E+03  0.54953023994E+03  0.47000000000E+01 0.  1.
         -5    1    4    4    0  501  0.13009391661E+02  0.15638758907E+02  0.51744372114E+01  0.21509994235E+02  0.47000000000E+01 0.  1.
          1    1    1    2  502    0 -0.26945096725E+02 -0.79838300478E+01  0.10189575515E+04  0.10193450208E+04  0.00000000000E+00 0. -1.
          1    1    1    2  503    0 -0.94038904779E+02 -0.79441103776E+01 -0.12085986058E+04  0.12122776144E+04  0.00000000000E+00 0. -1.
<mgrwt>
<rscale>  0 0.51523115E+02</rscale>
<asrwt>0</asrwt>
<pdfrwt beam="1">  1        2 0.23559251E+00 0.28103021E+02</pdfrwt>
<pdfrwt beam="2">  1        2 0.26950880E+00 0.94460712E+02</pdfrwt>
<totfact> 0.27577533E+01</totfact>
</mgrwt>
</event>
<event>
13    1  0.2038932E-008  0.1174627E+03  0.7546771E-02  0.1269816E+00
          2   -1    0    0  503    0  0.00000000000E+00  0.00000000000E+00  0.13901002172E+04  0.13901002172E+04  0.00000000000E+00 0. -1.
          2   -1    0    0  502    0 -0.00000000000E+00 -0.00000000000E+00 -0.15891354214E+04  0.15891354214E+04  0.00000000000E+00 0. -1.
         24    2    1    2    0    0 -0.17240364247E+03 -0.75072104317E+02 -0.19232513616E+03  0.28150441314E+03  0.83047816538E+02 0.  0.
         25    2    1    2    0    0 -0.12004225391E+03  0.18679184169E+03  0.60605681755E+02  0.26191550783E+03  0.12500139893E+03 0.  0.
         24    2    1    2    0    0  0.13190901333E+03  0.94331196037E+00 -0.48236588235E+02  0.16221615128E+03  0.81156846010E+02 0.  0.
        -13    1    5    5    0    0  0.12533325317E+02  0.29492158719E+02 -0.12263352723E+02  0.34311244358E+02  0.00000000000E+00 0.  1.
         14    1    5    5    0    0  0.11937568801E+03 -0.28548846758E+02 -0.35973235513E+02  0.12790490692E+03  0.00000000000E+00 0. -1.
        -13    1    3    3    0    0 -0.13969366097E+03 -0.22649557425E+02 -0.11389235698E+03  0.18165569175E+03  0.00000000000E+00 0.  1.
         14    1    3    3    0    0 -0.32709981501E+02 -0.52422546891E+02 -0.78432779180E+02  0.99848721385E+02  0.00000000000E+00 0. -1.
          5    1    4    4  501    0  0.21859840469E+02  0.28311531639E+02 -0.10497044645E+02  0.37572242352E+02  0.47000000000E+01 0.  1.
         -5    1    4    4    0  501 -0.14190209438E+03  0.15848031006E+03  0.71102726400E+02  0.22434326548E+03  0.47000000000E+01 0.  1.
          1    1    1    2  502    0  0.11226415749E+03 -0.31846900109E+02 -0.11413940030E+04  0.11473437742E+04  0.00000000000E+00 0. -1.
          1    1    1    2  503    0  0.48272725560E+02 -0.80816149229E+02  0.11223148415E+04  0.11262557922E+04  0.00000000000E+00 0. -1.
<mgrwt>
<rscale>  0 0.10515426E+03</rscale>
<asrwt>0</asrwt>
<pdfrwt beam="1">  1        2 0.20442650E+00 0.94135572E+02</pdfrwt>
<pdfrwt beam="2">  1        2 0.23369639E+00 0.11746270E+03</pdfrwt>
<totfact> 0.40618070E+01</totfact>
</mgrwt>
</event>
<event>
13    1  0.2038932E-008  0.2186730E+02  0.7546771E-02  0.1717898E+00
          2   -1    0    0  503    0  0.00000000000E+00  0.00000000000E+00  0.75192169258E+02  0.75192169258E+02  0.00000000000E+00 0. -1.
          2   -1    0    0  502    0 -0.00000000000E+00 -0.00000000000E+00 -0.38621508260E+04  0.38621508260E+04  0.00000000000E+00 0. -1.
         24    2    1    2    0    0 -0.22341893919E+02 -0.51043935371E+02 -0.28060390986E+04  0.28077336119E+04  0.80049791450E+02 0.  0.
         25    2    1    2    0    0  0.40330341665E+02 -0.35822546825E+01 -0.15390392409E+03  0.20235855524E+03  0.12499279187E+03 0.  0.
         24    2    1    2    0    0 -0.11269315297E+01  0.37687704170E+02 -0.34369332820E+03  0.35506291554E+03  0.80764702182E+02 0.  0.
        -13    1    5    5    0    0  0.11021929399E+02 -0.23870773138E+02 -0.94202505090E+02  0.97802907437E+02  0.00000000000E+00 0.  1.
         14    1    5    5    0    0 -0.12148860929E+02  0.61558477308E+02 -0.24949082311E+03  0.25726000810E+03  0.00000000000E+00 0. -1.
        -13    1    3    3    0    0 -0.42305395140E+02  0.44591347379E+00 -0.12133581779E+04  0.12140955536E+04  0.00000000000E+00 0.  1.
         14    1    3    3    0    0  0.19963501220E+02 -0.51489848845E+02 -0.15926809207E+04  0.15936380583E+04  0.00000000000E+00 0. -1.
          5    1    4    4  501    0 -0.19742906930E+02  0.31599462381E+01  0.13320998343E+02  0.24480740004E+02  0.47000000000E+01 0.  1.
         -5    1    4    4    0  501  0.60073248596E+02 -0.67422009206E+01 -0.16722492243E+03  0.17787781523E+03  0.47000000000E+01 0.  1.
          1    1    1    2  502    0 -0.20530812973E+02 -0.46253437286E+01 -0.52483932609E+03  0.52526110297E+03  0.00000000000E+00 0. -1.
          1    1    1    2  503    0  0.36692967565E+01  0.21563829612E+02  0.41517020249E+02  0.46926809572E+02  0.00000000000E+00 0. -1.
<mgrwt>
<rscale>  0 0.21452407E+02</rscale>
<asrwt>0</asrwt>
<pdfrwt beam="1">  1        2 0.11057673E-01 0.21867304E+02</pdfrwt>
<pdfrwt beam="2">  1        2 0.56796330E+00 0.21045382E+02</pdfrwt>
<totfact> 0.95285639E+01</totfact>
</mgrwt>
</event>
<event>
13    1  0.2038932E-008  0.1054216E+03  0.7546771E-02  0.1312379E+00
          2   -1    0    0  503    0  0.00000000000E+00  0.00000000000E+00  0.96672655523E+03  0.96672655523E+03  0.00000000000E+00 0. -1.
         -3   -1    0    0    0  501 -0.00000000000E+00 -0.00000000000E+00 -0.30592977500E+03  0.30592977500E+03  0.00000000000E+00 0.  1.
         24    2    1    2    0    0 -0.46122338481E+02 -0.11724779476E+02  0.14491283332E+02  0.94041307005E+02  0.79806200071E+02 0.  0.
         25    2    1    2    0    0  0.11598870374E+03  0.88787494221E+02  0.37677057256E+03  0.42298501629E+03  0.12499464444E+03 0.  0.
         24    2    1    2    0    0 -0.68335377744E+01  0.59174058544E+02 -0.76435611996E+02  0.12575880766E+03  0.80153655441E+02 0.  0.
        -11    1    3    3    0    0 -0.41415768618E+02 -0.23465300106E+02  0.42179779611E+02  0.63600471754E+02  0.00000000000E+00 0.  1.
         12    1    3    3    0    0 -0.47065698622E+01  0.11740520630E+02 -0.27688496279E+02  0.30440835250E+02  0.00000000000E+00 0. -1.
        -13    1    5    5    0    0 -0.33964519024E+02  0.12235033745E+02 -0.55629814167E+01  0.36527131909E+02  0.00000000000E+00 0.  1.
         14    1    5    5    0    0  0.27130981249E+02  0.46939024799E+02 -0.70872630580E+02  0.89231675754E+02  0.00000000000E+00 0. -1.
          5    1    4    4  502    0  0.13700260085E+03  0.78546912364E+02  0.26352937608E+03  0.30726072339E+03  0.47000000000E+01 0.  1.
         -5    1    4    4    0  502 -0.21013897109E+02  0.10240581856E+02  0.11324119648E+03  0.11572429290E+03  0.47000000000E+01 0.  1.
          1    1    1    2  503    0 -0.63729592479E+02 -0.30024467370E+02  0.46502065378E+03  0.47032662910E+03  0.00000000000E+00 0. -1.
         -4    1    1    2    0  501  0.69676499801E+00 -0.10621230592E+03 -0.11905011744E+03  0.15954457018E+03  0.00000000000E+00 0.  1.
<mgrwt>
<rscale>  0 0.86178581E+02</rscale>
<asrwt>0</asrwt>
<pdfrwt beam="1">  1        2 0.14216567E+00 0.70448063E+02</pdfrwt>
<pdfrwt beam="2">  1       -3 0.44989673E-01 0.10542160E+03</pdfrwt>
<totfact> 0.92172384E+01</totfact>
</mgrwt>
</event>
<event>
13    1  0.2038932E-008  0.6851007E+02  0.7546771E-02  0.1374683E+00
          2   -1    0    0  503    0  0.00000000000E+00  0.00000000000E+00  0.47162716201E+03  0.47162716201E+03  0.00000000000E+00 0. -1.
          2   -1    0    0  502    0 -0.00000000000E+00 -0.00000000000E+00 -0.11162838646E+04  0.11162838646E+04  0.00000000000E+00 0. -1.
         24    2    1    2    0    0 -0.17844156526E+03 -0.39839182108E+03 -0.54631205017E+03  0.70388398741E+03  0.80239493086E+02 0.  0.
         25    2    1    2    0    0  0.22216607659E+03  0.40974914906E+03  0.49477466710E+02  0.48510413243E+03  0.12500347532E+03 0.  0.
         24    2    1    2    0    0 -0.51831526843E+02  0.18045376274E+02 -0.52004538105E+02  0.11025286736E+03  0.80243878252E+02 0.  0.
        -13    1    5    5    0    0  0.21133594593E+02  0.99013099321E+01 -0.17267670934E+02  0.29031658897E+02  0.00000000000E+00 0.  1.
         14    1    5    5    0    0 -0.72965121436E+02  0.81440663419E+01 -0.34736867171E+02  0.81221208459E+02  0.00000000000E+00 0. -1.
        -13    1    3    3    0    0 -0.94357996845E+01 -0.97715293333E+02 -0.10452206977E+03  0.14339517403E+03  0.00000000000E+00 0.  1.
         14    1    3    3    0    0 -0.16900576558E+03 -0.30067652775E+03 -0.44178998040E+03  0.56048881338E+03  0.00000000000E+00 0. -1.
          5    1    4    4  501    0  0.14368136511E+03  0.30935541655E+03 -0.16507186472E+02  0.34152552706E+03  0.47000000000E+01 0. -1.
         -5    1    4    4    0  501  0.78484711484E+02  0.10039373251E+03  0.65984653182E+02  0.14357860537E+03  0.47000000000E+01 0. -1.
          1    1    1    2  502    0 -0.60425993060E+02 -0.19041821058E+02 -0.17341426229E+03  0.18462501985E+03  0.00000000000E+00 0. -1.
          1    1    1    2  503    0  0.68533008574E+02 -0.10360883194E+02  0.77596681239E+02  0.10404501960E+03  0.00000000000E+00 0. -1.
<mgrwt>
<rscale>  0 0.65882277E+02</rscale>
<asrwt>0</asrwt>
<pdfrwt beam="1">  1        2 0.69356936E-01 0.68510066E+02</pdfrwt>
<pdfrwt beam="2">  1        2 0.16415939E+00 0.63355281E+02</pdfrwt>
<totfact> 0.28570220E+02</totfact>
</mgrwt>
</event>
<event>
13    1  0.2038932E-008  0.5770271E+02  0.7546771E-02  0.1439682E+00
          2   -1    0    0  503    0  0.00000000000E+00  0.00000000000E+00  0.19324236713E+03  0.19324236713E+03  0.00000000000E+00 0. -1.
          2   -1    0    0  502    0 -0.00000000000E+00 -0.00000000000E+00 -0.21491602080E+04  0.21491602080E+04  0.00000000000E+00 0. -1.
         24    2    1    2    0    0  0.98761184777E+02 -0.53528870989E+02 -0.96910874172E+03  0.97890147371E+03  0.80356893303E+02 0.  0.
         25    2    1    2    0    0  0.91443242805E+02  0.44525896814E+01 -0.11686122781E+03  0.19407071281E+03  0.12500081118E+03 0.  0.
         24    2    1    2    0    0 -0.26803453582E+03  0.56485835060E+02 -0.47762877346E+03  0.55643216125E+03  0.80338925051E+02 0.  0.
        -13    1    3    3    0    0  0.15915207593E+02 -0.51318591937E+02 -0.31282726792E+03  0.31740792565E+03  0.00000000000E+00 0.  1.
         14    1    3    3    0    0  0.82845977184E+02 -0.22102790515E+01 -0.65628147380E+03  0.66149354806E+03  0.00000000000E+00 0. -1.
        -13    1    5    5    0    0 -0.87606320409E+01  0.21426389369E+02 -0.29237844556E+02  0.37291961458E+02  0.00000000000E+00 0.  1.
         14    1    5    5    0    0 -0.25927390378E+03  0.35059445691E+02 -0.44839092891E+03  0.51914019979E+03  0.00000000000E+00 0. -1.
          5    1    4    4  501    0  0.76527787394E+02  0.34591183479E+02 -0.13392730809E+02  0.85173396412E+02  0.47000000000E+01 0.  1.
         -5    1    4    4    0  501  0.14915455411E+02 -0.30138593797E+02 -0.10346849700E+03  0.10889731640E+03  0.47000000000E+01 0.  1.
          1    1    1    2  502    0  0.43891849888E+02 -0.37248320663E+02 -0.49629709191E+03  0.49962459439E+03  0.00000000000E+00 0. -1.
          1    1    1    2  503    0  0.33938258352E+02  0.29838766910E+02  0.10397799408E+03  0.11337363293E+03  0.00000000000E+00 0. -1.
<mgrwt>
<rscale>  0 0.51064654E+02</rscale>
<asrwt>0</asrwt>
<pdfrwt beam="1">  1        2 0.28417994E-01 0.45190236E+02</pdfrwt>
<pdfrwt beam="2">  1        2 0.31605298E+00 0.57702707E+02</pdfrwt>
<totfact> 0.22815729E+02</totfact>
</mgrwt>
</event>
<event>
13    1  0.2038932E-008  0.3912256E+02  0.7546771E-02  0.1536753E+00
          2   -1    0    0  503    0  0.00000000000E+00  0.00000000000E+00  0.37641176669E+03  0.37641176669E+03  0.00000000000E+00 0. -1.
         -3   -1    0    0    0  501 -0.00000000000E+00 -0.00000000000E+00 -0.20125213492E+04  0.20125213492E+04  0.00000000000E+00 0.  1.
         24    2    1    2    0    0 -0.81696636387E+02 -0.18507201314E+03 -0.13837082060E+04  0.14007838937E+04  0.81370308517E+02 0.  0.
         25    2    1    2    0    0  0.99544595855E+02  0.12639267513E+03  0.16128740491E+03  0.25986001523E+03  0.12501746134E+03 0.  0.
         24    2    1    2    0    0 -0.56241107412E+02  0.11258368176E+02 -0.18977428054E+03  0.21443877502E+03  0.81730640899E+02 0.  0.
        -11    1    3    3    0    0 -0.83600456119E+02 -0.10706674002E+03 -0.74008213331E+03  0.75244527185E+03  0.00000000000E+00 0.  1.
         12    1    3    3    0    0  0.19038197318E+01 -0.78005273120E+02 -0.64362607270E+03  0.64833862188E+03  0.00000000000E+00 0. -1.
        -13    1    5    5    0    0 -0.20018379096E+02 -0.16616301103E+02 -0.15457570807E+03  0.15674975754E+03  0.00000000000E+00 0.  1.
         14    1    5    5    0    0 -0.36222728315E+02  0.27874669279E+02 -0.35198572470E+02  0.57689017481E+02  0.00000000000E+00 0. -1.
          5    1    4    4  502    0  0.10188496715E+03  0.73810749816E+02  0.16422951394E+03  0.20693476404E+03  0.47000000000E+01 0.  1.
         -5    1    4    4    0  502 -0.23403712918E+01  0.52581925316E+02 -0.29421090312E+01  0.52925251188E+02  0.47000000000E+01 0.  1.
          1    1    1    2  503    0  0.32652033443E+02  0.87831698621E+01  0.14194238810E+03  0.14591415593E+03  0.00000000000E+00 0. -1.
         -4    1    1    2    0  501  0.57411145008E+01  0.38637799965E+02 -0.36585688893E+03  0.36793627595E+03  0.00000000000E+00 0.  1.
<mgrwt>
<rscale>  0 0.36370865E+02</rscale>
<asrwt>0</asrwt>
<pdfrwt beam="1">  1        2 0.55354672E-01 0.33812710E+02</pdfrwt>
<pdfrwt beam="2">  1       -3 0.29595902E+00 0.39122562E+02</pdfrwt>
<totfact> 0.29406981E+00</totfact>
</mgrwt>
</event>
<event>
13    1  0.2038932E-008  0.3608197E+03  0.7546771E-02  0.1192733E+00
         -3   -1    0    0    0  501 -0.00000000000E+00  0.00000000000E+00  0.19344373012E+04  0.19344373012E+04  0.00000000000E+00 0.  1.
          2   -1    0    0  503    0  0.00000000000E+00 -0.00000000000E+00 -0.54433654431E+04  0.54433654431E+04  0.00000000000E+00 0. -1.
         24    2    1    2    0    0 -0.56222232325E+03  0.21214346952E+03  0.71165567033E+03  0.93499630759E+03  0.81642572671E+02 0.  0.
         25    2    1    2    0    0  0.22376341274E+03  0.11228079725E+03 -0.10926027424E+04  0.11278665393E+04  0.12500054229E+03 0.  0.
         24    2    1    2    0    0  0.43511272520E+03 -0.75187136482E+01  0.67006962225E+02  0.44753467773E+03  0.80110798891E+02 0.  0.
        -11    1    5    5    0    0  0.30501778689E+03  0.31573979587E+02  0.46817423093E+02  0.31020096327E+03  0.00000000000E+00 0.  1.
         12    1    5    5    0    0  0.13009493831E+03 -0.39092693235E+02  0.20189539132E+02  0.13733371447E+03  0.00000000000E+00 0. -1.
        -13    1    3    3    0    0 -0.56362157818E+03  0.20981890431E+03  0.71227103953E+03  0.93221418662E+03  0.00000000000E+00 0.  1.
         14    1    3    3    0    0  0.13992549339E+01  0.23245652104E+01 -0.61536919918E+00  0.27821209605E+01  0.00000000000E+00 0. -1.
          5    1    4    4  502    0  0.25187625654E+02 -0.49026980566E+01 -0.26809294846E+02  0.37406967592E+02  0.47000000000E+01 0.  1.
         -5    1    4    4    0  502  0.19857578709E+03  0.11718349531E+03 -0.10657934475E+04  0.10904595717E+04  0.47000000000E+01 0.  1.
          1    1    1    2  503    0 -0.23676170942E+02  0.63594542545E+02 -0.39860153532E+04  0.39865929342E+04  0.00000000000E+00 0. -1.
         -4    1    1    2    0  501 -0.72977643757E+02 -0.38050009566E+03  0.79102732116E+03  0.88081228540E+03  0.00000000000E+00 0.  1.
<mgrwt>
<rscale>  0 0.15647626E+03</rscale>
<asrwt>0</asrwt>
<pdfrwt beam="2">  1        2 0.80049490E+00 0.67858875E+02</pdfrwt>
<pdfrwt beam="1">  1       -3 0.28447608E+00 0.36081972E+03</pdfrwt>
<totfact> 0.13322520E-03</totfact>
</mgrwt>
</event>
<event>
13    1  0.2038932E-008  0.2373195E+03  0.7546771E-02  0.1237006E+00
          4   -1    0    0  503    0 -0.00000000000E+00  0.00000000000E+00  0.13676488319E+04  0.13676488319E+04  0.00000000000E+00 0. -1.
          2   -1    0    0  502    0  0.00000000000E+00 -0.00000000000E+00 -0.60597113483E+03  0.60597113483E+03  0.00000000000E+00 0. -1.
         24    2    1    2    0    0 -0.10967835400E+03  0.21282963401E+03  0.21846849293E+03  0.33650702936E+03  0.90458299507E+02 0.  0.
         25    2    1    2    0    0  0.19373363320E+03  0.70490957052E+02  0.18859739947E+03  0.30609696751E+03  0.12499871508E+03 0.  0.
         24    2    1    2    0    0  0.20482824199E+02 -0.50318282160E+02 -0.16892448792E+03  0.19439251204E+03  0.79381928113E+02 0.  0.
        -11    1    5    5    0    0  0.48215609119E+02 -0.13541762808E+02 -0.84855887485E+02  0.98532461369E+02  0.00000000000E+00 0.  1.
         12    1    5    5    0    0 -0.27732784921E+02 -0.36776519352E+02 -0.84068600433E+02  0.95860050667E+02  0.00000000000E+00 0. -1.
        -11    1    3    3    0    0 -0.94201834553E+02  0.17532485639E+03  0.12608286739E+03  0.23560492429E+03  0.00000000000E+00 0.  1.
         12    1    3    3    0    0 -0.15476519449E+02  0.37504777625E+02  0.92385625548E+02  0.10090210507E+03  0.00000000000E+00 0. -1.
          5    1    4    4  501    0  0.13172394921E+03  0.71877103145E+02  0.57089638311E+02  0.16062015301E+03  0.47000000000E+01 0. -1.
         -5    1    4    4    0  501  0.62009683991E+02 -0.13861460930E+01  0.13150776116E+03  0.14547681449E+03  0.47000000000E+01 0. -1.
          1    1    1    2  502    0 -0.63424120829E+02  0.11997614531E+02 -0.28425666432E+03  0.29149341857E+03  0.00000000000E+00 0. -1.
          3    1    1    2  503    0 -0.41113982568E+02 -0.24499992344E+03  0.80779295691E+03  0.84513003928E+03  0.00000000000E+00 0. -1.
<mgrwt>
<rscale>  0 0.12376879E+03</rscale>
<asrwt>0</asrwt>
<pdfrwt beam="2">  1        2 0.89113402E-01 0.64548911E+02</pdfrwt>
<pdfrwt beam="1">  1        4 0.20112483E+00 0.23731948E+03</pdfrwt>
<totfact> 0.40347494E+00</totfact>
</mgrwt>
</event>
<event>
13    1  0.2038932E-008  0.1389032E+03  0.7546771E-02  0.1268237E+00
          2   -1    0    0  503    0  0.00000000000E+00  0.00000000000E+00  0.32499332202E+04  0.32499332202E+04  0.00000000000E+00 0. -1.
         -1   -1    0    0    0  501 -0.00000000000E+00 -0.00000000000E+00 -0.70937981629E+03  0.70937981629E+03  0.00000000000E+00 0.  1.
         24    2    1    2    0    0 -0.41192320647E+02 -0.20142303841E+02 -0.23926440085E+03  0.25611897353E+03  0.79037683435E+02 0.  0.
         25    2    1    2    0    0  0.17875620229E+02 -0.27233293515E+03  0.22597595357E+03  0.37573038492E+03  0.12499370062E+03 0.  0.
         24    2    1    2    0    0 -0.31463539265E+02  0.24191130163E+02  0.30107520745E+02  0.94656984714E+02  0.80487992074E+02 0.  0.
        -13    1    5    5    0    0 -0.39884601021E+02  0.69320870509E+01  0.51762840124E+02  0.65713216686E+02  0.00000000000E+00 0.  1.
         14    1    5    5    0    0  0.84210617564E+01  0.17259043113E+02 -0.21655319379E+02  0.28943768028E+02  0.00000000000E+00 0. -1.
        -13    1    3    3    0    0 -0.16039447772E+02 -0.48535511039E+02 -0.16486648799E+03  0.17260914976E+03  0.00000000000E+00 0.  1.
         14    1    3    3    0    0 -0.25152872875E+02  0.28393207198E+02 -0.74397912855E+02  0.83509823770E+02  0.00000000000E+00 0. -1.
          5    1    4    4  502    0 -0.86336693544E+01  0.50830655621E+01 -0.64567946065E+01  0.12812415800E+02  0.47000000000E+01 0. -1.
         -5    1    4    4    0  502  0.26509289583E+02 -0.27741600071E+03  0.23243274818E+03  0.36291796912E+03  0.47000000000E+01 0. -1.
          1    1    1    2  503    0 -0.51966562759E+02  0.61913341641E+02  0.28395670549E+04  0.28407173116E+04  0.00000000000E+00 0. -1.
         -2    1    1    2    0  501  0.10674680244E+03  0.20637076719E+03 -0.31583272445E+03  0.39208938167E+03  0.00000000000E+00 0.  1.
<mgrwt>
<rscale>  0 0.10596131E+03</rscale>
<asrwt>0</asrwt>
<pdfrwt beam="1">  1        2 0.47793135E+00 0.80831835E+02</pdfrwt>
<pdfrwt beam="2">  1       -1 0.10432056E+00 0.13890318E+03</pdfrwt>
<totfact> 0.23884366E+00</totfact>
</mgrwt>
</event>
<event>
13    1  0.2038932E-008  0.2463261E+03  0.7546771E-02  0.1184187E+00
          2   -1    0    0  502    0  0.00000000000E+00  0.00000000000E+00  0.20358469345E+04  0.20358469345E+04  0.00000000000E+00 0. -1.
          2   -1    0    0  503    0 -0.00000000000E+00 -0.00000000000E+00 -0.12058418652E+04  0.12058418652E+04  0.00000000000E+00 0. -1.
         24    2    1    2    0    0  0.19970737647E+02  0.11853512521E+03 -0.39880535169E+03  0.42437431969E+03  0.81230834097E+02 0.  0.
         25    2    1    2    0    0 -0.19616474321E+03  0.50483946798E+02  0.63741834094E+03  0.68040957368E+03  0.12500324484E+03 0.  0.
         24    2    1    2    0    0 -0.14682346805E+03  0.20899525820E+02 -0.79006947403E+02  0.18578529405E+03  0.79247440340E+02 0.  0.
        -11    1    3    3    0    0  0.41695383827E+02  0.50523339434E+02 -0.26192606873E+03  0.26999329314E+03  0.00000000000E+00 0.  1.
         12    1    3    3    0    0 -0.21724646179E+02  0.68011785780E+02 -0.13687928296E+03  0.15438102655E+03  0.00000000000E+00 0. -1.
        -13    1    5    5    0    0 -0.12177591874E+03 -0.16427328147E+02 -0.52715191070E+02  0.13370909792E+03  0.00000000000E+00 0.  1.
         14    1    5    5    0    0 -0.25047549300E+02  0.37326853967E+02 -0.26291756333E+02  0.52076196137E+02  0.00000000000E+00 0. -1.
          5    1    4    4  501    0 -0.41913176900E+02 -0.13039215302E+02  0.38176503796E+02  0.58363267349E+02  0.47000000000E+01 0.  1.
         -5    1    4    4    0  501 -0.15425156631E+03  0.63523162100E+02  0.59924183715E+03  0.62204630633E+03  0.47000000000E+01 0.  1.
          1    1    1    2  502    0 -0.10593126618E+03 -0.26801833764E+02  0.12257948575E+04  0.12306554368E+04  0.00000000000E+00 0. -1.
          1    1    1    2  503    0  0.42894873979E+03 -0.16311676407E+03 -0.55539583008E+03  0.72046417549E+03  0.00000000000E+00 0. -1.
<mgrwt>
<rscale>  0 0.16406056E+03</rscale>
<asrwt>0</asrwt>
<pdfrwt beam="1">  1        2 0.29938926E+00 0.10926926E+03</pdfrwt>
<pdfrwt beam="2">  1        2 0.17732969E+00 0.24632607E+03</pdfrwt>
<totfact> 0.29160229E+01</totfact>
</mgrwt>
</event>
<event>
13    1  0.2038932E-008  0.1028600E+03  0.7546771E-02  0.1317856E+00
          2   -1    0    0  502    0  0.00000000000E+00  0.00000000000E+00  0.19752182849E+04  0.19752182849E+04  0.00000000000E+00 0. -1.
          2   -1    0    0  503    0 -0.00000000000E+00 -0.00000000000E+00 -0.92094950847E+03  0.92094950847E+03  0.00000000000E+00 0. -1.
         24    2    1    2    0    0 -0.48239103938E+01 -0.71017194559E+02 -0.35211195867E+03  0.36806375889E+03  0.80133558105E+02 0.  0.
         25    2    1    2    0    0 -0.17524598173E+01  0.92996209664E+02  0.59904087986E+03  0.61897247248E+03  0.12500231924E+03 0.  0.
         24    2    1    2    0    0 -0.10418302943E+03  0.83224148373E+02 -0.64017568102E+02  0.16940690613E+03  0.82583826045E+02 0.  0.
        -11    1    5    5    0    0 -0.80757351008E+02  0.98745101918E+02 -0.44131000558E+02  0.13498107314E+03  0.00000000000E+00 0.  1.
         12    1    5    5    0    0 -0.23425678420E+02 -0.15520953545E+02 -0.19886567544E+02  0.34425832990E+02  0.00000000000E+00 0. -1.
        -11    1    3    3    0    0  0.17549162257E+02 -0.80351600124E+02 -0.28830419023E+03  0.29980603537E+03  0.00000000000E+00 0.  1.
         12    1    3    3    0    0 -0.22373072651E+02  0.93344055650E+01 -0.63807768442E+02  0.68257723524E+02  0.00000000000E+00 0. -1.
          5    1    4    4  501    0  0.43776157475E+02  0.69363319030E+02  0.19414033457E+03  0.21080839997E+03  0.47000000000E+01 0. -1.
         -5    1    4    4    0  501 -0.45528617293E+02  0.23632890634E+02  0.40490054529E+03  0.40816407251E+03  0.47000000000E+01 0. -1.
          1    1    1    2  502    0  0.67634993834E+02 -0.12211938415E+02  0.12985696895E+04  0.13003871971E+04  0.00000000000E+00 0. -1.
          1    1    1    2  503    0  0.43124405805E+02 -0.92991225063E+02 -0.42721226618E+03  0.43933745878E+03  0.00000000000E+00 0. -1.
<mgrwt>
<rscale>  0 0.84079873E+02</rscale>
<asrwt>0</asrwt>
<pdfrwt beam="1">  1        2 0.29047328E+00 0.68728625E+02</pdfrwt>
<pdfrwt beam="2">  1        2 0.13543375E+00 0.10285998E+03</pdfrwt>
<totfact> 0.49801672E+01</totfact>
</mgrwt>
</event>
<event>
13    1  0.2038932E-008  0.1934923E+03  0.7546771E-02  0.1323218E+00
          2   -1    0    0  502    0  0.00000000000E+00  0.00000000000E+00  0.17982495363E+04  0.17982495363E+04  0.00000000000E+00 0. -1.
          2   -1    0    0  503    0 -0.00000000000E+00 -0.00000000000E+00 -0.68344979824E+03  0.68344979824E+03  0.00000000000E+00 0. -1.
         24    2    1    2    0    0  0.33786671542E+03 -0.19774744056E+03 -0.84650218574E+02  0.40862505244E+03  0.80937051696E+02 0.  0.
         25    2    1    2    0    0 -0.13417605592E+03 -0.12971625366E+03  0.80170910141E+03  0.83258253114E+03  0.12500666954E+03 0.  0.
         24    2    1    2    0    0  0.14180758278E+02  0.64947969107E+02 -0.19136805148E+02  0.10614252874E+03  0.80502711136E+02 0.  0.
        -11    1    3    3    0    0  0.98942555311E+02 -0.40041620039E+02  0.97521114952E+01  0.10718238785E+03  0.00000000000E+00 0.  1.
         12    1    3    3    0    0  0.23892416011E+03 -0.15770582052E+03 -0.94402330069E+02  0.30144266459E+03  0.00000000000E+00 0. -1.
        -13    1    5    5    0    0  0.44288734784E+02  0.53496370122E+02 -0.24177097150E+02  0.73538327909E+02  0.00000000000E+00 0.  1.
         14    1    5    5    0    0 -0.30107976506E+02  0.11451598985E+02  0.50402920014E+01  0.32604200834E+02  0.00000000000E+00 0. -1.
          5    1    4    4  501    0 -0.10246433330E+01 -0.68863940651E+02  0.15805176340E+03  0.17246953972E+03  0.47000000000E+01 0. -1.
         -5    1    4    4    0  501 -0.13315141259E+03 -0.60852313011E+02  0.64365733801E+03  0.66011299142E+03  0.47000000000E+01 0. -1.
          1    1    1    2  502    0  0.14208069677E+02  0.31798773507E+02  0.70045967365E+03  0.70132502141E+03  0.00000000000E+00 0. -1.
          1    1    1    2  503    0 -0.23207948746E+03  0.23071695160E+03 -0.28358201327E+03  0.43302420083E+03  0.00000000000E+00 0. -1.
<mgrwt>
<rscale>  0 0.82091816E+02</rscale>
<asrwt>0</asrwt>
<pdfrwt beam="1">  1        2 0.26444846E+00 0.34828598E+02</pdfrwt>
<pdfrwt beam="2">  1        2 0.10050732E+00 0.19349232E+03</pdfrwt>
<totfact> 0.91171089E+01</totfact>
</mgrwt>
</event>
<event>
13    1  0.2038932E-008  0.1522927E+03  0.7546771E-02  0.1344836E+00
          4   -1    0    0  503    0 -0.00000000000E+00  0.00000000000E+00  0.69390784894E+03  0.69390784894E+03  0.00000000000E+00 0. -1.
          2   -1    0    0  502    0  0.00000000000E+00 -0.00000000000E+00 -0.24658887180E+04  0.24658887180E+04  0.00000000000E+00 0. -1.
         24    2    1    2    0    0 -0.37199855541E+02  0.32678209956E+02  0.34023479360E+03  0.35517948195E+03  0.89112597139E+02 0.  0.
         25    2    1    2    0    0 -0.12766326221E+03 -0.46972107758E+01 -0.26990631313E+03  0.32372010261E+03  0.12500125862E+03 0.  0.
         24    2    1    2    0    0  0.78357009791E+02  0.65103070923E+02 -0.28810554431E+02  0.13324089691E+03  0.80900295022E+02 0.  0.
        -13    1    5    5    0    0  0.38087722901E+02  0.75004436291E+02 -0.35373980856E+02  0.91256005943E+02  0.00000000000E+00 0.  1.
         14    1    5    5    0    0  0.40269286889E+02 -0.99013653674E+01  0.65634264244E+01  0.41984890963E+02  0.00000000000E+00 0. -1.
        -13    1    3    3    0    0 -0.47869662467E+02 -0.12028050825E+02  0.11247402717E+03  0.12282746183E+03  0.00000000000E+00 0.  1.
         14    1    3    3    0    0  0.10669806926E+02  0.44706260781E+02  0.22776076643E+03  0.23235202013E+03  0.00000000000E+00 0. -1.
          5    1    4    4  501    0 -0.81078040272E+02 -0.51265721650E+02 -0.22275543067E+03  0.24257760557E+03  0.47000000000E+01 0.  1.
         -5    1    4    4    0  501 -0.46585221942E+02  0.46568510874E+02 -0.47150882455E+02  0.81142497033E+02  0.47000000000E+01 0.  1.
          1    1    1    2  502    0  0.97610536302E+02 -0.12799035751E+03 -0.20761915184E+04  0.20824218039E+04  0.00000000000E+00 0. -1.
          3    1    1    2  503    0 -0.11104428338E+02  0.34906287407E+02  0.26269272331E+03  0.26523428155E+03  0.00000000000E+00 0. -1.
<mgrwt>
<rscale>  0 0.74689242E+02</rscale>
<asrwt>0</asrwt>
<pdfrwt beam="2">  1        2 0.36263070E+00 0.15229272E+03</pdfrwt>
<pdfrwt beam="1">  1        4 0.10204527E+00 0.36630004E+02</pdfrwt>
<totfact> 0.20352455E+00</totfact>
</mgrwt>
</event>
<event>
13    1  0.2038932E-008  0.6741283E+02  0.7546771E-02  0.1411136E+00
          4   -1    0    0  503    0 -0.00000000000E+00  0.00000000000E+00  0.81517196293E+03  0.81517196293E+03  0.00000000000E+00 0. -1.
          2   -1    0    0  502    0  0.00000000000E+00 -0.00000000000E+00 -0.14738455373E+04  0.14738455373E+04  0.00000000000E+00 0. -1.
         24    2    1    2    0    0 -0.13406898456E+02 -0.56323988016E+02  0.45444261015E+03  0.46513899706E+03  0.80523686624E+02 0.  0.
         25    2    1    2    0    0 -0.98781541554E+02  0.10569175334E+03 -0.62265493840E+03  0.65134612724E+03  0.12499626185E+03 0.  0.
         24    2    1    2    0    0  0.14478302628E+02 -0.17457409794E+02 -0.13759221231E+03  0.16082498519E+03  0.80116643509E+02 0.  0.
        -11    1    3    3    0    0 -0.45531439485E+02 -0.20243831923E+02  0.19708499322E+03  0.20328654473E+03  0.00000000000E+00 0.  1.
         12    1    3    3    0    0  0.32124541029E+02 -0.36080156093E+02  0.25735761693E+03  0.26185245233E+03  0.00000000000E+00 0. -1.
        -13    1    5    5    0    0  0.13411512813E+02 -0.27402374870E+02 -0.89493270481E+01  0.31793855996E+02  0.00000000000E+00 0.  1.
         14    1    5    5    0    0  0.10667898150E+01  0.99449650759E+01 -0.12864288526E+03  0.12903112919E+03  0.00000000000E+00 0. -1.
          5    1    4    4  501    0  0.72048321466E+01 -0.13440829011E+02 -0.11383377343E+02  0.19601958333E+02  0.47000000000E+01 0.  1.
         -5    1    4    4    0  501 -0.10598637370E+03  0.11913258235E+03 -0.61127156106E+03  0.63174416890E+03  0.47000000000E+01 0.  1.
          1    1    1    2  502    0  0.46607810570E+02  0.11871590329E+02 -0.67799081880E+03  0.67969461748E+03  0.00000000000E+00 0. -1.
          3    1    1    2  503    0  0.51102326813E+02 -0.43781945856E+02  0.32512178495E+03  0.33201277330E+03  0.00000000000E+00 0. -1.
<mgrwt>
<rscale>  0 0.56941072E+02</rscale>
<asrwt>0</asrwt>
<pdfrwt beam="2">  1        2 0.21674199E+00 0.48095973E+02</pdfrwt>
<pdfrwt beam="1">  1        4 0.11987823E+00 0.67412830E+02</pdfrwt>
<totfact> 0.49542861E+00</totfact>
</mgrwt>
</event>
<event>
13    1  0.2038932E-008  0.4181863E+02  0.7546771E-02  0.1588214E+00
          2   -1    0    0  502    0  0.00000000000E+00  0.00000000000E+00  0.12744372460E+04  0.12744372460E+04  0.00000000000E+00 0. -1.
          2   -1    0    0  503    0 -0.00000000000E+00 -0.00000000000E+00 -0.24705758430E+03  0.24705758430E+03  0.00000000000E+00 0. -1.
         24    2    1    2    0    0 -0.32013069593E+02 -0.15635290368E+02  0.23341095545E+01  0.88549813557E+02  0.81032848178E+02 0.  0.
         25    2    1    2    0    0  0.21902416767E+02  0.58511399894E+02 -0.21250148642E+02  0.14134810383E+03  0.12499767143E+03 0.  0.
         24    2    1    2    0    0 -0.25389436651E+02 -0.56430694942E+02  0.49572464279E+03  0.50540545685E+03  0.76568319331E+02 0.  0.
        -11    1    5    5    0    0 -0.28333521498E+02  0.11207381913E+02  0.13690857314E+03  0.14025815930E+03  0.00000000000E+00 0.  1.
         12    1    5    5    0    0  0.29440848463E+01 -0.67638076855E+02  0.35881606964E+03  0.36514729755E+03  0.00000000000E+00 0. -1.
        -13    1    3    3    0    0 -0.29904314438E+02  0.29484977112E+02  0.88349327554E+01  0.42914891752E+02  0.00000000000E+00 0.  1.
         14    1    3    3    0    0 -0.21087551545E+01 -0.45120267480E+02 -0.65008232009E+01  0.45634921804E+02  0.00000000000E+00 0. -1.
          5    1    4    4  501    0  0.56185845955E+02  0.60515548638E+02 -0.49709741039E+02  0.96499374437E+02  0.47000000000E+01 0.  1.
         -5    1    4    4    0  501 -0.34283429188E+02 -0.20041487440E+01  0.28459592396E+02  0.44848729396E+02  0.47000000000E+01 0.  1.
          1    1    1    2  502    0  0.40969162169E+02 -0.86321626412E+01  0.66661020774E+03  0.66792376477E+03  0.00000000000E+00 0. -1.
          1    1    1    2  503    0 -0.54690726925E+01  0.22186748058E+02 -0.11603914971E+03  0.11826769132E+03  0.00000000000E+00 0. -1.
<mgrwt>
<rscale>  0 0.30912655E+02</rscale>
<asrwt>0</asrwt>
<pdfrwt beam="1">  1        2 0.18741724E+00 0.41818627E+02</pdfrwt>
<pdfrwt beam="2">  1        2 0.36331998E-01 0.22850876E+02</pdfrwt>
<totfact> 0.46336179E+02</totfact>
</mgrwt>
</event>
<event>
13    1  0.2038932E-008  0.1624165E+03  0.7546771E-02  0.1188762E+00
          2   -1    0    0  503    0  0.00000000000E+00  0.00000000000E+00  0.97772841300E+03  0.97772841300E+03  0.00000000000E+00 0. -1.
          2   -1    0    0  502    0 -0.00000000000E+00 -0.00000000000E+00 -0.22019181449E+04  0.22019181449E+04  0.00000000000E+00 0. -1.
         24    2    1    2    0    0 -0.70884261651E+01  0.23107844290E+02 -0.10872018498E+03  0.13796590964E+03  0.81426625548E+02 0.  0.
         25    2    1    2    0    0 -0.13506728492E+03 -0.14962699130E+03 -0.83044005758E+01  0.23733448964E+03  0.12500915535E+03 0.  0.
         24    2    1    2    0    0  0.31158426312E+03  0.88666261155E+02 -0.71832276581E+03  0.79221018766E+03  0.81626752058E+02 0.  0.
        -11    1    3    3    0    0  0.15838997291E+02 -0.26028417065E+02 -0.44252615515E+02  0.53727519113E+02  0.00000000000E+00 0.  1.
         12    1    3    3    0    0 -0.22927423456E+02  0.49136261354E+02 -0.64467569462E+02  0.84238390527E+02  0.00000000000E+00 0. -1.
        -13    1    5    5    0    0  0.11912383957E+03  0.19049559109E+02 -0.18389440340E+03  0.21993300448E+03  0.00000000000E+00 0.  1.
         14    1    5    5    0    0  0.19246042355E+03  0.69616702047E+02 -0.53442836242E+03  0.57227718318E+03  0.00000000000E+00 0. -1.
          5    1    4    4  501    0 -0.14989898746E+03 -0.12733507580E+03  0.20408638581E+02  0.19779416194E+03  0.47000000000E+01 0. -1.
         -5    1    4    4    0  501  0.14831702536E+02 -0.22291915503E+02 -0.28713039157E+02  0.39540327699E+02  0.47000000000E+01 0. -1.
          1    1    1    2  502    0 -0.30425767183E+03  0.11940539603E+03 -0.11702302631E+04  0.12150182089E+04  0.00000000000E+00 0. -1.
          1    1    1    2  503    0  0.13482911980E+03 -0.81552510179E+02  0.78138788257E+03  0.79711776199E+03  0.00000000000E+00 0. -1.
<mgrwt>
<rscale>  0 0.15994252E+03</rscale>
<asrwt>0</asrwt>
<pdfrwt beam="1">  1        2 0.14378359E+00 0.15750625E+03</pdfrwt>
<pdfrwt beam="2">  1        2 0.32381149E+00 0.16241648E+03</pdfrwt>
<totfact> 0.32001084E+01</totfact>
</mgrwt>
</event>
<event>
13    1  0.2038932E-008  0.8586732E+02  0.7546771E-02  0.1450790E+00
          2   -1    0    0  503    0  0.00000000000E+00  0.00000000000E+00  0.20389613460E+04  0.20389613460E+04  0.00000000000E+00 0. -1.
          2   -1    0    0  502    0 -0.00000000000E+00 -0.00000000000E+00 -0.64235566254E+03  0.64235566254E+03  0.00000000000E+00 0. -1.
         24    2    1    2    0    0 -0.14887594417E+03 -0.15824239657E+03 -0.52121961073E+02  0.24783572256E+03  0.10724338547E+03 0.  0.
         25    2    1    2    0    0 -0.19191227768E+02 -0.41320389258E+02  0.13424991036E+03  0.18901043948E+03  0.12500491995E+03 0.  0.
         24    2    1    2    0    0  0.11764426446E+03  0.15167992887E+03  0.14565560625E+04  0.14713571544E+04  0.80556431948E+02 0.  0.
        -11    1    5    5    0    0  0.92965756203E+02  0.71847658576E+02  0.10311469785E+04  0.10378192565E+04  0.00000000000E+00 0.  1.
         12    1    5    5    0    0  0.24678508256E+02  0.79832270291E+02  0.42540908404E+03  0.43353789792E+03  0.00000000000E+00 0. -1.
        -13    1    3    3    0    0 -0.10774804160E+02 -0.10375289841E+02 -0.42749413770E+02  0.45290787382E+02  0.00000000000E+00 0.  1.
         14    1    3    3    0    0 -0.13810114001E+03 -0.14786710673E+03 -0.93725473024E+01  0.20254493518E+03  0.00000000000E+00 0. -1.
          5    1    4    4  501    0  0.19390682248E+02 -0.72552532208E+02  0.11073889496E+03  0.13388450748E+03  0.47000000000E+01 0. -1.
         -5    1    4    4    0  501 -0.38581910016E+02  0.31232142949E+02  0.23511015398E+02  0.55125931999E+02  0.47000000000E+01 0. -1.
          1    1    1    2  502    0  0.42454824185E+02  0.74689752321E+02 -0.45293026998E+03  0.46100629135E+03  0.00000000000E+00 0. -1.
          1    1    1    2  503    0  0.79680832932E+01 -0.26806895362E+02  0.31085194163E+03  0.31210740076E+03  0.00000000000E+00 0. -1.
<mgrwt>
<rscale>  0 0.49003774E+02</rscale>
<asrwt>0</asrwt>
<pdfrwt beam="1">  1        2 0.29984726E+00 0.27966051E+02</pdfrwt>
<pdfrwt beam="2">  1        2 0.94464068E-01 0.85867320E+02</pdfrwt>
<totfact> 0.79770698E+01</totfact>
</mgrwt>
</event>
<event>
13    1  0.2038932E-008  0.1040062E+03  0.7546771E-02  0.1367514E+00
          2   -1    0    0  502    0  0.00000000000E+00  0.00000000000E+00  0.85240343383E+03  0.85240343383E+03  0.00000000000E+00 0. -1.
          2   -1    0    0  503    0 -0.00000000000E+00 -0.00000000000E+00 -0.20021383866E+04  0.20021383866E+04  0.00000000000E+00 0. -1.
         24    2    1    2    0    0 -0.69522380138E+02 -0.31652694320E+02 -0.32451509887E+03  0.34323879558E+03  0.81655171266E+02 0.  0.
         25    2    1    2    0    0  0.27835274037E+03 -0.14166094678E+02 -0.21701100444E+03  0.37471995602E+03  0.12506135726E+03 0.  0.
         24    2    1    2    0    0 -0.10535258076E+03  0.87956462901E+02 -0.11262411312E+03  0.19343357514E+03  0.76790959733E+02 0.  0.
        -11    1    3    3    0    0 -0.26409991315E+01  0.20504576651E+01  0.46129554711E+01  0.56972459335E+01  0.00000000000E+00 0.  1.
         12    1    3    3    0    0 -0.66881381007E+02 -0.33703151985E+02 -0.32912805434E+03  0.33754154964E+03  0.00000000000E+00 0. -1.
        -13    1    5    5    0    0  0.49636195854E+01  0.27790622004E+02 -0.37827751485E+02  0.47200582339E+02  0.00000000000E+00 0.  1.
         14    1    5    5    0    0 -0.11031620035E+03  0.60165840898E+02 -0.74796361631E+02  0.14623299280E+03  0.00000000000E+00 0. -1.
          5    1    4    4  501    0  0.57846577527E+02 -0.23433324118E+02  0.35176220450E+01  0.62688203640E+02  0.47000000000E+01 0.  1.
         -5    1    4    4    0  501  0.22050616285E+03  0.92672294402E+01 -0.22052862648E+03  0.31203175238E+03  0.47000000000E+01 0.  1.
          1    1    1    2  502    0 -0.30553529750E+02  0.32050246880E+02  0.72088307309E+03  0.72224174732E+03  0.00000000000E+00 0. -1.
          1    1    1    2  503    0 -0.72924249722E+02 -0.74187920784E+02 -0.12164678095E+04  0.12209077464E+04  0.00000000000E+00 0. -1.
<mgrwt>
<rscale>  0 0.67863199E+02</rscale>
<asrwt>0</asrwt>
<pdfrwt beam="1">  1        2 0.12535345E+00 0.44280204E+02</pdfrwt>
<pdfrwt beam="2">  1        2 0.29443211E+00 0.10400615E+03</pdfrwt>
<totfact> 0.52707606E+01</totfact>
</mgrwt>
</event>
<event>
13    1  0.2038932E-008  0.1248796E+03  0.7546771E-02  0.1353916E+00
          2   -1    0    0  503    0  0.00000000000E+00  0.00000000000E+00  0.21439425827E+04  0.21439425827E+04  0.00000000000E+00 0. -1.
          2   -1    0    0  502    0 -0.00000000000E+00 -0.00000000000E+00 -0.10493944571E+04  0.10493944571E+04  0.00000000000E+00 0. -1.
         24    2    1    2    0    0  0.57034195481E+02  0.13169840535E+02 -0.17696413531E+03  0.20379447259E+03  0.82398651192E+02 0.  0.
         25    2    1    2    0    0 -0.23793006991E+02 -0.43449750789E+02  0.11299144371E+04  0.11378806532E+04  0.12494702006E+03 0.  0.
         24    2    1    2    0    0 -0.38857258047E+02 -0.12105136822E+03  0.11721308006E+03  0.18660097048E+03  0.70126284629E+02 0.  0.
        -11    1    5    5    0    0  0.75844107250E+01 -0.72717493069E+02  0.36601679185E+02  0.81762093928E+02  0.00000000000E+00 0.  1.
         12    1    5    5    0    0 -0.46441668772E+02 -0.48333875148E+02  0.80611400878E+02  0.10483887655E+03  0.00000000000E+00 0. -1.
        -11    1    3    3    0    0  0.37407310554E+02  0.47471207082E+02 -0.91822964591E+02  0.10992851864E+03  0.00000000000E+00 0.  1.
         12    1    3    3    0    0  0.19626884927E+02 -0.34301366547E+02 -0.85141170722E+02  0.93865953950E+02  0.00000000000E+00 0. -1.
          5    1    4    4  501    0  0.14777319402E+02 -0.76261444425E+02  0.83448323780E+03  0.83810413508E+03  0.47000000000E+01 0.  1.
         -5    1    4    4    0  501 -0.38570326392E+02  0.32811693635E+02  0.29543119929E+03  0.29977651814E+03  0.47000000000E+01 0.  1.
          1    1    1    2  502    0 -0.35123891981E+02  0.14432467638E+03 -0.81310027588E+03  0.82655632515E+03  0.00000000000E+00 0. -1.
          1    1    1    2  503    0  0.40739961538E+02  0.70066020883E+01  0.83748501964E+03  0.83850461839E+03  0.00000000000E+00 0. -1.
<mgrwt>
<rscale>  0 0.71849042E+02</rscale>
<asrwt>0</asrwt>
<pdfrwt beam="1">  1        2 0.31528567E+00 0.41338081E+02</pdfrwt>
<pdfrwt beam="2">  1        2 0.15432271E+00 0.12487964E+03</pdfrwt>
<totfact> 0.36721075E+01</totfact>
</mgrwt>
</event>
<event>
13    1  0.2038932E-008  0.6560621E+02  0.7546771E-02  0.1428553E+00
          2   -1    0    0  503    0  0.00000000000E+00  0.00000000000E+00  0.23109849883E+04  0.23109849883E+04  0.00000000000E+00 0. -1.
          2   -1    0    0  502    0 -0.00000000000E+00 -0.00000000000E+00 -0.72546739538E+03  0.72546739538E+03  0.00000000000E+00 0. -1.
         24    2    1    2    0    0  0.13040431879E+03  0.53232971420E+02 -0.16927953517E+03  0.23440263680E+03  0.80311888928E+02 0.  0.
         25    2    1    2    0    0 -0.13391698681E+03 -0.76994755721E+02  0.10054001082E+04  0.10248496278E+04  0.12500172161E+03 0.  0.
         24    2    1    2    0    0 -0.43083498440E+00  0.15603174310E+01  0.53698875751E+02  0.96449986781E+02  0.80102499860E+02 0.  0.
        -11    1    5    5    0    0 -0.85060496010E+01 -0.32337938002E+02  0.12261507427E+01  0.33460402862E+02  0.00000000000E+00 0.  1.
         12    1    5    5    0    0  0.80752146166E+01  0.33898255433E+02  0.52472725008E+02  0.62989583919E+02  0.00000000000E+00 0. -1.
        -13    1    3    3    0    0  0.12588628465E+03  0.22001634436E+02 -0.15143062701E+03  0.19814808446E+03  0.00000000000E+00 0.  1.
         14    1    3    3    0    0  0.45180341486E+01  0.31231336983E+02 -0.17848908159E+02  0.36254552332E+02  0.00000000000E+00 0. -1.
          5    1    4    4  501    0 -0.15167909977E+03 -0.40107779556E+02  0.82547273877E+03  0.84026336095E+03  0.47000000000E+01 0. -1.
         -5    1    4    4    0  501  0.17762112962E+02 -0.36886976165E+02  0.17992736940E+03  0.18458626690E+03  0.47000000000E+01 0. -1.
          1    1    1    2  502    0  0.69850979946E+01  0.65317947508E+02 -0.48994007754E+03  0.49432429177E+03  0.00000000000E+00 0. -1.
          1    1    1    2  503    0 -0.30415949943E+01 -0.43116480637E+02  0.11856382217E+04  0.11864258405E+04  0.00000000000E+00 0. -1.
<mgrwt>
<rscale>  0 0.53251652E+02</rscale>
<asrwt>0</asrwt>
<pdfrwt beam="1">  1        2 0.33985073E+00 0.43223630E+02</pdfrwt>
<pdfrwt beam="2">  1        2 0.10668638E+00 0.65606207E+02</pdfrwt>
<totfact> 0.49629310E+01</totfact>
</mgrwt>
</event>
<event>
13    1  0.2038932E-008  0.1286993E+03  0.7546771E-02  0.1258522E+00
          2   -1    0    0  503    0  0.00000000000E+00  0.00000000000E+00  0.37250832611E+04  0.37250832611E+04  0.00000000000E+00 0. -1.
         -1   -1    0    0    0  501 -0.00000000000E+00 -0.00000000000E+00 -0.42981088366E+03  0.42981088366E+03  0.00000000000E+00 0.  1.
         24    2    1    2    0    0 -0.56967469754E+02 -0.18574843028E+02 -0.11461541584E+03  0.15247197018E+03  0.80750794039E+02 0.  0.
         25    2    1    2    0    0  0.13766422682E+03 -0.20006873377E+03  0.29421758902E+03  0.40145311107E+03  0.12498669180E+03 0.  0.
         24    2    1    2    0    0 -0.17174043143E+02  0.11277219260E+03  0.78648829171E+01  0.13998927646E+03  0.80762775827E+02 0.  0.
        -11    1    5    5    0    0 -0.42526225396E+02  0.10481475184E+03  0.82623080005E+01  0.11341462773E+03  0.00000000000E+00 0.  1.
         12    1    5    5    0    0  0.25352182253E+02  0.79574407581E+01 -0.39742508337E+00  0.26574648730E+02  0.00000000000E+00 0. -1.
        -11    1    3    3    0    0 -0.31174498106E+02  0.30118400231E+02 -0.35341702501E+02  0.55928555321E+02  0.00000000000E+00 0.  1.
         12    1    3    3    0    0 -0.25792971648E+02 -0.48693243259E+02 -0.79273713341E+02  0.96543414858E+02  0.00000000000E+00 0. -1.
          5    1    4    4  502    0  0.41693292189E+02 -0.77840949102E+02  0.20244172180E+03  0.22091239145E+03  0.47000000000E+01 0.  1.
         -5    1    4    4    0  502  0.95970934629E+02 -0.12222778467E+03  0.91775867212E+02  0.18054071962E+03  0.47000000000E+01 0.  1.
          1    1    1    2  503    0  0.67984867808E+02  0.67680749768E+02  0.32570308660E+04  0.32584432921E+04  0.00000000000E+00 0. -1.
         -2    1    1    2    0  501 -0.13150758173E+03  0.38190634430E+02 -0.14922554462E+03  0.20253649493E+03  0.00000000000E+00 0.  1.
<mgrwt>
<rscale>  0 0.11111331E+03</rscale>
<asrwt>0</asrwt>
<pdfrwt beam="1">  1        2 0.54780634E+00 0.95930319E+02</pdfrwt>
<pdfrwt beam="2">  1       -1 0.63207485E-01 0.12869934E+03</pdfrwt>
<totfact> 0.34379006E+00</totfact>
</mgrwt>
</event>
<event>
13    1  0.2038932E-008  0.6261863E+02  0.7546771E-02  0.1486140E+00
          2   -1    0    0  502    0  0.00000000000E+00  0.00000000000E+00  0.78457271400E+03  0.78457271400E+03  0.00000000000E+00 0. -1.
          2   -1    0    0  503    0 -0.00000000000E+00 -0.00000000000E+00 -0.92992371536E+03  0.92992371536E+03  0.00000000000E+00 0. -1.
         24    2    1    2    0    0 -0.26162310894E+02 -0.62792866072E+01 -0.12073805806E+03  0.14738102448E+03  0.80122354948E+02 0.  0.
         25    2    1    2    0    0 -0.98724618040E+01  0.21204243282E+02 -0.69205456112E+02  0.14477743555E+03  0.12499610096E+03 0.  0.
         24    2    1    2    0    0 -0.76066622254E+01 -0.32812782107E+02  0.69447798886E+02  0.11074691312E+03  0.79418776220E+02 0.  0.
        -11    1    3    3    0    0 -0.52263776170E+02 -0.21687227786E+01 -0.10310347033E+03  0.11561371568E+03  0.00000000000E+00 0.  1.
         12    1    3    3    0    0  0.26101465276E+02 -0.41105638285E+01 -0.17634587726E+02  0.31767308807E+02  0.00000000000E+00 0. -1.
        -11    1    5    5    0    0  0.40671675448E+01 -0.50498219736E+02  0.15804457812E+02  0.53069698841E+02  0.00000000000E+00 0.  1.
         12    1    5    5    0    0 -0.11673829770E+02  0.17685437629E+02  0.53643341074E+02  0.57677214281E+02  0.00000000000E+00 0. -1.
          5    1    4    4  501    0 -0.39345025251E+01 -0.21618568405E+02 -0.92675632181E+02  0.95360922867E+02  0.47000000000E+01 0. -1.
         -5    1    4    4    0  501 -0.59379592789E+01  0.42822811687E+02  0.23470176069E+02  0.49416512684E+02  0.47000000000E+01 0. -1.
          1    1    1    2  502    0 -0.18991233834E+02  0.22904435482E+02  0.64154527021E+03  0.64223485880E+03  0.00000000000E+00 0. -1.
          1    1    1    2  503    0  0.62632668757E+02 -0.50166100494E+01 -0.66640055629E+03  0.66935619740E+03  0.00000000000E+00 0. -1.
<mgrwt>
<rscale>  0 0.43164027E+02</rscale>
<asrwt>0</asrwt>
<pdfrwt beam="1">  1        2 0.11537834E+00 0.29753657E+02</pdfrwt>
<pdfrwt beam="2">  1        2 0.13675349E+00 0.62618629E+02</pdfrwt>
<totfact> 0.21303852E+02</totfact>
</mgrwt>
</event>
<event>
13    1  0.2038932E-008  0.1379587E+03  0.7546771E-02  0.1250391E+00
          2   -1    0    0  503    0  0.00000000000E+00  0.00000000000E+00  0.16960873079E+04  0.16960873079E+04  0.00000000000E+00 0. -1.
          2   -1    0    0  502    0 -0.00000000000E+00 -0.00000000000E+00 -0.28134133220E+04  0.28134133220E+04  0.00000000000E+00 0. -1.
         24    2    1    2    0    0 -0.38156043542E+02  0.12534271218E+03 -0.60557581820E+03  0.62433773076E+03  0.76869052930E+02 0.  0.
         25    2    1    2    0    0  0.16590790020E+03 -0.13686408776E+03  0.11594720824E+04  0.11858574279E+04  0.12500047811E+03 0.  0.
         24    2    1    2    0    0  0.76216776403E+02  0.12302085257E+03  0.15526054285E+03  0.22684689731E+03  0.80065919582E+02 0.  0.
        -11    1    5    5    0    0 -0.10135733292E+02  0.37830372802E+02  0.64064856724E+02  0.75087789039E+02  0.00000000000E+00 0.  1.
         12    1    5    5    0    0  0.86352509695E+02  0.85190479773E+02  0.91195686130E+02  0.15175910827E+03  0.00000000000E+00 0. -1.
        -13    1    3    3    0    0  0.13454602795E+02  0.62233535370E+01 -0.14684676204E+03  0.14759311633E+03  0.00000000000E+00 0.  1.
         14    1    3    3    0    0 -0.51610646337E+02  0.11911935864E+03 -0.45872905616E+03  0.47674461443E+03  0.00000000000E+00 0. -1.
          5    1    4    4  501    0  0.11522892042E+03 -0.12417003262E+03  0.58657402766E+03  0.61056292143E+03  0.47000000000E+01 0. -1.
         -5    1    4    4    0  501  0.50678979784E+02 -0.12694055142E+02  0.57289805471E+03  0.57529450643E+03  0.47000000000E+01 0. -1.
          1    1    1    2  502    0 -0.12790851610E+03 -0.51290196381E+02 -0.21399201895E+04  0.21443529770E+04  0.00000000000E+00 0. -1.
          1    1    1    2  503    0 -0.76060116958E+02 -0.60209280613E+02  0.31343736841E+03  0.32810559699E+03  0.00000000000E+00 0. -1.
<mgrwt>
<rscale>  0 0.11568457E+03</rscale>
<asrwt>0</asrwt>
<pdfrwt beam="1">  1        2 0.24942461E+00 0.97006695E+02</pdfrwt>
<pdfrwt beam="2">  1        2 0.41373725E+00 0.13795872E+03</pdfrwt>
<totfact> 0.69453503E+00</totfact>
</mgrwt>
</event>
<event>
13    1  0.2038932E-008  0.1357228E+03  0.7546771E-02  0.1277517E+00
          2   -1    0    0  503    0  0.00000000000E+00  0.00000000000E+00  0.18331302837E+04  0.18331302837E+04  0.00000000000E+00 0. -1.
          2   -1    0    0  502    0 -0.00000000000E+00 -0.00000000000E+00 -0.17004105290E+04  0.17004105290E+04  0.00000000000E+00 0. -1.
         24    2    1    2    0    0 -0.28874231068E+02 -0.48166877955E+02 -0.60091111976E+02  0.11471820973E+03  0.79972223634E+02 0.  0.
         25    2    1    2    0    0  0.88454083795E+01  0.19554143616E+03  0.63264009363E+03  0.67392356038E+03  0.12499913062E+03 0.  0.
         24    2    1    2    0    0 -0.24068276246E+02  0.22264620315E+02  0.17809929561E+02  0.84697566488E+02  0.76036102865E+02 0.  0.
        -11    1    3    3    0    0 -0.34652048182E+02 -0.70392060279E+00  0.38553338798E+01  0.34872962977E+02  0.00000000000E+00 0.  1.
         12    1    3    3    0    0  0.57778171138E+01 -0.47462957353E+02 -0.63946445855E+02  0.79845246751E+02  0.00000000000E+00 0. -1.
        -11    1    5    5    0    0 -0.11252262944E+02  0.49561292253E+02  0.19642518441E+02  0.54486361980E+02  0.00000000000E+00 0.  1.
         12    1    5    5    0    0 -0.12816013302E+02 -0.27296671938E+02 -0.18325888806E+01  0.30211204508E+02  0.00000000000E+00 0. -1.
          5    1    4    4  501    0 -0.11270980531E+02 -0.12153663105E+02  0.10669441517E+03  0.10807652270E+03  0.47000000000E+01 0.  1.
         -5    1    4    4    0  501  0.20116388911E+02  0.20769509927E+03  0.52594567846E+03  0.56584703768E+03  0.47000000000E+01 0.  1.
          1    1    1    2  502    0 -0.23346787762E+02 -0.13535558532E+03 -0.15545892728E+04  0.15606453838E+04  0.00000000000E+00 0. -1.
          1    1    1    2  503    0  0.67443886696E+02 -0.34283593202E+02  0.10969501162E+04  0.10995560923E+04  0.00000000000E+00 0. -1.
<mgrwt>
<rscale>  0 0.10133327E+03</rscale>
<asrwt>0</asrwt>
<pdfrwt beam="1">  1        2 0.26957798E+00 0.75657403E+02</pdfrwt>
<pdfrwt beam="2">  1        2 0.25006037E+00 0.13572275E+03</pdfrwt>
<totfact> 0.21947450E+01</totfact>
</mgrwt>
</event>
<event>
13    1  0.2038932E-008  0.5081849E+02  0.7546771E-02  0.1494980E+00
          2   -1    0    0  503    0  0.00000000000E+00  0.00000000000E+00  0.38669937869E+03  0.38669937869E+03  0.00000000000E+00 0. -1.
         -1   -1    0    0    0  501 -0.00000000000E+00 -0.00000000000E+00 -0.14092474418E+04  0.14092474418E+04  0.00000000000E+00 0.  1.
         24    2    1    2    0    0  0.63919910426E+02 -0.17420935275E+03 -0.70980645200E+03  0.73720582823E+03  0.72198201812E+02 0.  0.
         25    2    1    2    0    0  0.21369495107E+02  0.17885871775E+03 -0.22438900643E+03  0.31372424481E+03  0.12500151736E+03 0.  0.
         24    2    1    2    0    0 -0.38862567704E+02  0.60731540829E+02  0.19806501423E+03  0.22496237621E+03  0.78611078262E+02 0.  0.
        -13    1    5    5    0    0 -0.35404396323E+02 -0.59271710692E+01  0.42175892268E+02  0.55384190203E+02  0.00000000000E+00 0.  1.
         14    1    5    5    0    0 -0.34581713805E+01  0.66658711898E+02  0.15588912197E+03  0.16957818600E+03  0.00000000000E+00 0. -1.
        -13    1    3    3    0    0 -0.10790737665E+02 -0.68262454284E+02 -0.22591950644E+03  0.23625373241E+03  0.00000000000E+00 0.  1.
         14    1    3    3    0    0  0.74710648091E+02 -0.10594689846E+03 -0.48388694555E+03  0.50095209582E+03  0.00000000000E+00 0. -1.
          5    1    4    4  502    0 -0.92923584501E+01  0.17054449912E+03 -0.22384680651E+03  0.28160478847E+03  0.47000000000E+01 0. -1.
         -5    1    4    4    0  502  0.30661853557E+02  0.83142186335E+01 -0.54219991693E+00  0.32119456343E+02  0.47000000000E+01 0. -1.
          1    1    1    2  503    0 -0.29658884225E+02 -0.17573659459E+02  0.11263802539E+03  0.11779561827E+03  0.00000000000E+00 0. -1.
         -2    1    1    2    0  501 -0.16767953604E+02 -0.47807246374E+02 -0.39905564427E+03  0.40225875292E+03  0.00000000000E+00 0.  1.
<mgrwt>
<rscale>  0 0.41856133E+02</rscale>
<asrwt>0</asrwt>
<pdfrwt beam="1">  1        2 0.56867555E-01 0.34474381E+02</pdfrwt>
<pdfrwt beam="2">  1       -1 0.20724227E+00 0.50818487E+02</pdfrwt>
<totfact> 0.17413186E+01</totfact>
</mgrwt>
</event>
<event>
13    1  0.2038932E-008  0.5913568E+02  0.7546771E-02  0.1538113E+00
          2   -1    0    0  502    0  0.00000000000E+00  0.00000000000E+00  0.29035080797E+04  0.29035080797E+04  0.00000000000E+00 0. -1.
          2   -1    0    0  503    0 -0.00000000000E+00 -0.00000000000E+00 -0.32890580748E+04  0.32890580748E+04  0.00000000000E+00 0. -1.
         24    2    1    2    0    0 -0.44312188315E+03 -0.32157002990E+03 -0.10398312859E+04  0.11781236962E+04  0.83438916694E+02 0.  0.
         25    2    1    2    0    0  0.12802953809E+03 -0.40425338481E+03 -0.60073605328E+02  0.44614698147E+03  0.12500371703E+03 0.  0.
         24    2    1    2    0    0  0.25551841945E+03  0.73232797210E+03  0.11433990217E+04  0.13834569691E+04  0.70696117452E+02 0.  0.
        -11    1    5    5    0    0  0.19598781562E+03  0.63526187232E+03  0.96594464892E+03  0.11726115875E+04  0.00000000000E+00 0.  1.
         12    1    5    5    0    0  0.59530603834E+02  0.97066099773E+02  0.17745437277E+03  0.21084538158E+03  0.00000000000E+00 0. -1.
        -13    1    3    3    0    0 -0.36941984052E+03 -0.27916211917E+03 -0.80914831096E+03  0.93226793170E+03  0.00000000000E+00 0.  1.
         14    1    3    3    0    0 -0.73702042632E+02 -0.42407910729E+02 -0.23068297499E+03  0.24585576448E+03  0.00000000000E+00 0. -1.
          5    1    4    4  501    0  0.12024327981E+03 -0.18199188164E+03 -0.11642222773E+02  0.21848826667E+03  0.47000000000E+01 0. -1.
         -5    1    4    4    0  501  0.77862582741E+01 -0.22226150317E+03 -0.48431382555E+02  0.22765871480E+03  0.47000000000E+01 0. -1.
          1    1    1    2  502    0  0.25113144429E+01 -0.22029169353E+02  0.13773240936E+04  0.13775025407E+04  0.00000000000E+00 0. -1.
          1    1    1    2  503    0  0.57062611174E+02  0.15524611960E+02 -0.18063682190E+04  0.18073359671E+04  0.00000000000E+00 0. -1.
<mgrwt>
<rscale>  0 0.36209773E+02</rscale>
<asrwt>0</asrwt>
<pdfrwt beam="1">  1        2 0.42698648E+00 0.22171852E+02</pdfrwt>
<pdfrwt beam="2">  1        2 0.48368501E+00 0.59135685E+02</pdfrwt>
<totfact> 0.14354249E+00</totfact>
</mgrwt>
</event>
<event>
13    1  0.2038932E-008  0.8810507E+02  0.7546771E-02  0.1457838E+00
          2   -1    0    0  502    0  0.00000000000E+00  0.00000000000E+00  0.20223913569E+04  0.20223913569E+04  0.00000000000E+00 0. -1.
          2   -1    0    0  503    0 -0.00000000000E+00 -0.00000000000E+00 -0.19325853418E+04  0.19325853418E+04  0.00000000000E+00 0. -1.
         24    2    1    2    0    0  0.19067131874E+01  0.26417805918E+02 -0.65739616884E+03  0.66287807535E+03  0.80846050917E+02 0.  0.
         25    2    1    2    0    0 -0.21328630381E+03 -0.85153843893E+01 -0.48098355480E+03  0.54086320953E+03  0.12499708906E+03 0.  0.
         24    2    1    2    0    0  0.14838509374E+03 -0.51425247804E+02  0.20553445918E+03  0.27112681317E+03  0.81256647449E+02 0.  0.
        -13    1    3    3    0    0  0.30390347423E+02 -0.12724035379E+02 -0.36687906262E+03  0.36835542738E+03  0.00000000000E+00 0.  1.
         14    1    3    3    0    0 -0.28483634236E+02  0.39141841297E+02 -0.29051710622E+03  0.29452264797E+03  0.00000000000E+00 0. -1.
        -13    1    5    5    0    0  0.98891978427E+01 -0.31805775876E+02  0.20283884974E+02  0.38997943570E+02  0.00000000000E+00 0.  1.
         14    1    5    5    0    0  0.13849589589E+03 -0.19619471927E+02  0.18525057420E+03  0.23212886960E+03  0.00000000000E+00 0. -1.
          5    1    4    4  501    0 -0.58117607191E+02 -0.21534120493E+01 -0.33738461841E+02  0.67399311988E+02  0.47000000000E+01 0.  1.
         -5    1    4    4    0  501 -0.15516869662E+03 -0.63619723400E+01 -0.44724509296E+03  0.47346389754E+03  0.47000000000E+01 0.  1.
          1    1    1    2  502    0  0.65144231144E+02  0.59318176125E+02  0.17500415417E+04  0.17522579190E+04  0.00000000000E+00 0. -1.
          1    1    1    2  503    0 -0.21497342592E+01 -0.25795349850E+02 -0.72739026214E+03  0.72785068173E+03  0.00000000000E+00 0. -1.
<mgrwt>
<rscale>  0 0.47755414E+02</rscale>
<asrwt>0</asrwt>
<pdfrwt beam="1">  1        2 0.29741049E+00 0.88105066E+02</pdfrwt>
<pdfrwt beam="2">  1        2 0.28420373E+00 0.25884772E+02</pdfrwt>
<totfact> 0.16137745E+01</totfact>
</mgrwt>
</event>
<event>
13    1  0.2038932E-008  0.4810557E+02  0.7546771E-02  0.1511749E+00
          2   -1    0    0  503    0  0.00000000000E+00  0.00000000000E+00  0.63366164267E+03  0.63366164267E+03  0.00000000000E+00 0. -1.
          2   -1    0    0  502    0 -0.00000000000E+00 -0.00000000000E+00 -0.13216831511E+04  0.13216831511E+04  0.00000000000E+00 0. -1.
         24    2    1    2    0    0  0.15621584710E+03  0.21728675946E+02 -0.73833582749E+03  0.75918318825E+03  0.79647931010E+02 0.  0.
         25    2    1    2    0    0 -0.12848998553E+03 -0.95714597326E+02  0.41615766045E+03  0.46312489264E+03  0.12500602907E+03 0.  0.
         24    2    1    2    0    0 -0.44915349825E+02  0.10536043687E+03 -0.33538096713E+03  0.36343924788E+03  0.80557330396E+02 0.  0.
        -11    1    5    5    0    0 -0.69838939424E+01 -0.28345671129E+01 -0.11292413790E+03  0.11317539691E+03  0.00000000000E+00 0.  1.
         12    1    5    5    0    0 -0.37931455882E+02  0.10819500398E+03 -0.22245682923E+03  0.25026385097E+03  0.00000000000E+00 0. -1.
        -13    1    3    3    0    0  0.14558433077E+03  0.43691877464E+02 -0.65035563152E+03  0.66788189448E+03  0.00000000000E+00 0.  1.
         14    1    3    3    0    0  0.10631516324E+02 -0.21963201518E+02 -0.87980195972E+02  0.91301293767E+02  0.00000000000E+00 0. -1.
          5    1    4    4  501    0 -0.10205825711E+03 -0.11797090291E+03  0.38831310163E+03  0.41849991240E+03  0.47000000000E+01 0. -1.
         -5    1    4    4    0  501 -0.26431728416E+02  0.22256305586E+02  0.27844558821E+02  0.44624980239E+02  0.47000000000E+01 0. -1.
          1    1    1    2  502    0  0.28569666129E+02  0.15434127734E+02 -0.19524039088E+03  0.19792232909E+03  0.00000000000E+00 0. -1.
          1    1    1    2  503    0 -0.11380177872E+02 -0.46808643220E+02  0.16477801663E+03  0.17167513591E+03  0.00000000000E+00 0. -1.
<mgrwt>
<rscale>  0 0.39523277E+02</rscale>
<asrwt>0</asrwt>
<pdfrwt beam="1">  1        2 0.93185536E-01 0.48105567E+02</pdfrwt>
<pdfrwt beam="2">  1        2 0.19436517E+00 0.32472113E+02</pdfrwt>
<totfact> 0.17226452E+02</totfact>
</mgrwt>
</event>
<event>
13    1  0.2038932E-008  0.1491757E+03  0.7546771E-02  0.1251470E+00
          2   -1    0    0  502    0  0.00000000000E+00  0.00000000000E+00  0.17682182576E+04  0.17682182576E+04  0.00000000000E+00 0. -1.
          2   -1    0    0  503    0 -0.00000000000E+00 -0.00000000000E+00 -0.42130710415E+04  0.42130710415E+04  0.00000000000E+00 0. -1.
         24    2    1    2    0    0 -0.58527787942E+02  0.23309777414E+03 -0.18107674081E+04  0.18283745373E+04  0.79465513353E+02 0.  0.
         25    2    1    2    0    0  0.12963899692E+03 -0.48323133457E+03  0.22538244692E+03  0.56280410912E+03  0.12502969901E+03 0.  0.
         24    2    1    2    0    0 -0.61711709303E+02  0.16310683379E+03  0.35480681099E+03  0.40280293579E+03  0.77137265075E+02 0.  0.
        -11    1    3    3    0    0  0.12927529563E+02  0.24855867246E+02 -0.11442421820E+03  0.11780423111E+03  0.00000000000E+00 0.  1.
         12    1    3    3    0    0 -0.71455317505E+02  0.20824190690E+03 -0.16963431900E+04  0.17105703061E+04  0.00000000000E+00 0. -1.
        -11    1    5    5    0    0 -0.63654046167E+02  0.81326009263E+02  0.14860629356E+03  0.18096847201E+03  0.00000000000E+00 0.  1.
         12    1    5    5    0    0  0.19423368638E+01  0.81780824527E+02  0.20620051743E+03  0.22183446378E+03  0.00000000000E+00 0. -1.
          5    1    4    4  501    0  0.11023050489E+03 -0.45708369685E+03  0.23867677212E+03  0.52731865289E+03  0.47000000000E+01 0. -1.
         -5    1    4    4    0  501  0.19408492037E+02 -0.26147637718E+02 -0.13294325205E+02  0.35485456233E+02  0.47000000000E+01 0. -1.
          1    1    1    2  502    0 -0.75211014483E+02 -0.47119168700E+02  0.98197677571E+03  0.98597936124E+03  0.00000000000E+00 0. -1.
          1    1    1    2  503    0  0.65811514804E+02  0.13414589533E+03 -0.21962514093E+04  0.22013283557E+04  0.00000000000E+00 0. -1.
<mgrwt>
<rscale>  0 0.11506363E+03</rscale>
<asrwt>0</asrwt>
<pdfrwt beam="1">  1        2 0.26003210E+00 0.88751973E+02</pdfrwt>
<pdfrwt beam="2">  1        2 0.61956927E+00 0.14917572E+03</pdfrwt>
<totfact> 0.90105693E-01</totfact>
</mgrwt>
</event>
<event>
13    1  0.2038932E-008  0.1103510E+03  0.7546771E-02  0.1280371E+00
          2   -1    0    0  503    0  0.00000000000E+00  0.00000000000E+00  0.15711079239E+04  0.15711079239E+04  0.00000000000E+00 0. -1.
          2   -1    0    0  502    0 -0.00000000000E+00 -0.00000000000E+00 -0.21557263842E+04  0.21557263842E+04  0.00000000000E+00 0. -1.
         24    2    1    2    0    0 -0.15149893105E+03 -0.48188140985E+02 -0.46753510047E+03  0.50089226510E+03  0.83844904601E+02 0.  0.
         25    2    1    2    0    0 -0.11676542391E+03  0.14720477988E+03 -0.27507187683E+02  0.22734588116E+03  0.12500437139E+03 0.  0.
         24    2    1    2    0    0  0.27219955100E+03  0.54028011291E+02  0.71573355813E+03  0.77183445741E+03  0.80263826464E+02 0.  0.
        -11    1    3    3    0    0 -0.12049764484E+03 -0.64801401336E+02 -0.42025043709E+03  0.44196078322E+03  0.00000000000E+00 0.  1.
         12    1    3    3    0    0 -0.31001286215E+02  0.16613260351E+02 -0.47284663379E+02  0.58931481886E+02  0.00000000000E+00 0. -1.
        -13    1    5    5    0    0  0.56936271442E+00 -0.94811964099E+01  0.16975694945E+02  0.19452287221E+02  0.00000000000E+00 0.  1.
         14    1    5    5    0    0  0.27163018829E+03  0.63509207701E+02  0.69875786319E+03  0.75238217019E+03  0.00000000000E+00 0. -1.
          5    1    4    4  501    0  0.16116327471E+02  0.34362021793E+02  0.24432507633E+02  0.45381956570E+02  0.47000000000E+01 0. -1.
         -5    1    4    4    0  501 -0.13288175138E+03  0.11284275809E+03 -0.51939695316E+02  0.18196392459E+03  0.47000000000E+01 0. -1.
          1    1    1    2  502    0  0.62157130148E+02 -0.91140805391E+02 -0.15111323190E+04  0.15151538010E+04  0.00000000000E+00 0. -1.
          1    1    1    2  503    0 -0.66092326187E+02 -0.61903844793E+02  0.70582258868E+03  0.71160790346E+03  0.00000000000E+00 0. -1.
<mgrwt>
<rscale>  0 0.99964411E+02</rscale>
<asrwt>0</asrwt>
<pdfrwt beam="1">  1        2 0.23104528E+00 0.90555406E+02</pdfrwt>
<pdfrwt beam="2">  1        2 0.31701859E+00 0.11035104E+03</pdfrwt>
<totfact> 0.17679819E+01</totfact>
</mgrwt>
</event>
<event>
13    1  0.2038932E-008  0.5462068E+02  0.7546771E-02  0.1470373E+00
          2   -1    0    0  502    0  0.00000000000E+00  0.00000000000E+00  0.83189145045E+03  0.83189145045E+03  0.00000000000E+00 0. -1.
          2   -1    0    0  503    0 -0.00000000000E+00 -0.00000000000E+00 -0.13551188519E+04  0.13551188519E+04  0.00000000000E+00 0. -1.
         24    2    1    2    0    0  0.40141265763E+02  0.75892111618E+02 -0.59814597440E+03  0.60926429059E+03  0.77803825558E+02 0.  0.
         25    2    1    2    0    0 -0.20184338277E+02 -0.13040142054E+03  0.39725360564E+03  0.43686440121E+03  0.12501255883E+03 0.  0.
         24    2    1    2    0    0 -0.59578673817E+02 -0.23848485308E+02 -0.24209895281E+03  0.26367436859E+03  0.82425124056E+02 0.  0.
        -11    1    3    3    0    0  0.26981015381E+02 -0.84410014776E+00 -0.29673225977E+03  0.29795758370E+03  0.00000000000E+00 0.  1.
         12    1    3    3    0    0  0.13160250383E+02  0.76736211765E+02 -0.30141371463E+03  0.31130670689E+03  0.00000000000E+00 0. -1.
        -13    1    5    5    0    0 -0.69452048820E+02  0.82357447958E+01 -0.17947488561E+03  0.19262047955E+03  0.00000000000E+00 0.  1.
         14    1    5    5    0    0  0.98733750026E+01 -0.32084230103E+02 -0.62624067199E+02  0.71053889041E+02  0.00000000000E+00 0. -1.
          5    1    4    4  501    0 -0.30912318748E+02 -0.37248893438E+02  0.29116263942E+03  0.29519624677E+03  0.47000000000E+01 0. -1.
         -5    1    4    4    0  501  0.10727980471E+02 -0.93152527103E+02  0.10609096622E+03  0.14166815445E+03  0.47000000000E+01 0. -1.
          1    1    1    2  502    0  0.29481706650E+01  0.38025282834E+02  0.39601456797E+03  0.39784689503E+03  0.00000000000E+00 0. -1.
          1    1    1    2  503    0  0.36673575666E+02  0.40332511396E+02 -0.47625064786E+03  0.47936034694E+03  0.00000000000E+00 0. -1.
<mgrwt>
<rscale>  0 0.45642086E+02</rscale>
<asrwt>0</asrwt>
<pdfrwt beam="1">  1        2 0.12233698E+00 0.38139400E+02</pdfrwt>
<pdfrwt beam="2">  1        2 0.19928218E+00 0.54620682E+02</pdfrwt>
<totfact> 0.11841969E+02</totfact>
</mgrwt>
</event>
<event>
13    1  0.2038932E-008  0.9054276E+02  0.7546771E-02  0.1332574E+00
          2   -1    0    0  503    0  0.00000000000E+00  0.00000000000E+00  0.79493948094E+03  0.79493948094E+03  0.00000000000E+00 0. -1.
          2   -1    0    0  502    0 -0.00000000000E+00 -0.00000000000E+00 -0.77847489135E+03  0.77847489135E+03  0.00000000000E+00 0. -1.
         24    2    1    2    0    0 -0.27957907713E+02  0.85255819602E+02  0.54779115081E+02  0.13895949387E+03  0.90877885694E+02 0.  0.
         25    2    1    2    0    0 -0.15368289060E+02 -0.21812979897E+03 -0.14898245146E+03  0.29263891533E+03  0.12499988165E+03 0.  0.
         24    2    1    2    0    0 -0.38375113020E+02  0.14167882662E+02  0.34268345953E+03  0.35948145480E+03  0.10060608683E+03 0.  0.
        -13    1    3    3    0    0 -0.94932255657E+01  0.91999573667E+02  0.68409397044E+02  0.11503863912E+03  0.00000000000E+00 0.  1.
         14    1    3    3    0    0 -0.18464682147E+02 -0.67437540643E+01 -0.13630281963E+02  0.23920854752E+02  0.00000000000E+00 0. -1.
        -13    1    5    5    0    0  0.16807218381E+02 -0.32039809891E+02  0.99670689820E+02  0.10603432660E+03  0.00000000000E+00 0.  1.
         14    1    5    5    0    0 -0.55182331401E+02  0.46207692554E+02  0.24301276971E+03  0.25344712820E+03  0.00000000000E+00 0. -1.
          5    1    4    4  501    0 -0.69834177708E+02 -0.13961224624E+03 -0.94475381458E+02  0.18252692781E+03  0.47000000000E+01 0.  1.
         -5    1    4    4    0  501  0.54465888648E+02 -0.78517552736E+02 -0.54507069999E+02  0.11011198751E+03  0.47000000000E+01 0.  1.
          1    1    1    2  502    0  0.20515694117E+02  0.87838223672E+02 -0.49879906558E+03  0.50688948999E+03  0.00000000000E+00 0. -1.
          1    1    1    2  503    0  0.61185615675E+02  0.30867873037E+02  0.26678353201E+03  0.27544501830E+03  0.00000000000E+00 0. -1.
<mgrwt>
<rscale>  0 0.78771764E+02</rscale>
<asrwt>0</asrwt>
<pdfrwt beam="1">  1        2 0.11690287E+00 0.68531052E+02</pdfrwt>
<pdfrwt beam="2">  1        2 0.11448160E+00 0.90542762E+02</pdfrwt>
<totfact> 0.24967477E+02</totfact>
</mgrwt>
</event>
<event>
13    1  0.2038932E-008  0.7983563E+02  0.7546771E-02  0.1358048E+00
          2   -1    0    0  502    0  0.00000000000E+00  0.00000000000E+00  0.19311843543E+04  0.19311843543E+04  0.00000000000E+00 0. -1.
          2   -1    0    0  503    0 -0.00000000000E+00 -0.00000000000E+00 -0.69360716765E+03  0.69360716765E+03  0.00000000000E+00 0. -1.
         24    2    1    2    0    0  0.48825858080E+01 -0.88143061664E+02 -0.27966745715E+03  0.30374649830E+03  0.79088619156E+02 0.  0.
         25    2    1    2    0    0 -0.12604676979E+03  0.89248831127E+02  0.19017606572E+03  0.27503829211E+03  0.12500393641E+03 0.  0.
         24    2    1    2    0    0  0.12925700898E+03 -0.18329532633E+02 -0.10023232738E+03  0.18341282836E+03  0.80934541561E+02 0.  0.
        -13    1    3    3    0    0 -0.24808961937E+02 -0.17797509816E+02 -0.15160465694E+03  0.15464865972E+03  0.00000000000E+00 0.  1.
         14    1    3    3    0    0  0.29691547745E+02 -0.70345551848E+02 -0.12806280021E+03  0.14909783858E+03  0.00000000000E+00 0. -1.
        -13    1    5    5    0    0  0.18245404601E+02  0.17725837711E+02 -0.50488564197E+02  0.56534902726E+02  0.00000000000E+00 0.  1.
         14    1    5    5    0    0  0.11101160438E+03 -0.36055370344E+02 -0.49743763188E+02  0.12687792564E+03  0.00000000000E+00 0. -1.
          5    1    4    4  501    0 -0.14714543513E+03  0.94414974464E+02  0.17862991583E+03  0.24999340654E+03  0.47000000000E+01 0. -1.
         -5    1    4    4    0  501  0.21098665334E+02 -0.51661433367E+01  0.11546149892E+02  0.25044885569E+02  0.47000000000E+01 0. -1.
          1    1    1    2  502    0 -0.56850701133E+02  0.56231648022E+02  0.16394743046E+04  0.16414231617E+04  0.00000000000E+00 0. -1.
          1    1    1    2  503    0  0.48757876137E+02 -0.39007884852E+02 -0.21217339914E+03  0.22117074144E+03  0.00000000000E+00 0. -1.
<mgrwt>
<rscale>  0 0.70604951E+02</rscale>
<asrwt>0</asrwt>
<pdfrwt beam="1">  1        2 0.28399770E+00 0.79835625E+02</pdfrwt>
<pdfrwt beam="2">  1        2 0.10200105E+00 0.62441537E+02</pdfrwt>
<totfact> 0.73490320E+01</totfact>
</mgrwt>
</event>
<event>
13    1  0.2038932E-008  0.5532705E+02  0.7546771E-02  0.1420392E+00
          2   -1    0    0  503    0  0.00000000000E+00  0.00000000000E+00  0.17561708604E+04  0.17561708604E+04  0.00000000000E+00 0. -1.
         -3   -1    0    0    0  501 -0.00000000000E+00 -0.00000000000E+00 -0.76882252812E+03  0.76882252812E+03  0.00000000000E+00 0.  1.
         24    2    1    2    0    0 -0.45204653307E+02  0.63256382193E+02 -0.21935977048E+03  0.24775203365E+03  0.84956051596E+02 0.  0.
         25    2    1    2    0    0 -0.30800214055E+02 -0.93958598277E+02  0.12346819127E+03  0.20160641776E+03  0.12499552813E+03 0.  0.
         24    2    1    2    0    0  0.37811536372E+02  0.87794828135E+01 -0.32012080181E+03  0.33234350348E+03  0.80424405206E+02 0.  0.
        -13    1    3    3    0    0  0.26839715988E+00  0.46573915066E+02 -0.17821044806E+03  0.18419599724E+03  0.00000000000E+00 0.  1.
         14    1    3    3    0    0 -0.45473050467E+02  0.16682467126E+02 -0.41149322419E+02  0.63556036407E+02  0.00000000000E+00 0. -1.
        -13    1    5    5    0    0  0.51049604579E+02  0.29952863806E+02 -0.26919319517E+03  0.27562331633E+03  0.00000000000E+00 0.  1.
         14    1    5    5    0    0 -0.13238068206E+02 -0.21173380992E+02 -0.50927606638E+02  0.56720187150E+02  0.00000000000E+00 0. -1.
          5    1    4    4  502    0 -0.61332104326E+02 -0.11083855335E+02  0.84132605203E+02  0.10480870254E+03  0.47000000000E+01 0.  1.
         -5    1    4    4    0  502  0.30531890272E+02 -0.82874742942E+02  0.39335586063E+02  0.96797715222E+02  0.47000000000E+01 0.  1.
          1    1    1    2  503    0 -0.80413747580E+01  0.53955919721E+02  0.15681852209E+04  0.15691337713E+04  0.00000000000E+00 0. -1.
         -4    1    1    2    0  501  0.46234705747E+02 -0.32033186450E+02 -0.16482450762E+03  0.17415766237E+03  0.00000000000E+00 0.  1.
<mgrwt>
<rscale>  0 0.54938087E+02</rscale>
<asrwt>0</asrwt>
<pdfrwt beam="1">  1        2 0.25826042E+00 0.54551856E+02</pdfrwt>
<pdfrwt beam="2">  1       -3 0.11306214E+00 0.55327052E+02</pdfrwt>
<totfact> 0.52774411E+00</totfact>
</mgrwt>
</event>
<event>
13    1  0.2038932E-008  0.1557489E+03  0.7546771E-02  0.1262534E+00
          2   -1    0    0  502    0  0.00000000000E+00  0.00000000000E+00  0.25337664324E+04  0.25337664324E+04  0.00000000000E+00 0. -1.
          2   -1    0    0  503    0 -0.00000000000E+00 -0.00000000000E+00 -0.19531208022E+04  0.19531208022E+04  0.00000000000E+00 0. -1.
         24    2    1    2    0    0  0.49645449137E+02 -0.97661403242E+02 -0.30143716541E+03  0.33091505361E+03  0.81473846790E+02 0.  0.
         25    2    1    2    0    0 -0.69736884680E+02  0.46789176400E+02  0.46597969268E+03  0.48970997468E+03  0.12500530068E+03 0.  0.
         24    2    1    2    0    0  0.11189226247E+03  0.29678107602E+01  0.32778490413E+03  0.35483477172E+03  0.77045996329E+02 0.  0.
        -11    1    3    3    0    0  0.61029242325E+02 -0.30523000904E+02 -0.14199439487E+03  0.15753929725E+03  0.00000000000E+00 0.  1.
         12    1    3    3    0    0 -0.11383793188E+02 -0.67138402338E+02 -0.15944277055E+03  0.17337575637E+03  0.00000000000E+00 0. -1.
        -13    1    5    5    0    0  0.41326299190E+02 -0.19101596042E+02  0.51090532452E+02  0.68432276612E+02  0.00000000000E+00 0.  1.
         14    1    5    5    0    0  0.70565963276E+02  0.22069406802E+02  0.27669437167E+03  0.28640249511E+03  0.00000000000E+00 0. -1.
          5    1    4    4  501    0 -0.46599445040E+02  0.87600012323E+02  0.25821816497E+03  0.27666582940E+03  0.47000000000E+01 0.  1.
         -5    1    4    4    0  501 -0.23137439639E+02 -0.40810835922E+02  0.20776152771E+03  0.21304414528E+03  0.47000000000E+01 0.  1.
          1    1    1    2  502    0  0.36290960793E+02 -0.67011489124E+02  0.16944200568E+04  0.16961329259E+04  0.00000000000E+00 0. -1.
          1    1    1    2  503    0 -0.12809178772E+03  0.11491590521E+03 -0.16061018580E+04  0.16152945086E+04  0.00000000000E+00 0. -1.
<mgrwt>
<rscale>  0 0.10894598E+03</rscale>
<asrwt>0</asrwt>
<pdfrwt beam="1">  1        2 0.37261271E+00 0.76207437E+02</pdfrwt>
<pdfrwt beam="2">  1        2 0.28722365E+00 0.15574891E+03</pdfrwt>
<totfact> 0.74997119E+00</totfact>
</mgrwt>
</event>
<event>
13    1  0.2038932E-008  0.5070016E+02  0.7546771E-02  0.1481056E+00
          2   -1    0    0  503    0  0.00000000000E+00  0.00000000000E+00  0.21773252401E+04  0.21773252401E+04  0.00000000000E+00 0. -1.
          2   -1    0    0  502    0 -0.00000000000E+00 -0.00000000000E+00 -0.11006675865E+04  0.11006675865E+04  0.00000000000E+00 0. -1.
         24    2    1    2    0    0  0.43879985168E+02 -0.50447491405E+02 -0.14062473598E+03  0.17380999660E+03  0.77228207678E+02 0.  0.
         25    2    1    2    0    0 -0.42559882486E+02  0.10458573449E+03  0.50760662610E+03  0.53482714687E+03  0.12500428279E+03 0.  0.
         24    2    1    2    0    0  0.25508435830E+01 -0.57031318206E+01  0.18979355321E+03  0.20592994913E+03  0.79665039947E+02 0.  0.
        -11    1    3    3    0    0 -0.10194504604E+02  0.98936035103E+01 -0.36542289028E+01  0.14668493563E+02  0.00000000000E+00 0.  1.
         12    1    3    3    0    0  0.54074489772E+02 -0.60341094915E+02 -0.13697050708E+03  0.15914150304E+03  0.00000000000E+00 0. -1.
        -13    1    5    5    0    0 -0.33352175917E+02  0.38165109180E+00  0.41561070295E+02  0.53290110340E+02  0.00000000000E+00 0.  1.
         14    1    5    5    0    0  0.35903019500E+02 -0.60847829124E+01  0.14823248292E+03  0.15263983879E+03  0.00000000000E+00 0. -1.
          5    1    4    4  501    0 -0.86663806111E+02  0.71916759739E+02  0.36233312730E+03  0.37946017019E+03  0.47000000000E+01 0.  1.
         -5    1    4    4    0  501  0.44103923625E+02  0.32668974747E+02  0.14527349879E+03  0.15536697668E+03  0.47000000000E+01 0.  1.
          1    1    1    2  502    0  0.34767540498E+02 -0.15545772727E+02 -0.92093158849E+03  0.92171874430E+03  0.00000000000E+00 0. -1.
          1    1    1    2  503    0 -0.38638486763E+02 -0.32889338533E+02  0.14408137988E+04  0.14417069897E+04  0.00000000000E+00 0. -1.
<mgrwt>
<rscale>  0 0.43942076E+02</rscale>
<asrwt>0</asrwt>
<pdfrwt beam="1">  1        2 0.32019489E+00 0.50700160E+02</pdfrwt>
<pdfrwt beam="2">  1        2 0.16186288E+00 0.38084812E+02</pdfrwt>
<totfact> 0.34535411E+01</totfact>
</mgrwt>
</event>
<event>
13    1  0.2038932E-008  0.1077353E+03  0.7546771E-02  0.1332226E+00
          2   -1    0    0  502    0  0.00000000000E+00  0.00000000000E+00  0.13816805746E+04  0.13816805746E+04  0.00000000000E+00 0. -1.
          2   -1    0    0  503    0 -0.00000000000E+00 -0.00000000000E+00 -0.27108085591E+04  0.27108085591E+04  0.00000000000E+00 0. -1.
         24    2    1    2    0    0 -0.55022898441E+02 -0.35485041229E+02 -0.12647208098E+04  0.12690483450E+04  0.81720668673E+02 0.  0.
         25    2    1    2    0    0  0.21060286489E+03 -0.79664445512E+01 -0.10445043681E+03  0.26637288787E+03  0.12501036238E+03 0.  0.
         24    2    1    2    0    0 -0.14467300940E+03 -0.26485791372E+02 -0.58214141365E+03  0.60569534786E+03  0.79664622854E+02 0.  0.
        -13    1    3    3    0    0 -0.71954877136E+02 -0.98495379615E+01 -0.78851234280E+03  0.79184988002E+03  0.00000000000E+00 0.  1.
         14    1    3    3    0    0  0.16931978696E+02 -0.25635503267E+02 -0.47620846703E+03  0.47719846500E+03  0.00000000000E+00 0. -1.
        -13    1    5    5    0    0 -0.11770981123E+03 -0.23415852843E+02 -0.55300578545E+03  0.56587922790E+03  0.00000000000E+00 0.  1.
         14    1    5    5    0    0 -0.26963198166E+02 -0.30699385284E+01 -0.29135628200E+02  0.39816119958E+02  0.00000000000E+00 0. -1.
          5    1    4    4  501    0  0.12017926325E+03 -0.62724548028E+02 -0.35976750991E+02  0.14033474570E+03  0.47000000000E+01 0. -1.
         -5    1    4    4    0  501  0.90423601643E+02  0.54758103477E+02 -0.68473685815E+02  0.12603814216E+03  0.47000000000E+01 0. -1.
          1    1    1    2  502    0 -0.66757328042E+02  0.84707048491E+02  0.12832568071E+04  0.12877809822E+04  0.00000000000E+00 0. -1.
          1    1    1    2  503    0  0.55850370993E+02 -0.14769771340E+02 -0.66107213131E+03  0.66359157083E+03  0.00000000000E+00 0. -1.
<mgrwt>
<rscale>  0 0.78891701E+02</rscale>
<asrwt>0</asrwt>
<pdfrwt beam="1">  1        2 0.20318832E+00 0.10773526E+03</pdfrwt>
<pdfrwt beam="2">  1        2 0.39864831E+00 0.57770322E+02</pdfrwt>
<totfact> 0.12604617E+01</totfact>
</mgrwt>
</event>
<event>
13    1  0.2038932E-008  0.1127851E+03  0.7546771E-02  0.1327118E+00
          2   -1    0    0  503    0  0.00000000000E+00  0.00000000000E+00  0.21380014894E+04  0.21380014894E+04  0.00000000000E+00 0. -1.
         -1   -1    0    0    0  501 -0.00000000000E+00 -0.00000000000E+00 -0.91046637617E+03  0.91046637617E+03  0.00000000000E+00 0.  1.
         24    2    1    2    0    0 -0.36518210367E+03  0.47339568950E+02 -0.48327796841E+03  0.61294630915E+03  0.80910935713E+02 0.  0.
         25    2    1    2    0    0 -0.55017023323E+02  0.46676553587E+02  0.56314204534E+00  0.14432557385E+03  0.12499592244E+03 0.  0.
         24    2    1    2    0    0  0.45786343513E+03 -0.15213030261E+03  0.54742481184E+03  0.73419498770E+03  0.81152949089E+02 0.  0.
        -11    1    5    5    0    0  0.20592227362E+03 -0.99514836161E+02  0.29941736073E+03  0.37677306339E+03  0.00000000000E+00 0.  1.
         12    1    5    5    0    0  0.25194116151E+03 -0.52615466450E+02  0.24800745111E+03  0.35742192431E+03  0.00000000000E+00 0. -1.
        -13    1    3    3    0    0 -0.18650557305E+03 -0.34857794195E+01 -0.29046690845E+03  0.34520646625E+03  0.00000000000E+00 0.  1.
         14    1    3    3    0    0 -0.17867653062E+03  0.50825348370E+02 -0.19281105996E+03  0.26773984290E+03  0.00000000000E+00 0. -1.
          5    1    4    4  502    0  0.52729578115E+01  0.66780506152E+02  0.30692899480E+02  0.73834843838E+02  0.47000000000E+01 0. -1.
         -5    1    4    4    0  502 -0.60289981135E+02 -0.20103952565E+02 -0.30129757435E+02  0.70490730008E+02  0.47000000000E+01 0. -1.
          1    1    1    2  503    0 -0.16356383689E+02  0.11175884127E+03  0.13532830531E+04  0.13579884358E+04  0.00000000000E+00 0. -1.
         -2    1    1    2    0  501 -0.21307924445E+02 -0.53644661192E+02 -0.19045792539E+03  0.19901255906E+03  0.00000000000E+00 0.  1.
<mgrwt>
<rscale>  0 0.80685388E+02</rscale>
<asrwt>0</asrwt>
<pdfrwt beam="1">  1        2 0.31441198E+00 0.11278512E+03</pdfrwt>
<pdfrwt beam="2">  1       -1 0.13389211E+00 0.57721550E+02</pdfrwt>
<totfact> 0.49632316E+00</totfact>
</mgrwt>
</event>
<event>
13    1  0.2038932E-008  0.5320795E+02  0.7546771E-02  0.1471988E+00
         -1   -1    0    0    0  501 -0.00000000000E+00  0.00000000000E+00  0.12416329976E+04  0.12416329976E+04  0.00000000000E+00 0.  1.
          2   -1    0    0  503    0  0.00000000000E+00 -0.00000000000E+00 -0.88468994318E+03  0.88468994318E+03  0.00000000000E+00 0. -1.
         24    2    1    2    0    0  0.24942671324E+02  0.97581658294E+02  0.52687563708E+02  0.15097446877E+03  0.99362940584E+02 0.  0.
         25    2    1    2    0    0 -0.19450721180E+03 -0.39267832769E+03 -0.23098296742E+03  0.51088838531E+03  0.12499794606E+03 0.  0.
         24    2    1    2    0    0  0.15433314119E+03  0.29209042836E+03  0.30660639309E+03  0.45771660202E+03  0.79758828170E+02 0.  0.
        -11    1    5    5    0    0  0.92055298161E+02  0.11201658162E+03  0.96970171616E+02  0.17442794117E+03  0.00000000000E+00 0.  1.
         12    1    5    5    0    0  0.62277843027E+02  0.18007384675E+03  0.20963622147E+03  0.28328866085E+03  0.00000000000E+00 0. -1.
        -13    1    3    3    0    0  0.35535336122E+02  0.68211480237E+02  0.78916792863E+02  0.11019721569E+03  0.00000000000E+00 0.  1.
         14    1    3    3    0    0 -0.10592664798E+02  0.29370178057E+02 -0.26229229155E+02  0.40777253079E+02  0.00000000000E+00 0. -1.
          5    1    4    4  502    0  0.12509218022E+02 -0.21889222274E+02  0.33071185397E+01  0.25858182850E+02  0.47000000000E+01 0.  1.
         -5    1    4    4    0  502 -0.20701642982E+03 -0.37078910542E+03 -0.23429008596E+03  0.48503020246E+03  0.47000000000E+01 0.  1.
          1    1    1    2  503    0 -0.37802301222E+02  0.82979021495E+01 -0.38693886927E+03  0.38886958959E+03  0.00000000000E+00 0. -1.
         -2    1    1    2    0  501  0.53033700509E+02 -0.52916611118E+01  0.61557093436E+03  0.61787389514E+03  0.00000000000E+00 0.  1.
<mgrwt>
<rscale>  0 0.45379189E+02</rscale>
<asrwt>0</asrwt>
<pdfrwt beam="2">  1        2 0.13010146E+00 0.38702315E+02</pdfrwt>
<pdfrwt beam="1">  1       -1 0.18259309E+00 0.53207949E+02</pdfrwt>
<totfact> 0.10312080E+01</totfact>
</mgrwt>
</event>
<event>
13    1  0.2038932E-008  0.7358975E+02  0.7546771E-02  0.1439591E+00
          2   -1    0    0  502    0  0.00000000000E+00  0.00000000000E+00  0.22269719171E+04  0.22269719171E+04  0.00000000000E+00 0. -1.
          2   -1    0    0  503    0 -0.00000000000E+00 -0.00000000000E+00 -0.52303140208E+03  0.52303140208E+03  0.00000000000E+00 0. -1.
         24    2    1    2    0    0  0.31139200801E+02 -0.35870978390E+02 -0.18538581377E+03  0.20789420858E+03  0.81214069559E+02 0.  0.
         25    2    1    2    0    0 -0.58242961591E+02  0.24023921223E+02  0.11815047476E+04  0.11897677187E+04  0.12499745814E+03 0.  0.
         24    2    1    2    0    0  0.29540532268E+02  0.50218500354E+02  0.15525444053E+03  0.18437282612E+03  0.80590674911E+02 0.  0.
        -11    1    3    3    0    0 -0.18962921514E+02 -0.17544988187E+02 -0.16192826107E+02  0.30489778946E+02  0.00000000000E+00 0.  1.
         12    1    3    3    0    0  0.50102122315E+02 -0.18325990204E+02 -0.16919298767E+03  0.17740442963E+03  0.00000000000E+00 0. -1.
        -11    1    5    5    0    0  0.24685689575E+02 -0.18314627581E+02  0.48634592998E+02  0.57533750871E+02  0.00000000000E+00 0.  1.
         12    1    5    5    0    0  0.48548426930E+01  0.68533127935E+02  0.10661984754E+03  0.12683907525E+03  0.00000000000E+00 0. -1.
          5    1    4    4  501    0 -0.19237343528E+02  0.73792954844E+02  0.61666132844E+03  0.62137650387E+03  0.47000000000E+01 0.  1.
         -5    1    4    4    0  501 -0.39005618063E+02 -0.49769033621E+02  0.56484341913E+03  0.56839121482E+03  0.47000000000E+01 0.  1.
          1    1    1    2  502    0 -0.74868514677E+01 -0.73468413576E+02  0.85765426232E+03  0.86082779602E+03  0.00000000000E+00 0. -1.
          1    1    1    2  503    0  0.50500799903E+01  0.35096970389E+02 -0.30508712165E+03  0.30714076974E+03  0.00000000000E+00 0. -1.
<mgrwt>
<rscale>  0 0.51082064E+02</rscale>
<asrwt>0</asrwt>
<pdfrwt beam="1">  1        2 0.32749587E+00 0.73589746E+02</pdfrwt>
<pdfrwt beam="2">  1        2 0.76916384E-01 0.35458435E+02</pdfrwt>
<totfact> 0.73419984E+01</totfact>
</mgrwt>
</event>
<event>
13    1  0.2038932E-008  0.1054479E+03  0.7546771E-02  0.1401644E+00
          2   -1    0    0  503    0  0.00000000000E+00  0.00000000000E+00  0.20462808026E+04  0.20462808026E+04  0.00000000000E+00 0. -1.
          2   -1    0    0  502    0 -0.00000000000E+00 -0.00000000000E+00 -0.55629580701E+03  0.55629580701E+03  0.00000000000E+00 0. -1.
         24    2    1    2    0    0 -0.85741174996E+02  0.81520907487E+02 -0.15766974718E+01  0.14397810238E+03  0.82036580510E+02 0.  0.
         25    2    1    2    0    0  0.81347957797E+02 -0.22804220422E+03  0.24352391296E+03  0.36544358139E+03  0.12499751140E+03 0.  0.
         24    2    1    2    0    0 -0.43803489038E+02  0.39276253900E+02  0.70586936773E+02  0.12069034977E+03  0.78244968602E+02 0.  0.
        -13    1    3    3    0    0 -0.71862321721E+02  0.98170289093E+02  0.35152837490E+01  0.12171259657E+03  0.00000000000E+00 0.  1.
         14    1    3    3    0    0 -0.13878853275E+02 -0.16649381606E+02 -0.50919812207E+01  0.22265505807E+02  0.00000000000E+00 0. -1.
        -13    1    5    5    0    0 -0.11865237541E+02 -0.19889116398E+02  0.41306421333E+02  0.47355899911E+02  0.00000000000E+00 0.  1.
         14    1    5    5    0    0 -0.31938251497E+02  0.59165370298E+02  0.29280515440E+02  0.73334449855E+02  0.00000000000E+00 0. -1.
          5    1    4    4  501    0 -0.19192202459E+02 -0.97787781440E+02  0.50682891608E+02  0.11190011768E+03  0.47000000000E+01 0.  1.
         -5    1    4    4    0  501  0.10054016026E+03 -0.13025442278E+03  0.19284102135E+03  0.25354346372E+03  0.47000000000E+01 0.  1.
          1    1    1    2  502    0  0.15274321205E+02  0.10359017449E+03 -0.39043327165E+03  0.40423058859E+03  0.00000000000E+00 0. -1.
          1    1    1    2  503    0  0.32922385032E+02  0.36548683378E+01  0.15678841150E+04  0.15682339875E+04  0.00000000000E+00 0. -1.
<mgrwt>
<rscale>  0 0.59100954E+02</rscale>
<asrwt>0</asrwt>
<pdfrwt beam="1">  1        2 0.30092364E+00 0.33124636E+02</pdfrwt>
<pdfrwt beam="2">  1        2 0.81808208E-01 0.10544789E+03</pdfrwt>
<totfact> 0.90572846E+01</totfact>
</mgrwt>
</event>
<event>
13    1  0.2038932E-008  0.1114568E+03  0.7546771E-02  0.1426247E+00
          2   -1    0    0  502    0  0.00000000000E+00  0.00000000000E+00  0.25593339097E+04  0.25593339097E+04  0.00000000000E+00 0. -1.
          2   -1    0    0  503    0 -0.00000000000E+00 -0.00000000000E+00 -0.72202498617E+03  0.72202498617E+03  0.00000000000E+00 0. -1.
         24    2    1    2    0    0 -0.49025430952E+01  0.21807725647E+02  0.25742733524E+03  0.26995221610E+03  0.78139325679E+02 0.  0.
         25    2    1    2    0    0 -0.10474839381E+03 -0.16503947577E+03  0.22830112960E+03  0.32551223337E+03  0.12500621478E+03 0.  0.
         24    2    1    2    0    0  0.11745692636E+03 -0.14979605803E+02  0.43615147872E+03  0.46243559185E+03  0.97969618151E+02 0.  0.
        -11    1    3    3    0    0  0.33807031915E+02 -0.48485481177E+01  0.11565545097E+03  0.12059273263E+03  0.00000000000E+00 0.  1.
         12    1    3    3    0    0 -0.38709575011E+02  0.26656273765E+02  0.14177188428E+03  0.14935948346E+03  0.00000000000E+00 0. -1.
        -11    1    5    5    0    0  0.10481237968E+03 -0.49786426203E+02  0.31200688056E+03  0.33288529058E+03  0.00000000000E+00 0.  1.
         12    1    5    5    0    0  0.12644546685E+02  0.34806820400E+02  0.12414459816E+03  0.12955030127E+03  0.00000000000E+00 0. -1.
          5    1    4    4  501    0 -0.91095902409E+02 -0.15723820521E+03  0.24300786659E+03  0.30347525408E+03  0.47000000000E+01 0. -1.
         -5    1    4    4    0  501 -0.13652491397E+02 -0.78012705574E+01 -0.14706736989E+02  0.22036979296E+02  0.47000000000E+01 0. -1.
          1    1    1    2  502    0  0.20149662145E+01  0.13425341611E+03  0.15663143154E+04  0.15720587058E+04  0.00000000000E+00 0. -1.
          1    1    1    2  503    0 -0.98209556750E+01  0.23957939820E+02 -0.65088533538E+03  0.65140014880E+03  0.00000000000E+00 0. -1.
<mgrwt>
<rscale>  0 0.53720782E+02</rscale>
<asrwt>0</asrwt>
<pdfrwt beam="1">  1        2 0.37637263E+00 0.11145681E+03</pdfrwt>
<pdfrwt beam="2">  1        2 0.10618015E+00 0.25892741E+02</pdfrwt>
<totfact> 0.34259535E+01</totfact>
</mgrwt>
</event>
<event>
13    1  0.2038932E-008  0.1358099E+03  0.7546771E-02  0.1308228E+00
          2   -1    0    0  503    0  0.00000000000E+00  0.00000000000E+00  0.27889805303E+04  0.27889805303E+04  0.00000000000E+00 0. -1.
         -1   -1    0    0    0  501 -0.00000000000E+00 -0.00000000000E+00 -0.11479523510E+04  0.11479523510E+04  0.00000000000E+00 0.  1.
         24    2    1    2    0    0  0.21152931319E+03 -0.23408207469E+03  0.13690132236E+03  0.35332105502E+03  0.80961273612E+02 0.  0.
         25    2    1    2    0    0 -0.25805916355E+03 -0.16633769622E+02  0.12233859420E+04  0.12566501942E+04  0.12500133333E+03 0.  0.
         24    2    1    2    0    0 -0.41196273003E+02  0.90225197519E+02  0.15891084944E+03  0.20394170855E+03  0.80634007977E+02 0.  0.
        -11    1    5    5    0    0  0.20589334093E+02  0.28530661920E+01  0.24261035373E+02  0.31947746438E+02  0.00000000000E+00 0.  1.
         12    1    5    5    0    0 -0.61785607096E+02  0.87372131327E+02  0.13464981406E+03  0.17199396212E+03  0.00000000000E+00 0. -1.
        -11    1    3    3    0    0  0.10775983168E+02 -0.24994587866E+02  0.38627029758E+02  0.47253557155E+02  0.00000000000E+00 0.  1.
         12    1    3    3    0    0  0.20075333002E+03 -0.20908748683E+03  0.98274292598E+02  0.30606749786E+03  0.00000000000E+00 0. -1.
          5    1    4    4  502    0 -0.79677586571E+02 -0.23940802437E+02  0.66993684196E+03  0.67509935716E+03  0.47000000000E+01 0.  1.
         -5    1    4    4    0  502 -0.17838157698E+03  0.73070328144E+01  0.55344910001E+03  0.58155083702E+03  0.47000000000E+01 0.  1.
          1    1    1    2  503    0  0.47465852359E+02  0.31165228456E+02  0.11171168304E+04  0.11185590246E+04  0.00000000000E+00 0. -1.
         -2    1    1    2    0  501  0.40260271009E+02  0.12932541834E+03 -0.99528676486E+03  0.10044608990E+04  0.00000000000E+00 0.  1.
<mgrwt>
<rscale>  0 0.87816038E+02</rscale>
<asrwt>0</asrwt>
<pdfrwt beam="1">  1        2 0.41014420E+00 0.56782732E+02</pdfrwt>
<pdfrwt beam="2">  1       -1 0.16881652E+00 0.13580989E+03</pdfrwt>
<totfact> 0.13540421E+00</totfact>
</mgrwt>
</event>
<event>
13    1  0.2038932E-008  0.5613892E+02  0.7546771E-02  0.1417016E+00
          2   -1    0    0  503    0  0.00000000000E+00  0.00000000000E+00  0.24715349867E+04  0.24715349867E+04  0.00000000000E+00 0. -1.
         -3   -1    0    0    0  501 -0.00000000000E+00 -0.00000000000E+00 -0.22386054259E+03  0.22386054259E+03  0.00000000000E+00 0.  1.
         24    2    1    2    0    0  0.35863149928E+02 -0.66175902363E+02  0.30777365640E+02  0.11463499674E+03  0.80799261538E+02 0.  0.
         25    2    1    2    0    0 -0.18270629322E+03  0.57617496357E+02  0.24731831633E+03  0.33688782205E+03  0.12500275832E+03 0.  0.
         24    2    1    2    0    0  0.52917256251E+02  0.20762294347E+02  0.36666857106E+03  0.37946262414E+03  0.79465295816E+02 0.  0.
        -11    1    5    5    0    0  0.57282099236E+02 -0.16409748964E+02  0.24654532171E+03  0.25364367608E+03  0.00000000000E+00 0.  1.
         12    1    5    5    0    0 -0.43648429850E+01  0.37172043311E+02  0.12012324934E+03  0.12581894806E+03  0.00000000000E+00 0. -1.
        -11    1    3    3    0    0  0.31038797772E+02  0.97878626274E+01  0.18789489906E+02  0.37579970102E+02  0.00000000000E+00 0.  1.
         12    1    3    3    0    0  0.48243521556E+01 -0.75963764991E+02  0.11987875734E+02  0.77055026636E+02  0.00000000000E+00 0. -1.
          5    1    4    4  502    0 -0.95425435724E+02  0.32573054979E+02  0.21983269149E+03  0.24189981385E+03  0.47000000000E+01 0.  1.
         -5    1    4    4    0  502 -0.87280857497E+02  0.25044441378E+02  0.27485624839E+02  0.94988008201E+02  0.47000000000E+01 0.  1.
          1    1    1    2  503    0  0.43697821852E+02 -0.35049637783E+02  0.17273640399E+04  0.17282721149E+04  0.00000000000E+00 0. -1.
         -4    1    1    2    0  501  0.50228065190E+02  0.22845749443E+02 -0.12445384880E+03  0.13613797149E+03  0.00000000000E+00 0.  1.
<mgrwt>
<rscale>  0 0.55657189E+02</rscale>
<asrwt>0</asrwt>
<pdfrwt beam="1">  1        2 0.36346101E+00 0.56138925E+02</pdfrwt>
<pdfrwt beam="2">  1       -3 0.32920670E-01 0.55179587E+02</pdfrwt>
<totfact> 0.29687573E+01</totfact>
</mgrwt>
</event>
<event>
13    1  0.2038932E-008  0.1581041E+03  0.7546771E-02  0.1369672E+00
          2   -1    0    0  502    0  0.00000000000E+00  0.00000000000E+00  0.20449012581E+04  0.20449012581E+04  0.00000000000E+00 0. -1.
          2   -1    0    0  503    0 -0.00000000000E+00 -0.00000000000E+00 -0.17986417393E+04  0.17986417393E+04  0.00000000000E+00 0. -1.
         24    2    1    2    0    0  0.12982588671E+03 -0.61684525032E+02 -0.62224176861E+03  0.64370602996E+03  0.80702496285E+02 0.  0.
         25    2    1    2    0    0 -0.30028172507E+03 -0.90935324360E+02  0.11057426237E+04  0.11561708422E+04  0.12500367548E+03 0.  0.
         24    2    1    2    0    0 -0.56675156646E+01  0.15946046987E+03 -0.60716630204E+03  0.63285182301E+03  0.79942162612E+02 0.  0.
        -11    1    5    5    0    0  0.33249649457E+02  0.39129731818E+02 -0.20076208891E+03  0.20722473656E+03  0.00000000000E+00 0.  1.
         12    1    5    5    0    0 -0.38917165122E+02  0.12033073805E+03 -0.40640421313E+03  0.42562708644E+03  0.00000000000E+00 0. -1.
        -13    1    3    3    0    0 -0.57583844537E+01  0.78317722600E+01 -0.17029279785E+02  0.19608468024E+02  0.00000000000E+00 0.  1.
         14    1    3    3    0    0  0.13558427116E+03 -0.69516297292E+02 -0.60521248883E+03  0.62409756193E+03  0.00000000000E+00 0. -1.
          5    1    4    4  501    0 -0.14963162351E+03  0.19340663035E+02  0.48698790856E+03  0.50984605234E+03  0.47000000000E+01 0. -1.
         -5    1    4    4    0  501 -0.15065010156E+03 -0.11027598740E+03  0.61875471513E+03  0.64632478986E+03  0.47000000000E+01 0. -1.
          1    1    1    2  502    0  0.15732487722E+03  0.14729624641E+02  0.88295727888E+03  0.89698474634E+03  0.00000000000E+00 0. -1.
          1    1    1    2  503    0  0.18798476812E+02 -0.21570245120E+02 -0.51303231311E+03  0.51382955589E+03  0.00000000000E+00 0. -1.
<mgrwt>
<rscale>  0 0.67258512E+02</rscale>
<asrwt>0</asrwt>
<pdfrwt beam="1">  1        2 0.30072077E+00 0.15810413E+03</pdfrwt>
<pdfrwt beam="2">  1        2 0.26450614E+00 0.28612204E+02</pdfrwt>
<totfact> 0.16814380E+01</totfact>
</mgrwt>
</event>
<event>
13    1  0.2038932E-008  0.3352293E+03  0.7546771E-02  0.1284220E+00
          2   -1    0    0  502    0  0.00000000000E+00  0.00000000000E+00  0.25262732211E+04  0.25262732211E+04  0.00000000000E+00 0. -1.
          2   -1    0    0  503    0 -0.00000000000E+00 -0.00000000000E+00 -0.14817104088E+04  0.14817104088E+04  0.00000000000E+00 0. -1.
         24    2    1    2    0    0 -0.16579464274E+03  0.35562745624E+03 -0.58222976009E+03  0.70668559105E+03  0.80338532893E+02 0.  0.
         25    2    1    2    0    0 -0.47410111639E+03 -0.58885027707E+03  0.84028783991E+03  0.11372009873E+04  0.12500365700E+03 0.  0.
         24    2    1    2    0    0  0.29427935103E+03  0.25518921232E+03  0.17311287253E+03  0.43375762431E+03  0.80347616559E+02 0.  0.
        -11    1    3    3    0    0 -0.13998474661E+03  0.33071991511E+03 -0.48831347882E+03  0.60615298822E+03  0.00000000000E+00 0.  1.
         12    1    3    3    0    0 -0.25809896137E+02  0.24907541136E+02 -0.93916281278E+02  0.10053260284E+03  0.00000000000E+00 0. -1.
        -13    1    5    5    0    0  0.18365210472E+03  0.20788968974E+03  0.11940416308E+03  0.30199929276E+03  0.00000000000E+00 0.  1.
         14    1    5    5    0    0  0.11062724631E+03  0.47299522581E+02  0.53708709454E+02  0.13175833155E+03  0.00000000000E+00 0. -1.
          5    1    4    4  501    0 -0.22722510410E+03 -0.36166886471E+03  0.41571416452E+03  0.59605031014E+03  0.47000000000E+01 0.  1.
         -5    1    4    4    0  501 -0.24687601229E+03 -0.22718141236E+03  0.42457367539E+03  0.54115067717E+03  0.47000000000E+01 0.  1.
          1    1    1    2  502    0  0.14079101750E+02  0.25056416229E+02  0.11214709787E+04  0.11218392047E+04  0.00000000000E+00 0. -1.
          1    1    1    2  503    0  0.33153730636E+03 -0.47022807717E+02 -0.50807911871E+03  0.60850022253E+03  0.00000000000E+00 0. -1.
<mgrwt>
<rscale>  0 0.98157142E+02</rscale>
<asrwt>0</asrwt>
<pdfrwt beam="1">  1        2 0.37151077E+00 0.28741000E+02</pdfrwt>
<pdfrwt beam="2">  1        2 0.21789859E+00 0.33522927E+03</pdfrwt>
<totfact> 0.14130891E+01</totfact>
</mgrwt>
</event>
<event>
13    1  0.2423260E-008  0.1281151E+03  0.7546771E-02  0.1283520E+00
          2   -1    0    0  503    0  0.00000000000E+00  0.00000000000E+00  0.24319313525E+04  0.24319313525E+04  0.00000000000E+00 0. -1.
          2   -1    0    0  502    0 -0.00000000000E+00 -0.00000000000E+00 -0.27165895780E+04  0.27165895780E+04  0.00000000000E+00 0. -1.
         24    2    1    2    0    0  0.54160521687E+02 -0.19986508966E+01 -0.97355177034E+02  0.13769716246E+03  0.80901924199E+02 0.  0.
         25    2    1    2    0    0  0.61756324563E+02 -0.94201448817E+02 -0.21628494122E+03  0.27403347772E+03  0.12500965776E+03 0.  0.
         24    2    1    2    0    0  0.50545821867E+02 -0.71448447765E+02  0.10558863444E+04  0.10626622461E+04  0.81824912502E+02 0.  0.
        -13    1    5    5    0    0  0.65248135572E+02 -0.23001140497E+02  0.61005797875E+03  0.61396832907E+03  0.00000000000E+00 0.  1.
         14    1    5    5    0    0 -0.14702313706E+02 -0.48447307268E+02  0.44582836564E+03  0.44869391707E+03  0.00000000000E+00 0. -1.
        -13    1    3    3    0    0  0.65059746661E+02 -0.13357753296E+02 -0.10160896005E+03  0.12139020130E+03  0.00000000000E+00 0.  1.
         14    1    3    3    0    0 -0.10899224974E+02  0.11359102399E+02  0.42537830161E+01  0.16306961161E+02  0.00000000000E+00 0. -1.
          5    1    4    4  501    0  0.70942084599E+02 -0.69855379721E+01 -0.54160048484E+02  0.89649193860E+02  0.47000000000E+01 0.  1.
         -5    1    4    4    0  501 -0.91857600363E+01 -0.87215910845E+02 -0.16212489273E+03  0.18438428386E+03  0.47000000000E+01 0.  1.
          1    1    1    2  502    0 -0.93142006148E+02 -0.36891892641E+02 -0.23405200805E+04  0.23426631624E+04  0.00000000000E+00 0. -1.
          1    1    1    2  503    0 -0.73320661968E+02  0.20454044012E+03  0.13136156289E+04  0.13314648818E+04  0.00000000000E+00 0. -1.
<mgrwt>
<rscale>  0 0.98482421E+02</rscale>
<asrwt>0</asrwt>
<pdfrwt beam="1">  1        2 0.35763697E+00 0.12811508E+03</pdfrwt>
<pdfrwt beam="2">  1        2 0.39949846E+00 0.75703712E+02</pdfrwt>
<totfact> 0.36091705E+00</totfact>
</mgrwt>
</event>
<event>
13    1  0.2038932E-008  0.5600964E+02  0.7546771E-02  0.1496597E+00
          2   -1    0    0  503    0  0.00000000000E+00  0.00000000000E+00  0.29764511155E+04  0.29764511155E+04  0.00000000000E+00 0. -1.
         -1   -1    0    0    0  501 -0.00000000000E+00 -0.00000000000E+00 -0.42043267422E+03  0.42043267422E+03  0.00000000000E+00 0.  1.
         24    2    1    2    0    0 -0.90442064858E+01  0.18665563204E+02 -0.25854982255E+03  0.27089057047E+03  0.78124832872E+02 0.  0.
         25    2    1    2    0    0  0.17077400773E+02 -0.42899715654E+02  0.75520019213E+03  0.76686688394E+03  0.12500185707E+03 0.  0.
         24    2    1    2    0    0  0.58518213125E+00 -0.71018968481E+01 -0.32586654425E+02  0.84631026283E+02  0.77780082194E+02 0.  0.
        -13    1    5    5    0    0  0.82375980907E+01  0.28072648811E+02  0.80498065655E+01  0.30343549880E+02  0.00000000000E+00 0.  1.
         14    1    5    5    0    0 -0.76524159595E+01 -0.35174545659E+02 -0.40636460990E+02  0.54287476403E+02  0.00000000000E+00 0. -1.
        -13    1    3    3    0    0  0.25331585328E+02 -0.17604875412E+02 -0.10081495550E+03  0.10542900979E+03  0.00000000000E+00 0.  1.
         14    1    3    3    0    0 -0.34375791813E+02  0.36270438617E+02 -0.15773486705E+03  0.16546156068E+03  0.00000000000E+00 0. -1.
          5    1    4    4  502    0  0.35430822413E+02 -0.70539623482E+02  0.29394334124E+03  0.30439441440E+03  0.47000000000E+01 0.  1.
         -5    1    4    4    0  502 -0.18353421640E+02  0.27639907828E+02  0.46125685089E+03  0.46247246954E+03  0.47000000000E+01 0.  1.
          1    1    1    2  503    0 -0.37911966396E+02  0.41268437533E+02  0.21802339030E+04  0.21809539823E+04  0.00000000000E+00 0. -1.
         -2    1    1    2    0  501  0.29293589978E+02 -0.99323882361E+01 -0.88279176834E+02  0.93541326762E+02  0.00000000000E+00 0.  1.
<mgrwt>
<rscale>  0 0.41622955E+02</rscale>
<asrwt>0</asrwt>
<pdfrwt beam="1">  1        2 0.43771339E+00 0.56009639E+02</pdfrwt>
<pdfrwt beam="2">  1       -1 0.61828336E-01 0.30931646E+02</pdfrwt>
<totfact> 0.10668098E+01</totfact>
</mgrwt>
</event>
<event>
13    1  0.2038932E-008  0.2045327E+03  0.7546771E-02  0.1233948E+00
          2   -1    0    0  503    0  0.00000000000E+00  0.00000000000E+00  0.29226222687E+04  0.29226222687E+04  0.00000000000E+00 0. -1.
          2   -1    0    0  502    0 -0.00000000000E+00 -0.00000000000E+00 -0.95069880168E+03  0.95069880168E+03  0.00000000000E+00 0. -1.
         24    2    1    2    0    0 -0.20081441240E+03  0.28917034730E+03  0.19269286639E+03  0.40888417559E+03  0.78165275559E+02 0.  0.
         25    2    1    2    0    0  0.13879947654E+03 -0.43773502116E+03  0.16765457949E+04  0.17427871026E+04  0.12499535704E+03 0.  0.
         24    2    1    2    0    0  0.14598174959E+03 -0.12104183536E+03  0.10126370485E+03  0.22923904936E+03  0.79588986126E+02 0.  0.
        -11    1    3    3    0    0 -0.14378784857E+03  0.14634156686E+03  0.12951346361E+03  0.24262014929E+03  0.00000000000E+00 0.  1.
         12    1    3    3    0    0 -0.57026563838E+02  0.14282878044E+03  0.63179402781E+02  0.16626402630E+03  0.00000000000E+00 0. -1.
        -11    1    5    5    0    0  0.15481408274E+03 -0.10411332995E+03  0.91839516111E+02  0.20794586412E+03  0.00000000000E+00 0.  1.
         12    1    5    5    0    0 -0.88323331469E+01 -0.16928505411E+02  0.94241887341E+01  0.21293185238E+02  0.00000000000E+00 0. -1.
          5    1    4    4  501    0  0.46191924774E+02 -0.39513326665E+02  0.32803439689E+03  0.33365199301E+03  0.47000000000E+01 0. -1.
         -5    1    4    4    0  501  0.92607551770E+02 -0.39822169449E+03  0.13485113980E+04  0.14091351096E+04  0.47000000000E+01 0. -1.
          1    1    1    2  502    0 -0.61230894303E+02  0.19574999374E+03 -0.72931161972E+03  0.75760327423E+03  0.00000000000E+00 0. -1.
          1    1    1    2  503    0 -0.22735919428E+02  0.73856515476E+02  0.73073272065E+03  0.73480746862E+03  0.00000000000E+00 0. -1.
<mgrwt>
<rscale>  0 0.12572046E+03</rscale>
<asrwt>0</asrwt>
<pdfrwt beam="1">  1        2 0.42979739E+00 0.77276820E+02</pdfrwt>
<pdfrwt beam="2">  1        2 0.13980865E+00 0.20453266E+03</pdfrwt>
<totfact> 0.15663170E+01</totfact>
</mgrwt>
</event>
<event>
13    1  0.2038932E-008  0.8128379E+02  0.7546771E-02  0.1470898E+00
          2   -1    0    0  503    0  0.00000000000E+00  0.00000000000E+00  0.97077745445E+03  0.97077745445E+03  0.00000000000E+00 0. -1.
          2   -1    0    0  502    0 -0.00000000000E+00 -0.00000000000E+00 -0.12425130197E+04  0.12425130197E+04  0.00000000000E+00 0. -1.
         24    2    1    2    0    0  0.19369722015E+03  0.14291398932E+02 -0.59495613128E+03  0.63300388855E+03  0.94859198731E+02 0.  0.
         25    2    1    2    0    0 -0.96193142166E+02 -0.52229089130E+02  0.23395700399E+03  0.28695268723E+03  0.12499986657E+03 0.  0.
         24    2    1    2    0    0 -0.11749192599E+03 -0.50897386876E+02  0.46066981405E+03  0.48473374689E+03  0.79719703543E+02 0.  0.
        -11    1    5    5    0    0 -0.11545822664E+03 -0.39520636731E+02  0.30315772232E+03  0.32679823658E+03  0.00000000000E+00 0.  1.
         12    1    5    5    0    0 -0.20336993494E+01 -0.11376750145E+02  0.15751209173E+03  0.15793551031E+03  0.00000000000E+00 0. -1.
        -11    1    3    3    0    0  0.18086873063E+03  0.44521231365E+01 -0.42011137360E+03  0.45741325445E+03  0.00000000000E+00 0.  1.
         12    1    3    3    0    0  0.12828489517E+02  0.98392757956E+01 -0.17484475768E+03  0.17559063409E+03  0.00000000000E+00 0. -1.
          5    1    4    4  501    0 -0.10397153387E+03 -0.95959611588E+01  0.21570773616E+03  0.23969580673E+03  0.47000000000E+01 0. -1.
         -5    1    4    4    0  501  0.77783917040E+01 -0.42633127971E+02  0.18249267823E+02  0.47256880496E+02  0.47000000000E+01 0. -1.
          1    1    1    2  502    0  0.38693402916E+02  0.71456430380E+02 -0.58644641755E+03  0.59204949246E+03  0.00000000000E+00 0. -1.
          1    1    1    2  503    0 -0.18705554906E+02  0.17378646693E+02  0.21504016553E+03  0.21655065905E+03  0.00000000000E+00 0. -1.
<mgrwt>
<rscale>  0 0.45556436E+02</rscale>
<asrwt>0</asrwt>
<pdfrwt beam="1">  1        2 0.14276139E+00 0.25532629E+02</pdfrwt>
<pdfrwt beam="2">  1        2 0.18272250E+00 0.81283789E+02</pdfrwt>
<totfact> 0.11128142E+02</totfact>
</mgrwt>
</event>
<event>
13    1  0.2038932E-008  0.9473798E+02  0.7546771E-02  0.1453159E+00
          4   -1    0    0  503    0 -0.00000000000E+00  0.00000000000E+00  0.14021148255E+03  0.14021148255E+03  0.00000000000E+00 0. -1.
          2   -1    0    0  502    0  0.00000000000E+00 -0.00000000000E+00 -0.19545552079E+04  0.19545552079E+04  0.00000000000E+00 0. -1.
         24    2    1    2    0    0 -0.11982353670E+03 -0.10640410576E+03 -0.40992102541E+03  0.44844303316E+03  0.85944128615E+02 0.  0.
         25    2    1    2    0    0  0.16468759171E+03  0.49805932545E+02 -0.54276076228E+03  0.58293831882E+03  0.12500081881E+03 0.  0.
         24    2    1    2    0    0  0.10302589929E+02 -0.31640706773E+02 -0.99509256407E+02  0.13247764243E+03  0.80876176650E+02 0.  0.
        -11    1    3    3    0    0 -0.72978578395E+01 -0.58365610754E+02 -0.15162622488E+03  0.16263552908E+03  0.00000000000E+00 0.  1.
         12    1    3    3    0    0 -0.11252567886E+03 -0.48038495006E+02 -0.25829480053E+03  0.28580750408E+03  0.00000000000E+00 0. -1.
        -13    1    5    5    0    0  0.19266794584E+02 -0.57014645419E+02 -0.74167553069E+02  0.95512853030E+02  0.00000000000E+00 0.  1.
         14    1    5    5    0    0 -0.89642046553E+01  0.25373938646E+02 -0.25341703338E+02  0.36964789403E+02  0.00000000000E+00 0. -1.
          5    1    4    4  501    0  0.17192244090E+03  0.34139486388E+02 -0.37210402046E+03  0.41134696092E+03  0.47000000000E+01 0. -1.
         -5    1    4    4    0  501 -0.72348491950E+01  0.15666446158E+02 -0.17065674182E+03  0.17159135791E+03  0.47000000000E+01 0. -1.
          1    1    1    2  502    0  0.23219704833E+02 -0.90201954667E+01 -0.79999790368E+03  0.80038563487E+03  0.00000000000E+00 0. -1.
          3    1    1    2  503    0 -0.78386349765E+02  0.97259075454E+02  0.37845222441E+02  0.13052206116E+03  0.00000000000E+00 0. -1.
<mgrwt>
<rscale>  0 0.48579245E+02</rscale>
<asrwt>0</asrwt>
<pdfrwt beam="2">  1        2 0.28743458E+00 0.24910211E+02</pdfrwt>
<pdfrwt beam="1">  1        4 0.20619336E-01 0.94737979E+02</pdfrwt>
<totfact> 0.11703932E+02</totfact>
</mgrwt>
</event>
<event>
13    1  0.2038932E-008  0.1544786E+03  0.7546771E-02  0.1345400E+00
          2   -1    0    0  502    0  0.00000000000E+00  0.00000000000E+00  0.27713355458E+04  0.27713355458E+04  0.00000000000E+00 0. -1.
          2   -1    0    0  503    0 -0.00000000000E+00 -0.00000000000E+00 -0.13987226667E+04  0.13987226667E+04  0.00000000000E+00 0. -1.
         24    2    1    2    0    0 -0.11473911308E+03  0.78900989270E+02 -0.43339956592E+03  0.46254260639E+03  0.81975903810E+02 0.  0.
         25    2    1    2    0    0  0.37458378427E+03  0.51533598101E+02  0.14285250245E+04  0.14829955366E+04  0.12499317070E+03 0.  0.
         24    2    1    2    0    0 -0.43003397202E+02  0.19798929288E+02 -0.31168924220E+03  0.32584298057E+03  0.82353958682E+02 0.  0.
        -11    1    3    3    0    0 -0.22394499063E+02  0.44196317231E+02 -0.24412643760E+03  0.24910348367E+03  0.00000000000E+00 0.  1.
         12    1    3    3    0    0 -0.92344614015E+02  0.34704672039E+02 -0.18927312833E+03  0.21343912272E+03  0.00000000000E+00 0. -1.
        -13    1    5    5    0    0 -0.50340723944E+02  0.44799308479E+02 -0.19616901798E+03  0.20742094914E+03  0.00000000000E+00 0.  1.
         14    1    5    5    0    0  0.73373267417E+01 -0.25000379191E+02 -0.11552022423E+03  0.11842203144E+03  0.00000000000E+00 0. -1.
          5    1    4    4  501    0  0.61197892981E+02  0.23838189834E+02  0.45883926702E+03  0.46353964702E+03  0.47000000000E+01 0.  1.
         -5    1    4    4    0  501  0.31338589129E+03  0.27695408266E+02  0.96968575748E+03  0.10194558896E+04  0.47000000000E+01 0.  1.
          1    1    1    2  502    0 -0.35852510095E+02  0.24632117411E+01  0.12704827299E+04  0.12709908878E+04  0.00000000000E+00 0. -1.
          1    1    1    2  503    0 -0.18098876390E+03 -0.15269672840E+03 -0.58130606710E+03  0.62768620119E+03  0.00000000000E+00 0. -1.
<mgrwt>
<rscale>  0 0.74508405E+02</rscale>
<asrwt>0</asrwt>
<pdfrwt beam="1">  1        2 0.40754935E+00 0.35937027E+02</pdfrwt>
<pdfrwt beam="2">  1        2 0.20569451E+00 0.15447862E+03</pdfrwt>
<totfact> 0.12117983E+01</totfact>
</mgrwt>
</event>
<event>
13    1  0.2038932E-008  0.1066047E+03  0.7546771E-02  0.1289430E+00
          4   -1    0    0  503    0  0.00000000000E+00  0.00000000000E+00  0.11827900204E+04  0.11827900204E+04  0.00000000000E+00 0. -1.
         -3   -1    0    0    0  501 -0.00000000000E+00 -0.00000000000E+00 -0.10270469403E+04  0.10270469403E+04  0.00000000000E+00 0.  1.
         24    2    1    2    0    0 -0.52871340254E+02  0.27292252097E+02 -0.33383328369E+03  0.34870435719E+03  0.81300810446E+02 0.  0.
         25    2    1    2    0    0  0.55826091725E+02 -0.12932946221E+03  0.45502678191E+02  0.19373387045E+03  0.12497862426E+03 0.  0.
         24    2    1    2    0    0  0.61279846851E+02 -0.95280205919E+01 -0.19216122116E+02  0.10689963924E+03  0.84925088831E+02 0.  0.
        -11    1    5    5    0    0  0.30735849745E+02  0.37359052421E+02 -0.15575159937E+02  0.50822995429E+02  0.00000000000E+00 0.  1.
         12    1    5    5    0    0  0.30543997107E+02 -0.46887073013E+02 -0.36409621793E+01  0.56076643806E+02  0.00000000000E+00 0. -1.
        -11    1    3    3    0    0 -0.56398557798E+02  0.12864350229E+02 -0.10915643819E+03  0.12353710708E+03  0.00000000000E+00 0.  1.
         12    1    3    3    0    0  0.35272175444E+01  0.14427901867E+02 -0.22467684550E+03  0.22516725010E+03  0.00000000000E+00 0. -1.
          5    1    4    4  502    0 -0.12897659153E+02 -0.97035216975E+02 -0.11493723691E+02  0.98673089692E+02  0.47000000000E+01 0.  1.
         -5    1    4    4    0  502  0.68723750878E+02 -0.32294245234E+02  0.56996401883E+02  0.95060780754E+02  0.47000000000E+01 0.  1.
          3    1    1    2  503    0 -0.12040015284E+03  0.22239304036E+02  0.10030637143E+04  0.10105085841E+04  0.00000000000E+00 0. -1.
         -4    1    1    2    0  501  0.56165554515E+02  0.89325926669E+02 -0.53977390655E+03  0.54999050981E+03  0.00000000000E+00 0.  1.
<mgrwt>
<rscale>  0 0.95779487E+02</rscale>
<asrwt>0</asrwt>
<pdfrwt beam="1">  1        4 0.17393971E+00 0.86053556E+02</pdfrwt>
<pdfrwt beam="2">  1       -3 0.15103631E+00 0.10660466E+03</pdfrwt>
<totfact> 0.15248270E-01</totfact>
</mgrwt>
</event>
<event>
13    1  0.2038932E-008  0.5891348E+02  0.7546771E-02  0.1464446E+00
          2   -1    0    0  502    0  0.00000000000E+00  0.00000000000E+00  0.41795423547E+04  0.41795423547E+04  0.00000000000E+00 0. -1.
          2   -1    0    0  503    0 -0.00000000000E+00 -0.00000000000E+00 -0.23067917810E+03  0.23067917810E+03  0.00000000000E+00 0. -1.
         24    2    1    2    0    0  0.44217148926E+02 -0.10040983455E+03  0.10798172432E+03  0.17378819288E+03  0.80653531003E+02 0.  0.
         25    2    1    2    0    0  0.39747007211E+02 -0.13606075073E+03  0.60440467345E+03  0.63326296881E+03  0.12499850362E+03 0.  0.
         24    2    1    2    0    0 -0.74344461319E+02  0.26054000749E+03  0.41615342602E+02  0.28551645021E+03  0.79872474423E+02 0.  0.
        -11    1    3    3    0    0  0.44568213077E+02 -0.18559510881E+02  0.16465782163E+02  0.51008852597E+02  0.00000000000E+00 0.  1.
         12    1    3    3    0    0 -0.35106415106E+00 -0.81850323670E+02  0.91515942162E+02  0.12277934028E+03  0.00000000000E+00 0. -1.
        -13    1    5    5    0    0 -0.14676672169E+02  0.93408936823E+00  0.87741067966E+01  0.17124899386E+02  0.00000000000E+00 0.  1.
         14    1    5    5    0    0 -0.59667789150E+02  0.25960591812E+03  0.32841235806E+02  0.26839155083E+03  0.00000000000E+00 0. -1.
          5    1    4    4  501    0  0.35513022619E+02 -0.19734681669E+02  0.36215355523E+03  0.36445564888E+03  0.47000000000E+01 0. -1.
         -5    1    4    4    0  501  0.42339845920E+01 -0.11632606906E+03  0.24225111822E+03  0.26880731993E+03  0.47000000000E+01 0. -1.
          1    1    1    2  502    0 -0.42430999957E+02 -0.40950911731E+02  0.32504218137E+04  0.32509566798E+04  0.00000000000E+00 0. -1.
          1    1    1    2  503    0  0.32811305139E+02  0.16881489518E+02 -0.55560377440E+02  0.66697241131E+02  0.00000000000E+00 0. -1.
<mgrwt>
<rscale>  0 0.46624805E+02</rscale>
<asrwt>0</asrwt>
<pdfrwt beam="1">  1        2 0.61463853E+00 0.58913475E+02</pdfrwt>
<pdfrwt beam="2">  1        2 0.33923411E-01 0.36899410E+02</pdfrwt>
<totfact> 0.14282020E+01</totfact>
</mgrwt>
</event>
<event>
13    1  0.2038932E-008  0.9413160E+02  0.7546771E-02  0.1341090E+00
          2   -1    0    0  503    0  0.00000000000E+00  0.00000000000E+00  0.18295659917E+04  0.18295659917E+04  0.00000000000E+00 0. -1.
         -3   -1    0    0    0  501 -0.00000000000E+00 -0.00000000000E+00 -0.85270339412E+03  0.85270339412E+03  0.00000000000E+00 0.  1.
         24    2    1    2    0    0  0.58076129391E+02  0.58335084226E+02  0.12178187511E+02  0.11486946279E+03  0.79188802076E+02 0.  0.
         25    2    1    2    0    0 -0.55335618752E+02 -0.10644917835E+03  0.24238506377E+03  0.29794173346E+03  0.12500119649E+03 0.  0.
         24    2    1    2    0    0  0.26233410313E+02 -0.32113617414E+01  0.55340323875E+03  0.55984625512E+03  0.80462289610E+02 0.  0.
        -13    1    5    5    0    0 -0.25152536150E+02 -0.17239690165E+02  0.16323459009E+03  0.16605838851E+03  0.00000000000E+00 0.  1.
         14    1    5    5    0    0  0.51385946463E+02  0.14028328424E+02  0.39016864866E+03  0.39378786661E+03  0.00000000000E+00 0. -1.
        -13    1    3    3    0    0  0.61230214276E+02  0.12195378230E+02 -0.10584488213E+02  0.63323753688E+02  0.00000000000E+00 0.  1.
         14    1    3    3    0    0 -0.31540848849E+01  0.46139705996E+02  0.22762675724E+02  0.51545709103E+02  0.00000000000E+00 0. -1.
          5    1    4    4  502    0  0.22223710529E+02  0.15957971068E+02  0.47867572110E+02  0.55334840834E+02  0.47000000000E+01 0.  1.
         -5    1    4    4    0  502 -0.77559329281E+02 -0.12240714942E+03  0.19451749166E+03  0.24260689263E+03  0.47000000000E+01 0.  1.
          1    1    1    2  503    0  0.48978096140E+01  0.10230766764E+03  0.93523780027E+03  0.94082973510E+03  0.00000000000E+00 0. -1.
         -4    1    1    2    0  501 -0.33871730566E+02 -0.50982211769E+02 -0.76634169272E+03  0.76878219936E+03  0.00000000000E+00 0.  1.
<mgrwt>
<rscale>  0 0.75905560E+02</rscale>
<asrwt>0</asrwt>
<pdfrwt beam="1">  1        2 0.26905382E+00 0.94131604E+02</pdfrwt>
<pdfrwt beam="2">  1       -3 0.12539756E+00 0.61208497E+02</pdfrwt>
<totfact> 0.36478960E+00</totfact>
</mgrwt>
</event>
<event>
13    1  0.2038932E-008  0.3936746E+03  0.7546771E-02  0.1110037E+00
          2   -1    0    0  502    0  0.00000000000E+00  0.00000000000E+00  0.18501774719E+04  0.18501774719E+04  0.00000000000E+00 0. -1.
          2   -1    0    0  503    0 -0.00000000000E+00 -0.00000000000E+00 -0.17544194636E+04  0.17544194636E+04  0.00000000000E+00 0. -1.
         24    2    1    2    0    0 -0.66719819594E+02  0.32198921028E+02  0.56935916969E+03  0.57939697884E+03  0.77734742141E+02 0.  0.
         25    2    1    2    0    0 -0.22655600065E+03  0.78909249372E+03 -0.44089394074E+03  0.94021551604E+03  0.12499265792E+03 0.  0.
         24    2    1    2    0    0  0.70420710079E+02 -0.24257405578E+03 -0.64294257764E+02  0.27291504323E+03  0.80917367064E+02 0.  0.
        -13    1    5    5    0    0  0.13733534402E+02 -0.18080702420E+03 -0.46854831969E+02  0.18728364917E+03  0.00000000000E+00 0.  1.
         14    1    5    5    0    0  0.56687175676E+02 -0.61767031585E+02 -0.17439425795E+02  0.85631394062E+02  0.00000000000E+00 0. -1.
        -13    1    3    3    0    0 -0.48130247441E+02  0.56696352853E+02  0.34386181104E+03  0.35181236794E+03  0.00000000000E+00 0.  1.
         14    1    3    3    0    0 -0.18589572153E+02 -0.24497431824E+02  0.22549735865E+03  0.22758461090E+03  0.00000000000E+00 0. -1.
          5    1    4    4  501    0 -0.22121973611E+03  0.78515018904E+03 -0.44687923332E+03  0.93011941716E+03  0.47000000000E+01 0. -1.
         -5    1    4    4    0  501 -0.53362645425E+01  0.39423046756E+01  0.59852925723E+01  0.10096098880E+02  0.47000000000E+01 0. -1.
          1    1    1    2  502    0  0.70611371223E+02 -0.27631616628E+03  0.86591149000E+03  0.91166841451E+03  0.00000000000E+00 0. -1.
          1    1    1    2  503    0  0.15224373895E+03 -0.30240119269E+03 -0.83432445291E+03  0.90040098295E+03  0.00000000000E+00 0. -1.
<mgrwt>
<rscale>  0 0.25524038E+03</rscale>
<asrwt>0</asrwt>
<pdfrwt beam="1">  1        2 0.27208492E+00 0.16548604E+03</pdfrwt>
<pdfrwt beam="2">  1        2 0.25800286E+00 0.39367460E+03</pdfrwt>
<totfact> 0.17209944E+01</totfact>
</mgrwt>
</event>
<event>
13    1  0.2038932E-008  0.1123708E+03  0.7546771E-02  0.1346393E+00
          2   -1    0    0  503    0  0.00000000000E+00  0.00000000000E+00  0.12490104108E+04  0.12490104108E+04  0.00000000000E+00 0. -1.
          2   -1    0    0  502    0 -0.00000000000E+00 -0.00000000000E+00 -0.41828753454E+04  0.41828753454E+04  0.00000000000E+00 0. -1.
         24    2    1    2    0    0 -0.55598246588E+02 -0.88361664407E+01 -0.32679871499E+03  0.34114745112E+03  0.80093323226E+02 0.  0.
         25    2    1    2    0    0  0.66977798764E+01  0.12646698560E+03  0.73162811996E+03  0.75295610781E+03  0.12499774264E+03 0.  0.
         24    2    1    2    0    0  0.93396764361E+01 -0.16169267264E+01 -0.17887809705E+03  0.19658426462E+03  0.80982439347E+02 0.  0.
        -11    1    5    5    0    0 -0.13333940124E+02  0.23903751574E+02 -0.14813881744E+03  0.15064624964E+03  0.00000000000E+00 0.  1.
         12    1    5    5    0    0  0.22673616560E+02 -0.25520678301E+02 -0.30739279607E+02  0.45938014972E+02  0.00000000000E+00 0. -1.
        -13    1    3    3    0    0 -0.71011086015E+02 -0.15328946612E+02 -0.30575650978E+03  0.31426834746E+03  0.00000000000E+00 0.  1.
         14    1    3    3    0    0  0.15412839427E+02  0.64927801717E+01 -0.21042205213E+02  0.26879103664E+02  0.00000000000E+00 0. -1.
          5    1    4    4  501    0 -0.54943015005E+02  0.45523997707E+02  0.22137867897E+03  0.23264087940E+03  0.47000000000E+01 0.  1.
         -5    1    4    4    0  501  0.61640794881E+02  0.80942987895E+02  0.51024944099E+03  0.52031522840E+03  0.47000000000E+01 0.  1.
          1    1    1    2  502    0  0.88337650223E+02 -0.12051625668E+03 -0.36477511811E+04  0.36508103741E+04  0.00000000000E+00 0. -1.
          1    1    1    2  503    0 -0.48776859947E+02  0.45023642429E+01  0.48793493857E+03  0.49038755860E+03  0.00000000000E+00 0. -1.
<mgrwt>
<rscale>  0 0.74191624E+02</rscale>
<asrwt>0</asrwt>
<pdfrwt beam="1">  1        2 0.18367800E+00 0.48984215E+02</pdfrwt>
<pdfrwt beam="2">  1        2 0.61512874E+00 0.11237083E+03</pdfrwt>
<totfact> 0.18870130E+00</totfact>
</mgrwt>
</event>
<event>
13    1  0.2038932E-008  0.1433014E+03  0.7546771E-02  0.1215997E+00
          2   -1    0    0  503    0  0.00000000000E+00  0.00000000000E+00  0.11068544516E+04  0.11068544516E+04  0.00000000000E+00 0. -1.
          2   -1    0    0  502    0 -0.00000000000E+00 -0.00000000000E+00 -0.31045339527E+04  0.31045339527E+04  0.00000000000E+00 0. -1.
         24    2    1    2    0    0  0.51204266478E+02 -0.63708881541E+02 -0.51295220995E+03  0.52515655610E+03  0.77386951249E+02 0.  0.
         25    2    1    2    0    0 -0.27696884185E+03  0.69736653643E+02 -0.23544868971E+03  0.39068600340E+03  0.12499811019E+03 0.  0.
         24    2    1    2    0    0 -0.65643205454E+02 -0.86914888303E+02  0.57560315927E+02  0.14626716163E+03  0.78852167829E+02 0.  0.
        -13    1    3    3    0    0  0.37730351596E+02 -0.79491786579E+02 -0.45885457234E+03  0.46721519894E+03  0.00000000000E+00 0.  1.
         14    1    3    3    0    0  0.13473914882E+02  0.15782905038E+02 -0.54097637610E+02  0.57941357152E+02  0.00000000000E+00 0. -1.
        -13    1    5    5    0    0  0.23793521190E+01  0.11642302544E+02  0.15089509647E+02  0.19206713056E+02  0.00000000000E+00 0.  1.
         14    1    5    5    0    0 -0.68022557573E+02 -0.98557190846E+02  0.42470806281E+02  0.12706044858E+03  0.00000000000E+00 0. -1.
          5    1    4    4  501    0 -0.20825324732E+03  0.25588011173E+02 -0.10007244518E+03  0.23250966780E+03  0.47000000000E+01 0. -1.
         -5    1    4    4    0  501 -0.68715594534E+02  0.44148642470E+02 -0.13537624453E+03  0.15817633561E+03  0.47000000000E+01 0. -1.
          1    1    1    2  502    0  0.12674362583E+03  0.78102892972E+02 -0.22181832669E+04  0.22231736356E+04  0.00000000000E+00 0. -1.
          1    1    1    2  503    0  0.16466415499E+03  0.27842232293E+01  0.91134434945E+03  0.92610504755E+03  0.00000000000E+00 0. -1.
<mgrwt>
<rscale>  0 0.13803531E+03</rscale>
<asrwt>0</asrwt>
<pdfrwt beam="1">  1        2 0.16277271E+00 0.13296273E+03</pdfrwt>
<pdfrwt beam="2">  1        2 0.45654911E+00 0.14330140E+03</pdfrwt>
<totfact> 0.94285702E+00</totfact>
</mgrwt>
</event>
<event>
13    1  0.2038932E-008  0.3966915E+02  0.7546771E-02  0.1549432E+00
         -3   -1    0    0    0  501 -0.00000000000E+00  0.00000000000E+00  0.20923833488E+03  0.20923833488E+03  0.00000000000E+00 0.  1.
          2   -1    0    0  503    0  0.00000000000E+00 -0.00000000000E+00 -0.22444535842E+04  0.22444535842E+04  0.00000000000E+00 0. -1.
         24    2    1    2    0    0  0.26729199029E+02  0.14135984244E+03 -0.80326797553E+02  0.18286891318E+03  0.79319542771E+02 0.  0.
         25    2    1    2    0    0 -0.16442555363E+03  0.15639531832E+02 -0.37590880831E+03  0.42919889442E+03  0.12499560458E+03 0.  0.
         24    2    1    2    0    0  0.96703435601E+02 -0.10017327052E+03 -0.40992776561E+03  0.44019296067E+03  0.79641892368E+02 0.  0.
        -11    1    5    5    0    0  0.57761524189E+02 -0.83715001735E+01 -0.11686193391E+03  0.13062613555E+03  0.00000000000E+00 0.  1.
         12    1    5    5    0    0  0.38941911412E+02 -0.91801770344E+02 -0.29306583170E+03  0.30956682512E+03  0.00000000000E+00 0. -1.
        -11    1    3    3    0    0  0.46469948676E+01 -0.69042886777E+01  0.56536387932E+01  0.10061182587E+02  0.00000000000E+00 0.  1.
         12    1    3    3    0    0  0.22082204161E+02  0.14826413112E+03 -0.85980436346E+02  0.17280773059E+03  0.00000000000E+00 0. -1.
          5    1    4    4  502    0 -0.16564704054E+03 -0.15596762953E+02 -0.25724969718E+03  0.30640120390E+03  0.47000000000E+01 0. -1.
         -5    1    4    4    0  502  0.12214869108E+01  0.31236294784E+02 -0.11865911114E+03  0.12279769052E+03  0.47000000000E+01 0. -1.
          1    1    1    2  503    0  0.25315198494E+02 -0.30412634783E+02 -0.12829011116E+04  0.12835112192E+04  0.00000000000E+00 0. -1.
         -4    1    1    2    0  501  0.15677720503E+02 -0.26413468975E+02  0.11384923372E+03  0.11791993166E+03  0.00000000000E+00 0.  1.
<mgrwt>
<rscale>  0 0.34906602E+02</rscale>
<asrwt>0</asrwt>
<pdfrwt beam="2">  1        2 0.33006670E+00 0.39669150E+02</pdfrwt>
<pdfrwt beam="1">  1       -3 0.30770344E-01 0.30715831E+02</pdfrwt>
<totfact> 0.42324886E+01</totfact>
</mgrwt>
</event>
<event>
13    1  0.2038932E-008  0.8083840E+02  0.7546771E-02  0.1331479E+00
          2   -1    0    0  503    0  0.00000000000E+00  0.00000000000E+00  0.83967115343E+03  0.83967115343E+03  0.00000000000E+00 0. -1.
          2   -1    0    0  502    0 -0.00000000000E+00 -0.00000000000E+00 -0.11831371385E+04  0.11831371385E+04  0.00000000000E+00 0. -1.
         24    2    1    2    0    0  0.21240725003E+02 -0.34060525025E+02 -0.43550112492E+03  0.44473761445E+03  0.80740498732E+02 0.  0.
         25    2    1    2    0    0 -0.65402551411E+02 -0.22554201288E+02  0.34455497632E+03  0.37299769529E+03  0.12499185276E+03 0.  0.
         24    2    1    2    0    0  0.11118764319E+01 -0.13721675619E+02 -0.20531548215E+03  0.22109019135E+03  0.80851127696E+02 0.  0.
        -13    1    5    5    0    0 -0.60237805255E+01  0.33549575908E+02 -0.91449901101E+02  0.97595821564E+02  0.00000000000E+00 0.  1.
         14    1    5    5    0    0  0.71356569574E+01 -0.47271251527E+02 -0.11386558105E+03  0.12349436979E+03  0.00000000000E+00 0. -1.
        -13    1    3    3    0    0  0.44397716596E+01 -0.49838256491E+02 -0.14630335208E+03  0.15462287739E+03  0.00000000000E+00 0.  1.
         14    1    3    3    0    0  0.16800953344E+02  0.15777731465E+02 -0.28919777284E+03  0.29011473706E+03  0.00000000000E+00 0. -1.
          5    1    4    4  501    0 -0.34616216805E+02  0.28436585910E+02  0.33189623758E+02  0.55951434381E+02  0.47000000000E+01 0.  1.
         -5    1    4    4    0  501 -0.30786334606E+02 -0.50990787198E+02  0.31136535257E+03  0.31704626091E+03  0.47000000000E+01 0.  1.
          1    1    1    2  502    0  0.81093337666E+02  0.28180420644E+01 -0.50915316784E+03  0.51557833459E+03  0.00000000000E+00 0. -1.
          1    1    1    2  503    0 -0.38043387691E+02  0.67518359868E+02  0.46194881355E+03  0.46840445622E+03  0.00000000000E+00 0. -1.
<mgrwt>
<rscale>  0 0.79150871E+02</rscale>
<asrwt>0</asrwt>
<pdfrwt beam="1">  1        2 0.12348105E+00 0.77498569E+02</pdfrwt>
<pdfrwt beam="2">  1        2 0.17399076E+00 0.80838401E+02</pdfrwt>
<totfact> 0.13590877E+02</totfact>
</mgrwt>
</event>
<event>
13    1  0.2038932E-008  0.9293138E+02  0.7546771E-02  0.1434904E+00
          2   -1    0    0  503    0  0.00000000000E+00  0.00000000000E+00  0.19296024859E+04  0.19296024859E+04  0.00000000000E+00 0. -1.
          2   -1    0    0  502    0 -0.00000000000E+00 -0.00000000000E+00 -0.36940571042E+03  0.36940571042E+03  0.00000000000E+00 0. -1.
         24    2    1    2    0    0 -0.16387305743E+03  0.13367970145E+02  0.77748178501E+02  0.19818110897E+03  0.78726686170E+02 0.  0.
         25    2    1    2    0    0 -0.23603014149E+03 -0.17623671547E+03  0.23627734120E+03  0.39777126164E+03  0.12500154821E+03 0.  0.
         24    2    1    2    0    0  0.33371037049E+03  0.77641253033E+02  0.12576230915E+04  0.13051242990E+04  0.65900076384E+02 0.  0.
        -11    1    5    5    0    0  0.28412701684E+03  0.89131538862E+02  0.10568471245E+04  0.10979974670E+04  0.00000000000E+00 0.  1.
         12    1    5    5    0    0  0.49583353651E+02 -0.11490285829E+02  0.20077596696E+03  0.20712683201E+03  0.00000000000E+00 0. -1.
        -13    1    3    3    0    0 -0.25678118766E+02  0.10342708044E+02 -0.15226400939E+02  0.31593997509E+02  0.00000000000E+00 0.  1.
         14    1    3    3    0    0 -0.13819493866E+03  0.30252621012E+01  0.92974579440E+02  0.16658711146E+03  0.00000000000E+00 0. -1.
          5    1    4    4  501    0 -0.22675118833E+02 -0.23176584321E+02 -0.13408132073E+02  0.35400325995E+02  0.47000000000E+01 0. -1.
         -5    1    4    4    0  501 -0.21335502266E+03 -0.15306013115E+03  0.24968547327E+03  0.36237093565E+03  0.47000000000E+01 0. -1.
          1    1    1    2  502    0  0.37109673372E+02  0.85122776353E+02 -0.19294231724E+03  0.21412555357E+03  0.00000000000E+00 0. -1.
          1    1    1    2  503    0  0.29083155058E+02  0.10471593986E+00  0.18149048154E+03  0.18380597314E+03  0.00000000000E+00 0. -1.
<mgrwt>
<rscale>  0 0.51988029E+02</rscale>
<asrwt>0</asrwt>
<pdfrwt beam="1">  1        2 0.28376507E+00 0.29083344E+02</pdfrwt>
<pdfrwt beam="2">  1        2 0.54324370E-01 0.92931378E+02</pdfrwt>
<totfact> 0.16094119E+02</totfact>
</mgrwt>
</event>
<event>
13    1  0.2038932E-008  0.1143009E+03  0.7546771E-02  0.1259483E+00
          2   -1    0    0  503    0  0.00000000000E+00  0.00000000000E+00  0.25761143660E+04  0.25761143660E+04  0.00000000000E+00 0. -1.
          2   -1    0    0  502    0 -0.00000000000E+00 -0.00000000000E+00 -0.35083182206E+03  0.35083182206E+03  0.00000000000E+00 0. -1.
         24    2    1    2    0    0 -0.60899684900E+02 -0.11986602555E+03  0.19030224570E+02  0.15872820892E+03  0.82194033595E+02 0.  0.
         25    2    1    2    0    0 -0.38224976804E+02  0.33132357753E+03  0.21291462584E+03  0.41496026028E+03  0.12499167106E+03 0.  0.
         24    2    1    2    0    0  0.35513012539E+02 -0.24797127293E+02  0.53571206581E+02  0.10835246862E+03  0.83632001653E+02 0.  0.
        -11    1    3    3    0    0 -0.23329113004E+02  0.50005077019E+01 -0.87366509057E+01  0.25408299035E+02  0.00000000000E+00 0.  1.
         12    1    3    3    0    0 -0.37570571896E+02 -0.12486653325E+03  0.27766875476E+02  0.13331990989E+03  0.00000000000E+00 0. -1.
        -11    1    5    5    0    0 -0.18215140818E+02 -0.33897310581E+02  0.30813205199E+02  0.49297795430E+02  0.00000000000E+00 0.  1.
         12    1    5    5    0    0  0.53728153357E+02  0.91001832886E+01  0.22758001383E+02  0.59054673193E+02  0.00000000000E+00 0. -1.
          5    1    4    4  501    0 -0.76713308733E+02  0.28394114806E+03  0.18636561219E+03  0.34822656232E+03  0.47000000000E+01 0. -1.
         -5    1    4    4    0  501  0.38488331929E+02  0.47382429467E+02  0.26549013647E+02  0.66733697953E+02  0.47000000000E+01 0. -1.
          1    1    1    2  502    0 -0.17522876297E+02 -0.11718795027E+03 -0.12797507025E+03  0.17440666698E+03  0.00000000000E+00 0. -1.
          1    1    1    2  503    0  0.81134525463E+02 -0.69472474423E+02  0.20677415572E+04  0.20704985833E+04  0.00000000000E+00 0. -1.
<mgrwt>
<rscale>  0 0.11058902E+03</rscale>
<asrwt>0</asrwt>
<pdfrwt beam="1">  1        2 0.37884034E+00 0.10699773E+03</pdfrwt>
<pdfrwt beam="2">  1        2 0.51592916E-01 0.11430085E+03</pdfrwt>
<totfact> 0.71268404E+01</totfact>
</mgrwt>
</event>
<event>
13    1  0.2038932E-008  0.1544407E+03  0.7546771E-02  0.1222247E+00
          2   -1    0    0  502    0  0.00000000000E+00  0.00000000000E+00  0.18002104376E+04  0.18002104376E+04  0.00000000000E+00 0. -1.
          2   -1    0    0  503    0 -0.00000000000E+00 -0.00000000000E+00 -0.13405569782E+04  0.13405569782E+04  0.00000000000E+00 0. -1.
         24    2    1    2    0    0  0.37002687146E+02 -0.72010811680E+02 -0.14126910544E+03  0.18158265224E+03  0.80377506717E+02 0.  0.
         25    2    1    2    0    0  0.10278493002E+03 -0.15856526232E+03 -0.20588914680E+02  0.22749984550E+03  0.12499836815E+03 0.  0.
         24    2    1    2    0    0 -0.48465799227E+02  0.81923838037E+02  0.13396126712E+04  0.13453744538E+04  0.80061621691E+02 0.  0.
        -11    1    5    5    0    0  0.14879006403E+02  0.43313776445E+02  0.69495446578E+03  0.69646189958E+03  0.00000000000E+00 0.  1.
         12    1    5    5    0    0 -0.63344805631E+02  0.38610061592E+02  0.64465820542E+03  0.64891255426E+03  0.00000000000E+00 0. -1.
        -13    1    3    3    0    0  0.17989612980E+02  0.75596389023E+01 -0.14239766561E+01  0.19565327113E+02  0.00000000000E+00 0.  1.
         14    1    3    3    0    0  0.19013074166E+02 -0.79570450582E+02 -0.13984512879E+03  0.16201732513E+03  0.00000000000E+00 0. -1.
          5    1    4    4  501    0  0.70450673960E+02 -0.45358113868E+02  0.42256775175E+02  0.93959464682E+02  0.47000000000E+01 0. -1.
         -5    1    4    4    0  501  0.32334256058E+02 -0.11320714845E+03 -0.62845689855E+02  0.13354038081E+03  0.47000000000E+01 0. -1.
          1    1    1    2  502    0  0.97984157775E+02 -0.60031844658E+02  0.30457499406E+03  0.32553132654E+03  0.00000000000E+00 0. -1.
          1    1    1    2  503    0 -0.18930597571E+03  0.20868408062E+03 -0.10226761858E+04  0.10607791377E+04  0.00000000000E+00 0. -1.
<mgrwt>
<rscale>  0 0.13357425E+03</rscale>
<asrwt>0</asrwt>
<pdfrwt beam="1">  1        2 0.26473683E+00 0.11552707E+03</pdfrwt>
<pdfrwt beam="2">  1        2 0.19714073E+00 0.15444070E+03</pdfrwt>
<totfact> 0.32869271E+01</totfact>
</mgrwt>
</event>
<event>
13    1  0.2038932E-008  0.6021579E+02  0.7546771E-02  0.1472342E+00
          2   -1    0    0  503    0  0.00000000000E+00  0.00000000000E+00  0.41575296200E+04  0.41575296200E+04  0.00000000000E+00 0. -1.
          2   -1    0    0  502    0 -0.00000000000E+00 -0.00000000000E+00 -0.16510552325E+04  0.16510552325E+04  0.00000000000E+00 0. -1.
         24    2    1    2    0    0  0.71124131898E+03 -0.35776418332E+03 -0.91291585934E+03  0.12130778259E+04  0.65444792153E+02 0.  0.
         25    2    1    2    0    0 -0.73733306650E+03  0.30875051639E+03  0.11768922239E+04  0.14281759224E+04  0.12499690543E+03 0.  0.
         24    2    1    2    0    0 -0.13161732740E+02 -0.15471986371E+02 -0.54524326375E+02  0.99681488415E+02  0.80937527730E+02 0.  0.
        -11    1    3    3    0    0  0.39222848075E+03 -0.22340240246E+03 -0.48225878211E+03  0.66054927709E+03  0.00000000000E+00 0.  1.
         12    1    3    3    0    0  0.31901283823E+03 -0.13436178086E+03 -0.43065707723E+03  0.55252854884E+03  0.00000000000E+00 0. -1.
        -13    1    5    5    0    0 -0.32215746020E+02  0.17898208903E+02 -0.52979634324E+01  0.37232628031E+02  0.00000000000E+00 0.  1.
         14    1    5    5    0    0  0.19054013280E+02 -0.33370195275E+02 -0.49226362942E+02  0.62448860384E+02  0.00000000000E+00 0. -1.
          5    1    4    4  501    0 -0.71268862417E+03  0.31793361419E+03  0.11172069811E+04  0.13627840573E+04  0.47000000000E+01 0. -1.
         -5    1    4    4    0  501 -0.24644442331E+02 -0.91830977999E+01  0.59685242796E+02  0.65391865172E+02  0.47000000000E+01 0. -1.
          1    1    1    2  502    0 -0.11515418684E+02  0.32109472300E+02 -0.38421996713E+03  0.38573126165E+03  0.00000000000E+00 0. -1.
          1    1    1    2  503    0  0.50768898941E+02  0.32376180999E+02  0.26812423165E+04  0.26819183541E+04  0.00000000000E+00 0. -1.
<mgrwt>
<rscale>  0 0.45321917E+02</rscale>
<asrwt>0</asrwt>
<pdfrwt beam="1">  1        2 0.61140141E+00 0.60215789E+02</pdfrwt>
<pdfrwt beam="2">  1        2 0.24280224E+00 0.34111920E+02</pdfrwt>
<totfact> 0.14948441E+00</totfact>
</mgrwt>
</event>
<event>
13    1  0.2038932E-008  0.1223163E+03  0.7546771E-02  0.1418925E+00
          2   -1    0    0  503    0  0.00000000000E+00  0.00000000000E+00  0.31048504778E+04  0.31048504778E+04  0.00000000000E+00 0. -1.
          2   -1    0    0  502    0 -0.00000000000E+00 -0.00000000000E+00 -0.94170445966E+03  0.94170445966E+03  0.00000000000E+00 0. -1.
         24    2    1    2    0    0 -0.33409408833E+02  0.90225375628E+02  0.15346315293E+03  0.20661107436E+03  0.99400149584E+02 0.  0.
         25    2    1    2    0    0  0.68915625200E+01 -0.18560138132E+02 -0.23356124674E+03  0.26564660385E+03  0.12500115919E+03 0.  0.
         24    2    1    2    0    0  0.12855145550E+03  0.20997756575E+02 -0.46177155216E+02  0.16073487767E+03  0.82079161457E+02 0.  0.
        -11    1    5    5    0    0  0.86738281223E+02  0.47248403160E+02 -0.94927362077E+01  0.99227279875E+02  0.00000000000E+00 0.  1.
         12    1    5    5    0    0  0.41813174273E+02 -0.26250646585E+02 -0.36684419009E+02  0.61507597798E+02  0.00000000000E+00 0. -1.
        -11    1    3    3    0    0 -0.16097797603E+02  0.10305424966E+03  0.15286034526E+03  0.18505567436E+03  0.00000000000E+00 0.  1.
         12    1    3    3    0    0 -0.17311611230E+02 -0.12828874030E+02  0.60280767126E+00  0.21555400005E+02  0.00000000000E+00 0. -1.
          5    1    4    4  501    0  0.15537146178E+02  0.49531968816E+01 -0.23898469417E+03  0.23958654203E+03  0.47000000000E+01 0. -1.
         -5    1    4    4    0  501 -0.86455836582E+01 -0.23513335014E+02  0.54234474382E+01  0.26060061826E+02  0.47000000000E+01 0. -1.
          1    1    1    2  502    0 -0.22483799305E+00 -0.24954399364E+02 -0.56048211098E+03  0.56103740457E+03  0.00000000000E+00 0. -1.
          1    1    1    2  503    0 -0.10180877119E+03 -0.67708594707E+02  0.28499033781E+04  0.28525249770E+04  0.00000000000E+00 0. -1.
<mgrwt>
<rscale>  0 0.55249011E+02</rscale>
<asrwt>0</asrwt>
<pdfrwt beam="1">  1        2 0.45659566E+00 0.12231628E+03</pdfrwt>
<pdfrwt beam="2">  1        2 0.13848595E+00 0.24955412E+02</pdfrwt>
<totfact> 0.12975986E+01</totfact>
</mgrwt>
</event>
<event>
13    1  0.2038932E-008  0.8378640E+02  0.7546771E-02  0.1339385E+00
          2   -1    0    0  503    0  0.00000000000E+00  0.00000000000E+00  0.15625134393E+04  0.15625134393E+04  0.00000000000E+00 0. -1.
         -3   -1    0    0    0  501 -0.00000000000E+00 -0.00000000000E+00 -0.54151579862E+03  0.54151579862E+03  0.00000000000E+00 0.  1.
         24    2    1    2    0    0 -0.15264298146E+03 -0.17979104929E+03 -0.21226966544E+03  0.32698162707E+03  0.78954875603E+02 0.  0.
         25    2    1    2    0    0  0.29587728810E+03  0.11216013918E+03  0.10084838494E+04  0.10643256266E+04  0.12500439427E+03 0.  0.
         24    2    1    2    0    0 -0.54679254490E+02 -0.10433801648E+02  0.79887781741E+02  0.11806205010E+03  0.66767543863E+02 0.  0.
        -11    1    5    5    0    0 -0.61397930234E+02  0.12793811705E+02  0.59083591919E+02  0.86164135747E+02  0.00000000000E+00 0.  1.
         12    1    5    5    0    0  0.67186757441E+01 -0.23227613353E+02  0.20804189822E+02  0.31897914351E+02  0.00000000000E+00 0. -1.
        -13    1    3    3    0    0 -0.86071105338E+02 -0.11983101590E+03 -0.81758919020E+02  0.16867788351E+03  0.00000000000E+00 0.  1.
         14    1    3    3    0    0 -0.66571876125E+02 -0.59960033394E+02 -0.13051074642E+03  0.15830374357E+03  0.00000000000E+00 0. -1.
          5    1    4    4  502    0  0.95776654451E+02 -0.61207284662E+01  0.43542380841E+03  0.44589977998E+03  0.47000000000E+01 0. -1.
         -5    1    4    4    0  502  0.20010063365E+03  0.11828086765E+03  0.57306004099E+03  0.61842584666E+03  0.47000000000E+01 0. -1.
          1    1    1    2  503    0 -0.69701513761E+02 -0.34885366179E+01  0.35850574801E+03  0.36523532450E+03  0.00000000000E+00 0. -1.
         -4    1    1    2    0  501 -0.18853538386E+02  0.81553248375E+02 -0.21361007298E+03  0.22942460964E+03  0.00000000000E+00 0.  1.
<mgrwt>
<rscale>  0 0.76467961E+02</rscale>
<asrwt>0</asrwt>
<pdfrwt beam="1">  1        2 0.22978139E+00 0.69788759E+02</pdfrwt>
<pdfrwt beam="2">  1       -3 0.79634676E-01 0.83786403E+02</pdfrwt>
<totfact> 0.13991673E+01</totfact>
</mgrwt>
</event>
<event>
13    1  0.2038932E-008  0.5152467E+02  0.7546771E-02  0.1461421E+00
         -3   -1    0    0    0  501 -0.00000000000E+00  0.00000000000E+00  0.16099320350E+04  0.16099320350E+04  0.00000000000E+00 0.  1.
          2   -1    0    0  503    0  0.00000000000E+00 -0.00000000000E+00 -0.39245195087E+04  0.39245195087E+04  0.00000000000E+00 0. -1.
         24    2    1    2    0    0  0.63030320121E+02 -0.10040318805E+04  0.71254461912E+03  0.12353754809E+04  0.79874315538E+02 0.  0.
         25    2    1    2    0    0 -0.33326457981E+02  0.81093774293E+03 -0.60812661872E+03  0.10218485134E+04  0.12500289715E+03 0.  0.
         24    2    1    2    0    0  0.29333867171E+02  0.12260887548E+03 -0.81867996643E+03  0.82993178053E+03  0.51540865103E+02 0.  0.
        -11    1    3    3    0    0  0.79696623354E+02 -0.67858933932E+03  0.48829832123E+03  0.83980372333E+03  0.00000000000E+00 0.  1.
         12    1    3    3    0    0 -0.16666303233E+02 -0.32544254118E+03  0.22424629789E+03  0.39557175757E+03  0.00000000000E+00 0. -1.
        -13    1    5    5    0    0  0.34951801154E+02  0.39765147980E+02 -0.29597306035E+03  0.30067082973E+03  0.00000000000E+00 0.  1.
         14    1    5    5    0    0 -0.56179339830E+01  0.82843727495E+02 -0.52270690609E+03  0.52926095080E+03  0.00000000000E+00 0. -1.
          5    1    4    4  502    0  0.34047854201E+02  0.47159437833E+03 -0.38904068771E+03  0.61231957403E+03  0.47000000000E+01 0.  1.
         -5    1    4    4    0  502 -0.67374312182E+02  0.33934336460E+03 -0.21908593101E+03  0.40952893940E+03  0.47000000000E+01 0.  1.
          1    1    1    2  503    0 -0.23732302816E+02  0.45721774699E+02 -0.20223839426E+04  0.20230399191E+04  0.00000000000E+00 0. -1.
         -4    1    1    2    0  501 -0.35305426496E+02  0.24763487388E+02  0.42205843504E+03  0.42425584974E+03  0.00000000000E+00 0.  1.
<mgrwt>
<rscale>  0 0.47137717E+02</rscale>
<asrwt>0</asrwt>
<pdfrwt beam="2">  1        2 0.57713521E+00 0.51524673E+02</pdfrwt>
<pdfrwt beam="1">  1       -3 0.23675471E+00 0.43124279E+02</pdfrwt>
<totfact> 0.62350920E-02</totfact>
</mgrwt>
</event>
<event>
13    1  0.2038932E-008  0.5231211E+02  0.7546771E-02  0.1451390E+00
         -1   -1    0    0    0  501 -0.00000000000E+00  0.00000000000E+00  0.93086072189E+03  0.93086072189E+03  0.00000000000E+00 0.  1.
          2   -1    0    0  503    0  0.00000000000E+00 -0.00000000000E+00 -0.20094735192E+04  0.20094735192E+04  0.00000000000E+00 0. -1.
         24    2    1    2    0    0  0.77963076714E+02 -0.12394431609E+02  0.82163190380E+03  0.82928922094E+03  0.80060997703E+02 0.  0.
         25    2    1    2    0    0 -0.51644482010E+02  0.17685255485E+02 -0.36160550471E+03  0.38647557183E+03  0.12499962319E+03 0.  0.
         24    2    1    2    0    0 -0.79839850479E+02  0.25192416387E+02 -0.25137862131E+02  0.11842102650E+03  0.79890974693E+02 0.  0.
        -11    1    3    3    0    0  0.27419746703E+02 -0.44194919511E+02  0.42925236005E+03  0.43239174602E+03  0.00000000000E+00 0.  1.
         12    1    3    3    0    0  0.50543330011E+02  0.31800487902E+02  0.39237954375E+03  0.39689747492E+03  0.00000000000E+00 0. -1.
        -13    1    5    5    0    0 -0.81528468933E+02  0.46725639630E+02 -0.22800441237E+02  0.96695588141E+02  0.00000000000E+00 0.  1.
         14    1    5    5    0    0  0.16886184535E+01 -0.21533223244E+02 -0.23374208942E+01  0.21725438361E+02  0.00000000000E+00 0. -1.
          5    1    4    4  502    0 -0.88725314061E+02  0.22148822719E+02 -0.30537432680E+03  0.31880765544E+03  0.47000000000E+01 0.  1.
         -5    1    4    4    0  502  0.37080832051E+02 -0.44635672340E+01 -0.56231177918E+02  0.67667916387E+02  0.47000000000E+01 0.  1.
          1    1    1    2  503    0  0.31186128600E+01 -0.45596067495E+02 -0.15444341493E+04  0.15451102124E+04  0.00000000000E+00 0. -1.
         -2    1    1    2    0  501  0.50402642916E+02  0.15112827233E+02  0.30932815012E+02  0.61038209381E+02  0.00000000000E+00 0.  1.
<mgrwt>
<rscale>  0 0.48895799E+02</rscale>
<asrwt>0</asrwt>
<pdfrwt beam="2">  1        2 0.29551080E+00 0.45702594E+02</pdfrwt>
<pdfrwt beam="1">  1       -1 0.13689129E+00 0.52312110E+02</pdfrwt>
<totfact> 0.60272770E+00</totfact>
</mgrwt>
</event>
<event>
13    1  0.2038932E-008  0.8901364E+02  0.7546771E-02  0.1379813E+00
          2   -1    0    0  502    0  0.00000000000E+00  0.00000000000E+00  0.54597470107E+03  0.54597470107E+03  0.00000000000E+00 0. -1.
          2   -1    0    0  503    0 -0.00000000000E+00 -0.00000000000E+00 -0.17274584341E+04  0.17274584341E+04  0.00000000000E+00 0. -1.
         24    2    1    2    0    0 -0.11517509705E+03 -0.25606659063E+02 -0.43745090416E+03  0.46085317322E+03  0.84269506657E+02 0.  0.
         25    2    1    2    0    0  0.38098085302E+03  0.27161157287E+02 -0.36990714961E+03  0.54620057037E+03  0.12497849778E+03 0.  0.
         24    2    1    2    0    0 -0.13602406373E+03 -0.35252159564E+02  0.29808334592E+03  0.33990261083E+03  0.83275705153E+02 0.  0.
        -13    1    3    3    0    0 -0.15798417122E+02 -0.39100519279E+02 -0.93313469357E+02  0.10240041091E+03  0.00000000000E+00 0.  1.
         14    1    3    3    0    0 -0.99376679927E+02  0.13493860217E+02 -0.34413743480E+03  0.35845276231E+03  0.00000000000E+00 0. -1.
        -13    1    5    5    0    0  0.74446654194E+01 -0.83758496292E+01  0.45775900351E+01  0.12105049804E+02  0.00000000000E+00 0.  1.
         14    1    5    5    0    0 -0.14346872914E+03 -0.26876309935E+02  0.29350575589E+03  0.32779756103E+03  0.00000000000E+00 0. -1.
          5    1    4    4  501    0  0.16648463904E+03  0.28828285015E+01 -0.24649721939E+03  0.29750363847E+03  0.47000000000E+01 0. -1.
         -5    1    4    4    0  501  0.21449621397E+03  0.24278328786E+02 -0.12340993022E+03  0.24869693190E+03  0.47000000000E+01 0. -1.
          1    1    1    2  502    0 -0.42014637613E+02  0.20516013953E+02  0.12027245191E+03  0.12904107598E+03  0.00000000000E+00 0. -1.
          1    1    1    2  503    0 -0.87767054630E+02  0.13181647386E+02 -0.79248147709E+03  0.79743570476E+03  0.00000000000E+00 0. -1.
<mgrwt>
<rscale>  0 0.64513055E+02</rscale>
<asrwt>0</asrwt>
<pdfrwt beam="1">  1        2 0.80290399E-01 0.46756140E+02</pdfrwt>
<pdfrwt beam="2">  1        2 0.25403800E+00 0.89013640E+02</pdfrwt>
<totfact> 0.11879878E+02</totfact>
</mgrwt>
</event>
<event>
13    1  0.2038932E-008  0.9102371E+02  0.7546771E-02  0.1428888E+00
          2   -1    0    0  503    0  0.00000000000E+00  0.00000000000E+00  0.73604606026E+03  0.73604606026E+03  0.00000000000E+00 0. -1.
         -3   -1    0    0    0  501 -0.00000000000E+00 -0.00000000000E+00 -0.59780327339E+03  0.59780327339E+03  0.00000000000E+00 0.  1.
         24    2    1    2    0    0  0.14339273637E+03  0.61538150187E+01 -0.29797948518E+02  0.16772437152E+03  0.81511967117E+02 0.  0.
         25    2    1    2    0    0 -0.15976764253E+03 -0.93738726885E+02 -0.13608894148E+03  0.26164999452E+03  0.12501148397E+03 0.  0.
         24    2    1    2    0    0 -0.59496901689E+02  0.68398329541E+02 -0.31491080758E+02  0.13249294245E+03  0.91348118955E+02 0.  0.
        -13    1    3    3    0    0  0.10937951089E+03 -0.25084999773E+02  0.98497232252E+00  0.11222345916E+03  0.00000000000E+00 0.  1.
         14    1    3    3    0    0  0.34013225481E+02  0.31238814791E+02 -0.30782920841E+02  0.55500912359E+02  0.00000000000E+00 0. -1.
        -13    1    5    5    0    0 -0.20939148024E+02  0.84230076663E+02 -0.24889113314E+02  0.90291869491E+02  0.00000000000E+00 0.  1.
         14    1    5    5    0    0 -0.38557753664E+02 -0.15831747122E+02 -0.66019674441E+01  0.42201072957E+02  0.00000000000E+00 0. -1.
          5    1    4    4  502    0 -0.67572747894E+02 -0.58724025881E+02 -0.13603519435E+03  0.16291792895E+03  0.47000000000E+01 0.  1.
         -5    1    4    4    0  502 -0.92194894631E+02 -0.35014701004E+02 -0.53747133308E-01  0.98732065568E+02  0.47000000000E+01 0.  1.
          1    1    1    2  503    0  0.90837506849E+02 -0.80467008151E+01  0.54891373746E+03  0.55643732191E+03  0.00000000000E+00 0. -1.
         -4    1    1    2    0  501 -0.14965699002E+02  0.27233283141E+02 -0.21329297982E+03  0.21554470325E+03  0.00000000000E+00 0.  1.
<mgrwt>
<rscale>  0 0.53183789E+02</rscale>
<asrwt>0</asrwt>
<pdfrwt beam="1">  1        2 0.10824207E+00 0.91023715E+02</pdfrwt>
<pdfrwt beam="2">  1       -3 0.87912246E-01 0.31074489E+02</pdfrwt>
<totfact> 0.30398807E+01</totfact>
</mgrwt>
</event>
<event>
13    1  0.2887568E-008  0.5644928E+02  0.7546771E-02  0.1515749E+00
          2   -1    0    0  502    0  0.00000000000E+00  0.00000000000E+00  0.28790914969E+04  0.28790914969E+04  0.00000000000E+00 0. -1.
          2   -1    0    0  503    0 -0.00000000000E+00 -0.00000000000E+00 -0.54807896538E+04  0.54807896538E+04  0.00000000000E+00 0. -1.
         24    2    1    2    0    0 -0.78463249166E+03  0.90126104775E+03 -0.78764358577E+03  0.14324104919E+04  0.59141998331E+02 0.  0.
         25    2    1    2    0    0  0.34242087017E+03 -0.14008904506E+04  0.80732387897E+03  0.16574510891E+04  0.12500464126E+03 0.  0.
         24    2    1    2    0    0  0.47544050346E+03  0.51994253290E+03  0.16577039501E+03  0.72823522849E+03  0.80391630853E+02 0.  0.
        -11    1    5    5    0    0  0.39843359904E+03  0.43928564234E+03  0.10861003134E+03  0.60292399796E+03  0.00000000000E+00 0.  1.
         12    1    5    5    0    0  0.77006904415E+02  0.80656890556E+02  0.57160363666E+02  0.12531123053E+03  0.00000000000E+00 0. -1.
        -11    1    3    3    0    0 -0.61094972644E+03  0.72532070360E+03 -0.60254284375E+03  0.11235691211E+04  0.00000000000E+00 0.  1.
         12    1    3    3    0    0 -0.17368276522E+03  0.17594034415E+03 -0.18510074203E+03  0.30884137082E+03  0.00000000000E+00 0. -1.
          5    1    4    4  501    0  0.21792219225E+00 -0.90844657499E+00  0.82619569681E+01  0.95510574391E+01  0.47000000000E+01 0.  1.
         -5    1    4    4    0  501  0.34220294798E+03 -0.13999820040E+04  0.79906192200E+03  0.16479000317E+04  0.47000000000E+01 0.  1.
          1    1    1    2  502    0  0.22890474914E+02 -0.14197686069E+02  0.87689352171E+03  0.87730712784E+03  0.00000000000E+00 0. -1.
          1    1    1    2  503    0 -0.56119356882E+02 -0.61154439581E+01 -0.36640423668E+04  0.36644772133E+04  0.00000000000E+00 0. -1.
<mgrwt>
<rscale>  0 0.38993816E+02</rscale>
<asrwt>0</asrwt>
<pdfrwt beam="1">  1        2 0.42339581E+00 0.26936001E+02</pdfrwt>
<pdfrwt beam="2">  1        2 0.80599847E+00 0.56449276E+02</pdfrwt>
<totfact> 0.25898625E-02</totfact>
</mgrwt>
</event>
<event>
13    1  0.2038932E-008  0.3567511E+02  0.7546771E-02  0.1559456E+00
          2   -1    0    0  502    0  0.00000000000E+00  0.00000000000E+00  0.17204813167E+04  0.17204813167E+04  0.00000000000E+00 0. -1.
          2   -1    0    0  503    0 -0.00000000000E+00 -0.00000000000E+00 -0.26473084973E+03  0.26473084973E+03  0.00000000000E+00 0. -1.
         24    2    1    2    0    0  0.22347761563E+02 -0.55151605865E+02  0.73007771459E+02  0.12346937731E+03  0.79833767062E+02 0.  0.
         25    2    1    2    0    0 -0.13782290141E+02  0.99201133461E+02 -0.15188843489E+02  0.16089109276E+03  0.12499770543E+03 0.  0.
         24    2    1    2    0    0 -0.76777941480E+01 -0.31767192004E+02  0.19859303731E+03  0.21654252811E+03  0.79895988657E+02 0.  0.
        -13    1    3    3    0    0 -0.22236639576E+02  0.65009307492E+01  0.12975911590E+02  0.26553804282E+02  0.00000000000E+00 0.  1.
         14    1    3    3    0    0  0.44584401139E+02 -0.61652536615E+02  0.60031859869E+02  0.96915573028E+02  0.00000000000E+00 0. -1.
        -13    1    5    5    0    0 -0.22509520877E+02 -0.54423617291E+02  0.14477021469E+03  0.15629147037E+03  0.00000000000E+00 0.  1.
         14    1    5    5    0    0  0.14831726729E+02  0.22656425287E+02  0.53822822622E+02  0.60251057746E+02  0.00000000000E+00 0. -1.
          5    1    4    4  501    0 -0.27991500642E+02  0.74085691953E+01 -0.52934238922E+02  0.60518878509E+02  0.47000000000E+01 0. -1.
         -5    1    4    4    0  501  0.14209210501E+02  0.91792564266E+02  0.37745395433E+02  0.10037221425E+03  0.47000000000E+01 0. -1.
          1    1    1    2  502    0 -0.32878779731E+02 -0.13995721084E+02  0.13397817681E+04  0.13402582141E+04  0.00000000000E+00 0. -1.
          1    1    1    2  503    0  0.31991102456E+02  0.17133854921E+01 -0.14044326637E+03  0.14405095416E+03  0.00000000000E+00 0. -1.
<mgrwt>
<rscale>  0 0.33807127E+02</rscale>
<asrwt>0</asrwt>
<pdfrwt beam="1">  1        2 0.25301195E+00 0.35675110E+02</pdfrwt>
<pdfrwt beam="2">  1        2 0.38931008E-01 0.32036953E+02</pdfrwt>
<totfact> 0.27225952E+02</totfact>
</mgrwt>
</event>
<event>
13    1  0.2038932E-008  0.1443804E+03  0.7546771E-02  0.1285819E+00
          2   -1    0    0  502    0  0.00000000000E+00  0.00000000000E+00  0.21152745382E+04  0.21152745382E+04  0.00000000000E+00 0. -1.
          2   -1    0    0  503    0 -0.00000000000E+00 -0.00000000000E+00 -0.20152009477E+04  0.20152009477E+04  0.00000000000E+00 0. -1.
         24    2    1    2    0    0  0.48460536829E+03 -0.52942575141E+03 -0.54690843935E+03  0.90573448253E+03  0.78180065092E+02 0.  0.
         25    2    1    2    0    0 -0.80290019154E+03  0.70499211163E+03  0.67003925241E+03  0.12673749946E+04  0.12499672880E+03 0.  0.
         24    2    1    2    0    0  0.13097689753E+03 -0.86152035826E+02  0.34682711000E+03  0.38899472910E+03  0.80316462042E+02 0.  0.
        -11    1    3    3    0    0  0.13233082013E+03 -0.19767431548E+03 -0.17034383471E+03  0.29258093407E+03  0.00000000000E+00 0.  1.
         12    1    3    3    0    0  0.35227454816E+03 -0.33175143594E+03 -0.37656460464E+03  0.61315354846E+03  0.00000000000E+00 0. -1.
        -13    1    5    5    0    0  0.89364712407E+02 -0.21159755339E+02  0.24188546932E+03  0.25873223096E+03  0.00000000000E+00 0.  1.
         14    1    5    5    0    0  0.41612185120E+02 -0.64992280487E+02  0.10494164068E+03  0.13026249814E+03  0.00000000000E+00 0. -1.
          5    1    4    4  501    0 -0.28482628851E+03  0.17513941438E+03  0.19417108097E+03  0.38668375681E+03  0.47000000000E+01 0.  1.
         -5    1    4    4    0  501 -0.51807390303E+03  0.52985269725E+03  0.47586817144E+03  0.88069123782E+03  0.47000000000E+01 0.  1.
          1    1    1    2  502    0  0.64090204750E+02 -0.14600601209E+02  0.59205346371E+03  0.59569122521E+03  0.00000000000E+00 0. -1.
          1    1    1    2  503    0  0.12322772097E+03 -0.74813723183E+02 -0.96193779623E+03  0.97268005439E+03  0.00000000000E+00 0. -1.
<mgrwt>
<rscale>  0 0.97418945E+02</rscale>
<asrwt>0</asrwt>
<pdfrwt beam="1">  1        2 0.31106979E+00 0.65732274E+02</pdfrwt>
<pdfrwt beam="2">  1        2 0.29635308E+00 0.14438038E+03</pdfrwt>
<totfact> 0.11420918E+01</totfact>
</mgrwt>
</event>
<event>
13    1  0.2038932E-008  0.8686303E+02  0.7546771E-02  0.1391353E+00
          2   -1    0    0  503    0  0.00000000000E+00  0.00000000000E+00  0.35450210997E+04  0.35450210997E+04  0.00000000000E+00 0. -1.
          2   -1    0    0  502    0 -0.00000000000E+00 -0.00000000000E+00 -0.13723190326E+04  0.13723190326E+04  0.00000000000E+00 0. -1.
         24    2    1    2    0    0 -0.67748301254E+02  0.49789059923E+02 -0.51743942399E+03  0.53025989317E+03  0.79769756151E+02 0.  0.
         25    2    1    2    0    0  0.20695246612E+02 -0.35172870810E+02  0.41870716132E+03  0.43886783248E+03  0.12499545340E+03 0.  0.
         24    2    1    2    0    0 -0.31595462783E+02  0.10661943499E+02  0.49292736880E+02  0.98851101742E+02  0.78929184075E+02 0.  0.
        -11    1    3    3    0    0 -0.69080944141E+02  0.33903085508E+01 -0.32849884259E+03  0.33570099884E+03  0.00000000000E+00 0.  1.
         12    1    3    3    0    0  0.13326428867E+01  0.46398751372E+02 -0.18894058140E+03  0.19455889433E+03  0.00000000000E+00 0. -1.
        -13    1    5    5    0    0  0.13427083745E+02 -0.17190652977E+02 -0.56701034047E+01  0.22537861485E+02  0.00000000000E+00 0.  1.
         14    1    5    5    0    0 -0.45022546529E+02  0.27852596475E+02  0.54962840285E+02  0.76313240257E+02  0.00000000000E+00 0. -1.
          5    1    4    4  501    0  0.72060772211E+01  0.12886505614E+02  0.36524763036E+03  0.36557613579E+03  0.47000000000E+01 0. -1.
         -5    1    4    4    0  501  0.13489169391E+02 -0.48059376424E+02  0.53459530962E+02  0.73291696691E+02  0.47000000000E+01 0. -1.
          1    1    1    2  502    0  0.11983408116E+03 -0.10837406264E+02 -0.80900331702E+03  0.81790220891E+03  0.00000000000E+00 0. -1.
          1    1    1    2  503    0 -0.41185563739E+02 -0.14440726347E+02  0.30311449100E+04  0.30314590959E+04  0.00000000000E+00 0. -1.
<mgrwt>
<rscale>  0 0.61571395E+02</rscale>
<asrwt>0</asrwt>
<pdfrwt beam="1">  1        2 0.52132663E+00 0.43643845E+02</pdfrwt>
<pdfrwt beam="2">  1        2 0.20181162E+00 0.86863031E+02</pdfrwt>
<totfact> 0.48965001E+00</totfact>
</mgrwt>
</event>
<event>
13    1  0.2038932E-008  0.1487682E+03  0.7546771E-02  0.1311885E+00
          2   -1    0    0  503    0  0.00000000000E+00  0.00000000000E+00  0.50888953839E+04  0.50888953839E+04  0.00000000000E+00 0. -1.
         -1   -1    0    0    0  501 -0.00000000000E+00 -0.00000000000E+00 -0.33197146414E+03  0.33197146414E+03  0.00000000000E+00 0.  1.
         24    2    1    2    0    0  0.69542984969E+02  0.12483172884E+03 -0.46552114190E+02  0.17037508364E+03  0.80258223932E+02 0.  0.
         25    2    1    2    0    0 -0.40781792886E+02  0.78185020346E+02  0.15409739161E+04  0.15485491524E+04  0.12501125964E+03 0.  0.
         24    2    1    2    0    0 -0.15808416760E+03 -0.16483923230E+02  0.16786536076E+03  0.24243219215E+03  0.73022357377E+02 0.  0.
        -11    1    3    3    0    0  0.30362423569E+02  0.10768462901E+03 -0.69687742500E+01  0.11210004418E+03  0.00000000000E+00 0.  1.
         12    1    3    3    0    0  0.39180561399E+02  0.17147099825E+02 -0.39583339940E+02  0.58275039466E+02  0.00000000000E+00 0. -1.
        -13    1    5    5    0    0 -0.13268432181E+03 -0.40538036504E+02  0.12200753192E+03  0.18475470090E+03  0.00000000000E+00 0.  1.
         14    1    5    5    0    0 -0.25399845788E+02  0.24054113274E+02  0.45857828838E+02  0.57677491252E+02  0.00000000000E+00 0. -1.
          5    1    4    4  502    0 -0.73884915024E+02  0.15032336034E+02  0.10045704487E+04  0.10074069824E+04  0.47000000000E+01 0. -1.
         -5    1    4    4    0  502  0.33103122139E+02  0.63152684312E+02  0.53640346741E+03  0.54114216993E+03  0.47000000000E+01 0. -1.
          1    1    1    2  503    0  0.45340836910E+02 -0.21418262603E+02  0.32298044990E+04  0.32301937457E+04  0.00000000000E+00 0. -1.
         -2    1    1    2    0  501  0.83982138604E+02 -0.16511456335E+03 -0.13516774185E+03  0.22931667421E+03  0.00000000000E+00 0.  1.
<mgrwt>
<rscale>  0 0.86371297E+02</rscale>
<asrwt>0</asrwt>
<pdfrwt beam="1">  1        2 0.74836692E+00 0.50145124E+02</pdfrwt>
<pdfrwt beam="2">  1       -1 0.48819336E-01 0.14876822E+03</pdfrwt>
<totfact> 0.57357069E-01</totfact>
</mgrwt>
</event>
<event>
13    1  0.2038932E-008  0.2676531E+03  0.7546771E-02  0.1181933E+00
          2   -1    0    0  503    0  0.00000000000E+00  0.00000000000E+00  0.20860784743E+04  0.20860784743E+04  0.00000000000E+00 0. -1.
          2   -1    0    0  502    0 -0.00000000000E+00 -0.00000000000E+00 -0.23183995231E+04  0.23183995231E+04  0.00000000000E+00 0. -1.
         24    2    1    2    0    0 -0.40699269518E+03  0.15628742128E+03  0.14930370054E+03  0.46772602774E+03  0.80045175049E+02 0.  0.
         25    2    1    2    0    0  0.15454669890E+03 -0.13879592630E+03  0.83526677492E+03  0.86973868239E+03  0.12500319617E+03 0.  0.
         24    2    1    2    0    0  0.40535127890E+02 -0.18952841387E+03  0.19669373396E+03  0.28754614624E+03  0.80188808331E+02 0.  0.
        -11    1    5    5    0    0 -0.47656585053E+01  0.62719584914E+01  0.13387780641E+02  0.15533242894E+02  0.00000000000E+00 0.  1.
         12    1    5    5    0    0  0.45300786395E+02 -0.19580037236E+03  0.18330595332E+03  0.27201290335E+03  0.00000000000E+00 0. -1.
        -13    1    3    3    0    0 -0.34599039618E+03  0.15916190967E+03  0.11574877002E+03  0.39804477825E+03  0.00000000000E+00 0.  1.
         14    1    3    3    0    0 -0.61002299007E+02 -0.28744883886E+01  0.33554930520E+02  0.69681249485E+02  0.00000000000E+00 0. -1.
          5    1    4    4  501    0  0.17625184135E+03 -0.12365500174E+03  0.73086032135E+03  0.76192792990E+03  0.47000000000E+01 0.  1.
         -5    1    4    4    0  501 -0.21705142443E+02 -0.15140924558E+02  0.10440645357E+03  0.10781075249E+03  0.47000000000E+01 0.  1.
          1    1    1    2  502    0  0.25602708673E+03  0.78819596776E+02 -0.20840099317E+04  0.21011567750E+04  0.00000000000E+00 0. -1.
          1    1    1    2  503    0 -0.44116218341E+02  0.93217322119E+02  0.67042467345E+03  0.67831036601E+03  0.00000000000E+00 0. -1.
<mgrwt>
<rscale>  0 0.16614135E+03</rscale>
<asrwt>0</asrwt>
<pdfrwt beam="1">  1        2 0.30677625E+00 0.10312958E+03</pdfrwt>
<pdfrwt beam="2">  1        2 0.34094111E+00 0.26765307E+03</pdfrwt>
<totfact> 0.74245450E+00</totfact>
</mgrwt>
</event>
<event>
13    1  0.2038932E-008  0.1275290E+03  0.7546771E-02  0.1277962E+00
          2   -1    0    0  503    0  0.00000000000E+00  0.00000000000E+00  0.28466798149E+03  0.28466798149E+03  0.00000000000E+00 0. -1.
          2   -1    0    0  502    0 -0.00000000000E+00 -0.00000000000E+00 -0.36787871449E+04  0.36787871449E+04  0.00000000000E+00 0. -1.
         24    2    1    2    0    0  0.31287976827E+02  0.23258443599E+00 -0.25654514424E+03  0.27107455754E+03  0.81774159257E+02 0.  0.
         25    2    1    2    0    0  0.69956568848E+02 -0.12844117270E+03 -0.34335638986E+02  0.19543426535E+03  0.12499823839E+03 0.  0.
         24    2    1    2    0    0  0.87864836988E+02  0.10751943420E+03 -0.86502392116E+03  0.87975651953E+03  0.80152923646E+02 0.  0.
        -13    1    3    3    0    0 -0.17634923376E+02  0.26518453636E+02 -0.85468477385E+02  0.91208988221E+02  0.00000000000E+00 0.  1.
         14    1    3    3    0    0  0.48922900203E+02 -0.26285869200E+02 -0.17107666686E+03  0.17986556932E+03  0.00000000000E+00 0. -1.
        -13    1    5    5    0    0  0.77705084780E+02  0.12043842433E+03 -0.75112022915E+03  0.76467319352E+03  0.00000000000E+00 0.  1.
         14    1    5    5    0    0  0.10159752208E+02 -0.12918990138E+02 -0.11390369201E+03  0.11508332601E+03  0.00000000000E+00 0. -1.
          5    1    4    4  501    0  0.25525469594E+02 -0.12216990844E+03  0.18165557049E+02  0.12621059222E+03  0.47000000000E+01 0.  1.
         -5    1    4    4    0  501  0.44431099254E+02 -0.62712642592E+01 -0.52501196035E+02  0.69223673129E+02  0.47000000000E+01 0.  1.
          1    1    1    2  502    0 -0.67427662123E+02  0.57551050377E+02 -0.24054657955E+04  0.24070987322E+04  0.00000000000E+00 0. -1.
          1    1    1    2  503    0 -0.12168172054E+03 -0.36861896307E+02  0.16725133646E+03  0.21009105184E+03  0.00000000000E+00 0. -1.
<mgrwt>
<rscale>  0 0.10111812E+03</rscale>
<asrwt>0</asrwt>
<pdfrwt beam="1">  1        2 0.41862941E-01 0.12752897E+03</pdfrwt>
<pdfrwt beam="2">  1        2 0.54099808E+00 0.80176874E+02</pdfrwt>
<totfact> 0.23196815E+01</totfact>
</mgrwt>
</event>
<event>
13    1  0.2038932E-008  0.2203991E+03  0.7546771E-02  0.1329078E+00
          2   -1    0    0  503    0  0.00000000000E+00  0.00000000000E+00  0.10246219696E+04  0.10246219696E+04  0.00000000000E+00 0. -1.
          2   -1    0    0  502    0 -0.00000000000E+00 -0.00000000000E+00 -0.79705582745E+03  0.79705582745E+03  0.00000000000E+00 0. -1.
         24    2    1    2    0    0 -0.71386094263E+02 -0.46729695572E+01 -0.72715095001E+01  0.11613894571E+03  0.91200705928E+02 0.  0.
         25    2    1    2    0    0 -0.17364484030E+03 -0.16617381309E+03  0.31096364926E+03  0.41241990674E+03  0.12500208637E+03 0.  0.
         24    2    1    2    0    0  0.70782592168E+01  0.98549428779E+02  0.15343001891E+03  0.20088452381E+03  0.83974576738E+02 0.  0.
        -11    1    3    3    0    0 -0.11794736907E+02 -0.39598226951E+02  0.14387746585E+02  0.43750915970E+02  0.00000000000E+00 0.  1.
         12    1    3    3    0    0 -0.59591357356E+02  0.34925257394E+02 -0.21659256085E+02  0.72388029741E+02  0.00000000000E+00 0. -1.
        -13    1    5    5    0    0 -0.31471373619E+02  0.43203249634E+02  0.32895935397E+02  0.62762335059E+02  0.00000000000E+00 0.  1.
         14    1    5    5    0    0  0.38549632836E+02  0.55346179145E+02  0.12053408351E+03  0.13812218875E+03  0.00000000000E+00 0. -1.
          5    1    4    4  501    0 -0.16549470376E+03 -0.18597119397E+03  0.28563795711E+03  0.37892600136E+03  0.47000000000E+01 0. -1.
         -5    1    4    4    0  501 -0.81501365364E+01  0.19797380880E+02  0.25325692146E+02  0.33493905385E+02  0.47000000000E+01 0. -1.
          1    1    1    2  502    0  0.20899292367E+03  0.70256861560E+02 -0.64198126496E+03  0.67878863669E+03  0.00000000000E+00 0. -1.
          1    1    1    2  503    0  0.28959751675E+02  0.20404923129E+01  0.41242524848E+03  0.41344578413E+03  0.00000000000E+00 0. -1.
<mgrwt>
<rscale>  0 0.79990789E+02</rscale>
<asrwt>0</asrwt>
<pdfrwt beam="1">  1        2 0.15067970E+00 0.29031549E+02</pdfrwt>
<pdfrwt beam="2">  1        2 0.11721409E+00 0.22039907E+03</pdfrwt>
<totfact> 0.17949243E+02</totfact>
</mgrwt>
</event>
<event>
13    1  0.2038932E-008  0.1109867E+03  0.7546771E-02  0.1280146E+00
          2   -1    0    0  503    0  0.00000000000E+00  0.00000000000E+00  0.14959856708E+04  0.14959856708E+04  0.00000000000E+00 0. -1.
          2   -1    0    0  502    0 -0.00000000000E+00 -0.00000000000E+00 -0.83878655636E+03  0.83878655636E+03  0.00000000000E+00 0. -1.
         24    2    1    2    0    0  0.16482338523E+03 -0.37808298591E+02 -0.13389651702E+03  0.22994656012E+03  0.79692706585E+02 0.  0.
         25    2    1    2    0    0 -0.29079373291E+03  0.80510452938E+02  0.55641893267E+03  0.64518927913E+03  0.12499699653E+03 0.  0.
         24    2    1    2    0    0 -0.46074844937E+02 -0.11454319336E+03  0.32791066884E+03  0.35933635971E+03  0.79713099238E+02 0.  0.
        -11    1    3    3    0    0  0.13118605407E+03 -0.61854905863E+02 -0.96600732894E+02  0.17426276641E+03  0.00000000000E+00 0.  1.
         12    1    3    3    0    0  0.33637331156E+02  0.24046607271E+02 -0.37295784128E+02  0.55683793713E+02  0.00000000000E+00 0. -1.
        -13    1    5    5    0    0  0.17282752448E+02 -0.58319916309E+02  0.11293363670E+03  0.12827280487E+03  0.00000000000E+00 0.  1.
         14    1    5    5    0    0 -0.63357597385E+02 -0.56223277054E+02  0.21497703215E+03  0.23106355485E+03  0.00000000000E+00 0. -1.
          5    1    4    4  501    0 -0.25037300910E+03  0.56684307598E+02  0.35373977335E+03  0.43709686760E+03  0.47000000000E+01 0.  1.
         -5    1    4    4    0  501 -0.40420723806E+02  0.23826145340E+02  0.20267915932E+03  0.20809241153E+03  0.47000000000E+01 0.  1.
          1    1    1    2  502    0  0.81853682480E+02  0.74453850940E+02 -0.58751860954E+03  0.59784740345E+03  0.00000000000E+00 0. -1.
          1    1    1    2  503    0  0.90191510136E+02 -0.26128119224E+01  0.49428463946E+03  0.50245262473E+03  0.00000000000E+00 0. -1.
<mgrwt>
<rscale>  0 0.10007125E+03</rscale>
<asrwt>0</asrwt>
<pdfrwt beam="1">  1        2 0.21999789E+00 0.90229348E+02</pdfrwt>
<pdfrwt beam="2">  1        2 0.12335096E+00 0.11098667E+03</pdfrwt>
<totfact> 0.92428711E+01</totfact>
</mgrwt>
</event>
<event>
13    1  0.2038932E-008  0.9942546E+02  0.7546771E-02  0.1314217E+00
         -1   -1    0    0    0  501  0.00000000000E+00  0.00000000000E+00  0.15597749121E+04  0.15597749121E+04  0.00000000000E+00 0.  1.
         -1   -1    0    0    0  502 -0.00000000000E+00 -0.00000000000E+00 -0.48588169508E+03  0.48588169508E+03  0.00000000000E+00 0.  1.
         24    2    1    2    0    0 -0.10643584574E+03 -0.16965279860E+02 -0.25802336374E+02  0.13697474172E+03  0.80497884001E+02 0.  0.
         25    2    1    2    0    0  0.28240605123E+03  0.14367671261E+03  0.35864932204E+03  0.49462940266E+03  0.12503093320E+03 0.  0.
         24    2    1    2    0    0 -0.84931433432E+02 -0.73109269747E+01  0.47492782102E+03  0.48894407701E+03  0.79013145950E+02 0.  0.
        -11    1    5    5    0    0 -0.87050200967E+02 -0.13369649496E+01  0.26528392711E+03  0.27920438204E+03  0.00000000000E+00 0.  1.
         12    1    5    5    0    0  0.21187675350E+01 -0.59739620250E+01  0.20964389390E+03  0.20973969498E+03  0.00000000000E+00 0. -1.
        -13    1    3    3    0    0 -0.65087413155E+02 -0.38374722479E+02 -0.43473480584E+02  0.87171865820E+02  0.00000000000E+00 0.  1.
         14    1    3    3    0    0 -0.41348432583E+02  0.21409442619E+02  0.17671144209E+02  0.49802875901E+02  0.00000000000E+00 0. -1.
          5    1    4    4  503    0  0.98302399758E+02 -0.83568063432E+01  0.13636611810E+03  0.16837757029E+03  0.47000000000E+01 0. -1.
         -5    1    4    4    0  503  0.18410365147E+03  0.15203351896E+03  0.22228320394E+03  0.32625183237E+03  0.47000000000E+01 0. -1.
         -2    1    1    2    0  501 -0.87015032961E+02 -0.46043280802E+02  0.58737015380E+03  0.59556300862E+03  0.00000000000E+00 0.  1.
         -2    1    1    2    0  502 -0.40237391005E+01 -0.73357224977E+02 -0.32125174345E+03  0.32954537716E+03  0.00000000000E+00 0.  1.
<mgrwt>
<rscale>  0 0.85466598E+02</rscale>
<asrwt>0</asrwt>
<pdfrwt beam="1">  1       -1 0.22937866E+00 0.99425458E+02</pdfrwt>
<pdfrwt beam="2">  1       -1 0.71453191E-01 0.73467496E+02</pdfrwt>
<totfact> 0.21456968E+00</totfact>
</mgrwt>
</event>
<event>
13    1  0.2038932E-008  0.1060327E+03  0.7546771E-02  0.1453304E+00
          2   -1    0    0  503    0  0.00000000000E+00  0.00000000000E+00  0.21607821309E+04  0.21607821309E+04  0.00000000000E+00 0. -1.
          2   -1    0    0  502    0 -0.00000000000E+00 -0.00000000000E+00 -0.25156570568E+04  0.25156570568E+04  0.00000000000E+00 0. -1.
         24    2    1    2    0    0  0.28882177142E+03  0.54859981035E+03 -0.12390482595E+02  0.62249194694E+03  0.54432824497E+02 0.  0.
         25    2    1    2    0    0 -0.22912415149E+03 -0.13297872563E+04 -0.13802611056E+04  0.19343155279E+04  0.12499527228E+03 0.  0.
         24    2    1    2    0    0 -0.32592931288E+02  0.65606899624E+03  0.68943718999E+03  0.95566966749E+03  0.80573242548E+02 0.  0.
        -13    1    5    5    0    0 -0.33484303320E+02  0.22982110607E+03  0.19857352651E+03  0.30556568000E+03  0.00000000000E+00 0.  1.
         14    1    5    5    0    0  0.89137203134E+00  0.42624789017E+03  0.49086366348E+03  0.65010398748E+03  0.00000000000E+00 0. -1.
        -13    1    3    3    0    0  0.50085572465E+02  0.58152282258E+02  0.30256689217E+01  0.76807598409E+02  0.00000000000E+00 0.  1.
         14    1    3    3    0    0  0.23873619896E+03  0.49044752809E+03 -0.15416151516E+02  0.54568434853E+03  0.00000000000E+00 0. -1.
          5    1    4    4  501    0 -0.82122043814E+02 -0.66166064332E+03 -0.75812627448E+03  0.10096119923E+04  0.47000000000E+01 0. -1.
         -5    1    4    4    0  501 -0.14700210768E+03 -0.66812661293E+03 -0.62213483109E+03  0.92470353553E+03  0.47000000000E+01 0. -1.
          1    1    1    2  502    0 -0.73589903393E+01  0.20979908686E+02 -0.40378952295E+03  0.40440115004E+03  0.00000000000E+00 0. -1.
          1    1    1    2  503    0 -0.19745698303E+02  0.10413854097E+03  0.75212899527E+03  0.75956089541E+03  0.00000000000E+00 0. -1.
<mgrwt>
<rscale>  0 0.48553442E+02</rscale>
<asrwt>0</asrwt>
<pdfrwt beam="1">  1        2 0.31776208E+00 0.10603269E+03</pdfrwt>
<pdfrwt beam="2">  1        2 0.36994957E+00 0.22233113E+02</pdfrwt>
<totfact> 0.75610728E+00</totfact>
</mgrwt>
</event>
<event>
13    1  0.2038932E-008  0.1770409E+03  0.7546771E-02  0.1271266E+00
          2   -1    0    0  503    0  0.00000000000E+00  0.00000000000E+00  0.29069420799E+04  0.29069420799E+04  0.00000000000E+00 0. -1.
         -3   -1    0    0    0  501 -0.00000000000E+00 -0.00000000000E+00 -0.78701747362E+03  0.78701747362E+03  0.00000000000E+00 0.  1.
         24    2    1    2    0    0 -0.72019213753E+02 -0.15099325649E+03  0.19703863313E+03  0.27047752768E+03  0.79675211839E+02 0.  0.
         25    2    1    2    0    0  0.13831897333E+03  0.17969493779E+03 -0.10409235784E+03  0.27907286077E+03  0.12499613437E+03 0.  0.
         24    2    1    2    0    0  0.75187589000E+02  0.69955533525E+02 -0.33068981182E+02  0.12887504177E+03  0.70485946576E+02 0.  0.
        -11    1    5    5    0    0  0.78714294118E+02  0.38934276974E+02 -0.68122628481E+01  0.88080786481E+02  0.00000000000E+00 0.  1.
         12    1    5    5    0    0 -0.35267051183E+01  0.31021256551E+02 -0.26256718334E+02  0.40794255290E+02  0.00000000000E+00 0. -1.
        -13    1    3    3    0    0  0.15040749720E+02 -0.29002145218E+02  0.19141440813E+02  0.37864803390E+02  0.00000000000E+00 0.  1.
         14    1    3    3    0    0 -0.87059963473E+02 -0.12199111127E+03  0.17789719231E+03  0.23261272429E+03  0.00000000000E+00 0. -1.
          5    1    4    4  502    0 -0.23329432667E+02  0.30346092951E+02 -0.19850854349E+02  0.43373888508E+02  0.47000000000E+01 0. -1.
         -5    1    4    4    0  502  0.16164840600E+03  0.14934884483E+03 -0.84241503496E+02  0.23569897226E+03  0.47000000000E+01 0. -1.
          1    1    1    2  503    0 -0.10060306297E+03 -0.14471746278E+03  0.25327304575E+04  0.25388555868E+04  0.00000000000E+00 0. -1.
         -4    1    1    2    0  501 -0.40884285603E+02  0.46060247962E+02 -0.47268314533E+03  0.47667853647E+03  0.00000000000E+00 0.  1.
<mgrwt>
<rscale>  0 0.10442019E+03</rscale>
<asrwt>0</asrwt>
<pdfrwt beam="1">  1        2 0.42749148E+00 0.17704085E+03</pdfrwt>
<pdfrwt beam="2">  1       -3 0.11573786E+00 0.61587915E+02</pdfrwt>
<totfact> 0.11773260E+00</totfact>
</mgrwt>
</event>
<event>
13    1  0.2038932E-008  0.1269084E+03  0.7546771E-02  0.1353431E+00
          2   -1    0    0  502    0  0.00000000000E+00  0.00000000000E+00  0.18391834607E+04  0.18391834607E+04  0.00000000000E+00 0. -1.
          2   -1    0    0  503    0 -0.00000000000E+00 -0.00000000000E+00 -0.20422255425E+04  0.20422255425E+04  0.00000000000E+00 0. -1.
         24    2    1    2    0    0  0.19515363506E+02 -0.33116537247E+02 -0.52181956254E+03  0.52930461741E+03  0.79938524558E+02 0.  0.
         25    2    1    2    0    0  0.67662148943E+02 -0.57690729550E+02  0.19136220504E+03  0.24525663576E+03  0.12499974875E+03 0.  0.
         24    2    1    2    0    0 -0.42454225702E+01  0.12591751943E+03  0.25760183802E+02  0.15257844773E+03  0.82117905042E+02 0.  0.
        -11    1    3    3    0    0  0.92420455128E+01  0.11584065790E+02 -0.17620293143E+02  0.23023481837E+02  0.00000000000E+00 0.  1.
         12    1    3    3    0    0  0.10273317993E+02 -0.44700603036E+02 -0.50419926940E+03  0.50628113557E+03  0.00000000000E+00 0. -1.
        -13    1    5    5    0    0 -0.18688241897E+02  0.13185415834E+03  0.15917342847E+02  0.13411983917E+03  0.00000000000E+00 0.  1.
         14    1    5    5    0    0  0.14442819327E+02 -0.59366389081E+01  0.98428409547E+01  0.18458608553E+02  0.00000000000E+00 0. -1.
          5    1    4    4  501    0  0.47850405757E+02 -0.82086616799E+02  0.65636301654E+02  0.11557719534E+03  0.47000000000E+01 0.  1.
         -5    1    4    4    0  501  0.19811743186E+02  0.24395887249E+02  0.12572590339E+03  0.12967944041E+03  0.47000000000E+01 0.  1.
          1    1    1    2  502    0 -0.12375947237E+03 -0.33918080489E+02  0.15249744624E+04  0.15303639940E+04  0.00000000000E+00 0. -1.
          1    1    1    2  503    0  0.40827382495E+02 -0.11921721463E+01 -0.14233193705E+04  0.14239053083E+04  0.00000000000E+00 0. -1.
<mgrwt>
<rscale>  0 0.71996845E+02</rscale>
<asrwt>0</asrwt>
<pdfrwt beam="1">  1        2 0.27046816E+00 0.12690839E+03</pdfrwt>
<pdfrwt beam="2">  1        2 0.30032728E+00 0.40844785E+02</pdfrwt>
<totfact> 0.16116990E+01</totfact>
</mgrwt>
</event>
<event>
13    1  0.2038932E-008  0.4325905E+02  0.7546771E-02  0.1586418E+00
          2   -1    0    0  502    0  0.00000000000E+00  0.00000000000E+00  0.17381659619E+04  0.17381659619E+04  0.00000000000E+00 0. -1.
          2   -1    0    0  503    0 -0.00000000000E+00 -0.00000000000E+00 -0.12740099883E+04  0.12740099883E+04  0.00000000000E+00 0. -1.
         24    2    1    2    0    0  0.27048150066E+02 -0.10896757664E+03 -0.33864148400E+03  0.36571406458E+03  0.80393949794E+02 0.  0.
         25    2    1    2    0    0  0.42369637479E+02  0.14369078029E+03  0.25358685133E+03  0.31995891576E+03  0.12500076032E+03 0.  0.
         24    2    1    2    0    0 -0.27940305996E+02 -0.70465185563E+02 -0.10309690734E+03  0.15130038590E+03  0.80726893869E+02 0.  0.
        -11    1    5    5    0    0  0.27561256357E+00 -0.52474496079E+02 -0.10541798385E+03  0.11775652857E+03  0.00000000000E+00 0.  1.
         12    1    5    5    0    0 -0.28215918560E+02 -0.17990689484E+02  0.23210765117E+01  0.33543857328E+02  0.00000000000E+00 0. -1.
        -13    1    3    3    0    0 -0.23802875942E+02 -0.64758795643E+02 -0.14256009702E+03  0.15837821750E+03  0.00000000000E+00 0.  1.
         14    1    3    3    0    0  0.50851026008E+02 -0.44208780998E+02 -0.19608138699E+03  0.20733584708E+03  0.00000000000E+00 0. -1.
          5    1    4    4  501    0  0.74287025281E+02  0.51830560001E+02  0.80046802693E+02  0.12097334292E+03  0.47000000000E+01 0. -1.
         -5    1    4    4    0  501 -0.31917387802E+02  0.91860220290E+02  0.17354004864E+03  0.19898557284E+03  0.47000000000E+01 0. -1.
          1    1    1    2  502    0 -0.19338925360E+02  0.38690385577E+02  0.14132603235E+04  0.14139220919E+04  0.00000000000E+00 0. -1.
          1    1    1    2  503    0 -0.22138556189E+02 -0.29484036641E+01 -0.76095280988E+03  0.76128049207E+03  0.00000000000E+00 0. -1.
<mgrwt>
<rscale>  0 0.31082934E+02</rscale>
<asrwt>0</asrwt>
<pdfrwt beam="1">  1        2 0.25561264E+00 0.43259050E+02</pdfrwt>
<pdfrwt beam="2">  1        2 0.18735441E+00 0.22334027E+02</pdfrwt>
<totfact> 0.47704169E+01</totfact>
</mgrwt>
</event>
<event>
13    1  0.2038932E-008  0.7248491E+02  0.7546771E-02  0.1416358E+00
          2   -1    0    0  502    0  0.00000000000E+00  0.00000000000E+00  0.13602837372E+04  0.13602837372E+04  0.00000000000E+00 0. -1.
          2   -1    0    0  503    0 -0.00000000000E+00 -0.00000000000E+00 -0.99018295760E+03  0.99018295760E+03  0.00000000000E+00 0. -1.
         24    2    1    2    0    0 -0.24491405383E+03  0.46291323202E+03 -0.34819384937E+03  0.63445211140E+03  0.83779298046E+02 0.  0.
         25    2    1    2    0    0 -0.27864607177E+03 -0.33839682357E+03 -0.50666446672E+02  0.45863889200E+03  0.12500600354E+03 0.  0.
         24    2    1    2    0    0  0.47676901109E+03 -0.97189861464E+02  0.25378210225E+03  0.55501733381E+03  0.82971840416E+02 0.  0.
        -11    1    5    5    0    0  0.25608115978E+03 -0.71973886826E+02  0.97007191540E+02  0.28313988767E+03  0.00000000000E+00 0.  1.
         12    1    5    5    0    0  0.22068785131E+03 -0.25215974638E+02  0.15677491071E+03  0.27187744614E+03  0.00000000000E+00 0. -1.
        -13    1    3    3    0    0 -0.18274560135E+03  0.32202038844E+03 -0.20043395620E+03  0.42103070693E+03  0.00000000000E+00 0.  1.
         14    1    3    3    0    0 -0.62168452478E+02  0.14089284358E+03 -0.14775989317E+03  0.21342140447E+03  0.00000000000E+00 0. -1.
          5    1    4    4  501    0 -0.12279697494E+03 -0.11207280195E+03  0.36573305140E+02  0.17029124064E+03  0.47000000000E+01 0. -1.
         -5    1    4    4    0  501 -0.15584909683E+03 -0.22632402162E+03 -0.87239751812E+02  0.28834765136E+03  0.47000000000E+01 0. -1.
          1    1    1    2  502    0  0.29094309374E+02 -0.66465729744E+02  0.60154268412E+03  0.60590244502E+03  0.00000000000E+00 0. -1.
          1    1    1    2  503    0  0.17696805136E+02  0.39139182757E+02 -0.86363710723E+02  0.96455912565E+02  0.00000000000E+00 0. -1.
<mgrwt>
<rscale>  0 0.55798943E+02</rscale>
<asrwt>0</asrwt>
<pdfrwt beam="1">  1        2 0.20004173E+00 0.72484906E+02</pdfrwt>
<pdfrwt beam="2">  1        2 0.14561514E+00 0.42954075E+02</pdfrwt>
<totfact> 0.92911909E+01</totfact>
</mgrwt>
</event>
<event>
13    1  0.2038932E-008  0.1264715E+03  0.7546771E-02  0.1330884E+00
          2   -1    0    0  502    0  0.00000000000E+00  0.00000000000E+00  0.97561620551E+03  0.97561620551E+03  0.00000000000E+00 0. -1.
          2   -1    0    0  503    0 -0.00000000000E+00 -0.00000000000E+00 -0.24261759799E+04  0.24261759799E+04  0.00000000000E+00 0. -1.
         24    2    1    2    0    0 -0.29498806348E+02 -0.19609110994E+02 -0.60895093262E+03  0.61400259061E+03  0.70165847337E+02 0.  0.
         25    2    1    2    0    0  0.36843993670E+02  0.21154228622E+03 -0.12198550643E+02  0.24875993317E+03  0.12500032393E+03 0.  0.
         24    2    1    2    0    0 -0.92699870085E+02 -0.72035240874E+02  0.24483163974E+03  0.28240664628E+03  0.77644318538E+02 0.  0.
        -11    1    3    3    0    0 -0.63126154426E+00 -0.23416947269E+02 -0.51745986739E+03  0.51798983220E+03  0.00000000000E+00 0.  1.
         12    1    3    3    0    0 -0.28867544803E+02  0.38078362749E+01 -0.91491065229E+02  0.96012758406E+02  0.00000000000E+00 0. -1.
        -13    1    5    5    0    0 -0.66623395380E+02 -0.71520308171E+02  0.23502924997E+03  0.25454386583E+03  0.00000000000E+00 0.  1.
         14    1    5    5    0    0 -0.26076474705E+02 -0.51493270377E+00  0.98023897719E+01  0.27862780442E+02  0.00000000000E+00 0. -1.
          5    1    4    4  501    0  0.37062216328E+02  0.21127136324E+03 -0.41971861356E+02  0.21861592794E+03  0.47000000000E+01 0. -1.
         -5    1    4    4    0  501 -0.21822265819E+00  0.27092298304E+00  0.29773310712E+02  0.30144005228E+02  0.47000000000E+01 0. -1.
          1    1    1    2  502    0  0.10298384325E+03 -0.73328104250E+02  0.58405385822E+03  0.59757977889E+03  0.00000000000E+00 0. -1.
          1    1    1    2  503    0 -0.17629160486E+02 -0.46569830101E+02 -0.16582957891E+04  0.16590432364E+04  0.00000000000E+00 0. -1.
<mgrwt>
<rscale>  0 0.79357663E+02</rscale>
<asrwt>0</asrwt>
<pdfrwt beam="1">  1        2 0.14347298E+00 0.12647145E+03</pdfrwt>
<pdfrwt beam="2">  1        2 0.35679058E+00 0.49794943E+02</pdfrwt>
<totfact> 0.29124016E+01</totfact>
</mgrwt>
</event>
<event>
13    1  0.2038932E-008  0.1102339E+03  0.7546771E-02  0.1324108E+00
          2   -1    0    0  503    0  0.00000000000E+00  0.00000000000E+00  0.45442947853E+03  0.45442947853E+03  0.00000000000E+00 0. -1.
          2   -1    0    0  502    0 -0.00000000000E+00 -0.00000000000E+00 -0.13722990699E+04  0.13722990699E+04  0.00000000000E+00 0. -1.
         24    2    1    2    0    0  0.22205705477E+02  0.16242077281E+03  0.55030276504E+02  0.18691605034E+03  0.70962509458E+02 0.  0.
         25    2    1    2    0    0 -0.10214053887E+03 -0.23810544560E+03 -0.12372375779E+03  0.31314251829E+03  0.12499510237E+03 0.  0.
         24    2    1    2    0    0  0.98506861537E+02  0.18115225685E+02  0.38716551298E+02  0.13470425206E+03  0.81329582600E+02 0.  0.
        -11    1    3    3    0    0  0.46001215877E+02  0.10575832786E+03  0.22951012598E+02  0.11759117634E+03  0.00000000000E+00 0.  1.
         12    1    3    3    0    0 -0.23795510400E+02  0.56662444945E+02  0.32079263906E+02  0.69324874000E+02  0.00000000000E+00 0. -1.
        -13    1    5    5    0    0  0.10657278966E+03 -0.27020449108E+01  0.33879406029E+02  0.11186096144E+03  0.00000000000E+00 0.  1.
         14    1    5    5    0    0 -0.80659281228E+01  0.20817270596E+02  0.48371452689E+01  0.22843290610E+02  0.00000000000E+00 0. -1.
          5    1    4    4  501    0  0.92053767640E+01  0.73969055691E+01 -0.21152102817E+02  0.24677006037E+02  0.47000000000E+01 0.  1.
         -5    1    4    4    0  501 -0.11134591564E+03 -0.24550235117E+03 -0.10257165497E+03  0.28846551226E+03  0.47000000000E+01 0.  1.
          1    1    1    2  502    0 -0.23303666112E+02 -0.55997479607E+02 -0.10176547088E+04  0.10194605853E+04  0.00000000000E+00 0. -1.
          1    1    1    2  503    0  0.47316379723E+01  0.11356692671E+03  0.12976204740E+03  0.17250514249E+03  0.00000000000E+00 0. -1.
<mgrwt>
<rscale>  0 0.81768030E+02</rscale>
<asrwt>0</asrwt>
<pdfrwt beam="1">  1        2 0.66827864E-01 0.11023392E+03</pdfrwt>
<pdfrwt beam="2">  1        2 0.20180869E+00 0.60652935E+02</pdfrwt>
<totfact> 0.21956965E+02</totfact>
</mgrwt>
</event>
<event>
13    1  0.2038932E-008  0.1360095E+03  0.7546771E-02  0.1270661E+00
          2   -1    0    0  502    0  0.00000000000E+00  0.00000000000E+00  0.32472455725E+04  0.32472455725E+04  0.00000000000E+00 0. -1.
          2   -1    0    0  503    0 -0.00000000000E+00 -0.00000000000E+00 -0.20746279740E+04  0.20746279740E+04  0.00000000000E+00 0. -1.
         24    2    1    2    0    0 -0.12586866090E+02  0.21132780447E+02 -0.34209027266E+03  0.35234331732E+03  0.80715766771E+02 0.  0.
         25    2    1    2    0    0 -0.25167651802E+03  0.25330014024E+02  0.20077411371E+04  0.20274691899E+04  0.12499665293E+03 0.  0.
         24    2    1    2    0    0  0.24621735689E+03 -0.13510419502E+03 -0.11896416334E+03  0.31518815974E+03  0.79466807759E+02 0.  0.
        -13    1    5    5    0    0  0.14601467923E+03 -0.34872550091E+02 -0.63272912700E+02  0.16291053613E+03  0.00000000000E+00 0.  1.
         14    1    5    5    0    0  0.10020267767E+03 -0.10023164492E+03 -0.55691250644E+02  0.15227762362E+03  0.00000000000E+00 0. -1.
        -13    1    3    3    0    0 -0.38647552090E+02 -0.13564036360E+02 -0.17063444792E+03  0.17548142689E+03  0.00000000000E+00 0.  1.
         14    1    3    3    0    0  0.26060686000E+02  0.34696816808E+02 -0.17145582474E+03  0.17686189043E+03  0.00000000000E+00 0. -1.
          5    1    4    4  501    0 -0.85551927970E+02  0.52007460735E+02  0.47155649597E+03  0.48209078734E+03  0.47000000000E+01 0. -1.
         -5    1    4    4    0  501 -0.16612459004E+03 -0.26677446712E+02  0.15361846411E+04  0.15453784026E+04  0.47000000000E+01 0. -1.
          1    1    1    2  502    0 -0.69109570713E+02  0.11807380802E+03  0.11208285162E+04  0.11291475190E+04  0.00000000000E+00 0. -1.
          1    1    1    2  503    0  0.87155597927E+02 -0.29432407473E+02 -0.14948976188E+04  0.14977253606E+04  0.00000000000E+00 0. -1.
<mgrwt>
<rscale>  0 0.10472555E+03</rscale>
<asrwt>0</asrwt>
<pdfrwt beam="1">  1        2 0.47753612E+00 0.13600954E+03</pdfrwt>
<pdfrwt beam="2">  1        2 0.30509235E+00 0.80637294E+02</pdfrwt>
<totfact> 0.27131680E+00</totfact>
</mgrwt>
</event>
<event>
13    1  0.2038932E-008  0.8323890E+02  0.7546771E-02  0.1365460E+00
          2   -1    0    0  502    0  0.00000000000E+00  0.00000000000E+00  0.86575881541E+03  0.86575881541E+03  0.00000000000E+00 0. -1.
          2   -1    0    0  503    0 -0.00000000000E+00 -0.00000000000E+00 -0.11967535627E+04  0.11967535627E+04  0.00000000000E+00 0. -1.
         24    2    1    2    0    0 -0.10587560131E+03  0.47179574976E+01 -0.55804887993E+03  0.57387522041E+03  0.81745422727E+02 0.  0.
         25    2    1    2    0    0 -0.71262126619E+02  0.21493163243E+03 -0.34419267791E+02  0.26092817472E+03  0.12499971624E+03 0.  0.
         24    2    1    2    0    0  0.13413230765E+03 -0.13063128475E+03 -0.15532875190E+03  0.25687320899E+03  0.82467058998E+02 0.  0.
        -11    1    5    5    0    0  0.82705527763E+02 -0.12525188124E+03 -0.13303123884E+03  0.20056307881E+03  0.00000000000E+00 0.  1.
         12    1    5    5    0    0  0.51426779890E+02 -0.53794035107E+01 -0.22297513060E+02  0.56310130178E+02  0.00000000000E+00 0. -1.
        -13    1    3    3    0    0 -0.25775351164E+02  0.36693930791E+02 -0.13940641595E+03  0.14644098502E+03  0.00000000000E+00 0.  1.
         14    1    3    3    0    0 -0.80100250143E+02 -0.31975973294E+02 -0.41864246398E+03  0.42743423539E+03  0.00000000000E+00 0. -1.
          5    1    4    4  501    0 -0.62057525711E+02  0.74659560973E+02 -0.65079742035E+02  0.11697285739E+03  0.47000000000E+01 0.  1.
         -5    1    4    4    0  501 -0.92046009084E+01  0.14027207145E+03  0.30660474245E+02  0.14395531733E+03  0.47000000000E+01 0.  1.
          1    1    1    2  502    0 -0.29454928080E+02 -0.47958322675E+02  0.68638109871E+03  0.68868469286E+03  0.00000000000E+00 0. -1.
          1    1    1    2  503    0  0.72460348353E+02 -0.41059982502E+02 -0.26957894641E+03  0.28215108115E+03  0.00000000000E+00 0. -1.
<mgrwt>
<rscale>  0 0.68445601E+02</rscale>
<asrwt>0</asrwt>
<pdfrwt beam="1">  1        2 0.12731747E+00 0.56281378E+02</pdfrwt>
<pdfrwt beam="2">  1        2 0.17599317E+00 0.83238904E+02</pdfrwt>
<totfact> 0.13020179E+02</totfact>
</mgrwt>
</event>
<event>
13    1  0.2038932E-008  0.3489734E+02  0.7546771E-02  0.1627366E+00
          2   -1    0    0  502    0  0.00000000000E+00  0.00000000000E+00  0.15259772369E+04  0.15259772369E+04  0.00000000000E+00 0. -1.
          2   -1    0    0  503    0 -0.00000000000E+00 -0.00000000000E+00 -0.49285583097E+03  0.49285583097E+03  0.00000000000E+00 0. -1.
         24    2    1    2    0    0  0.20269546608E+03 -0.21412586768E+03  0.28671918790E+03  0.41905653849E+03  0.80406159971E+02 0.  0.
         25    2    1    2    0    0 -0.21929764390E+03  0.16427572436E+03  0.37502619956E+02  0.30349447542E+03  0.12499791946E+03 0.  0.
         24    2    1    2    0    0  0.13716784360E+01  0.82275470430E+02  0.39971196168E+03  0.41595166122E+03  0.80467369953E+02 0.  0.
        -11    1    5    5    0    0  0.15714783095E+02  0.49292161675E+01  0.12097300829E+02  0.20435172304E+02  0.00000000000E+00 0.  1.
         12    1    5    5    0    0 -0.14343104659E+02  0.77346254263E+02  0.38761466085E+03  0.39551648892E+03  0.00000000000E+00 0. -1.
        -13    1    3    3    0    0  0.69747646773E+02 -0.11626568346E+03  0.92355429100E+02  0.16404867773E+03  0.00000000000E+00 0.  1.
         14    1    3    3    0    0  0.13294781931E+03 -0.97860184220E+02  0.19436375880E+03  0.25500786076E+03  0.00000000000E+00 0. -1.
          5    1    4    4  501    0 -0.14698063190E+03  0.75992788302E+02 -0.33665043313E+02  0.16891901956E+03  0.47000000000E+01 0.  1.
         -5    1    4    4    0  501 -0.72317012002E+02  0.88282936057E+02  0.71167663269E+02  0.13457545586E+03  0.47000000000E+01 0.  1.
          1    1    1    2  502    0  0.21603616960E+02  0.18918816713E+01  0.59349370086E+03  0.59388977803E+03  0.00000000000E+00 0. -1.
          1    1    1    2  503    0 -0.63731175756E+01 -0.34317208783E+02 -0.28430606449E+03  0.28644061470E+03  0.00000000000E+00 0. -1.
<mgrwt>
<rscale>  0 0.27509890E+02</rscale>
<asrwt>0</asrwt>
<pdfrwt beam="1">  1        2 0.22440841E+00 0.21686297E+02</pdfrwt>
<pdfrwt beam="2">  1        2 0.72478799E-01 0.34897338E+02</pdfrwt>
<totfact> 0.18739950E+02</totfact>
</mgrwt>
</event>
<event>
13    1  0.2038932E-008  0.6662551E+02  0.7546771E-02  0.1488000E+00
          2   -1    0    0  502    0  0.00000000000E+00  0.00000000000E+00  0.26383986851E+04  0.26383986851E+04  0.00000000000E+00 0. -1.
          2   -1    0    0  503    0 -0.00000000000E+00 -0.00000000000E+00 -0.19208838007E+03  0.19208838007E+03  0.00000000000E+00 0. -1.
         24    2    1    2    0    0  0.32947203480E+02  0.55599674314E+02  0.10481827385E+03  0.14489279739E+03  0.76355813139E+02 0.  0.
         25    2    1    2    0    0 -0.13120149781E+03  0.61504687031E+02  0.13178389003E+03  0.23235409436E+03  0.12499908775E+03 0.  0.
         24    2    1    2    0    0  0.14334586917E+03 -0.83050131732E+02  0.73245970359E+03  0.75528770862E+03  0.80727584092E+02 0.  0.
        -13    1    5    5    0    0  0.17724416271E+02 -0.40327697565E+02  0.10350135613E+03  0.11248559394E+03  0.00000000000E+00 0.  1.
         14    1    5    5    0    0  0.12562145290E+03 -0.42722434167E+02  0.62895834746E+03  0.64280211469E+03  0.00000000000E+00 0. -1.
        -13    1    3    3    0    0 -0.21446878831E+02  0.15716785276E+01  0.35661937153E+02  0.41643877659E+02  0.00000000000E+00 0.  1.
         14    1    3    3    0    0  0.54394082311E+02  0.54027995786E+02  0.69156336699E+02  0.10324891973E+03  0.00000000000E+00 0. -1.
          5    1    4    4  501    0 -0.99206961383E+02  0.99393317993E+02  0.10762419556E+03  0.17699183687E+03  0.47000000000E+01 0. -1.
         -5    1    4    4    0  501 -0.31994536429E+02 -0.37888630962E+02  0.24159694475E+02  0.55362257492E+02  0.47000000000E+01 0. -1.
          1    1    1    2  502    0 -0.32212366022E+02 -0.58468144643E+02  0.15851608136E+04  0.15865657772E+04  0.00000000000E+00 0. -1.
          1    1    1    2  503    0 -0.12879208817E+02  0.24413915030E+02 -0.10791237604E+03  0.11138668758E+03  0.00000000000E+00 0. -1.
<mgrwt>
<rscale>  0 0.42884137E+02</rscale>
<asrwt>0</asrwt>
<pdfrwt beam="1">  1        2 0.38799979E+00 0.66625514E+02</pdfrwt>
<pdfrwt beam="2">  1        2 0.28248293E-01 0.27602776E+02</pdfrwt>
<totfact> 0.12853433E+02</totfact>
</mgrwt>
</event>
<event>
13    1  0.2038932E-008  0.4659062E+02  0.7546771E-02  0.1523723E+00
          2   -1    0    0  502    0  0.00000000000E+00  0.00000000000E+00  0.22695403401E+04  0.22695403401E+04  0.00000000000E+00 0. -1.
          2   -1    0    0  503    0 -0.00000000000E+00 -0.00000000000E+00 -0.92711791787E+03  0.92711791787E+03  0.00000000000E+00 0. -1.
         24    2    1    2    0    0  0.14316503940E+03  0.98339280629E+02 -0.49713335627E+03  0.53170436369E+03  0.73492270546E+02 0.  0.
         25    2    1    2    0    0 -0.17111581345E+03  0.93213660862E+02  0.23779518302E+03  0.33187466783E+03  0.12499935159E+03 0.  0.
         24    2    1    2    0    0  0.32606854403E+01 -0.15945375366E+03  0.27358710002E+02  0.18095340724E+03  0.80990770803E+02 0.  0.
        -13    1    3    3    0    0  0.72177887927E+02  0.80784477677E+02 -0.36438403581E+03  0.38014668865E+03  0.00000000000E+00 0.  1.
         14    1    3    3    0    0  0.70987151470E+02  0.17554802953E+02 -0.13274932046E+03  0.15155767504E+03  0.00000000000E+00 0. -1.
        -13    1    5    5    0    0 -0.10942643202E+02 -0.29182121287E+02 -0.24882179060E+02  0.39880577702E+02  0.00000000000E+00 0.  1.
         14    1    5    5    0    0  0.14203328642E+02 -0.13027163237E+03  0.52240889063E+02  0.14107282954E+03  0.00000000000E+00 0. -1.
          5    1    4    4  501    0 -0.18974384264E+03  0.73819940825E+02  0.20182373831E+03  0.28671766746E+03  0.47000000000E+01 0. -1.
         -5    1    4    4    0  501  0.18628029198E+02  0.19393720037E+02  0.35971444706E+02  0.45157000375E+02  0.47000000000E+01 0. -1.
          1    1    1    2  502    0 -0.21019016839E+02 -0.22705102235E+02  0.18612498240E+04  0.18615069777E+04  0.00000000000E+00 0. -1.
          1    1    1    2  503    0  0.45709105448E+02 -0.93940856006E+01 -0.28684793855E+03  0.29061884147E+03  0.00000000000E+00 0. -1.
<mgrwt>
<rscale>  0 0.37967641E+02</rscale>
<asrwt>0</asrwt>
<pdfrwt beam="1">  1        2 0.33375593E+00 0.30940600E+02</pdfrwt>
<pdfrwt beam="2">  1        2 0.13634087E+00 0.46590621E+02</pdfrwt>
<totfact> 0.41106862E+01</totfact>
</mgrwt>
</event>
<event>
13    1  0.2038932E-008  0.1986001E+03  0.7546771E-02  0.1283643E+00
          2   -1    0    0  503    0  0.00000000000E+00  0.00000000000E+00  0.21236768666E+04  0.21236768666E+04  0.00000000000E+00 0. -1.
         -1   -1    0    0    0  501 -0.00000000000E+00 -0.00000000000E+00 -0.34305249798E+03  0.34305249798E+03  0.00000000000E+00 0.  1.
         24    2    1    2    0    0  0.56554122591E+02 -0.30607387606E+02  0.26118252917E+03  0.28062080161E+03  0.79978370775E+02 0.  0.
         25    2    1    2    0    0  0.71199904482E+02 -0.11399068624E+03  0.47747213166E+02  0.18964433285E+03  0.12498749405E+03 0.  0.
         24    2    1    2    0    0 -0.24483246782E+03  0.44052907351E+03  0.42340070856E+03  0.66270387215E+03  0.76807943901E+02 0.  0.
        -11    1    5    5    0    0 -0.39117691264E+02  0.85522290372E+02  0.11973337705E+03  0.15225090312E+03  0.00000000000E+00 0.  1.
         12    1    5    5    0    0 -0.20571477655E+03  0.35500678313E+03  0.30366733151E+03  0.51045296903E+03  0.00000000000E+00 0. -1.
        -11    1    3    3    0    0  0.11898283319E+02  0.19323387102E+02  0.19802197678E+02  0.30117926022E+02  0.00000000000E+00 0.  1.
         12    1    3    3    0    0  0.44655839272E+02 -0.49930774708E+02  0.24138033149E+03  0.25050287558E+03  0.00000000000E+00 0. -1.
          5    1    4    4  502    0 -0.35472113822E+02 -0.34648535170E+02  0.57170777123E+01  0.50135484698E+02  0.47000000000E+01 0.  1.
         -5    1    4    4    0  502  0.10667201830E+03 -0.79342151071E+02  0.42030135454E+02  0.13950884815E+03  0.47000000000E+01 0.  1.
          1    1    1    2  503    0  0.16241168995E+03 -0.27792319795E+03  0.11642665852E+04  0.12079468293E+04  0.00000000000E+00 0. -1.
         -2    1    1    2    0  501 -0.45333249201E+02 -0.18007801706E+02 -0.11597266746E+03  0.12581352870E+03  0.00000000000E+00 0.  1.
<mgrwt>
<rscale>  0 0.98425101E+02</rscale>
<asrwt>0</asrwt>
<pdfrwt beam="1">  1        2 0.31230542E+00 0.19860009E+03</pdfrwt>
<pdfrwt beam="2">  1       -1 0.50448897E-01 0.48778934E+02</pdfrwt>
<totfact> 0.34921564E+01</totfact>
</mgrwt>
</event>
<event>
13    1  0.2038932E-008  0.9002473E+02  0.7546771E-02  0.1349952E+00
          2   -1    0    0  502    0  0.00000000000E+00  0.00000000000E+00  0.11950645418E+04  0.11950645418E+04  0.00000000000E+00 0. -1.
          4   -1    0    0  503    0 -0.00000000000E+00 -0.00000000000E+00 -0.15235120302E+04  0.15235120302E+04  0.00000000000E+00 0. -1.
         24    2    1    2    0    0  0.80721757522E+02  0.12358696031E+03 -0.98971392061E+02  0.19492587653E+03  0.80068857860E+02 0.  0.
         25    2    1    2    0    0 -0.18284963981E+03 -0.26091337054E+03 -0.75997755613E+02  0.35058480752E+03  0.12499708276E+03 0.  0.
         24    2    1    2    0    0 -0.35149703097E+02  0.14630363291E+03 -0.18264408585E+03  0.25033340640E+03  0.81655971212E+02 0.  0.
        -13    1    3    3    0    0  0.76949982789E+02  0.10204286642E+03 -0.11159828084E+03  0.16967092481E+03  0.00000000000E+00 0.  1.
         14    1    3    3    0    0  0.37717747324E+01  0.21544093893E+02  0.12626888781E+02  0.25254951725E+02  0.00000000000E+00 0. -1.
        -13    1    5    5    0    0 -0.27466844248E+02  0.10202127578E+02 -0.60828037108E+02  0.67517116633E+02  0.00000000000E+00 0.  1.
         14    1    5    5    0    0 -0.76828588487E+01  0.13610150533E+03 -0.12181604874E+03  0.18281628977E+03  0.00000000000E+00 0. -1.
          5    1    4    4  501    0 -0.63774405378E+02 -0.42480786927E+02  0.26865423443E+02  0.81336541702E+02  0.47000000000E+01 0. -1.
         -5    1    4    4    0  501 -0.11907523443E+03 -0.21843258361E+03 -0.10286317906E+03  0.26924826581E+03  0.47000000000E+01 0. -1.
          1    1    1    2  502    0  0.54077709762E+02  0.24356444753E+02  0.97292282051E+03  0.97472891091E+03  0.00000000000E+00 0. -1.
          3    1    1    2  503    0  0.83199875625E+02 -0.33333667436E+02 -0.94375707539E+03  0.94800357069E+03  0.00000000000E+00 0. -1.
<mgrwt>
<rscale>  0 0.73070759E+02</rscale>
<asrwt>0</asrwt>
<pdfrwt beam="1">  1        2 0.17574478E+00 0.59309654E+02</pdfrwt>
<pdfrwt beam="2">  1        4 0.22404589E+00 0.90024734E+02</pdfrwt>
<totfact> 0.13178600E+00</totfact>
</mgrwt>
</event>
<event>
13    1  0.2038932E-008  0.1518459E+03  0.7546771E-02  0.1366302E+00
         -1   -1    0    0    0  501 -0.00000000000E+00  0.00000000000E+00  0.80037714737E+03  0.80037714737E+03  0.00000000000E+00 0.  1.
          2   -1    0    0  503    0  0.00000000000E+00 -0.00000000000E+00 -0.96017753245E+03  0.96017753245E+03  0.00000000000E+00 0. -1.
         24    2    1    2    0    0 -0.56013317962E+02 -0.43428818395E+02  0.77829934141E+02  0.13273493065E+03  0.80854864471E+02 0.  0.
         25    2    1    2    0    0 -0.93518718843E+02 -0.43746372284E+02  0.74783275296E+02  0.17854109930E+03  0.12499956005E+03 0.  0.
         24    2    1    2    0    0 -0.13540523217E+01 -0.25190473802E+02 -0.80094173312E+03  0.80538136059E+03  0.80592075903E+02 0.  0.
        -11    1    5    5    0    0  0.36679568953E+01 -0.52544486542E+02 -0.62936444327E+03  0.63156470723E+03  0.00000000000E+00 0.  1.
         12    1    5    5    0    0 -0.50220092170E+01  0.27354012740E+02 -0.17157728985E+03  0.17381665335E+03  0.00000000000E+00 0. -1.
        -13    1    3    3    0    0 -0.71291323128E+02 -0.13314793701E+02  0.62119852570E+02  0.95491426673E+02  0.00000000000E+00 0.  1.
         14    1    3    3    0    0  0.15278005166E+02 -0.30114024695E+02  0.15710081571E+02  0.37243503973E+02  0.00000000000E+00 0. -1.
          5    1    4    4  502    0 -0.10634756870E+03 -0.66447631969E+02  0.34183057642E+02  0.13006023448E+03  0.47000000000E+01 0. -1.
         -5    1    4    4    0  502  0.12828849859E+02  0.22701259685E+02  0.40600217654E+02  0.48480864818E+02  0.47000000000E+01 0. -1.
          1    1    1    2  503    0  0.30626290408E+02  0.79617947203E+00 -0.62157477885E+02  0.69297587425E+02  0.00000000000E+00 0. -1.
         -2    1    1    2    0  501  0.12025979872E+03  0.11156948501E+03  0.55068561649E+03  0.57459970186E+03  0.00000000000E+00 0.  1.
<mgrwt>
<rscale>  0 0.68205933E+02</rscale>
<asrwt>0</asrwt>
<pdfrwt beam="2">  1        2 0.14120258E+00 0.30636638E+02</pdfrwt>
<pdfrwt beam="1">  1       -1 0.11770252E+00 0.15184595E+03</pdfrwt>
<totfact> 0.26966439E+01</totfact>
</mgrwt>
</event>
<event>
13    1  0.2038932E-008  0.2826687E+02  0.7546771E-02  0.1670415E+00
          2   -1    0    0  502    0  0.00000000000E+00  0.00000000000E+00  0.93073943473E+03  0.93073943473E+03  0.00000000000E+00 0. -1.
          2   -1    0    0  503    0 -0.00000000000E+00 -0.00000000000E+00 -0.18854763646E+04  0.18854763646E+04  0.00000000000E+00 0. -1.
         24    2    1    2    0    0  0.70223126065E+02 -0.59851564728E+02 -0.97829293097E+03  0.98565932401E+03  0.77160527345E+02 0.  0.
         25    2    1    2    0    0  0.22394939321E+02  0.44669707388E+02  0.18075946108E+03  0.22537889079E+03  0.12499898231E+03 0.  0.
         24    2    1    2    0    0 -0.88396687007E+02  0.34572778183E+02 -0.58454143499E+03  0.59787097051E+03  0.82169075034E+02 0.  0.
        -11    1    3    3    0    0 -0.10423227144E+02  0.80419467943E+01 -0.17215627926E+03  0.17265891538E+03  0.00000000000E+00 0.  1.
         12    1    3    3    0    0  0.80646353209E+02 -0.67893511523E+02 -0.80613665171E+03  0.81300040862E+03  0.00000000000E+00 0. -1.
        -13    1    5    5    0    0 -0.10359698532E+03  0.33022023117E+02 -0.47610354565E+03  0.48836193091E+03  0.00000000000E+00 0.  1.
         14    1    5    5    0    0  0.15200298314E+02  0.15507550655E+01 -0.10843788934E+03  0.10950903960E+03  0.00000000000E+00 0. -1.
          5    1    4    4  501    0  0.26310973598E+02  0.73930483187E+01 -0.11074755569E+02  0.29860755282E+02  0.47000000000E+01 0. -1.
         -5    1    4    4    0  501 -0.39160342767E+01  0.37276659070E+02  0.19183421664E+03  0.19551813551E+03  0.47000000000E+01 0. -1.
          1    1    1    2  502    0 -0.20666197447E+02  0.36594477541E+01  0.71647706088E+03  0.71678439020E+03  0.00000000000E+00 0. -1.
          1    1    1    2  503    0  0.16444819067E+02 -0.23050368597E+02 -0.28913908582E+03  0.29052222378E+03  0.00000000000E+00 0. -1.
<mgrwt>
<rscale>  0 0.24356854E+02</rscale>
<asrwt>0</asrwt>
<pdfrwt beam="1">  1        2 0.13687345E+00 0.20987693E+02</pdfrwt>
<pdfrwt beam="2">  1        2 0.27727594E+00 0.28266868E+02</pdfrwt>
<totfact> 0.64036869E+01</totfact>
</mgrwt>
</event>
<event>
13    1  0.2038932E-008  0.1144932E+03  0.7546771E-02  0.1261793E+00
         -3   -1    0    0    0  501 -0.00000000000E+00  0.00000000000E+00  0.26360060711E+04  0.26360060711E+04  0.00000000000E+00 0.  1.
          2   -1    0    0  503    0  0.00000000000E+00 -0.00000000000E+00 -0.36883188545E+03  0.36883188545E+03  0.00000000000E+00 0. -1.
         24    2    1    2    0    0 -0.76319841892E+02  0.47849290740E+02  0.16214800273E+04  0.16260841896E+04  0.82692440578E+02 0.  0.
         25    2    1    2    0    0 -0.13390524880E+03  0.40845819324E+02  0.23186300415E+02  0.18910954427E+03  0.12500327434E+03 0.  0.
         24    2    1    2    0    0  0.36641652058E+02 -0.26442174529E+02  0.99243344620E+02  0.13322164149E+03  0.76530811112E+02 0.  0.
        -11    1    3    3    0    0 -0.61212493762E+02 -0.78286413637E+01  0.66151892363E+03  0.66439110721E+03  0.00000000000E+00 0.  1.
         12    1    3    3    0    0 -0.15107348130E+02  0.55677932104E+02  0.95996110372E+03  0.96169308240E+03  0.00000000000E+00 0. -1.
        -13    1    5    5    0    0 -0.71009249898E+01 -0.38475967795E+02  0.25702492730E+02  0.46812833348E+02  0.00000000000E+00 0.  1.
         14    1    5    5    0    0  0.43742577048E+02  0.12033793267E+02  0.73540851889E+02  0.86408808138E+02  0.00000000000E+00 0. -1.
          5    1    4    4  502    0 -0.12851202819E+03 -0.16610888487E+02  0.19095895916E+02  0.13106489327E+03  0.47000000000E+01 0. -1.
         -5    1    4    4    0  502 -0.53932206031E+01  0.57456707811E+02  0.40904044990E+01  0.58044651002E+02  0.47000000000E+01 0. -1.
          1    1    1    2  503    0  0.91541688201E+02  0.78654784792E+02 -0.24389684201E+03  0.27212520168E+03  0.00000000000E+00 0. -1.
         -4    1    1    2    0  501  0.82041750429E+02 -0.14090772033E+03  0.76716135525E+03  0.78429737947E+03  0.00000000000E+00 0.  1.
<mgrwt>
<rscale>  0 0.10934240E+03</rscale>
<asrwt>0</asrwt>
<pdfrwt beam="2">  1        2 0.54239985E-01 0.10442331E+03</pdfrwt>
<pdfrwt beam="1">  1       -3 0.38764794E+00 0.11449322E+03</pdfrwt>
<totfact> 0.92378437E-01</totfact>
</mgrwt>
</event>
<event>
13    1  0.2038932E-008  0.1362126E+03  0.7546771E-02  0.1288002E+00
          2   -1    0    0  503    0  0.00000000000E+00  0.00000000000E+00  0.30540320317E+04  0.30540320317E+04  0.00000000000E+00 0. -1.
          2   -1    0    0  502    0 -0.00000000000E+00 -0.00000000000E+00 -0.33065963058E+04  0.33065963058E+04  0.00000000000E+00 0. -1.
         24    2    1    2    0    0 -0.80236337519E+01 -0.17606617394E+02 -0.12193377886E+04  0.12235300027E+04  0.99331027956E+02 0.  0.
         25    2    1    2    0    0  0.23818007302E+02 -0.84074821821E+02  0.74414504409E+03  0.75961333135E+03  0.12499877350E+03 0.  0.
         24    2    1    2    0    0  0.46392318629E+02 -0.13171163276E+03 -0.25425589860E+03  0.30093339798E+03  0.80091489046E+02 0.  0.
        -11    1    5    5    0    0  0.67841486759E+02 -0.11431376427E+03 -0.20171802134E+03  0.24157869145E+03  0.00000000000E+00 0.  1.
         12    1    5    5    0    0 -0.21449168129E+02 -0.17397868490E+02 -0.52537877251E+02  0.59354706532E+02  0.00000000000E+00 0. -1.
        -11    1    3    3    0    0  0.17215749370E+02 -0.53196920015E+02 -0.79176951777E+03  0.79374130773E+03  0.00000000000E+00 0.  1.
         12    1    3    3    0    0 -0.25239383122E+02  0.35590302621E+02 -0.42756827087E+03  0.42978869500E+03  0.00000000000E+00 0. -1.
          5    1    4    4  501    0  0.26474991418E+02 -0.11618612594E+03  0.61240898314E+03  0.62391264906E+03  0.47000000000E+01 0. -1.
         -5    1    4    4    0  501 -0.26569841160E+01  0.32111304121E+02  0.13173606096E+03  0.13570068229E+03  0.47000000000E+01 0. -1.
          1    1    1    2  502    0 -0.10279623372E+03  0.17853063011E+03 -0.17934239909E+04  0.18052174004E+04  0.00000000000E+00 0. -1.
          1    1    1    2  503    0  0.40609541545E+02  0.54862441870E+02  0.22703083599E+04  0.22713342051E+04  0.00000000000E+00 0. -1.
<mgrwt>
<rscale>  0 0.96423372E+02</rscale>
<asrwt>0</asrwt>
<pdfrwt beam="1">  1        2 0.44912236E+00 0.68257032E+02</pdfrwt>
<pdfrwt beam="2">  1        2 0.48626416E+00 0.13621258E+03</pdfrwt>
<totfact> 0.83687634E-01</totfact>
</mgrwt>
</event>
<event>
13    1  0.2038932E-008  0.1812458E+03  0.7546771E-02  0.1219736E+00
          2   -1    0    0  502    0  0.00000000000E+00  0.00000000000E+00  0.39489818479E+04  0.39489818479E+04  0.00000000000E+00 0. -1.
          2   -1    0    0  503    0 -0.00000000000E+00 -0.00000000000E+00 -0.52180537087E+03  0.52180537087E+03  0.00000000000E+00 0. -1.
         24    2    1    2    0    0  0.35605425186E+02 -0.43996428416E+02  0.11450517554E+02  0.98354356490E+02  0.79618044891E+02 0.  0.
         25    2    1    2    0    0 -0.33792278537E+03 -0.23109803892E+03  0.61301899437E+03  0.74767248457E+03  0.12499497694E+03 0.  0.
         24    2    1    2    0    0 -0.40781972369E+01 -0.24578644511E+01 -0.19062683474E+03  0.20606269427E+03  0.78106152485E+02 0.  0.
        -11    1    3    3    0    0  0.59169577106E+02 -0.30707304222E+02 -0.47315750363E+01  0.66830870037E+02  0.00000000000E+00 0.  1.
         12    1    3    3    0    0 -0.23564151921E+02 -0.13289124194E+02  0.16182092590E+02  0.31523486454E+02  0.00000000000E+00 0. -1.
        -11    1    5    5    0    0 -0.30240355985E+02  0.19873065144E+02 -0.14174999141E+03  0.14629585747E+03  0.00000000000E+00 0.  1.
         12    1    5    5    0    0  0.26162158748E+02 -0.22330929595E+02 -0.48876843328E+02  0.59766836796E+02  0.00000000000E+00 0. -1.
          5    1    4    4  501    0 -0.24598983611E+03 -0.21189700105E+03  0.53339906715E+03  0.62445815981E+03  0.47000000000E+01 0. -1.
         -5    1    4    4    0  501 -0.91932949254E+02 -0.19201037867E+02  0.79619927220E+02  0.12321432475E+03  0.47000000000E+01 0. -1.
          1    1    1    2  502    0  0.17679993471E+03  0.24655319290E+03  0.31771837796E+04  0.31916364867E+04  0.00000000000E+00 0. -1.
          1    1    1    2  503    0  0.12959562271E+03  0.30999138881E+02 -0.18384997973E+03  0.22706119678E+03  0.00000000000E+00 0. -1.
<mgrwt>
<rscale>  0 0.13534290E+03</rscale>
<asrwt>0</asrwt>
<pdfrwt beam="1">  1        2 0.58073261E+00 0.18124580E+03</pdfrwt>
<pdfrwt beam="2">  1        2 0.76736086E-01 0.10106552E+03</pdfrwt>
<totfact> 0.70006988E+00</totfact>
</mgrwt>
</event>
<event>
13    1  0.2038932E-008  0.1197466E+03  0.7546771E-02  0.1281940E+00
          2   -1    0    0  502    0  0.00000000000E+00  0.00000000000E+00  0.44527341587E+03  0.44527341587E+03  0.00000000000E+00 0. -1.
          2   -1    0    0  503    0 -0.00000000000E+00 -0.00000000000E+00 -0.32860912484E+04  0.32860912484E+04  0.00000000000E+00 0. -1.
         24    2    1    2    0    0  0.50560312269E+02 -0.23702856155E+02 -0.96172138114E+02  0.13861566204E+03  0.82746909584E+02 0.  0.
         25    2    1    2    0    0  0.20462075364E+03 -0.40891315135E+02 -0.10829655547E+04  0.11099437116E+04  0.12497558891E+03 0.  0.
         24    2    1    2    0    0 -0.88838165685E+02  0.73412608326E+02 -0.15462959183E+03  0.21272813237E+03  0.89784836633E+02 0.  0.
        -11    1    5    5    0    0 -0.27677105658E+02  0.14832784302E+02 -0.11502824788E+03  0.11923729063E+03  0.00000000000E+00 0.  1.
         12    1    5    5    0    0 -0.61161060027E+02  0.58579824024E+02 -0.39601343957E+02  0.93490841742E+02  0.00000000000E+00 0. -1.
        -13    1    3    3    0    0 -0.11205893490E+02  0.20712378260E+02 -0.26554362458E+02  0.35492377036E+02  0.00000000000E+00 0.  1.
         14    1    3    3    0    0  0.61766205759E+02 -0.44415234415E+02 -0.69617775656E+02  0.10312328500E+03  0.00000000000E+00 0. -1.
          5    1    4    4  501    0  0.50757266545E+01  0.86022682253E+01 -0.30676359386E+03  0.30696213861E+03  0.47000000000E+01 0. -1.
         -5    1    4    4    0  501  0.19954502699E+03 -0.49493583361E+02 -0.77620196087E+03  0.80298157304E+03  0.47000000000E+01 0. -1.
          1    1    1    2  502    0 -0.82578609863E+02  0.77715851734E+02  0.37111548018E+03  0.38805370769E+03  0.00000000000E+00 0. -1.
          1    1    1    2  503    0 -0.83764290361E+02 -0.86534288770E+02 -0.18781660280E+04  0.18820234505E+04  0.00000000000E+00 0. -1.
<mgrwt>
<rscale>  0 0.99222123E+02</rscale>
<asrwt>0</asrwt>
<pdfrwt beam="1">  1        2 0.65481385E-01 0.82215503E+02</pdfrwt>
<pdfrwt beam="2">  1        2 0.48324871E+00 0.11974663E+03</pdfrwt>
<totfact> 0.22896678E+01</totfact>
</mgrwt>
</event>
<event>
13    1  0.2038932E-008  0.7428422E+02  0.7546771E-02  0.1384379E+00
          2   -1    0    0  502    0  0.00000000000E+00  0.00000000000E+00  0.35517981801E+04  0.35517981801E+04  0.00000000000E+00 0. -1.
          2   -1    0    0  503    0 -0.00000000000E+00 -0.00000000000E+00 -0.26822113721E+04  0.26822113721E+04  0.00000000000E+00 0. -1.
         24    2    1    2    0    0  0.59738683142E+03  0.53038998599E+03  0.27108035996E+02  0.80495242966E+03  0.95021075628E+02 0.  0.
         25    2    1    2    0    0 -0.40851773656E+03  0.54934004241E+03 -0.70704028580E+03  0.99206186165E+03  0.12497819143E+03 0.  0.
         24    2    1    2    0    0 -0.21140457475E+03 -0.10931931528E+04  0.75943681877E+03  0.13501833746E+04  0.80546259175E+02 0.  0.
        -11    1    5    5    0    0 -0.16907648328E+03 -0.91146334336E+03  0.66638171066E+03  0.11416728375E+04  0.00000000000E+00 0.  1.
         12    1    5    5    0    0 -0.42328091470E+02 -0.18172980942E+03  0.93055108114E+02  0.20851053716E+03  0.00000000000E+00 0. -1.
        -13    1    3    3    0    0  0.55102953733E+03  0.44920435159E+03  0.20324226648E+02  0.71121809221E+03  0.00000000000E+00 0.  1.
         14    1    3    3    0    0  0.46357294085E+02  0.81185634404E+02  0.67838093478E+01  0.93734337453E+02  0.00000000000E+00 0. -1.
          5    1    4    4  501    0 -0.14168803831E+03  0.10410660899E+03 -0.15712114483E+03  0.23584492869E+03  0.47000000000E+01 0.  1.
         -5    1    4    4    0  501 -0.26682969824E+03  0.44523343342E+03 -0.54991914097E+03  0.75621693297E+03  0.47000000000E+01 0.  1.
          1    1    1    2  502    0  0.33518345500E+02  0.66319394474E+02  0.19370998316E+04  0.19385245676E+04  0.00000000000E+00 0. -1.
          1    1    1    2  503    0 -0.10982865611E+02 -0.52856270087E+02 -0.11470175926E+04  0.11482873187E+04  0.00000000000E+00 0. -1.
<mgrwt>
<rscale>  0 0.63326561E+02</rscale>
<asrwt>0</asrwt>
<pdfrwt beam="1">  1        2 0.52232326E+00 0.74284224E+02</pdfrwt>
<pdfrwt beam="2">  1        2 0.39444285E+00 0.53985263E+02</pdfrwt>
<totfact> 0.10785935E+00</totfact>
</mgrwt>
</event>
<event>
13    1  0.2038932E-008  0.1497875E+03  0.7546771E-02  0.1331403E+00
          2   -1    0    0  502    0  0.00000000000E+00  0.00000000000E+00  0.30525326240E+04  0.30525326240E+04  0.00000000000E+00 0. -1.
          2   -1    0    0  503    0 -0.00000000000E+00 -0.00000000000E+00 -0.39647209961E+04  0.39647209961E+04  0.00000000000E+00 0. -1.
         24    2    1    2    0    0  0.25664361061E+03  0.13617689833E+03 -0.20689739020E+04  0.20909027939E+04  0.82531182465E+02 0.  0.
         25    2    1    2    0    0 -0.16418581191E+03 -0.99193700539E+02  0.33128774987E+03  0.40270871000E+03  0.12500544320E+03 0.  0.
         24    2    1    2    0    0 -0.21696463927E+03 -0.69834688100E+02 -0.19742796250E+02  0.24270651939E+03  0.81031711048E+02 0.  0.
        -11    1    3    3    0    0  0.12511416424E+03  0.11197969897E+03 -0.12037775612E+04  0.12154313736E+04  0.00000000000E+00 0.  1.
         12    1    3    3    0    0  0.13152944636E+03  0.24197199358E+02 -0.86519634080E+03  0.87547142035E+03  0.00000000000E+00 0. -1.
        -11    1    5    5    0    0 -0.24664799710E+02  0.15414518087E+02 -0.13999632263E+02  0.32279241257E+02  0.00000000000E+00 0.  1.
         12    1    5    5    0    0 -0.19229983956E+03 -0.85249206187E+02 -0.57431639865E+01  0.21042727813E+03  0.00000000000E+00 0. -1.
          5    1    4    4  501    0 -0.96984824081E+01 -0.51828229023E+02  0.15371726654E+03  0.16257710146E+03  0.47000000000E+01 0. -1.
         -5    1    4    4    0  501 -0.15448732951E+03 -0.47365471516E+02  0.17757048333E+03  0.24013160854E+03  0.47000000000E+01 0. -1.
          1    1    1    2  502    0 -0.57444584898E+01 -0.41456619618E+02  0.25596441199E+04  0.25599862638E+04  0.00000000000E+00 0. -1.
          1    1    1    2  503    0  0.13025129906E+03  0.74308109929E+02 -0.17144035437E+04  0.17209493330E+04  0.00000000000E+00 0. -1.
<mgrwt>
<rscale>  0 0.79177118E+02</rscale>
<asrwt>0</asrwt>
<pdfrwt beam="1">  1        2 0.44890186E+00 0.41852719E+02</pdfrwt>
<pdfrwt beam="2">  1        2 0.58304720E+00 0.14978754E+03</pdfrwt>
<totfact> 0.35135895E-01</totfact>
</mgrwt>
</event>
<event>
13    1  0.2038932E-008  0.1675452E+03  0.7546771E-02  0.1259675E+00
          2   -1    0    0  503    0  0.00000000000E+00  0.00000000000E+00  0.32368742109E+04  0.32368742109E+04  0.00000000000E+00 0. -1.
          2   -1    0    0  502    0 -0.00000000000E+00 -0.00000000000E+00 -0.19929766615E+04  0.19929766615E+04  0.00000000000E+00 0. -1.
         24    2    1    2    0    0  0.89372062038E+01  0.17336782291E+03 -0.48718305184E+02  0.19757407297E+03  0.80782209512E+02 0.  0.
         25    2    1    2    0    0 -0.17949628539E+03 -0.30554004554E+03 -0.13662912263E+04  0.14170243133E+04  0.12503021051E+03 0.  0.
         24    2    1    2    0    0  0.42610601907E+02 -0.71190849987E+02  0.20378298070E+02  0.11697465605E+03  0.79899903686E+02 0.  0.
        -11    1    3    3    0    0  0.44737073991E+02  0.92658376422E+02 -0.31607993538E+02  0.10763849574E+03  0.00000000000E+00 0.  1.
         12    1    3    3    0    0 -0.35799867787E+02  0.80709446491E+02 -0.17110311646E+02  0.89935577226E+02  0.00000000000E+00 0. -1.
        -13    1    5    5    0    0 -0.16778545908E+02 -0.48917665240E+02  0.75761651723E+01  0.52267158465E+02  0.00000000000E+00 0.  1.
         14    1    5    5    0    0  0.59389147814E+02 -0.22273184747E+02  0.12802132898E+02  0.64707497584E+02  0.00000000000E+00 0. -1.
          5    1    4    4  501    0 -0.68377872769E+02 -0.11628497773E+03 -0.76717627248E+03  0.77896036650E+03  0.47000000000E+01 0.  1.
         -5    1    4    4    0  501 -0.11111841262E+03 -0.18925506781E+03 -0.59911495378E+03  0.63806394676E+03  0.47000000000E+01 0.  1.
          1    1    1    2  502    0  0.41270107493E+02  0.60041318107E+02 -0.42448289925E+03  0.43069004331E+03  0.00000000000E+00 0. -1.
          1    1    1    2  503    0  0.86678369782E+02  0.14332175451E+03  0.30630116820E+04  0.30675877867E+04  0.00000000000E+00 0. -1.
<mgrwt>
<rscale>  0 0.11048477E+03</rscale>
<asrwt>0</asrwt>
<pdfrwt beam="1">  1        2 0.47601091E+00 0.16754519E+03</pdfrwt>
<pdfrwt beam="2">  1        2 0.29308480E+00 0.72857269E+02</pdfrwt>
<totfact> 0.29423994E+00</totfact>
</mgrwt>
</event>
<event>
13    1  0.2038932E-008  0.1448696E+03  0.7546771E-02  0.1406092E+00
          2   -1    0    0  503    0  0.00000000000E+00  0.00000000000E+00  0.14048183614E+04  0.14048183614E+04  0.00000000000E+00 0. -1.
          2   -1    0    0  502    0 -0.00000000000E+00 -0.00000000000E+00 -0.37164347141E+03  0.37164347141E+03  0.00000000000E+00 0. -1.
         24    2    1    2    0    0 -0.15021409280E+02  0.78389226394E+00  0.86700905946E+02  0.11939530246E+03  0.80696554661E+02 0.  0.
         25    2    1    2    0    0  0.14345900563E+03  0.10133898521E+03  0.26163325915E+03  0.33900845651E+03  0.12499878027E+03 0.  0.
         24    2    1    2    0    0 -0.12653819729E+02  0.14189329195E+02 -0.16128742735E+02  0.81750015068E+02  0.77855458413E+02 0.  0.
        -13    1    3    3    0    0 -0.33159161552E+02  0.12527113796E+02  0.61241411294E+01  0.35971706652E+02  0.00000000000E+00 0.  1.
         14    1    3    3    0    0  0.18137752272E+02 -0.11743221532E+02  0.80576764816E+02  0.83423595809E+02  0.00000000000E+00 0. -1.
        -13    1    5    5    0    0  0.13594265254E+02 -0.18226779462E+02 -0.30134718056E+02  0.37750771775E+02  0.00000000000E+00 0.  1.
         14    1    5    5    0    0 -0.26248084982E+02  0.32416108656E+02  0.14005975321E+02  0.43999243293E+02  0.00000000000E+00 0. -1.
          5    1    4    4  501    0  0.10369926507E+02  0.79130361435E+02  0.10995544901E+03  0.13594646095E+03  0.47000000000E+01 0.  1.
         -5    1    4    4    0  501  0.13308907912E+03  0.22208623774E+02  0.15167781014E+03  0.20306199556E+03  0.47000000000E+01 0.  1.
          1    1    1    2  502    0 -0.18805637469E+02 -0.13724178083E+02 -0.26200682855E+03  0.26303912878E+03  0.00000000000E+00 0. -1.
          1    1    1    2  503    0 -0.96978139150E+02 -0.10258802858E+03  0.96297629614E+03  0.97326892995E+03  0.00000000000E+00 0. -1.
<mgrwt>
<rscale>  0 0.58075041E+02</rscale>
<asrwt>0</asrwt>
<pdfrwt beam="1">  1        2 0.20659093E+00 0.14486964E+03</pdfrwt>
<pdfrwt beam="2">  1        2 0.54653452E-01 0.23281002E+02</pdfrwt>
<totfact> 0.24419263E+02</totfact>
</mgrwt>
</event>
<event>
13    1  0.2038932E-008  0.7044466E+02  0.7546771E-02  0.1426772E+00
          2   -1    0    0  502    0  0.00000000000E+00  0.00000000000E+00  0.19869069297E+04  0.19869069297E+04  0.00000000000E+00 0. -1.
          2   -1    0    0  503    0 -0.00000000000E+00 -0.00000000000E+00 -0.76130109891E+03  0.76130109891E+03  0.00000000000E+00 0. -1.
         24    2    1    2    0    0 -0.60548379939E+01 -0.11117178341E+03 -0.40877404232E+02  0.13419362488E+03  0.62778501836E+02 0.  0.
         25    2    1    2    0    0  0.13185852031E+03 -0.24877687283E+03  0.63171020280E+02  0.31446771003E+03  0.12499104373E+03 0.  0.
         24    2    1    2    0    0 -0.15247645000E+03  0.33505253976E+03  0.11154443681E+04  0.11774593607E+04  0.81762678808E+02 0.  0.
        -11    1    5    5    0    0 -0.95819389096E+02  0.18000531355E+03  0.73460842994E+03  0.76238626271E+03  0.00000000000E+00 0.  1.
         12    1    5    5    0    0 -0.56657060899E+02  0.15504722621E+03  0.38083593817E+03  0.41507309803E+03  0.00000000000E+00 0. -1.
        -11    1    3    3    0    0  0.75072043383E+01 -0.32608534425E+02 -0.42944305636E+02  0.54441601932E+02  0.00000000000E+00 0.  1.
         12    1    3    3    0    0 -0.13562042332E+02 -0.78563248987E+02  0.20669014045E+01  0.79752022952E+02  0.00000000000E+00 0. -1.
          5    1    4    4  501    0  0.62694972134E+02 -0.19919731244E+03  0.85056306066E+00  0.20888523709E+03  0.47000000000E+01 0. -1.
         -5    1    4    4    0  501  0.69163548173E+02 -0.49579560387E+02  0.62320457220E+02  0.10558247294E+03  0.47000000000E+01 0. -1.
          1    1    1    2  502    0  0.10418211846E+01 -0.40790440866E+02  0.60188002197E+03  0.60326155712E+03  0.00000000000E+00 0. -1.
          1    1    1    2  503    0  0.25630946497E+02  0.65686557347E+02 -0.51401217536E+03  0.51882577582E+03  0.00000000000E+00 0. -1.
<mgrwt>
<rscale>  0 0.53613486E+02</rscale>
<asrwt>0</asrwt>
<pdfrwt beam="1">  1        2 0.29219219E+00 0.40803743E+02</pdfrwt>
<pdfrwt beam="2">  1        2 0.11195604E+00 0.70444662E+02</pdfrwt>
<totfact> 0.66667237E+01</totfact>
</mgrwt>
</event>
<event>
13    1  0.2038932E-008  0.1437279E+03  0.7546771E-02  0.1403647E+00
          2   -1    0    0  502    0  0.00000000000E+00  0.00000000000E+00  0.10901600206E+04  0.10901600206E+04  0.00000000000E+00 0. -1.
          2   -1    0    0  503    0 -0.00000000000E+00 -0.00000000000E+00 -0.69574168872E+03  0.69574168872E+03  0.00000000000E+00 0. -1.
         24    2    1    2    0    0  0.18863948448E+03 -0.30335871209E+02 -0.15981344512E+03  0.26245524054E+03  0.82687942631E+02 0.  0.
         25    2    1    2    0    0 -0.14006338703E+03  0.22405901646E+03  0.50181213712E+02  0.29659369095E+03  0.12501787095E+03 0.  0.
         24    2    1    2    0    0  0.48546836817E+02 -0.34349154192E+02  0.54649513189E+03  0.55561109714E+03  0.80685205109E+02 0.  0.
        -11    1    3    3    0    0  0.16840537423E+03 -0.31146000236E+02 -0.16865017485E+03  0.24036082226E+03  0.00000000000E+00 0.  1.
         12    1    3    3    0    0  0.20234110249E+02  0.81012902666E+00  0.88367297299E+01  0.22094418276E+02  0.00000000000E+00 0. -1.
        -13    1    5    5    0    0  0.70729106791E+02 -0.22994426694E+02  0.43982996330E+03  0.44607370111E+03  0.00000000000E+00 0.  1.
         14    1    5    5    0    0 -0.22182269974E+02 -0.11354727498E+02  0.10666516859E+03  0.10953739603E+03  0.00000000000E+00 0. -1.
          5    1    4    4  501    0 -0.10303869719E+02  0.10436353320E+03 -0.19452905433E+02  0.10676339412E+03  0.47000000000E+01 0. -1.
         -5    1    4    4    0  501 -0.12975951731E+03  0.11969548325E+03  0.69634119145E+02  0.18983029683E+03  0.47000000000E+01 0. -1.
          1    1    1    2  502    0 -0.94195517679E+02 -0.18311550280E+03  0.28018979019E+03  0.34772172990E+03  0.00000000000E+00 0. -1.
          1    1    1    2  503    0 -0.29274165894E+01  0.23741511739E+02 -0.32263435874E+03  0.32351995084E+03  0.00000000000E+00 0. -1.
<mgrwt>
<rscale>  0 0.58635828E+02</rscale>
<asrwt>0</asrwt>
<pdfrwt beam="1">  1        2 0.16031765E+00 0.14372792E+03</pdfrwt>
<pdfrwt beam="2">  1        2 0.10231495E+00 0.23921312E+02</pdfrwt>
<totfact> 0.19027318E+02</totfact>
</mgrwt>
</event>
<event>
13    1  0.2038932E-008  0.6479732E+02  0.7546771E-02  0.1444176E+00
         -1   -1    0    0    0  501 -0.00000000000E+00  0.00000000000E+00  0.35625986292E+03  0.35625986292E+03  0.00000000000E+00 0.  1.
          2   -1    0    0  503    0  0.00000000000E+00 -0.00000000000E+00 -0.22265964678E+04  0.22265964678E+04  0.00000000000E+00 0. -1.
         24    2    1    2    0    0  0.78443045138E+02 -0.90470908550E+02  0.13636787649E+03  0.19805898696E+03  0.79327598939E+02 0.  0.
         25    2    1    2    0    0 -0.75784669962E+02  0.12088061599E+03 -0.59159078845E+03  0.62125801241E+03  0.12500566977E+03 0.  0.
         24    2    1    2    0    0 -0.24294692889E+02 -0.17477519085E+00 -0.70495494377E+02  0.10995049202E+03  0.80803671452E+02 0.  0.
        -11    1    3    3    0    0  0.41432922438E+02 -0.39214812282E+02  0.11982033146E+03  0.13270795152E+03  0.00000000000E+00 0.  1.
         12    1    3    3    0    0  0.37010122699E+02 -0.51256096268E+02  0.16547545023E+02  0.65351035441E+02  0.00000000000E+00 0. -1.
        -13    1    5    5    0    0  0.27033558419E+02 -0.11503893212E+02 -0.38446708041E+02  0.48387004444E+02  0.00000000000E+00 0.  1.
         14    1    5    5    0    0 -0.51328251308E+02  0.11329118021E+02 -0.32048786335E+02  0.61563487580E+02  0.00000000000E+00 0. -1.
          5    1    4    4  502    0 -0.80085758676E+02  0.80659291636E+02 -0.55490921101E+03  0.56645032663E+03  0.47000000000E+01 0.  1.
         -5    1    4    4    0  502  0.43010887141E+01  0.40221324356E+02 -0.36681577441E+02  0.54807685781E+02  0.47000000000E+01 0.  1.
          1    1    1    2  503    0  0.37622266726E+01 -0.64804534832E+02 -0.14959374819E+04  0.14973452280E+04  0.00000000000E+00 0. -1.
         -2    1    1    2    0  501  0.17874091040E+02  0.34569602581E+02  0.15131928338E+03  0.15624361131E+03  0.00000000000E+00 0.  1.
<mgrwt>
<rscale>  0 0.50216766E+02</rscale>
<asrwt>0</asrwt>
<pdfrwt beam="2">  1        2 0.32744065E+00 0.64797317E+02</pdfrwt>
<pdfrwt beam="1">  1       -1 0.52391158E-01 0.38917098E+02</pdfrwt>
<totfact> 0.32970576E+01</totfact>
</mgrwt>
</event>
<event>
13    1  0.2038932E-008  0.1786800E+03  0.7546771E-02  0.1264240E+00
          2   -1    0    0  502    0  0.00000000000E+00  0.00000000000E+00  0.16170303289E+04  0.16170303289E+04  0.00000000000E+00 0. -1.
          4   -1    0    0  503    0 -0.00000000000E+00 -0.00000000000E+00 -0.33849119236E+04  0.33849119236E+04  0.00000000000E+00 0. -1.
         24    2    1    2    0    0 -0.78400850619E+02 -0.26423323045E+03 -0.57353820596E+03  0.64138818393E+03  0.80416635976E+02 0.  0.
         25    2    1    2    0    0  0.13235809856E+03 -0.15060239880E+03  0.45722315474E+03  0.51466365494E+03  0.12500366276E+03 0.  0.
         24    2    1    2    0    0 -0.62643025508E+01  0.49631300701E+02 -0.19707433662E+03  0.21870888785E+03  0.80577763518E+02 0.  0.
        -13    1    5    5    0    0 -0.23151351889E+02  0.25898180889E+02 -0.18316579154E+03  0.18643070578E+03  0.00000000000E+00 0.  1.
         14    1    5    5    0    0  0.16887049338E+02  0.23733119812E+02 -0.13908545083E+02  0.32278182069E+02  0.00000000000E+00 0. -1.
        -13    1    3    3    0    0 -0.52661647366E+02 -0.65910309690E+02 -0.13179174547E+03  0.15648157144E+03  0.00000000000E+00 0.  1.
         14    1    3    3    0    0 -0.25739203253E+02 -0.19832292076E+03 -0.44174646050E+03  0.48490661250E+03  0.00000000000E+00 0. -1.
          5    1    4    4  501    0 -0.80741879060E+01 -0.13584996421E+02 -0.65198953817E+00  0.16500294799E+02  0.47000000000E+01 0. -1.
         -5    1    4    4    0  501  0.14043228647E+03 -0.13701740238E+03  0.45787514428E+03  0.49816336014E+03  0.47000000000E+01 0. -1.
          1    1    1    2  502    0  0.62437087172E+02  0.19222141111E+02  0.10723741974E+04  0.10743622759E+04  0.00000000000E+00 0. -1.
          3    1    1    2  503    0 -0.11013003256E+03  0.34598218744E+03 -0.25268664042E+04  0.25528192500E+04  0.00000000000E+00 0. -1.
<mgrwt>
<rscale>  0 0.10804160E+03</rscale>
<asrwt>0</asrwt>
<pdfrwt beam="1">  1        2 0.23779858E+00 0.65329018E+02</pdfrwt>
<pdfrwt beam="2">  1        4 0.49778116E+00 0.17867997E+03</pdfrwt>
<totfact> 0.13611612E-02</totfact>
</mgrwt>
</event>
<event>
13    1  0.2038932E-008  0.8598691E+02  0.7546771E-02  0.1411771E+00
          2   -1    0    0  502    0  0.00000000000E+00  0.00000000000E+00  0.16117722569E+04  0.16117722569E+04  0.00000000000E+00 0. -1.
          2   -1    0    0  503    0 -0.00000000000E+00 -0.00000000000E+00 -0.57724664990E+03  0.57724664990E+03  0.00000000000E+00 0. -1.
         24    2    1    2    0    0 -0.16099626562E+02 -0.14660224289E+01 -0.99593654388E+02  0.12883705577E+03  0.80117062768E+02 0.  0.
         25    2    1    2    0    0 -0.97107967770E+02 -0.15984543937E+02  0.36227553875E+01  0.15912674805E+03  0.12499093782E+03 0.  0.
         24    2    1    2    0    0  0.14797501658E+02 -0.40648656826E+02 -0.15235009523E+02  0.92597095244E+02  0.80441514005E+02 0.  0.
        -11    1    3    3    0    0 -0.40984071488E+02 -0.24562230719E+02 -0.58323098615E+02  0.75396161213E+02  0.00000000000E+00 0.  1.
         12    1    3    3    0    0  0.24884444926E+02  0.23096208290E+02 -0.41270555773E+02  0.53440894552E+02  0.00000000000E+00 0. -1.
        -13    1    5    5    0    0 -0.58362551870E+01  0.11973800178E+02  0.21423565405E+02  0.25227027569E+02  0.00000000000E+00 0.  1.
         14    1    5    5    0    0  0.20633756845E+02 -0.52622457004E+02 -0.36658574929E+02  0.67370067674E+02  0.00000000000E+00 0. -1.
          5    1    4    4  501    0  0.17937268493E+02 -0.37607607391E+02  0.12060202290E+01  0.41947851190E+02  0.47000000000E+01 0. -1.
         -5    1    4    4    0  501 -0.11504523626E+03  0.21623063454E+02  0.24167351585E+01  0.11717889686E+03  0.47000000000E+01 0. -1.
          1    1    1    2  502    0  0.60964397891E+02  0.60472782350E+02  0.14747797111E+04  0.14772774998E+04  0.00000000000E+00 0. -1.
          1    1    1    2  503    0  0.37445694783E+02 -0.23735591586E+01 -0.32904819556E+03  0.33118050794E+03  0.00000000000E+00 0. -1.
<mgrwt>
<rscale>  0 0.56800542E+02</rscale>
<asrwt>0</asrwt>
<pdfrwt beam="1">  1        2 0.23702533E+00 0.85986909E+02</pdfrwt>
<pdfrwt beam="2">  1        2 0.84889214E-01 0.37520845E+02</pdfrwt>
<totfact> 0.12819921E+02</totfact>
</mgrwt>
</event>
<event>
13    1  0.2038932E-008  0.1651160E+03  0.7546771E-02  0.1229918E+00
          2   -1    0    0  503    0  0.00000000000E+00  0.00000000000E+00  0.31959007767E+04  0.31959007767E+04  0.00000000000E+00 0. -1.
          2   -1    0    0  502    0 -0.00000000000E+00 -0.00000000000E+00 -0.16093547488E+04  0.16093547488E+04  0.00000000000E+00 0. -1.
         24    2    1    2    0    0 -0.70547544202E+03 -0.47236998251E+03  0.75428985926E+02  0.85384590079E+03  0.50341739153E+02 0.  0.
         25    2    1    2    0    0  0.85199580314E+03  0.40722730228E+03  0.22242375694E+03  0.97817636798E+03  0.12500301969E+03 0.  0.
         24    2    1    2    0    0 -0.21747472408E+03  0.10516198753E+03 -0.21261788650E+03  0.33278826899E+03  0.84778340893E+02 0.  0.
        -11    1    5    5    0    0 -0.15035856804E+03  0.39998783452E+02 -0.16854662814E+03  0.22938083512E+03  0.00000000000E+00 0.  1.
         12    1    5    5    0    0 -0.67116156037E+02  0.65163204081E+02 -0.44071258356E+02  0.10340743387E+03  0.00000000000E+00 0. -1.
        -13    1    3    3    0    0 -0.24833793079E+03 -0.19390016723E+03  0.36001409452E+02  0.31712001546E+03  0.00000000000E+00 0.  1.
         14    1    3    3    0    0 -0.45713751123E+03 -0.27846981528E+03  0.39427576475E+02  0.53672588533E+03  0.00000000000E+00 0. -1.
          5    1    4    4  501    0  0.89125987161E+02  0.33018328030E+01  0.18914613409E+02  0.91291819391E+02  0.47000000000E+01 0.  1.
         -5    1    4    4    0  501  0.76286981598E+03  0.40392546948E+03  0.20350914353E+03  0.88688454859E+03  0.47000000000E+01 0.  1.
          1    1    1    2  502    0  0.16585361797E+03 -0.92015840669E+01 -0.55622120776E+03  0.58049472323E+03  0.00000000000E+00 0. -1.
          1    1    1    2  503    0 -0.94899255010E+02 -0.30817723238E+02  0.20575323792E+04  0.20599502645E+04  0.00000000000E+00 0. -1.
<mgrwt>
<rscale>  0 0.12835462E+03</rscale>
<asrwt>0</asrwt>
<pdfrwt beam="1">  1        2 0.46998541E+00 0.99777756E+02</pdfrwt>
<pdfrwt beam="2">  1        2 0.23666982E+00 0.16511605E+03</pdfrwt>
<totfact> 0.47960345E+00</totfact>
</mgrwt>
</event>
<event>
13    1  0.2038932E-008  0.1443995E+03  0.7546771E-02  0.1359950E+00
          2   -1    0    0  503    0  0.00000000000E+00  0.00000000000E+00  0.83119276196E+03  0.83119276196E+03  0.00000000000E+00 0. -1.
          2   -1    0    0  502    0 -0.00000000000E+00 -0.00000000000E+00 -0.19888333828E+04  0.19888333828E+04  0.00000000000E+00 0. -1.
         24    2    1    2    0    0 -0.39850053621E+02  0.50124024131E+02 -0.32431752851E+03  0.34045022147E+03  0.81388263445E+02 0.  0.
         25    2    1    2    0    0  0.38808409224E+02 -0.13478173044E+03  0.20125527690E+03  0.27532336762E+03  0.12500825089E+03 0.  0.
         24    2    1    2    0    0  0.11099603152E+02 -0.57794296929E+02 -0.57816294155E+03  0.58647667840E+03  0.78861431500E+02 0.  0.
        -13    1    3    3    0    0 -0.72295972002E+01  0.30668176887E+01 -0.22985536638E+03  0.22998948215E+03  0.00000000000E+00 0.  1.
         14    1    3    3    0    0 -0.32620456421E+02  0.47057206442E+02 -0.94462162137E+02  0.11046073932E+03  0.00000000000E+00 0. -1.
        -13    1    5    5    0    0  0.13990958672E+02  0.39816318313E+01 -0.19125111444E+02  0.24028528968E+02  0.00000000000E+00 0.  1.
         14    1    5    5    0    0 -0.28913555193E+01 -0.61775928760E+02 -0.55903783011E+03  0.56244814944E+03  0.00000000000E+00 0. -1.
          5    1    4    4  501    0  0.24215827928E+02 -0.14194553149E+03  0.21122603070E+03  0.25568235426E+03  0.47000000000E+01 0.  1.
         -5    1    4    4    0  501  0.14592581296E+02  0.71638010498E+01 -0.99707538060E+01  0.19641013361E+02  0.47000000000E+01 0.  1.
          1    1    1    2  502    0 -0.33752040057E+02 -0.38816856740E+01 -0.10273493981E+04  0.10279110144E+04  0.00000000000E+00 0. -1.
          1    1    1    2  503    0  0.23694081301E+02  0.14633368891E+03  0.57093397039E+03  0.58986486295E+03  0.00000000000E+00 0. -1.
<mgrwt>
<rscale>  0 0.70042163E+02</rscale>
<asrwt>0</asrwt>
<pdfrwt beam="1">  1        2 0.12223423E+00 0.14439955E+03</pdfrwt>
<pdfrwt beam="2">  1        2 0.29247550E+00 0.33974515E+02</pdfrwt>
<totfact> 0.59647058E+01</totfact>
</mgrwt>
</event>
<event>
13    1  0.2038932E-008  0.7895486E+02  0.7546771E-02  0.1471301E+00
          2   -1    0    0  503    0  0.00000000000E+00  0.00000000000E+00  0.88264055869E+03  0.88264055869E+03  0.00000000000E+00 0. -1.
          2   -1    0    0  502    0 -0.00000000000E+00 -0.00000000000E+00 -0.31086579717E+04  0.31086579717E+04  0.00000000000E+00 0. -1.
         24    2    1    2    0    0 -0.80035598464E+02  0.18339335688E+01 -0.76138655233E+03  0.77050798751E+03  0.86971354011E+02 0.  0.
         25    2    1    2    0    0  0.15849301117E+03  0.52298215935E+02  0.35317647815E+03  0.41013984769E+03  0.12500372781E+03 0.  0.
         24    2    1    2    0    0  0.37242448935E+01 -0.28288889402E+02 -0.67392249521E+02  0.10847478858E+03  0.80068303328E+02 0.  0.
        -11    1    5    5    0    0  0.22264279235E+02 -0.49497927028E+02 -0.56295046867E+02  0.78197667559E+02  0.00000000000E+00 0.  1.
         12    1    5    5    0    0 -0.18540034342E+02  0.21209037626E+02 -0.11097202654E+02  0.30277121018E+02  0.00000000000E+00 0. -1.
        -11    1    3    3    0    0 -0.76526050784E+02  0.11095368741E+02 -0.75448321960E+03  0.75843541077E+03  0.00000000000E+00 0.  1.
         12    1    3    3    0    0 -0.35095476799E+01 -0.92614351722E+01 -0.69033327298E+01  0.12072576740E+02  0.00000000000E+00 0. -1.
          5    1    4    4  501    0  0.15287566380E+03  0.82733211948E+02  0.26878971316E+03  0.32013396078E+03  0.47000000000E+01 0. -1.
         -5    1    4    4    0  501  0.56173473651E+01 -0.30434996013E+02  0.84386764981E+02  0.90005886905E+02  0.47000000000E+01 0. -1.
          1    1    1    2  502    0 -0.78949215110E+02  0.16667142780E+00 -0.22252340306E+04  0.22266341184E+04  0.00000000000E+00 0. -1.
          1    1    1    2  503    0 -0.32324424899E+01 -0.26009931529E+02  0.47481894134E+03  0.47554178815E+03  0.00000000000E+00 0. -1.
<mgrwt>
<rscale>  0 0.45490753E+02</rscale>
<asrwt>0</asrwt>
<pdfrwt beam="1">  1        2 0.12980008E+00 0.26210021E+02</pdfrwt>
<pdfrwt beam="2">  1        2 0.45715558E+00 0.78954863E+02</pdfrwt>
<totfact> 0.14918250E+01</totfact>
</mgrwt>
</event>
<event>
13    1  0.2038932E-008  0.1191246E+03  0.7546771E-02  0.1423727E+00
          4   -1    0    0  503    0 -0.00000000000E+00  0.00000000000E+00  0.48787914868E+03  0.48787914868E+03  0.00000000000E+00 0. -1.
          2   -1    0    0  502    0  0.00000000000E+00 -0.00000000000E+00 -0.14029422318E+04  0.14029422318E+04  0.00000000000E+00 0. -1.
         24    2    1    2    0    0 -0.13014645615E+03  0.82934683248E+02  0.18119448237E+03  0.25149582629E+03  0.81255451935E+02 0.  0.
         25    2    1    2    0    0  0.15289697677E+03 -0.16498066624E+03 -0.53507188540E+03  0.59373670232E+03  0.12500097359E+03 0.  0.
         24    2    1    2    0    0 -0.19839713765E+02 -0.23742450961E+02 -0.10704034331E+03  0.13887404261E+03  0.82891775202E+02 0.  0.
        -11    1    3    3    0    0 -0.67815117968E+02  0.75742078442E+02  0.15056395610E+03  0.18167349160E+03  0.00000000000E+00 0.  1.
         12    1    3    3    0    0 -0.62331338179E+02  0.71926048060E+01  0.30630526264E+02  0.69822334695E+02  0.00000000000E+00 0. -1.
        -13    1    5    5    0    0 -0.35406532002E+02  0.15400136184E+02 -0.23196187061E+02  0.45042755212E+02  0.00000000000E+00 0.  1.
         14    1    5    5    0    0  0.15566818237E+02 -0.39142587145E+02 -0.83844156245E+02  0.93831287399E+02  0.00000000000E+00 0. -1.
          5    1    4    4  501    0  0.12376069908E+03 -0.17217416592E+03 -0.37512670375E+03  0.43093246329E+03  0.47000000000E+01 0.  1.
         -5    1    4    4    0  501  0.29136277692E+02  0.71934996749E+01 -0.15994518164E+03  0.16280423903E+03  0.47000000000E+01 0.  1.
          1    1    1    2  502    0  0.21759734058E+02 -0.11681065453E+02 -0.66426675520E+03  0.66472569935E+03  0.00000000000E+00 0. -1.
          3    1    1    2  503    0 -0.24670540920E+02  0.11746949941E+03  0.21012141837E+03  0.24198910996E+03  0.00000000000E+00 0. -1.
<mgrwt>
<rscale>  0 0.54240194E+02</rscale>
<asrwt>0</asrwt>
<pdfrwt beam="2">  1        2 0.20631503E+00 0.24696828E+02</pdfrwt>
<pdfrwt beam="1">  1        4 0.71746935E-01 0.11912455E+03</pdfrwt>
<totfact> 0.18479450E+01</totfact>
</mgrwt>
</event>
<event>
13    1  0.2038932E-008  0.1381815E+03  0.7546771E-02  0.1248450E+00
         -1   -1    0    0    0  501 -0.00000000000E+00  0.00000000000E+00  0.47750449326E+03  0.47750449326E+03  0.00000000000E+00 0.  1.
          2   -1    0    0  503    0  0.00000000000E+00 -0.00000000000E+00 -0.10559383216E+04  0.10559383216E+04  0.00000000000E+00 0. -1.
         24    2    1    2    0    0  0.68448264465E+01  0.55623825453E+02  0.20871771598E+02  0.10093609708E+03  0.81311765679E+02 0.  0.
         25    2    1    2    0    0 -0.18585591538E+03 -0.16188966998E+03 -0.24077440134E+02  0.27740041509E+03  0.12498232132E+03 0.  0.
         24    2    1    2    0    0  0.14147111992E+03 -0.11989659345E+03 -0.41375827584E+03  0.46031021347E+03  0.79374497826E+02 0.  0.
        -11    1    5    5    0    0  0.22185356241E+01  0.10625984428E+02 -0.22705063139E+02  0.25166512225E+02  0.00000000000E+00 0.  1.
         12    1    5    5    0    0  0.13925258430E+03 -0.13052257788E+03 -0.39105321270E+03  0.43514370124E+03  0.00000000000E+00 0. -1.
        -13    1    3    3    0    0 -0.36731581976E+02  0.17635008937E+02  0.54861212082E+01  0.41113260398E+02  0.00000000000E+00 0.  1.
         14    1    3    3    0    0  0.43576408422E+02  0.37988816516E+02  0.15385650390E+02  0.59822836686E+02  0.00000000000E+00 0. -1.
          5    1    4    4  502    0 -0.16310446481E+03 -0.15990947919E+03 -0.58489697976E+02  0.23583308239E+03  0.47000000000E+01 0. -1.
         -5    1    4    4    0  502 -0.22751450565E+02 -0.19801907836E+01  0.34412257841E+02  0.41567332703E+02  0.47000000000E+01 0. -1.
          1    1    1    2  503    0 -0.22585533331E+02  0.96130643362E+02 -0.40248319168E+03  0.41441998805E+03  0.00000000000E+00 0. -1.
         -2    1    1    2    0  501  0.60125502341E+02  0.13003179461E+03  0.24101330769E+03  0.28037610120E+03  0.00000000000E+00 0.  1.
<mgrwt>
<rscale>  0 0.11681256E+03</rscale>
<asrwt>0</asrwt>
<pdfrwt beam="2">  1        2 0.15528505E+00 0.98748200E+02</pdfrwt>
<pdfrwt beam="1">  1       -1 0.70221249E-01 0.13818149E+03</pdfrwt>
<totfact> 0.68195070E+01</totfact>
</mgrwt>
</event>
<event>
13    1  0.2038932E-008  0.8600897E+02  0.7546771E-02  0.1350727E+00
          2   -1    0    0  503    0  0.00000000000E+00  0.00000000000E+00  0.19509038545E+04  0.19509038545E+04  0.00000000000E+00 0. -1.
          2   -1    0    0  502    0 -0.00000000000E+00 -0.00000000000E+00 -0.45082661564E+04  0.45082661564E+04  0.00000000000E+00 0. -1.
         24    2    1    2    0    0  0.25942704529E+02 -0.78969360218E+02  0.16710818569E+03  0.20352251821E+03  0.81160864461E+02 0.  0.
         25    2    1    2    0    0 -0.98146812388E+02  0.25495906493E+02  0.28207799713E+03  0.32477364465E+03  0.12500834278E+03 0.  0.
         24    2    1    2    0    0  0.51513165484E+02  0.14887526123E+02  0.12926293103E+04  0.12963039251E+04  0.81474460965E+02 0.  0.
        -11    1    3    3    0    0 -0.16526684921E+02 -0.11900576895E+02  0.21776015906E+01  0.20481625756E+02  0.00000000000E+00 0.  1.
         12    1    3    3    0    0  0.42469389450E+02 -0.67068783322E+02  0.16493058410E+03  0.18304089245E+03  0.00000000000E+00 0. -1.
        -13    1    5    5    0    0 -0.33802168540E+01 -0.19517919052E+02  0.67413109028E+03  0.67442205028E+03  0.00000000000E+00 0.  1.
         14    1    5    5    0    0  0.54893382338E+02  0.34405445175E+02  0.61849822002E+03  0.62188187484E+03  0.00000000000E+00 0. -1.
          5    1    4    4  501    0  0.79188049764E+01 -0.29357714845E+02  0.11701562769E+03  0.12099309905E+03  0.47000000000E+01 0.  1.
         -5    1    4    4    0  501 -0.10606561736E+03  0.54853621338E+02  0.16506236944E+03  0.20378054561E+03  0.47000000000E+01 0.  1.
          1    1    1    2  502    0 -0.21898779354E+02  0.83187407486E+02 -0.44607753874E+04  0.44616047291E+04  0.00000000000E+00 0. -1.
          1    1    1    2  503    0  0.42589721729E+02 -0.44601479884E+02  0.16159759242E+03  0.17296519385E+03  0.00000000000E+00 0. -1.
<mgrwt>
<rscale>  0 0.72829694E+02</rscale>
<asrwt>0</asrwt>
<pdfrwt beam="1">  1        2 0.28689763E+00 0.61669899E+02</pdfrwt>
<pdfrwt beam="2">  1        2 0.66298030E+00 0.86008968E+02</pdfrwt>
<totfact> 0.51756753E-01</totfact>
</mgrwt>
</event>
<event>
13    1  0.2038932E-008  0.3780531E+02  0.7546771E-02  0.1581786E+00
          2   -1    0    0  503    0  0.00000000000E+00  0.00000000000E+00  0.13467325083E+04  0.13467325083E+04  0.00000000000E+00 0. -1.
          2   -1    0    0  502    0 -0.00000000000E+00 -0.00000000000E+00 -0.12589243206E+04  0.12589243206E+04  0.00000000000E+00 0. -1.
         24    2    1    2    0    0 -0.95264316072E+02 -0.29781816656E+02 -0.32432143952E+03  0.34851673698E+03  0.79481276420E+02 0.  0.
         25    2    1    2    0    0  0.15619827271E+03  0.43601758592E+02  0.21862744500E+03  0.29953726560E+03  0.12500240008E+03 0.  0.
         24    2    1    2    0    0 -0.78781216812E+02 -0.14252031407E+02  0.57342860585E+02  0.12701626708E+03  0.80220495649E+02 0.  0.
        -11    1    5    5    0    0 -0.16398297766E+02  0.27640215116E+01  0.60037604528E+02  0.62298137549E+02  0.00000000000E+00 0.  1.
         12    1    5    5    0    0 -0.62382919046E+02 -0.17016052918E+02 -0.26947439430E+01  0.64718129535E+02  0.00000000000E+00 0. -1.
        -13    1    3    3    0    0  0.48917117877E+00  0.11073107758E+02 -0.41333178541E+01  0.11829510571E+02  0.00000000000E+00 0.  1.
         14    1    3    3    0    0 -0.95753487251E+02 -0.40854924414E+02 -0.32018812166E+03  0.33668722640E+03  0.00000000000E+00 0. -1.
          5    1    4    4  501    0 -0.10082498040E+02  0.36436140178E+02  0.36244729482E+02  0.52583452655E+02  0.47000000000E+01 0.  1.
         -5    1    4    4    0  501  0.16628077075E+03  0.71656184139E+01  0.18238271552E+03  0.24695381294E+03  0.47000000000E+01 0.  1.
          1    1    1    2  502    0 -0.11212796518E+02 -0.23782500209E+02 -0.84664569685E+03  0.84705387675E+03  0.00000000000E+00 0. -1.
          1    1    1    2  503    0  0.29060056697E+02  0.24214589679E+02  0.98280501847E+03  0.98353268251E+03  0.00000000000E+00 0. -1.
<mgrwt>
<rscale>  0 0.31528144E+02</rscale>
<asrwt>0</asrwt>
<pdfrwt beam="1">  1        2 0.19804890E+00 0.37805310E+02</pdfrwt>
<pdfrwt beam="2">  1        2 0.18513593E+00 0.26293233E+02</pdfrwt>
<totfact> 0.74113141E+01</totfact>
</mgrwt>
</event>
<event>
13    1  0.2038932E-008  0.2436723E+03  0.7546771E-02  0.1282196E+00
         -1   -1    0    0    0  501 -0.00000000000E+00  0.00000000000E+00  0.59682131894E+03  0.59682131894E+03  0.00000000000E+00 0.  1.
          2   -1    0    0  503    0  0.00000000000E+00 -0.00000000000E+00 -0.39268604234E+04  0.39268604234E+04  0.00000000000E+00 0. -1.
         24    2    1    2    0    0  0.11872228822E+03 -0.10566510151E+03  0.47620325733E+02  0.18391097295E+03  0.79343904302E+02 0.  0.
         25    2    1    2    0    0  0.72333219149E+02  0.18460470939E+03  0.39728979469E+02  0.23772783483E+03  0.12500055328E+03 0.  0.
         24    2    1    2    0    0 -0.69083636836E+01  0.30455981056E+02 -0.33945021650E+02  0.92618706062E+02  0.80316050369E+02 0.  0.
        -13    1    5    5    0    0 -0.17137985504E+02  0.54574978139E+02 -0.33754829057E+02  0.66419329044E+02  0.00000000000E+00 0.  1.
         14    1    5    5    0    0  0.10229621820E+02 -0.24118997083E+02 -0.19019259320E+00  0.26199377018E+02  0.00000000000E+00 0. -1.
        -13    1    3    3    0    0  0.11549684258E+03 -0.85209240938E+02  0.64346267261E+02  0.15729137770E+03  0.00000000000E+00 0.  1.
         14    1    3    3    0    0  0.32254456407E+01 -0.20455860570E+02 -0.16725941528E+02  0.26619595250E+02  0.00000000000E+00 0. -1.
          5    1    4    4  502    0  0.99189588264E+02  0.13403562527E+03 -0.18289282801E+01  0.16682193573E+03  0.47000000000E+01 0. -1.
         -5    1    4    4    0  502 -0.26856369115E+02  0.50569084122E+02  0.41557907749E+02  0.70905899102E+02  0.47000000000E+01 0. -1.
          1    1    1    2  503    0 -0.19650886840E+03 -0.14775791411E+03 -0.36910293527E+04  0.36992088099E+04  0.00000000000E+00 0. -1.
         -2    1    1    2    0  501  0.12361724709E+02  0.38362325171E+02  0.30758596473E+03  0.31021541859E+03  0.00000000000E+00 0.  1.
<mgrwt>
<rscale>  0 0.99101829E+02</rscale>
<asrwt>0</asrwt>
<pdfrwt beam="2">  1        2 0.57747950E+00 0.24367228E+03</pdfrwt>
<pdfrwt beam="1">  1       -1 0.87767837E-01 0.40304841E+02</pdfrwt>
<totfact> 0.11512933E+00</totfact>
</mgrwt>
</event>
<event>
13    1  0.2038932E-008  0.6997769E+02  0.7546771E-02  0.1370519E+00
          2   -1    0    0  503    0  0.00000000000E+00  0.00000000000E+00  0.20369774494E+04  0.20369774494E+04  0.00000000000E+00 0. -1.
         -1   -1    0    0    0  501 -0.00000000000E+00 -0.00000000000E+00 -0.11849329179E+04  0.11849329179E+04  0.00000000000E+00 0.  1.
         24    2    1    2    0    0 -0.28251359349E+02  0.62334314826E+01 -0.88735899433E+02  0.12343638213E+03  0.80780477913E+02 0.  0.
         25    2    1    2    0    0  0.14584642011E+03 -0.12381133305E+03  0.13351421428E+04  0.13545586798E+04  0.12499700396E+03 0.  0.
         24    2    1    2    0    0 -0.56815128514E+01  0.78683531119E+02  0.93056897454E+02  0.14879649377E+03  0.85190567181E+02 0.  0.
        -11    1    5    5    0    0  0.31354312295E+02  0.69815126011E+02  0.72954581408E+02  0.10573370167E+03  0.00000000000E+00 0.  1.
         12    1    5    5    0    0 -0.37035825146E+02  0.88684051078E+01  0.20102316046E+02  0.43062792104E+02  0.00000000000E+00 0. -1.
        -13    1    3    3    0    0 -0.44484869240E+02 -0.30301987529E+01 -0.14504080845E+02  0.46887674894E+02  0.00000000000E+00 0.  1.
         14    1    3    3    0    0  0.16233509891E+02  0.92636302355E+01 -0.74231818588E+02  0.76548707236E+02  0.00000000000E+00 0. -1.
          5    1    4    4  502    0  0.11326781549E+03 -0.10333551591E+03  0.12662641934E+04  0.12755214324E+04  0.47000000000E+01 0.  1.
         -5    1    4    4    0  502  0.32578604617E+02 -0.20475817139E+02  0.68877949367E+02  0.79037247392E+02  0.47000000000E+01 0.  1.
          1    1    1    2  503    0 -0.63191538713E+02 -0.11295840925E+02  0.55080923595E+03  0.55453726745E+03  0.00000000000E+00 0. -1.
         -2    1    1    2    0  501 -0.48722009193E+02  0.50190211377E+02 -0.10382278453E+04  0.10405815442E+04  0.00000000000E+00 0.  1.
<mgrwt>
<rscale>  0 0.67023069E+02</rscale>
<asrwt>0</asrwt>
<pdfrwt beam="1">  1        2 0.29955551E+00 0.64193197E+02</pdfrwt>
<pdfrwt beam="2">  1       -1 0.17425484E+00 0.69977691E+02</pdfrwt>
<totfact> 0.29634572E+00</totfact>
</mgrwt>
</event>
<event>
13    1  0.2038932E-008  0.1293120E+03  0.7546771E-02  0.1377347E+00
          2   -1    0    0  503    0  0.00000000000E+00  0.00000000000E+00  0.39591247360E+03  0.39591247360E+03  0.00000000000E+00 0. -1.
          2   -1    0    0  502    0 -0.00000000000E+00 -0.00000000000E+00 -0.32156450044E+04  0.32156450044E+04  0.00000000000E+00 0. -1.
         24    2    1    2    0    0 -0.33300148973E+02 -0.81303255485E+02 -0.27748682470E+03  0.30604896203E+03  0.94593393037E+02 0.  0.
         25    2    1    2    0    0  0.40305762360E+02  0.11582703206E+03  0.19565109845E+03  0.26258202830E+03  0.12501805241E+03 0.  0.
         24    2    1    2    0    0  0.10145775190E+02  0.11879747319E+03 -0.30470114260E+02  0.14630587653E+03  0.79127778024E+02 0.  0.
        -11    1    5    5    0    0 -0.12117739642E+02 -0.77514841946E+01 -0.65562699792E+00  0.14399825277E+02  0.00000000000E+00 0.  1.
         12    1    5    5    0    0  0.22263514832E+02  0.12654895738E+03 -0.29814487262E+02  0.13190605125E+03  0.00000000000E+00 0. -1.
        -13    1    3    3    0    0  0.36802124066E+01 -0.27174018929E+02 -0.21065610022E+03  0.21243343388E+03  0.00000000000E+00 0.  1.
         14    1    3    3    0    0 -0.36980361379E+02 -0.54129236556E+02 -0.66830724478E+02  0.93615528157E+02  0.00000000000E+00 0. -1.
          5    1    4    4  501    0 -0.29960023234E+02 -0.86204015837E+00  0.73678506147E+02  0.79680351239E+02  0.47000000000E+01 0. -1.
         -5    1    4    4    0  501  0.70265785594E+02  0.11668907222E+03  0.12197259231E+03  0.18290167707E+03  0.47000000000E+01 0. -1.
          1    1    1    2  502    0  0.50249380875E+01 -0.12909926962E+03 -0.27976369691E+04  0.28006185892E+04  0.00000000000E+00 0. -1.
          1    1    1    2  503    0 -0.22176326665E+02 -0.24221980140E+02  0.90210278866E+02  0.96002021850E+02  0.00000000000E+00 0. -1.
<mgrwt>
<rscale>  0 0.65166412E+02</rscale>
<asrwt>0</asrwt>
<pdfrwt beam="1">  1        2 0.58222424E-01 0.32840429E+02</pdfrwt>
<pdfrwt beam="2">  1        2 0.47288896E+00 0.12931199E+03</pdfrwt>
<totfact> 0.27988324E+01</totfact>
</mgrwt>
</event>
<event>
13    1  0.2038932E-008  0.1530002E+03  0.7546771E-02  0.1303568E+00
          2   -1    0    0  502    0  0.00000000000E+00  0.00000000000E+00  0.15480410762E+04  0.15480410762E+04  0.00000000000E+00 0. -1.
          2   -1    0    0  503    0 -0.00000000000E+00 -0.00000000000E+00 -0.20599819571E+04  0.20599819571E+04  0.00000000000E+00 0. -1.
         24    2    1    2    0    0  0.41157358487E+02  0.58715726306E+02 -0.21739026146E+03  0.24839520268E+03  0.96437473326E+02 0.  0.
         25    2    1    2    0    0 -0.10261071182E+03 -0.25474931427E+03  0.36826904360E+03  0.47609889693E+03  0.12498759894E+03 0.  0.
         24    2    1    2    0    0  0.12058471125E+02  0.88001046659E+02 -0.18868722134E+03  0.22451623328E+03  0.83156963444E+02 0.  0.
        -11    1    5    5    0    0  0.46358604801E+02  0.51172808357E+02 -0.13004295845E+03  0.14723772478E+03  0.00000000000E+00 0.  1.
         12    1    5    5    0    0 -0.34300133676E+02  0.36828238302E+02 -0.58644262892E+02  0.77278508505E+02  0.00000000000E+00 0. -1.
        -11    1    3    3    0    0 -0.39696013453E+00  0.23664239901E+02  0.65351138670E+00  0.23676589801E+02  0.00000000000E+00 0.  1.
         12    1    3    3    0    0  0.41554318621E+02  0.35051486404E+02 -0.21804377285E+03  0.22471861288E+03  0.00000000000E+00 0. -1.
          5    1    4    4  501    0 -0.13238293867E+02  0.43316413401E+01  0.67851014871E+02  0.69425253044E+02  0.47000000000E+01 0.  1.
         -5    1    4    4    0  501 -0.89372417951E+02 -0.25908095561E+03  0.30041802873E+03  0.40667364389E+03  0.47000000000E+01 0.  1.
          1    1    1    2  502    0 -0.48735412638E+02  0.19774096712E+02  0.10890245532E+04  0.10902938286E+04  0.00000000000E+00 0. -1.
          1    1    1    2  503    0  0.98130294844E+02  0.88258444596E+02 -0.15631569949E+04  0.15687188718E+04  0.00000000000E+00 0. -1.
<mgrwt>
<rscale>  0 0.89704692E+02</rscale>
<asrwt>0</asrwt>
<pdfrwt beam="1">  1        2 0.22765310E+00 0.52594252E+02</pdfrwt>
<pdfrwt beam="2">  1        2 0.30293852E+00 0.15300021E+03</pdfrwt>
<totfact> 0.20420746E+01</totfact>
</mgrwt>
</event>
<event>
13    1  0.2038932E-008  0.9932012E+02  0.7546771E-02  0.1323379E+00
          2   -1    0    0  503    0  0.00000000000E+00  0.00000000000E+00  0.53843726566E+03  0.53843726566E+03  0.00000000000E+00 0. -1.
          2   -1    0    0  502    0 -0.00000000000E+00 -0.00000000000E+00 -0.74509121548E+03  0.74509121548E+03  0.00000000000E+00 0. -1.
         24    2    1    2    0    0 -0.25148087686E+02  0.39878132539E+02 -0.31217388720E+03  0.32584462820E+03  0.80619439996E+02 0.  0.
         25    2    1    2    0    0  0.82154745644E+02  0.37806371098E+02  0.27729774857E+03  0.31732700456E+03  0.12499465002E+03 0.  0.
         24    2    1    2    0    0 -0.12075407832E+03 -0.36237017939E+02  0.82885656871E+02  0.17126687695E+03  0.81040990401E+02 0.  0.
        -11    1    3    3    0    0  0.27948801242E+02  0.24661684530E+02 -0.10440023287E+03  0.11085460206E+03  0.00000000000E+00 0.  1.
         12    1    3    3    0    0 -0.53096888928E+02  0.15216448009E+02 -0.20777365434E+03  0.21499002614E+03  0.00000000000E+00 0. -1.
        -13    1    5    5    0    0 -0.48584658388E+02  0.25526214129E+02  0.29926706251E+02  0.62511314059E+02  0.00000000000E+00 0.  1.
         14    1    5    5    0    0 -0.72169419929E+02 -0.61763232067E+02  0.52958950620E+02  0.10875556289E+03  0.00000000000E+00 0. -1.
          5    1    4    4  501    0 -0.28841990185E+02  0.24230087947E+02  0.41071076609E+02  0.55927460997E+02  0.47000000000E+01 0.  1.
         -5    1    4    4    0  501  0.11099673583E+03  0.13576283151E+02  0.23622667196E+03  0.26139954356E+03  0.47000000000E+01 0.  1.
          1    1    1    2  502    0  0.11187878513E+03 -0.89135262230E+02 -0.33484198533E+03  0.36411689424E+03  0.00000000000E+00 0. -1.
          1    1    1    2  503    0 -0.48131364768E+02  0.47687776531E+02  0.80178517265E+02  0.10497307720E+03  0.00000000000E+00 0. -1.
<mgrwt>
<rscale>  0 0.82033185E+02</rscale>
<asrwt>0</asrwt>
<pdfrwt beam="1">  1        2 0.79181951E-01 0.67755091E+02</pdfrwt>
<pdfrwt beam="2">  1        2 0.10957224E+00 0.99320116E+02</pdfrwt>
<totfact> 0.40564225E+02</totfact>
</mgrwt>
</event>
<event>
13    1  0.2038932E-008  0.2498747E+03  0.7546771E-02  0.1168629E+00
          2   -1    0    0  502    0  0.00000000000E+00  0.00000000000E+00  0.37692764784E+04  0.37692764784E+04  0.00000000000E+00 0. -1.
          2   -1    0    0  503    0 -0.00000000000E+00 -0.00000000000E+00 -0.45361008686E+03  0.45361008686E+03  0.00000000000E+00 0. -1.
         24    2    1    2    0    0  0.26826021211E+03  0.91810669708E+01  0.57549819949E+02  0.28594682589E+03  0.80036067287E+02 0.  0.
         25    2    1    2    0    0 -0.28954208666E+03  0.16993488040E+03  0.29577374972E+03  0.46456442935E+03  0.12500205786E+03 0.  0.
         24    2    1    2    0    0  0.12613328532E+02  0.39224041565E+02  0.75256013241E+02  0.11824645604E+03  0.81370359127E+02 0.  0.
        -11    1    3    3    0    0  0.91083068989E+02  0.41250880741E+02  0.17942479034E+02  0.10158589062E+03  0.00000000000E+00 0.  1.
         12    1    3    3    0    0  0.17717714312E+03 -0.32069813770E+02  0.39607340916E+02  0.18436093527E+03  0.00000000000E+00 0. -1.
        -13    1    5    5    0    0 -0.20461392582E+01  0.62010552660E+02  0.40156075898E+02  0.73905383827E+02  0.00000000000E+00 0.  1.
         14    1    5    5    0    0  0.14659467791E+02 -0.22786511095E+02  0.35099937344E+02  0.44341072217E+02  0.00000000000E+00 0. -1.
          5    1    4    4  501    0 -0.29461031299E+03  0.14176007784E+03  0.25566404582E+03  0.41506306811E+03  0.47000000000E+01 0. -1.
         -5    1    4    4    0  501  0.50682263226E+01  0.28174802563E+02  0.40109703905E+02  0.49501361242E+02  0.47000000000E+01 0. -1.
          1    1    1    2  502    0 -0.16544531680E+03 -0.19167561973E+03  0.30814436471E+04  0.30918290131E+04  0.00000000000E+00 0. -1.
          1    1    1    2  503    0  0.17411386282E+03 -0.26664369206E+02 -0.19435683852E+03  0.26229984081E+03  0.00000000000E+00 0. -1.
<mgrwt>
<rscale>  0 0.17914877E+03</rscale>
<asrwt>0</asrwt>
<pdfrwt beam="1">  1        2 0.55430535E+00 0.24987472E+03</pdfrwt>
<pdfrwt beam="2">  1        2 0.66707368E-01 0.12844149E+03</pdfrwt>
<totfact> 0.10074627E+01</totfact>
</mgrwt>
</event>
<event>
13    1  0.2038932E-008  0.9393108E+02  0.7546771E-02  0.1405821E+00
          2   -1    0    0  502    0  0.00000000000E+00  0.00000000000E+00  0.46395055089E+03  0.46395055089E+03  0.00000000000E+00 0. -1.
          2   -1    0    0  503    0 -0.00000000000E+00 -0.00000000000E+00 -0.21872921801E+04  0.21872921801E+04  0.00000000000E+00 0. -1.
         24    2    1    2    0    0 -0.33108626434E+02 -0.44223510718E+02 -0.64536353958E+03  0.65296314589E+03  0.82552235691E+02 0.  0.
         25    2    1    2    0    0  0.81113142219E+02  0.61185740125E+02  0.16307965228E+03  0.22922295155E+03  0.12500060758E+03 0.  0.
         24    2    1    2    0    0 -0.18017169470E+03 -0.73927425170E+02 -0.11676514792E+03  0.23928354021E+03  0.75467934130E+02 0.  0.
        -11    1    5    5    0    0 -0.82596341594E+02 -0.20583494750E+02 -0.92030123538E+02  0.12536099688E+03  0.00000000000E+00 0.  1.
         12    1    5    5    0    0 -0.97575353105E+02 -0.53343930420E+02 -0.24735024382E+02  0.11392254332E+03  0.00000000000E+00 0. -1.
        -11    1    3    3    0    0  0.95213783586E+01 -0.38368129087E+01 -0.41839772773E+03  0.41852363894E+03  0.00000000000E+00 0.  1.
         12    1    3    3    0    0 -0.42630004792E+02 -0.40386697810E+02 -0.22696581185E+03  0.23443950695E+03  0.00000000000E+00 0. -1.
          5    1    4    4  501    0 -0.12997649063E+02  0.30731978533E+01 -0.14304534119E+02  0.20126925314E+02  0.47000000000E+01 0.  1.
         -5    1    4    4    0  501  0.94110791282E+02  0.58112542272E+02  0.17738418639E+03  0.20909602624E+03  0.47000000000E+01 0.  1.
          1    1    1    2  502    0  0.15799603827E+02  0.32328423738E+02  0.19845371520E+03  0.20168944330E+03  0.00000000000E+00 0. -1.
          1    1    1    2  503    0  0.11636757509E+03  0.24636772025E+02 -0.13227463092E+04  0.13280836501E+04  0.00000000000E+00 0. -1.
<mgrwt>
<rscale>  0 0.58136851E+02</rscale>
<asrwt>0</asrwt>
<pdfrwt beam="1">  1        2 0.68228023E-01 0.35982697E+02</pdfrwt>
<pdfrwt beam="2">  1        2 0.32166061E+00 0.93931078E+02</pdfrwt>
<totfact> 0.84320038E+01</totfact>
</mgrwt>
</event>
<event>
13    1  0.2038932E-008  0.4453304E+02  0.7546771E-02  0.1502671E+00
          2   -1    0    0  502    0  0.00000000000E+00  0.00000000000E+00  0.17743304668E+04  0.17743304668E+04  0.00000000000E+00 0. -1.
          2   -1    0    0  503    0 -0.00000000000E+00 -0.00000000000E+00 -0.16550325993E+04  0.16550325993E+04  0.00000000000E+00 0. -1.
         24    2    1    2    0    0 -0.53713344853E+02  0.68948065357E+02 -0.24265736996E+03  0.26980096865E+03  0.79189673291E+02 0.  0.
         25    2    1    2    0    0  0.17992478808E+03 -0.15858389713E+03  0.47758543704E+03  0.54884900233E+03  0.12500238353E+03 0.  0.
         24    2    1    2    0    0 -0.61643387136E+02  0.60132302652E+02 -0.89952084636E+02  0.14664444900E+03  0.77442984776E+02 0.  0.
        -11    1    5    5    0    0 -0.73983399932E+02  0.64767995930E+02 -0.63387188925E+02  0.11698877075E+03  0.00000000000E+00 0.  1.
         12    1    5    5    0    0  0.12340012795E+02 -0.46356932781E+01 -0.26564895711E+02  0.29655678244E+02  0.00000000000E+00 0. -1.
        -13    1    3    3    0    0 -0.37240594378E+02  0.83216479059E+02 -0.15832521723E+03  0.18269843641E+03  0.00000000000E+00 0.  1.
         14    1    3    3    0    0 -0.16472750475E+02 -0.14268413703E+02 -0.84332152732E+02  0.87102532238E+02  0.00000000000E+00 0. -1.
          5    1    4    4  501    0  0.10410504407E+03 -0.23239730056E+02  0.13028765081E+03  0.16844852985E+03  0.47000000000E+01 0. -1.
         -5    1    4    4    0  501  0.75819744010E+02 -0.13534416708E+03  0.34729778623E+03  0.38040047248E+03  0.47000000000E+01 0. -1.
          1    1    1    2  502    0 -0.44472448838E+02 -0.19345331688E+01  0.12185091758E+04  0.12193220053E+04  0.00000000000E+00 0. -1.
          1    1    1    2  503    0 -0.20095607253E+02  0.31438062293E+02 -0.12441872908E+04  0.12447466408E+04  0.00000000000E+00 0. -1.
<mgrwt>
<rscale>  0 0.40762932E+02</rscale>
<asrwt>0</asrwt>
<pdfrwt beam="1">  1        2 0.26093095E+00 0.44533037E+02</pdfrwt>
<pdfrwt beam="2">  1        2 0.24338715E+00 0.37311998E+02</pdfrwt>
<totfact> 0.29115850E+01</totfact>
</mgrwt>
</event>
<event>
13    1  0.2038932E-008  0.8327860E+02  0.7546771E-02  0.1449652E+00
          2   -1    0    0  503    0  0.00000000000E+00  0.00000000000E+00  0.33433245277E+03  0.33433245277E+03  0.00000000000E+00 0. -1.
          2   -1    0    0  502    0 -0.00000000000E+00 -0.00000000000E+00 -0.25074943262E+04  0.25074943262E+04  0.00000000000E+00 0. -1.
         24    2    1    2    0    0 -0.55683586470E+02 -0.30566977613E+02 -0.62210813963E+03  0.63041277548E+03  0.79791780115E+02 0.  0.
         25    2    1    2    0    0  0.39283203958E+02 -0.42546761467E+01  0.15795429739E+03  0.20526770684E+03  0.12499599603E+03 0.  0.
         24    2    1    2    0    0 -0.73527316092E+02  0.23395477616E+02 -0.66240296418E+03  0.67136128692E+03  0.77425293289E+02 0.  0.
        -11    1    5    5    0    0 -0.21357732832E+02 -0.28113286059E+02 -0.25205258498E+03  0.25451329081E+03  0.00000000000E+00 0.  1.
         12    1    5    5    0    0 -0.52169583261E+02  0.51508763675E+02 -0.41035037920E+03  0.41684799611E+03  0.00000000000E+00 0. -1.
        -11    1    3    3    0    0 -0.74492285301E+02 -0.12400128330E+02 -0.48304339779E+03  0.48891081794E+03  0.00000000000E+00 0.  1.
         12    1    3    3    0    0  0.18808698830E+02 -0.18166849284E+02 -0.13906474184E+03  0.14150195754E+03  0.00000000000E+00 0. -1.
          5    1    4    4  501    0 -0.39157380829E+02 -0.26034324406E+02  0.77126694737E+02  0.90452769785E+02  0.47000000000E+01 0. -1.
         -5    1    4    4    0  501  0.78440584788E+02  0.21779648259E+02  0.80827602657E+02  0.11481493706E+03  0.47000000000E+01 0. -1.
          1    1    1    2  502    0  0.74914364595E+02  0.36328635173E+02 -0.11877557761E+04  0.11906702799E+04  0.00000000000E+00 0. -1.
          1    1    1    2  503    0  0.15013334009E+02 -0.24902459029E+02  0.14115070911E+03  0.14411472980E+03  0.00000000000E+00 0. -1.
<mgrwt>
<rscale>  0 0.49209541E+02</rscale>
<asrwt>0</asrwt>
<pdfrwt beam="1">  1        2 0.49166535E-01 0.29078044E+02</pdfrwt>
<pdfrwt beam="2">  1        2 0.36874918E+00 0.83278605E+02</pdfrwt>
<totfact> 0.82942523E+01</totfact>
</mgrwt>
</event>
<event>
13    1  0.2038932E-008  0.2480550E+03  0.7546771E-02  0.1215032E+00
          2   -1    0    0  503    0  0.00000000000E+00  0.00000000000E+00  0.25458222099E+04  0.25458222099E+04  0.00000000000E+00 0. -1.
          2   -1    0    0  502    0 -0.00000000000E+00 -0.00000000000E+00 -0.11496513855E+04  0.11496513855E+04  0.00000000000E+00 0. -1.
         24    2    1    2    0    0  0.63424622390E+02 -0.23086266208E+03  0.17061727256E+03  0.30444475782E+03  0.79095546001E+02 0.  0.
         25    2    1    2    0    0  0.51734811852E+03  0.48132577302E+03  0.10814306764E+04  0.12978603342E+04  0.12500225446E+03 0.  0.
         24    2    1    2    0    0 -0.35627290682E+03 -0.16027357928E+03 -0.35389417269E+03  0.53299217266E+03  0.78876905984E+02 0.  0.
        -13    1    3    3    0    0  0.45994898963E+02 -0.22380231576E+03  0.13836448266E+03  0.26710997236E+03  0.00000000000E+00 0.  1.
         14    1    3    3    0    0  0.17429723426E+02 -0.70603463196E+01  0.32252789902E+02  0.37334785460E+02  0.00000000000E+00 0. -1.
        -13    1    5    5    0    0 -0.37110957395E+02 -0.81624411486E+01 -0.69661494808E+02  0.79350944942E+02  0.00000000000E+00 0.  1.
         14    1    5    5    0    0 -0.31916194943E+03 -0.15211113813E+03 -0.28423267789E+03  0.45364122772E+03  0.00000000000E+00 0. -1.
          5    1    4    4  501    0  0.54764110681E+02  0.37678968416E+02  0.17872136099E+03  0.19074125761E+03  0.47000000000E+01 0.  1.
         -5    1    4    4    0  501  0.46258400784E+03  0.44364680460E+03  0.90270931545E+03  0.11071190766E+04  0.47000000000E+01 0.  1.
          1    1    1    2  502    0 -0.24787116261E+03 -0.16191917040E+02 -0.50044586733E+03  0.55870238729E+03  0.00000000000E+00 0. -1.
          1    1    1    2  503    0  0.23371328530E+02 -0.73997614616E+02  0.99846291537E+03  0.10014739434E+04  0.00000000000E+00 0. -1.
<mgrwt>
<rscale>  0 0.13874161E+03</rscale>
<asrwt>0</asrwt>
<pdfrwt beam="1">  1        2 0.37438562E+00 0.77600683E+02</pdfrwt>
<pdfrwt beam="2">  1        2 0.16906638E+00 0.24805497E+03</pdfrwt>
<totfact> 0.18421185E+01</totfact>
</mgrwt>
</event>
<event>
13    1  0.2038932E-008  0.1220917E+03  0.7546771E-02  0.1275507E+00
          2   -1    0    0  503    0  0.00000000000E+00  0.00000000000E+00  0.42570581607E+04  0.42570581607E+04  0.00000000000E+00 0. -1.
          2   -1    0    0  502    0 -0.00000000000E+00 -0.00000000000E+00 -0.31684288859E+03  0.31684288859E+03  0.00000000000E+00 0. -1.
         24    2    1    2    0    0  0.55988767581E+02 -0.12309164819E+03  0.12608942322E+03  0.20285829877E+03  0.83466465024E+02 0.  0.
         25    2    1    2    0    0 -0.23599006632E+03  0.38658432711E+02  0.13138622382E+03  0.30011997861E+03  0.12499550363E+03 0.  0.
         24    2    1    2    0    0  0.61471486130E+02 -0.62471781151E+02  0.27699052042E+04  0.27724060256E+04  0.78605745093E+02 0.  0.
        -11    1    3    3    0    0  0.62141647987E+02 -0.12926662430E+03  0.12974636282E+03  0.19340517894E+03  0.00000000000E+00 0.  1.
         12    1    3    3    0    0 -0.61528804065E+01  0.61749761168E+01 -0.36569396036E+01  0.94531198345E+01  0.00000000000E+00 0. -1.
        -13    1    5    5    0    0  0.15349899824E+01 -0.26150282143E+02  0.17030151541E+04  0.17032166064E+04  0.00000000000E+00 0.  1.
         14    1    5    5    0    0  0.59936496147E+02 -0.36321499007E+02  0.10668900502E+04  0.10691894191E+04  0.00000000000E+00 0. -1.
          5    1    4    4  501    0 -0.15963813668E+03  0.75439789152E+02  0.52558804044E+02  0.18428243094E+03  0.47000000000E+01 0. -1.
         -5    1    4    4    0  501 -0.76351929645E+02 -0.36781356441E+02  0.78827419773E+02  0.11583754767E+03  0.47000000000E+01 0. -1.
          1    1    1    2  502    0  0.10022274324E+03  0.63144786825E+02 -0.17279922046E+03  0.20950282327E+03  0.00000000000E+00 0. -1.
          1    1    1    2  503    0  0.18307069368E+02  0.83760209802E+02  0.10856336412E+04  0.10890139230E+04  0.00000000000E+00 0. -1.
<mgrwt>
<rscale>  0 0.10231247E+03</rscale>
<asrwt>0</asrwt>
<pdfrwt beam="1">  1        2 0.62603793E+00 0.85737515E+02</pdfrwt>
<pdfrwt beam="2">  1        2 0.46594545E-01 0.12209173E+03</pdfrwt>
<totfact> 0.84608860E+00</totfact>
</mgrwt>
</event>
<event>
13    1  0.2038932E-008  0.1082640E+03  0.7546771E-02  0.1266951E+00
          2   -1    0    0  503    0  0.00000000000E+00  0.00000000000E+00  0.22150861852E+04  0.22150861852E+04  0.00000000000E+00 0. -1.
          2   -1    0    0  502    0 -0.00000000000E+00 -0.00000000000E+00 -0.19927306332E+04  0.19927306332E+04  0.00000000000E+00 0. -1.
         24    2    1    2    0    0 -0.60391432265E+02 -0.16007761054E+02 -0.11615883115E+04  0.11656770811E+04  0.74915142453E+02 0.  0.
         25    2    1    2    0    0  0.16178504749E+03 -0.19429718479E+03 -0.99557954989E+02  0.29910124958E+03  0.12499589391E+03 0.  0.
         24    2    1    2    0    0 -0.16103961862E+03  0.15088561983E+03 -0.52435618462E+03  0.57450989832E+03  0.80074876759E+02 0.  0.
        -11    1    3    3    0    0  0.10371972388E+02  0.62887421306E+01 -0.46322144556E+03  0.46338022586E+03  0.00000000000E+00 0.  1.
         12    1    3    3    0    0 -0.70763404653E+02 -0.22296503185E+02 -0.69836686591E+03  0.70229685525E+03  0.00000000000E+00 0. -1.
        -13    1    5    5    0    0 -0.51129657618E+02  0.77374495379E+02 -0.30084238756E+03  0.31481295490E+03  0.00000000000E+00 0.  1.
         14    1    5    5    0    0 -0.10990996101E+03  0.73511124453E+02 -0.22351379706E+03  0.25969694342E+03  0.00000000000E+00 0. -1.
          5    1    4    4  501    0  0.21406836631E+02 -0.32223762246E+02  0.29429058645E+02  0.48834240043E+02  0.47000000000E+01 0. -1.
         -5    1    4    4    0  501  0.14037821086E+03 -0.16207342254E+03 -0.12898701363E+03  0.25026700954E+03  0.47000000000E+01 0. -1.
          1    1    1    2  502    0 -0.11383428129E+02  0.14118921894E+03 -0.15301871352E+02  0.14247148925E+03  0.00000000000E+00 0. -1.
          1    1    1    2  503    0  0.71029431528E+02 -0.81769892930E+02  0.20231598745E+04  0.20260571002E+04  0.00000000000E+00 0. -1.
<mgrwt>
<rscale>  0 0.10662459E+03</rscale>
<asrwt>0</asrwt>
<pdfrwt beam="1">  1        2 0.32574797E+00 0.10826399E+03</pdfrwt>
<pdfrwt beam="2">  1        2 0.29304862E+00 0.10501001E+03</pdfrwt>
<totfact> 0.10229504E+01</totfact>
</mgrwt>
</event>
<event>
13    1  0.2038932E-008  0.1809394E+03  0.7546771E-02  0.1219243E+00
          2   -1    0    0  503    0  0.00000000000E+00  0.00000000000E+00  0.16256531136E+04  0.16256531136E+04  0.00000000000E+00 0. -1.
          2   -1    0    0  502    0 -0.00000000000E+00 -0.00000000000E+00 -0.18943231756E+04  0.18943231756E+04  0.00000000000E+00 0. -1.
         24    2    1    2    0    0 -0.18798391877E+03 -0.10146518382E+03 -0.58669099047E+03  0.62949660877E+03  0.80165609273E+02 0.  0.
         25    2    1    2    0    0 -0.25624394518E+02  0.15235538741E+03 -0.37085042672E+03  0.42074168897E+03  0.12499902469E+03 0.  0.
         24    2    1    2    0    0 -0.34278405476E+02  0.64348674349E+02  0.57476712031E+03  0.58476910770E+03  0.79258474344E+02 0.  0.
        -13    1    3    3    0    0 -0.79469680033E+02 -0.85166706616E+02 -0.34299093984E+03  0.36223139396E+03  0.00000000000E+00 0.  1.
         14    1    3    3    0    0 -0.10851423874E+03 -0.16298477199E+02 -0.24370005063E+03  0.26726521481E+03  0.00000000000E+00 0. -1.
        -13    1    5    5    0    0  0.12594885392E+02  0.56252087760E+02  0.37577109439E+03  0.38016686323E+03  0.00000000000E+00 0.  1.
         14    1    5    5    0    0 -0.46873290868E+02  0.80965865890E+01  0.19899602592E+03  0.20460224447E+03  0.00000000000E+00 0. -1.
          5    1    4    4  501    0 -0.14633376188E+02  0.97254645355E+02 -0.34489044082E+03  0.35866991498E+03  0.47000000000E+01 0.  1.
         -5    1    4    4    0  501 -0.10991018329E+02  0.55100742051E+02 -0.25959985899E+02  0.62071773991E+02  0.47000000000E+01 0.  1.
          1    1    1    2  502    0  0.16428145197E+03 -0.57222965820E+02 -0.87424985940E+03  0.89138974637E+03  0.00000000000E+00 0. -1.
          1    1    1    2  503    0  0.83605266801E+02 -0.58015912120E+02  0.98835409427E+03  0.99357913744E+03  0.00000000000E+00 0. -1.
<mgrwt>
<rscale>  0 0.13569421E+03</rscale>
<asrwt>0</asrwt>
<pdfrwt beam="1">  1        2 0.23906664E+00 0.10176289E+03</pdfrwt>
<pdfrwt beam="2">  1        2 0.27857694E+00 0.18093941E+03</pdfrwt>
<totfact> 0.21035468E+01</totfact>
</mgrwt>
</event>
<event>
13    1  0.2038932E-008  0.1254559E+03  0.7546771E-02  0.1312496E+00
          2   -1    0    0  503    0  0.00000000000E+00  0.00000000000E+00  0.29919111492E+04  0.29919111492E+04  0.00000000000E+00 0. -1.
          2   -1    0    0  502    0 -0.00000000000E+00 -0.00000000000E+00 -0.12370229937E+04  0.12370229937E+04  0.00000000000E+00 0. -1.
         24    2    1    2    0    0  0.36537525748E+03 -0.13157810018E+04  0.45412909265E+03  0.14412824259E+04  0.79265848562E+02 0.  0.
         25    2    1    2    0    0 -0.53240569481E+03  0.29044289569E+03  0.44942669893E+03  0.76512731574E+03  0.12499020787E+03 0.  0.
         24    2    1    2    0    0  0.24454572949E+03  0.10506336634E+04  0.74415711373E+02  0.10852876160E+04  0.93154725421E+02 0.  0.
        -11    1    5    5    0    0  0.14074374093E+02  0.17028994789E+03 -0.11323212477E+02  0.17124534884E+03  0.00000000000E+00 0.  1.
         12    1    5    5    0    0  0.23047135540E+03  0.88034371546E+03  0.85738923850E+02  0.91404226712E+03  0.00000000000E+00 0. -1.
        -11    1    3    3    0    0  0.44779447760E+02 -0.98847724696E+02  0.22184010200E+02  0.11076191551E+03  0.00000000000E+00 0.  1.
         12    1    3    3    0    0  0.32059580972E+03 -0.12169332771E+04  0.43194508245E+03  0.13305205104E+04  0.00000000000E+00 0. -1.
          5    1    4    4  501    0 -0.14585844026E+03  0.39275384415E+02  0.16352261168E+03  0.22266336687E+03  0.47000000000E+01 0.  1.
         -5    1    4    4    0  501 -0.38654725455E+03  0.25116751127E+03  0.28590408725E+03  0.54246394887E+03  0.47000000000E+01 0.  1.
          1    1    1    2  502    0  0.18029690921E+02  0.56319921408E+02 -0.63910402936E+02  0.87072055825E+02  0.00000000000E+00 0. -1.
          1    1    1    2  503    0 -0.95544983079E+02 -0.81615478612E+02  0.84082705544E+03  0.85016472951E+03  0.00000000000E+00 0. -1.
<mgrwt>
<rscale>  0 0.86133000E+02</rscale>
<asrwt>0</asrwt>
<pdfrwt beam="1">  1        2 0.43998693E+00 0.12545591E+03</pdfrwt>
<pdfrwt beam="2">  1        2 0.18191515E+00 0.59135466E+02</pdfrwt>
<totfact> 0.99051808E+00</totfact>
</mgrwt>
</event>
<event>
13    1  0.2038932E-008  0.7772018E+02  0.7546771E-02  0.1512084E+00
          2   -1    0    0  503    0  0.00000000000E+00  0.00000000000E+00  0.21769753692E+04  0.21769753692E+04  0.00000000000E+00 0. -1.
          2   -1    0    0  502    0 -0.00000000000E+00 -0.00000000000E+00 -0.45536019243E+03  0.45536019243E+03  0.00000000000E+00 0. -1.
         24    2    1    2    0    0  0.16284105076E+03  0.19668543413E+03  0.27426478298E+02  0.26992571064E+03  0.83098193356E+02 0.  0.
         25    2    1    2    0    0 -0.22707026832E+03 -0.35428572305E+03  0.48333532065E+03  0.65292993965E+03  0.12500077434E+03 0.  0.
         24    2    1    2    0    0  0.92722021070E+02  0.73062623297E+02 -0.16057866153E+03  0.21435649348E+03  0.78915648930E+02 0.  0.
        -11    1    3    3    0    0  0.74814203307E+02  0.56712510322E+02  0.44125598330E+02  0.10373303366E+03  0.00000000000E+00 0.  1.
         12    1    3    3    0    0  0.88026847450E+02  0.13997292381E+03 -0.16699120032E+02  0.16619267698E+03  0.00000000000E+00 0. -1.
        -13    1    5    5    0    0  0.85435314808E+02  0.36475540523E+02 -0.14846601453E+03  0.17513370762E+03  0.00000000000E+00 0.  1.
         14    1    5    5    0    0  0.72867062622E+01  0.36587082773E+02 -0.12112647001E+02  0.39222785870E+02  0.00000000000E+00 0. -1.
          5    1    4    4  501    0 -0.75836948856E+02 -0.23129660061E+03  0.25227627998E+03  0.35059203029E+03  0.47000000000E+01 0.  1.
         -5    1    4    4    0  501 -0.15123331946E+03 -0.12298912244E+03  0.23105904068E+03  0.30233790935E+03  0.47000000000E+01 0.  1.
          1    1    1    2  502    0  0.10287059665E+02  0.17213937586E+02 -0.59137799670E+02  0.62445356862E+02  0.00000000000E+00 0. -1.
          1    1    1    2  503    0 -0.38779863175E+02  0.67323728035E+02  0.14305698391E+04  0.14326780610E+04  0.00000000000E+00 0. -1.
<mgrwt>
<rscale>  0 0.39478631E+02</rscale>
<asrwt>0</asrwt>
<pdfrwt beam="1">  1        2 0.32014343E+00 0.77720175E+02</pdfrwt>
<pdfrwt beam="2">  1        2 0.66964735E-01 0.20053510E+02</pdfrwt>
<totfact> 0.88888804E+01</totfact>
</mgrwt>
</event>
<event>
13    1  0.2038932E-008  0.9483585E+02  0.7546771E-02  0.1316410E+00
          2   -1    0    0  502    0  0.00000000000E+00  0.00000000000E+00  0.30434359883E+04  0.30434359883E+04  0.00000000000E+00 0. -1.
          2   -1    0    0  503    0 -0.00000000000E+00 -0.00000000000E+00 -0.49102255316E+03  0.49102255316E+03  0.00000000000E+00 0. -1.
         24    2    1    2    0    0  0.15501595827E+03 -0.11244112923E+03  0.19934892741E+01  0.20803443259E+03  0.81248977111E+02 0.  0.
         25    2    1    2    0    0 -0.64072928201E+02 -0.70206755189E+02 -0.19672424594E+03  0.25171384576E+03  0.12500041042E+03 0.  0.
         24    2    1    2    0    0 -0.51862996915E+02  0.11705836833E+03  0.93582359518E+03  0.94795706820E+03  0.80401304870E+02 0.  0.
        -11    1    3    3    0    0  0.52634624396E+02 -0.12741745125E+02  0.30733301598E+02  0.62267901693E+02  0.00000000000E+00 0.  1.
         12    1    3    3    0    0  0.10238133388E+03 -0.99699384104E+02 -0.28739812324E+02  0.14576653090E+03  0.00000000000E+00 0. -1.
        -11    1    5    5    0    0  0.92644248144E+01  0.33127604478E+02  0.10090926488E+03  0.10661119774E+03  0.00000000000E+00 0.  1.
         12    1    5    5    0    0 -0.61127421730E+02  0.83930763849E+02  0.83491433030E+03  0.84134587046E+03  0.00000000000E+00 0. -1.
          5    1    4    4  501    0  0.34722241283E+02 -0.36116656680E+01 -0.27435974463E+02  0.44648637867E+02  0.47000000000E+01 0.  1.
         -5    1    4    4    0  501 -0.98795169484E+02 -0.66595089521E+02 -0.16928827147E+03  0.20706520789E+03  0.47000000000E+01 0.  1.
          1    1    1    2  502    0  0.55320317752E+02  0.51406460763E+02  0.19537957373E+04  0.19552546497E+04  0.00000000000E+00 0. -1.
          1    1    1    2  503    0 -0.94400350909E+02  0.14183055329E+02 -0.14247514070E+03  0.17149854526E+03  0.00000000000E+00 0. -1.
<mgrwt>
<rscale>  0 0.84627478E+02</rscale>
<asrwt>0</asrwt>
<pdfrwt beam="1">  1        2 0.44756411E+00 0.75517957E+02</pdfrwt>
<pdfrwt beam="2">  1        2 0.72209200E-01 0.94835855E+02</pdfrwt>
<totfact> 0.30182026E+01</totfact>
</mgrwt>
</event>
<event>
13    1  0.2038932E-008  0.1578494E+03  0.7546771E-02  0.1284438E+00
          2   -1    0    0  503    0  0.00000000000E+00  0.00000000000E+00  0.61098430923E+03  0.61098430923E+03  0.00000000000E+00 0. -1.
         -3   -1    0    0    0  501 -0.00000000000E+00 -0.00000000000E+00 -0.95056086940E+03  0.95056086940E+03  0.00000000000E+00 0.  1.
         24    2    1    2    0    0  0.16637774128E+03 -0.13596574094E+03 -0.17544062127E+03  0.28672930796E+03  0.72567547505E+02 0.  0.
         25    2    1    2    0    0 -0.26488934915E+03  0.29822853776E+03 -0.21296318048E+03  0.46913096667E+03  0.12499567841E+03 0.  0.
         24    2    1    2    0    0 -0.10313522513E+03 -0.91757891181E+02 -0.20235784952E+03  0.25799377553E+03  0.80967300150E+02 0.  0.
        -13    1    3    3    0    0  0.52444343983E+02 -0.19197990801E+02 -0.80489248119E+02  0.97966785848E+02  0.00000000000E+00 0.  1.
         14    1    3    3    0    0  0.11393339730E+03 -0.11676775014E+03 -0.94951373148E+02  0.18876252211E+03  0.00000000000E+00 0. -1.
        -13    1    5    5    0    0  0.89882471665E+01 -0.24865235712E+02 -0.55592245842E+02  0.61559453635E+02  0.00000000000E+00 0.  1.
         14    1    5    5    0    0 -0.11212347230E+03 -0.66892655470E+02 -0.14676560368E+03  0.19643432190E+03  0.00000000000E+00 0. -1.
          5    1    4    4  502    0 -0.29285855763E+02  0.14189815720E+01  0.75832431328E+01  0.30647519196E+02  0.47000000000E+01 0. -1.
         -5    1    4    4    0  502 -0.23560349339E+03  0.29680955618E+03 -0.22054642361E+03  0.43848344747E+03  0.47000000000E+01 0. -1.
          1    1    1    2  503    0  0.15313130074E+03 -0.33673473532E+02  0.37678209491E+03  0.40810273845E+03  0.00000000000E+00 0. -1.
         -4    1    1    2    0  501  0.48515532257E+02 -0.36831432105E+02 -0.12559700381E+03  0.13958839002E+03  0.00000000000E+00 0.  1.
<mgrwt>
<rscale>  0 0.98055960E+02</rscale>
<asrwt>0</asrwt>
<pdfrwt beam="1">  1        2 0.89850635E-01 0.15784936E+03</pdfrwt>
<pdfrwt beam="2">  1       -3 0.13978836E+00 0.60912324E+02</pdfrwt>
<totfact> 0.13354973E+01</totfact>
</mgrwt>
</event>
<event>
13    1  0.2038932E-008  0.3935009E+02  0.7546771E-02  0.1516707E+00
          2   -1    0    0  503    0  0.00000000000E+00  0.00000000000E+00  0.24580980707E+03  0.24580980707E+03  0.00000000000E+00 0. -1.
          2   -1    0    0  502    0 -0.00000000000E+00 -0.00000000000E+00 -0.12865327614E+04  0.12865327614E+04  0.00000000000E+00 0. -1.
         24    2    1    2    0    0 -0.19363090792E+03 -0.26380300589E+02 -0.23736673923E+03  0.31791756290E+03  0.80868777314E+02 0.  0.
         25    2    1    2    0    0  0.14771205527E+03  0.80188124434E+02 -0.20376721385E+03  0.29222385764E+03  0.12499887585E+03 0.  0.
         24    2    1    2    0    0 -0.15902820099E+02 -0.20109032730E+02  0.11336024837E+03  0.14063263926E+03  0.79181566227E+02 0.  0.
        -11    1    5    5    0    0 -0.14736678330E+02 -0.16984051921E+02 -0.43265202429E+01  0.22898613173E+02  0.00000000000E+00 0.  1.
         12    1    5    5    0    0 -0.11661417688E+01 -0.31249808093E+01  0.11768676862E+03  0.11773402609E+03  0.00000000000E+00 0. -1.
        -11    1    3    3    0    0 -0.15301701591E+03 -0.11216623320E+02 -0.22589610677E+03  0.27307337997E+03  0.00000000000E+00 0.  1.
         12    1    3    3    0    0 -0.40613892015E+02 -0.15163677269E+02 -0.11470632455E+02  0.44844182921E+02  0.00000000000E+00 0. -1.
          5    1    4    4  501    0  0.13249335763E+03  0.10507888121E+03 -0.13188222671E+03  0.21450191797E+03  0.47000000000E+01 0. -1.
         -5    1    4    4    0  501  0.15218697645E+02 -0.24890756772E+02 -0.71884987138E+02  0.77721939673E+02  0.47000000000E+01 0. -1.
          1    1    1    2  502    0  0.39197477499E+02 -0.26801726937E+01 -0.73582770487E+03  0.73687586256E+03  0.00000000000E+00 0. -1.
          1    1    1    2  503    0  0.22624195252E+02 -0.31018618421E+02  0.22878455263E+02  0.44692646093E+02  0.00000000000E+00 0. -1.
<mgrwt>
<rscale>  0 0.38868510E+02</rscale>
<asrwt>0</asrwt>
<pdfrwt beam="1">  1        2 0.36148501E-01 0.38392824E+02</pdfrwt>
<pdfrwt beam="2">  1        2 0.18919599E+00 0.39350090E+02</pdfrwt>
<totfact> 0.46819323E+02</totfact>
</mgrwt>
</event>
<event>
13    1  0.2038932E-008  0.4789935E+02  0.7546771E-02  0.1480262E+00
          2   -1    0    0  502    0  0.00000000000E+00  0.00000000000E+00  0.11297285569E+04  0.11297285569E+04  0.00000000000E+00 0. -1.
          2   -1    0    0  503    0 -0.00000000000E+00 -0.00000000000E+00 -0.36643384232E+03  0.36643384232E+03  0.00000000000E+00 0. -1.
         24    2    1    2    0    0  0.52328649014E+00 -0.76658234078E+02 -0.91165641342E+02  0.14397930809E+03  0.80883300593E+02 0.  0.
         25    2    1    2    0    0  0.10940926616E+03  0.90759584919E+01 -0.70406378614E+02  0.18064912845E+03  0.12499715564E+03 0.  0.
         24    2    1    2    0    0 -0.50854717112E+02  0.22535137427E+02 -0.26488934483E+02  0.99737446358E+02  0.78433793002E+02 0.  0.
        -11    1    3    3    0    0 -0.24955707604E+02 -0.17462905120E+01 -0.47297915765E+02  0.53506352037E+02  0.00000000000E+00 0.  1.
         12    1    3    3    0    0  0.25478994094E+02 -0.74911943566E+02 -0.43867725576E+02  0.90472956048E+02  0.00000000000E+00 0. -1.
        -13    1    5    5    0    0  0.23055298575E+01  0.38979661610E+02 -0.19526608191E+02  0.43657965077E+02  0.00000000000E+00 0.  1.
         14    1    5    5    0    0 -0.53160246969E+02 -0.16444524183E+02 -0.69623262917E+01  0.56079481282E+02  0.00000000000E+00 0. -1.
          5    1    4    4  501    0  0.48227482608E+02  0.45012663232E+02 -0.85359492083E+02  0.10798315988E+03  0.47000000000E+01 0. -1.
         -5    1    4    4    0  501  0.61181783548E+02 -0.35936704740E+02  0.14953113469E+02  0.72665968570E+02  0.47000000000E+01 0. -1.
          1    1    1    2  502    0 -0.40466483015E+02  0.24101959729E+01  0.10021198597E+04  0.10029394591E+04  0.00000000000E+00 0. -1.
          1    1    1    2  503    0 -0.18611352520E+02  0.42636942186E+02 -0.50764190686E+02  0.68857057282E+02  0.00000000000E+00 0. -1.
<mgrwt>
<rscale>  0 0.44065327E+02</rscale>
<asrwt>0</asrwt>
<pdfrwt beam="1">  1        2 0.16613655E+00 0.40538195E+02</pdfrwt>
<pdfrwt beam="2">  1        2 0.53887330E-01 0.47899345E+02</pdfrwt>
<totfact> 0.37474758E+02</totfact>
</mgrwt>
</event>
<event>
13    1  0.2038932E-008  0.2428264E+03  0.7546771E-02  0.1274077E+00
          2   -1    0    0  503    0  0.00000000000E+00  0.00000000000E+00  0.21415793686E+04  0.21415793686E+04  0.00000000000E+00 0. -1.
          2   -1    0    0  502    0 -0.00000000000E+00 -0.00000000000E+00 -0.13765931622E+04  0.13765931622E+04  0.00000000000E+00 0. -1.
         24    2    1    2    0    0  0.19388915057E+03  0.17730551398E+03 -0.46199012060E+02  0.27808443308E+03  0.78526143487E+02 0.  0.
         25    2    1    2    0    0  0.20328709311E+03 -0.24344568580E+03  0.67376887630E+03  0.75510440298E+03  0.12500686608E+03 0.  0.
         24    2    1    2    0    0 -0.11404007218E+03  0.44906961048E+02 -0.11247537934E+03  0.18740213272E+03  0.86296437788E+02 0.  0.
        -11    1    5    5    0    0 -0.47976162021E+02  0.50814024418E+02 -0.96553477916E+02  0.11919039935E+03  0.00000000000E+00 0.  1.
         12    1    5    5    0    0 -0.66063910163E+02 -0.59070633693E+01 -0.15921901421E+02  0.68211733364E+02  0.00000000000E+00 0. -1.
        -13    1    3    3    0    0  0.95124258189E+02  0.49735952253E+02  0.86309511411E+01  0.10768835945E+03  0.00000000000E+00 0.  1.
         14    1    3    3    0    0  0.98764892383E+02  0.12756956173E+03 -0.54829963201E+02  0.17039607364E+03  0.00000000000E+00 0. -1.
          5    1    4    4  501    0  0.13876956943E+02 -0.14180620374E+02  0.20606302426E+01  0.20493806996E+02  0.47000000000E+01 0. -1.
         -5    1    4    4    0  501  0.18941013617E+03 -0.22926506543E+03  0.67170824605E+03  0.73461059598E+03  0.47000000000E+01 0. -1.
          1    1    1    2  502    0 -0.30457598013E+03  0.59316717265E+02 -0.99994356836E+03  0.10469823974E+04  0.00000000000E+00 0. -1.
          1    1    1    2  503    0  0.21439808629E+02 -0.38083506489E+02  0.12498352899E+04  0.12505991647E+04  0.00000000000E+00 0. -1.
<mgrwt>
<rscale>  0 0.10301663E+03</rscale>
<asrwt>0</asrwt>
<pdfrwt beam="1">  1        2 0.31493814E+00 0.43703763E+02</pdfrwt>
<pdfrwt beam="2">  1        2 0.20244017E+00 0.24282638E+03</pdfrwt>
<totfact> 0.23356021E+01</totfact>
</mgrwt>
</event>
<event>
13    1  0.2038932E-008  0.3668709E+02  0.7546771E-02  0.1552012E+00
          2   -1    0    0  503    0  0.00000000000E+00  0.00000000000E+00  0.21580194469E+04  0.21580194469E+04  0.00000000000E+00 0. -1.
         -1   -1    0    0    0  501 -0.00000000000E+00 -0.00000000000E+00 -0.13415661417E+04  0.13415661417E+04  0.00000000000E+00 0.  1.
         24    2    1    2    0    0 -0.43089307965E+02 -0.36017353225E+02 -0.80252772718E+03  0.80813443802E+03  0.76658847041E+02 0.  0.
         25    2    1    2    0    0  0.33379373631E+02  0.87055962588E+02  0.11117331986E+04  0.11226177973E+04  0.12500836238E+03 0.  0.
         24    2    1    2    0    0  0.67496434556E+02 -0.36570024281E+02 -0.40628202044E+02  0.11888039344E+03  0.81171188171E+02 0.  0.
        -11    1    3    3    0    0  0.47363932337E+01 -0.39143808597E+02 -0.52669288629E+03  0.52816670440E+03  0.00000000000E+00 0.  1.
         12    1    3    3    0    0 -0.47825701199E+02  0.31264553714E+01 -0.27583484089E+03  0.27996773362E+03  0.00000000000E+00 0. -1.
        -13    1    5    5    0    0  0.80608345499E+02 -0.12066285679E+02 -0.19069536475E+02  0.83707513614E+02  0.00000000000E+00 0.  1.
         14    1    5    5    0    0 -0.13111910942E+02 -0.24503738603E+02 -0.21558665568E+02  0.35172879825E+02  0.00000000000E+00 0. -1.
          5    1    4    4  502    0  0.11042142428E+02 -0.30075847927E+02  0.14652682870E+03  0.15006227729E+03  0.47000000000E+01 0. -1.
         -5    1    4    4    0  502  0.22337231203E+02  0.11713181051E+03  0.96520636995E+03  0.97255552002E+03  0.47000000000E+01 0. -1.
          1    1    1    2  503    0 -0.35461739016E+02  0.93796683108E+01  0.99798562482E+03  0.99865951177E+03  0.00000000000E+00 0. -1.
         -2    1    1    2    0  501 -0.22324761207E+02 -0.23848253393E+02 -0.45010958902E+03  0.45129344808E+03  0.00000000000E+00 0.  1.
<mgrwt>
<rscale>  0 0.34618753E+02</rscale>
<asrwt>0</asrwt>
<pdfrwt beam="1">  1        2 0.31735580E+00 0.36687095E+02</pdfrwt>
<pdfrwt beam="2">  1       -1 0.19728914E+00 0.32667019E+02</pdfrwt>
<totfact> 0.20919828E+00</totfact>
</mgrwt>
</event>
<event>
13    1  0.2038932E-008  0.3827144E+03  0.7546771E-02  0.1218286E+00
          2   -1    0    0  503    0  0.00000000000E+00  0.00000000000E+00  0.22662255609E+04  0.22662255609E+04  0.00000000000E+00 0. -1.
          2   -1    0    0  502    0 -0.00000000000E+00 -0.00000000000E+00 -0.22450111068E+04  0.22450111068E+04  0.00000000000E+00 0. -1.
         24    2    1    2    0    0  0.68106795827E+02 -0.44972356259E+01 -0.78139063814E+02  0.13115692872E+03  0.80235066469E+02 0.  0.
         25    2    1    2    0    0 -0.47324700101E+03  0.27238566975E+02  0.26862531488E+03  0.55900374146E+03  0.12498383767E+03 0.  0.
         24    2    1    2    0    0  0.45268017552E+02  0.28844766158E+02 -0.80704802272E+03  0.81275958689E+03  0.79814918206E+02 0.  0.
        -11    1    3    3    0    0 -0.14486023348E+02  0.13737258091E+02 -0.21630654947E+02  0.29435393079E+02  0.00000000000E+00 0.  1.
         12    1    3    3    0    0  0.82592819175E+02 -0.18234493717E+02 -0.56508408868E+02  0.10172153564E+03  0.00000000000E+00 0. -1.
        -13    1    5    5    0    0  0.14241623128E+02 -0.26625069346E+02 -0.35229108199E+03  0.35358269838E+03  0.00000000000E+00 0.  1.
         14    1    5    5    0    0  0.31026394424E+02  0.55469835504E+02 -0.45475694073E+03  0.45917688852E+03  0.00000000000E+00 0. -1.
          5    1    4    4  501    0 -0.88621639039E+02 -0.39509402144E+02  0.77811848985E+02  0.12446510196E+03  0.47000000000E+01 0. -1.
         -5    1    4    4    0  501 -0.38462536197E+03  0.66747969119E+02  0.19081346590E+03  0.43453863950E+03  0.47000000000E+01 0. -1.
          1    1    1    2  502    0  0.16075001787E+01  0.48571819972E+02 -0.11657813639E+04  0.11667938954E+04  0.00000000000E+00 0. -1.
          1    1    1    2  503    0  0.35826468745E+03 -0.10015791748E+03  0.18035575897E+04  0.18415225152E+04  0.00000000000E+00 0. -1.
<mgrwt>
<rscale>  0 0.13637929E+03</rscale>
<asrwt>0</asrwt>
<pdfrwt beam="1">  1        2 0.33326847E+00 0.38271438E+03</pdfrwt>
<pdfrwt beam="2">  1        2 0.33014869E+00 0.48598413E+02</pdfrwt>
<totfact> 0.69773339E+00</totfact>
</mgrwt>
</event>
<event>
13    1  0.2038932E-008  0.1558281E+03  0.7546771E-02  0.1275199E+00
          2   -1    0    0  503    0  0.00000000000E+00  0.00000000000E+00  0.14998702267E+04  0.14998702267E+04  0.00000000000E+00 0. -1.
          2   -1    0    0  502    0 -0.00000000000E+00 -0.00000000000E+00 -0.22817718614E+04  0.22817718614E+04  0.00000000000E+00 0. -1.
         24    2    1    2    0    0  0.22763024307E+02  0.11559808598E+03 -0.16510596288E+03  0.21776970559E+03  0.79262809285E+02 0.  0.
         25    2    1    2    0    0 -0.18406387201E+03 -0.81361496915E+02 -0.33730741815E+03  0.41219171840E+03  0.12500606473E+03 0.  0.
         24    2    1    2    0    0  0.34806173491E+01 -0.65969623030E+02 -0.11382618018E+03  0.15470873363E+03  0.81328267588E+02 0.  0.
        -11    1    3    3    0    0  0.49508631876E+02  0.91795073806E+02 -0.10628724736E+03  0.14891077583E+03  0.00000000000E+00 0.  1.
         12    1    3    3    0    0 -0.26745607569E+02  0.23803012172E+02 -0.58818715522E+02  0.68858929764E+02  0.00000000000E+00 0. -1.
        -11    1    5    5    0    0 -0.58366063040E+01  0.17525363723E+02 -0.34648016784E+02  0.39264352966E+02  0.00000000000E+00 0.  1.
         12    1    5    5    0    0  0.93172236531E+01 -0.83494986753E+02 -0.79178163395E+02  0.11544438067E+03  0.00000000000E+00 0. -1.
          5    1    4    4  501    0 -0.18513566689E+03 -0.51525671209E+02 -0.22522261843E+03  0.29610374500E+03  0.47000000000E+01 0. -1.
         -5    1    4    4    0  501  0.10717948867E+01 -0.29835825705E+02 -0.11208479972E+03  0.11608797340E+03  0.47000000000E+01 0. -1.
          1    1    1    2  502    0  0.31939502729E+02 -0.59322087042E+02 -0.15763327439E+04  0.15777718977E+04  0.00000000000E+00 0. -1.
          1    1    1    2  503    0  0.12588072762E+03  0.91055121009E+02  0.14106706704E+04  0.14192000328E+04  0.00000000000E+00 0. -1.
<mgrwt>
<rscale>  0 0.10246339E+03</rscale>
<asrwt>0</asrwt>
<pdfrwt beam="1">  1        2 0.22056915E+00 0.15582809E+03</pdfrwt>
<pdfrwt beam="2">  1        2 0.33555468E+00 0.67373896E+02</pdfrwt>
<totfact> 0.16939884E+01</totfact>
</mgrwt>
</event>
<event>
13    1  0.2038932E-008  0.1148634E+03  0.7546771E-02  0.1306295E+00
          2   -1    0    0  503    0  0.00000000000E+00  0.00000000000E+00  0.15124711319E+04  0.15124711319E+04  0.00000000000E+00 0. -1.
          2   -1    0    0  502    0 -0.00000000000E+00 -0.00000000000E+00 -0.41045306319E+04  0.41045306319E+04  0.00000000000E+00 0. -1.
         24    2    1    2    0    0  0.32729824653E+03 -0.51094863840E+02 -0.28774858697E+02  0.34190720405E+03  0.79609775771E+02 0.  0.
         25    2    1    2    0    0 -0.17176076721E+03  0.17773583997E+03 -0.35875962964E+03  0.45323833683E+03  0.12499891258E+03 0.  0.
         24    2    1    2    0    0 -0.15928201402E+03 -0.70243631157E+02  0.73587630200E+03  0.76093793348E+03  0.84898050913E+02 0.  0.
        -13    1    3    3    0    0  0.67870748442E+02 -0.15898979530E+02  0.26063884950E+02  0.74421382296E+02  0.00000000000E+00 0.  1.
         14    1    3    3    0    0  0.25942749809E+03 -0.35195884310E+02 -0.54838743647E+02  0.26748582176E+03  0.00000000000E+00 0. -1.
        -13    1    5    5    0    0  0.48276551916E+01  0.28243278524E+01  0.29615731599E+01  0.63288228011E+01  0.00000000000E+00 0.  1.
         14    1    5    5    0    0 -0.16410966921E+03 -0.73067959010E+02  0.73291472884E+03  0.75460911068E+03  0.00000000000E+00 0. -1.
          5    1    4    4  501    0 -0.18147663043E+02  0.10465542254E+03 -0.12511415279E+03  0.16418811276E+03  0.47000000000E+01 0.  1.
         -5    1    4    4    0  501 -0.15361310416E+03  0.73080417425E+02 -0.23364547685E+03  0.28905022407E+03  0.47000000000E+01 0.  1.
          1    1    1    2  502    0  0.44896979550E+02  0.51511272745E+02 -0.34943706102E+04  0.34950386423E+04  0.00000000000E+00 0. -1.
          1    1    1    2  503    0 -0.41152444853E+02 -0.10790861771E+03  0.55396929659E+03  0.56587964715E+03  0.00000000000E+00 0. -1.
<mgrwt>
<rscale>  0 0.88593165E+02</rscale>
<asrwt>0</asrwt>
<pdfrwt beam="1">  1        2 0.22242223E+00 0.11486336E+03</pdfrwt>
<pdfrwt beam="2">  1        2 0.60360743E+00 0.68331179E+02</pdfrwt>
<totfact> 0.16575536E+00</totfact>
</mgrwt>
</event>
<event>
13    1  0.2038932E-008  0.1901748E+03  0.7546771E-02  0.1369953E+00
         -3   -1    0    0    0  501 -0.00000000000E+00  0.00000000000E+00  0.17367501646E+04  0.17367501646E+04  0.00000000000E+00 0.  1.
          2   -1    0    0  503    0  0.00000000000E+00 -0.00000000000E+00 -0.54931353165E+03  0.54931353165E+03  0.00000000000E+00 0. -1.
         24    2    1    2    0    0  0.14024901611E+03  0.41423836926E+02  0.70716509158E+02  0.18201503668E+03  0.82115334297E+02 0.  0.
         25    2    1    2    0    0 -0.16151740207E+03 -0.25837616240E+03  0.53297135922E+02  0.33362986139E+03  0.12498874847E+03 0.  0.
         24    2    1    2    0    0  0.16291960657E+02  0.28991288710E+02  0.27207516464E+02  0.90799159514E+02  0.79989471889E+02 0.  0.
        -13    1    5    5    0    0  0.35358904328E+02 -0.14988627407E+02  0.84403159409E+01  0.39321113921E+02  0.00000000000E+00 0.  1.
         14    1    5    5    0    0 -0.19066943671E+02  0.43979916117E+02  0.18767200524E+02  0.51478045593E+02  0.00000000000E+00 0. -1.
        -13    1    3    3    0    0  0.13077588697E+03  0.81061993156E+01  0.67042086196E+02  0.14718248674E+03  0.00000000000E+00 0.  1.
         14    1    3    3    0    0  0.94731291341E+01  0.33317637611E+02  0.36744229614E+01  0.34832549945E+02  0.00000000000E+00 0. -1.
          5    1    4    4  502    0 -0.17286299703E+02  0.99654189060E+01 -0.94177533489E+01  0.22559029446E+02  0.47000000000E+01 0.  1.
         -5    1    4    4    0  502 -0.14423110237E+03 -0.26834158131E+03  0.62714889271E+02  0.31107083194E+03  0.47000000000E+01 0.  1.
          1    1    1    2  503    0  0.25703075844E+02  0.17640238603E+03 -0.29689280705E+03  0.34630014263E+03  0.00000000000E+00 0. -1.
         -4    1    1    2    0  501 -0.20726650536E+02  0.11558650736E+02  0.13331082784E+04  0.13333194960E+04  0.00000000000E+00 0.  1.
<mgrwt>
<rscale>  0 0.67180220E+02</rscale>
<asrwt>0</asrwt>
<pdfrwt beam="2">  1        2 0.80781402E-01 0.19017476E+03</pdfrwt>
<pdfrwt beam="1">  1       -3 0.25540443E+00 0.23731760E+02</pdfrwt>
<totfact> 0.31807681E+00</totfact>
</mgrwt>
</event>
<event>
13    1  0.2038932E-008  0.1702326E+03  0.7546771E-02  0.1240890E+00
          2   -1    0    0  502    0  0.00000000000E+00  0.00000000000E+00  0.63404916131E+03  0.63404916131E+03  0.00000000000E+00 0. -1.
          2   -1    0    0  503    0 -0.00000000000E+00 -0.00000000000E+00 -0.34348592453E+04  0.34348592453E+04  0.00000000000E+00 0. -1.
         24    2    1    2    0    0 -0.66301250259E+02  0.11843455058E+03 -0.27693965134E+03  0.31764015311E+03  0.76007222192E+02 0.  0.
         25    2    1    2    0    0  0.19092670445E+03  0.96750127645E+02  0.25476335222E+03  0.35544623634E+03  0.12499627044E+03 0.  0.
         24    2    1    2    0    0  0.66766350659E+02 -0.78769184903E+02 -0.88687797047E+01  0.13101015173E+03  0.80141590519E+02 0.  0.
        -11    1    5    5    0    0  0.20737954676E+02 -0.48142145879E+02 -0.41459172319E+02  0.66832566487E+02  0.00000000000E+00 0.  1.
         12    1    5    5    0    0  0.46028395983E+02 -0.30627039024E+02  0.32590392614E+02  0.64177585238E+02  0.00000000000E+00 0. -1.
        -11    1    3    3    0    0 -0.80683262980E+01  0.62748043481E+02 -0.64110972795E+02  0.90070148677E+02  0.00000000000E+00 0.  1.
         12    1    3    3    0    0 -0.58232923961E+02  0.55686507103E+02 -0.21282867855E+03  0.22757000443E+03  0.00000000000E+00 0. -1.
          5    1    4    4  501    0  0.86478511339E+02  0.14076546879E+02  0.27450957792E+02  0.91936538869E+02  0.47000000000E+01 0.  1.
         -5    1    4    4    0  501  0.10444819311E+03  0.82673580766E+02  0.22731239443E+03  0.26350969747E+03  0.47000000000E+01 0.  1.
          1    1    1    2  502    0 -0.78295774579E+02  0.36772188000E+02  0.23630206094E+03  0.25163681394E+03  0.00000000000E+00 0. -1.
          1    1    1    2  503    0 -0.11309603027E+03 -0.17318768133E+03 -0.30060670661E+04  0.30131750515E+04  0.00000000000E+00 0. -1.
<mgrwt>
<rscale>  0 0.12134779E+03</rscale>
<asrwt>0</asrwt>
<pdfrwt beam="1">  1        2 0.93242523E-01 0.86500995E+02</pdfrwt>
<pdfrwt beam="2">  1        2 0.50512636E+00 0.17023257E+03</pdfrwt>
<totfact> 0.12080298E+01</totfact>
</mgrwt>
</event>
<event>
13    1  0.2038932E-008  0.1027718E+03  0.7546771E-02  0.1416794E+00
         -1   -1    0    0    0  501 -0.00000000000E+00  0.00000000000E+00  0.53984875647E+03  0.53984875647E+03  0.00000000000E+00 0.  1.
          2   -1    0    0  503    0  0.00000000000E+00 -0.00000000000E+00 -0.24058422107E+04  0.24058422107E+04  0.00000000000E+00 0. -1.
         24    2    1    2    0    0  0.12585233163E+02 -0.70951014226E+01  0.16625125197E+03  0.18461720469E+03  0.78963947009E+02 0.  0.
         25    2    1    2    0    0 -0.10375955433E+03 -0.56211459772E+02 -0.30588400607E+03  0.35087712285E+03  0.12499582731E+03 0.  0.
         24    2    1    2    0    0  0.29457284611E+02  0.24697342064E+01 -0.13487077374E+02  0.85840906573E+02  0.79453941258E+02 0.  0.
        -11    1    5    5    0    0  0.52821503138E+02 -0.74136936823E+01 -0.23861080219E+02  0.58433083069E+02  0.00000000000E+00 0.  1.
         12    1    5    5    0    0 -0.23364218527E+02  0.98834278887E+01  0.10374002845E+02  0.27407823504E+02  0.00000000000E+00 0. -1.
        -11    1    3    3    0    0 -0.15738895933E+02  0.28704559170E+02  0.89716644529E+02  0.95502569954E+02  0.00000000000E+00 0.  1.
         12    1    3    3    0    0  0.28324129096E+02 -0.35799660592E+02  0.76534607441E+02  0.89114634734E+02  0.00000000000E+00 0. -1.
          5    1    4    4  502    0  0.91872477980E+01 -0.57430004287E+02 -0.11708371322E+03  0.13081780007E+03  0.47000000000E+01 0. -1.
         -5    1    4    4    0  502 -0.11294680212E+03  0.12185445151E+01 -0.18880029285E+03  0.22005932278E+03  0.47000000000E+01 0. -1.
          1    1    1    2  503    0  0.51261166336E+02  0.89162061924E+02 -0.20165555399E+04  0.20191765218E+04  0.00000000000E+00 0. -1.
         -2    1    1    2    0  501  0.10455870216E+02 -0.28325234936E+02  0.30368191720E+03  0.30517921127E+03  0.00000000000E+00 0.  1.
<mgrwt>
<rscale>  0 0.55704898E+02</rscale>
<asrwt>0</asrwt>
<pdfrwt beam="2">  1        2 0.35380033E+00 0.10277183E+03</pdfrwt>
<pdfrwt beam="1">  1       -1 0.79389523E-01 0.30193446E+02</pdfrwt>
<totfact> 0.11808270E+01</totfact>
</mgrwt>
</event>
<event>
13    1  0.2038932E-008  0.1428231E+03  0.7546771E-02  0.1218446E+00
          2   -1    0    0  502    0  0.00000000000E+00  0.00000000000E+00  0.22813801531E+04  0.22813801531E+04  0.00000000000E+00 0. -1.
          2   -1    0    0  503    0 -0.00000000000E+00 -0.00000000000E+00 -0.12530180214E+04  0.12530180214E+04  0.00000000000E+00 0. -1.
         24    2    1    2    0    0 -0.12892570544E+03  0.18535637091E+02 -0.11998559710E+03  0.19340906617E+03  0.77750344070E+02 0.  0.
         25    2    1    2    0    0 -0.12857901216E+03 -0.69019211221E+02  0.44892589268E+03  0.48831721421E+03  0.12499212251E+03 0.  0.
         24    2    1    2    0    0  0.25941568061E+03  0.23011570783E+03 -0.85169372207E+02  0.36914230567E+03  0.93608148893E+02 0.  0.
        -11    1    5    5    0    0  0.18212869097E+02  0.45063767998E+02  0.11843324745E+02  0.50027153906E+02  0.00000000000E+00 0.  1.
         12    1    5    5    0    0  0.24120281152E+03  0.18505193983E+03 -0.97012696952E+02  0.31911515177E+03  0.00000000000E+00 0. -1.
        -13    1    3    3    0    0 -0.28320994739E+02 -0.14625845284E+02  0.18923854371E+01  0.31930787900E+02  0.00000000000E+00 0.  1.
         14    1    3    3    0    0 -0.10060471070E+03  0.33161482375E+02 -0.12187798253E+03  0.16147827827E+03  0.00000000000E+00 0. -1.
          5    1    4    4  501    0 -0.41129492966E+02 -0.67801972676E+02  0.33678155218E+03  0.34602405491E+03  0.47000000000E+01 0. -1.
         -5    1    4    4    0  501 -0.87449519189E+02 -0.12172385445E+01  0.11214434050E+03  0.14229315930E+03  0.47000000000E+01 0. -1.
          1    1    1    2  502    0 -0.12407722246E+03 -0.38813092683E+02  0.16211984732E+04  0.16264028108E+04  0.00000000000E+00 0. -1.
          1    1    1    2  503    0  0.12216625943E+03 -0.14081904101E+03 -0.83660726494E+03  0.85712677768E+03  0.00000000000E+00 0. -1.
<mgrwt>
<rscale>  0 0.13626403E+03</rscale>
<asrwt>0</asrwt>
<pdfrwt beam="1">  1        2 0.33549708E+00 0.13000620E+03</pdfrwt>
<pdfrwt beam="2">  1        2 0.18426736E+00 0.14282308E+03</pdfrwt>
<totfact> 0.21139301E+01</totfact>
</mgrwt>
</event>
<event>
13    1  0.2038932E-008  0.2136210E+03  0.7546771E-02  0.1291307E+00
          2   -1    0    0  503    0  0.00000000000E+00  0.00000000000E+00  0.15881302107E+04  0.15881302107E+04  0.00000000000E+00 0. -1.
          2   -1    0    0  502    0 -0.00000000000E+00 -0.00000000000E+00 -0.22399659436E+04  0.22399659436E+04  0.00000000000E+00 0. -1.
         24    2    1    2    0    0  0.11166146848E+03 -0.97625315916E+01 -0.19309611600E+03  0.23748703412E+03  0.80934484562E+02 0.  0.
         25    2    1    2    0    0 -0.88609561820E+02  0.77505606085E+02  0.20315060179E+03  0.26599168589E+03  0.12499054578E+03 0.  0.
         24    2    1    2    0    0 -0.12177449488E+03  0.22565679270E+03 -0.18149989115E+02  0.27000208016E+03  0.82593495448E+02 0.  0.
        -11    1    5    5    0    0 -0.11635603203E+03  0.19339955536E+03  0.11303137824E+02  0.22598644900E+03  0.00000000000E+00 0.  1.
         12    1    5    5    0    0 -0.54184628480E+01  0.32257237340E+02 -0.29453126939E+02  0.44015631166E+02  0.00000000000E+00 0. -1.
        -11    1    3    3    0    0  0.82266172423E+02  0.30417829177E+02 -0.11093999984E+03  0.14142365793E+03  0.00000000000E+00 0.  1.
         12    1    3    3    0    0  0.29395296060E+02 -0.40180360769E+02 -0.82156116160E+02  0.96063376187E+02  0.00000000000E+00 0. -1.
          5    1    4    4  501    0 -0.14167394693E+02 -0.10684203246E+02 -0.11906395995E+02  0.21879660349E+02  0.47000000000E+01 0.  1.
         -5    1    4    4    0  501 -0.74442167127E+02  0.88189809331E+02  0.21505699779E+03  0.24411202554E+03  0.47000000000E+01 0.  1.
          1    1    1    2  502    0  0.13030627769E+03 -0.26541817272E+03 -0.18369828358E+04  0.18606269028E+04  0.00000000000E+00 0. -1.
          1    1    1    2  503    0 -0.31583689478E+02 -0.27981694479E+02  0.11932426062E+04  0.11939884513E+04  0.00000000000E+00 0. -1.
<mgrwt>
<rscale>  0 0.94941858E+02</rscale>
<asrwt>0</asrwt>
<pdfrwt beam="1">  1        2 0.23354856E+00 0.42196027E+02</pdfrwt>
<pdfrwt beam="2">  1        2 0.32940675E+00 0.21362097E+03</pdfrwt>
<totfact> 0.15669783E+01</totfact>
</mgrwt>
</event>
<event>
13    1  0.3587838E-008  0.2133109E+03  0.7546771E-02  0.1237446E+00
          2   -1    0    0  502    0  0.00000000000E+00  0.00000000000E+00  0.14740453050E+04  0.14740453050E+04  0.00000000000E+00 0. -1.
          2   -1    0    0  503    0 -0.00000000000E+00 -0.00000000000E+00 -0.12180614847E+04  0.12180614847E+04  0.00000000000E+00 0. -1.
         24    2    1    2    0    0 -0.73173684301E+02  0.54244695821E+02  0.54059525610E+03  0.55407692484E+03  0.80381170820E+02 0.  0.
         25    2    1    2    0    0  0.21313316245E+03  0.16186318478E+03 -0.37296936008E+03  0.47577092788E+03  0.12500558682E+03 0.  0.
         24    2    1    2    0    0 -0.38225607716E+02 -0.44397137733E+01 -0.19083640590E+02  0.91073118789E+02  0.80307032595E+02 0.  0.
        -13    1    3    3    0    0  0.14809318882E+02  0.12509439648E+02  0.44886226718E+02  0.48893510357E+02  0.00000000000E+00 0.  1.
         14    1    3    3    0    0 -0.87983003183E+02  0.41735256172E+02  0.49570902938E+03  0.50518341448E+03  0.00000000000E+00 0. -1.
        -13    1    5    5    0    0  0.56629269739E+01  0.11477844687E+02 -0.38454184373E+02  0.40528187183E+02  0.00000000000E+00 0.  1.
         14    1    5    5    0    0 -0.43888534690E+02 -0.15917558460E+02  0.19370543783E+02  0.50544931606E+02  0.00000000000E+00 0. -1.
          5    1    4    4  501    0  0.10607594361E+03  0.12047779843E+03 -0.12855560892E+03  0.20570765740E+03  0.47000000000E+01 0.  1.
         -5    1    4    4    0  501  0.10705721884E+03  0.41385386351E+02 -0.24441375115E+03  0.27006327048E+03  0.47000000000E+01 0.  1.
          1    1    1    2  502    0  0.32469853523E+02 -0.63693410721E+02  0.82410532001E+03  0.82720053217E+03  0.00000000000E+00 0. -1.
          1    1    1    2  503    0 -0.13420372396E+03 -0.14797475611E+03 -0.71666375509E+03  0.74398528603E+03  0.00000000000E+00 0. -1.
<mgrwt>
<rscale>  0 0.12349120E+03</rscale>
<asrwt>0</asrwt>
<pdfrwt beam="1">  1        2 0.21677137E+00 0.71492251E+02</pdfrwt>
<pdfrwt beam="2">  1        2 0.17912669E+00 0.21331090E+03</pdfrwt>
<totfact> 0.56186921E+01</totfact>
</mgrwt>
</event>
<event>
13    1  0.2038932E-008  0.3537283E+02  0.7546771E-02  0.1588710E+00
          2   -1    0    0  502    0  0.00000000000E+00  0.00000000000E+00  0.36023352310E+04  0.36023352310E+04  0.00000000000E+00 0. -1.
          2   -1    0    0  503    0 -0.00000000000E+00 -0.00000000000E+00 -0.20923231076E+04  0.20923231076E+04  0.00000000000E+00 0. -1.
         24    2    1    2    0    0 -0.13604891110E+04 -0.56851785778E+02  0.53019283853E+03  0.14640872109E+04  0.91017406918E+02 0.  0.
         25    2    1    2    0    0  0.82207558901E+03  0.21687048060E+03 -0.18937776518E+03  0.87995994908E+03  0.12499797848E+03 0.  0.
         24    2    1    2    0    0  0.54216244575E+03 -0.21554232859E+03  0.95392680239E+02  0.59667327427E+03  0.80750354724E+02 0.  0.
        -13    1    3    3    0    0 -0.28175059559E+03  0.24740056874E+02  0.10431265627E+03  0.30145745768E+03  0.00000000000E+00 0.  1.
         14    1    3    3    0    0 -0.10787385154E+04 -0.81591842652E+02  0.42588018225E+03  0.11626297532E+04  0.00000000000E+00 0. -1.
        -13    1    5    5    0    0  0.22980748081E+03 -0.51215461018E+02  0.24890839279E+02  0.23675737700E+03  0.00000000000E+00 0.  1.
         14    1    5    5    0    0  0.31235496494E+03 -0.16432686757E+03  0.70501840960E+02  0.35991589727E+03  0.00000000000E+00 0. -1.
          5    1    4    4  501    0  0.29211154468E+03  0.32764219493E+02 -0.10722800441E+03  0.31292584352E+03  0.47000000000E+01 0. -1.
         -5    1    4    4    0  501  0.52996404434E+03  0.18410626111E+03 -0.82149760772E+02  0.56703410556E+03  0.47000000000E+01 0. -1.
          1    1    1    2  502    0 -0.15369132083E+02  0.22117639555E+02  0.19134040323E+04  0.19135935804E+04  0.00000000000E+00 0. -1.
          1    1    1    2  503    0  0.11620208353E+02  0.33405994211E+02 -0.83959966244E+03  0.84034432399E+03  0.00000000000E+00 0. -1.
<mgrwt>
<rscale>  0 0.30865925E+02</rscale>
<asrwt>0</asrwt>
<pdfrwt beam="1">  1        2 0.52975518E+00 0.26933255E+02</pdfrwt>
<pdfrwt beam="2">  1        2 0.30769457E+00 0.35372825E+02</pdfrwt>
<totfact> 0.25075489E+00</totfact>
</mgrwt>
</event>
<event>
13    1  0.2038932E-008  0.1953380E+03  0.7546771E-02  0.1205777E+00
          2   -1    0    0  503    0  0.00000000000E+00  0.00000000000E+00  0.14610449769E+04  0.14610449769E+04  0.00000000000E+00 0. -1.
         -3   -1    0    0    0  501 -0.00000000000E+00 -0.00000000000E+00 -0.13132227326E+04  0.13132227326E+04  0.00000000000E+00 0.  1.
         24    2    1    2    0    0 -0.18128086566E+02 -0.17741902392E+02 -0.22836313730E+03  0.24277332740E+03  0.78394919452E+02 0.  0.
         25    2    1    2    0    0  0.38957200560E+03 -0.48631640771E+02  0.39553907888E+03  0.57114466271E+03  0.12499471506E+03 0.  0.
         24    2    1    2    0    0  0.59499691752E+01 -0.77820283392E+02 -0.22750686356E+03  0.25361492307E+03  0.80434803407E+02 0.  0.
        -11    1    5    5    0    0 -0.28776031910E+02 -0.60811295778E+02 -0.10119982484E+03  0.12152151354E+03  0.00000000000E+00 0.  1.
         12    1    5    5    0    0  0.34726001085E+02 -0.17008987614E+02 -0.12630703872E+03  0.13209340953E+03  0.00000000000E+00 0. -1.
        -13    1    3    3    0    0 -0.30801451881E+02  0.23482630869E+02 -0.12193001369E+03  0.12793393463E+03  0.00000000000E+00 0.  1.
         14    1    3    3    0    0  0.12673365315E+02 -0.41224533261E+02 -0.10643312361E+03  0.11483939277E+03  0.00000000000E+00 0. -1.
          5    1    4    4  502    0  0.28110230902E+03 -0.10709848357E+01  0.20975574991E+03  0.35076946812E+03  0.47000000000E+01 0.  1.
         -5    1    4    4    0  502  0.10846969658E+03 -0.47560655935E+02  0.18578332897E+03  0.22037519459E+03  0.47000000000E+01 0.  1.
          1    1    1    2  503    0 -0.25898178737E+03  0.71989873267E+02  0.93186230377E+03  0.96985641269E+03  0.00000000000E+00 0. -1.
         -4    1    1    2    0  501 -0.11841210084E+03  0.72203953288E+02 -0.72370913754E+03  0.73687838362E+03  0.00000000000E+00 0.  1.
<mgrwt>
<rscale>  0 0.14576400E+03</rscale>
<asrwt>0</asrwt>
<pdfrwt beam="1">  1        2 0.21485956E+00 0.19533800E+03</pdfrwt>
<pdfrwt beam="2">  1       -3 0.19312099E+00 0.10877117E+03</pdfrwt>
<totfact> 0.17737215E+00</totfact>
</mgrwt>
</event>
<event>
13    1  0.2038932E-008  0.1823558E+03  0.7546771E-02  0.1263658E+00
          2   -1    0    0  502    0  0.00000000000E+00  0.00000000000E+00  0.51022903165E+03  0.51022903165E+03  0.00000000000E+00 0. -1.
          2   -1    0    0  503    0 -0.00000000000E+00 -0.00000000000E+00 -0.18423313743E+04  0.18423313743E+04  0.00000000000E+00 0. -1.
         24    2    1    2    0    0 -0.69921013065E+02  0.40421399345E+02 -0.17203639371E+03  0.20673420833E+03  0.81361382356E+02 0.  0.
         25    2    1    2    0    0  0.21141776794E+03 -0.80136997089E+02 -0.27218084961E+02  0.25978018966E+03  0.12500204754E+03 0.  0.
         24    2    1    2    0    0  0.67063221184E+02 -0.77994795100E+02 -0.78432082458E+02  0.15240977069E+03  0.80600762675E+02 0.  0.
        -11    1    5    5    0    0  0.37911698276E+02  0.57688512207E+01 -0.41011544783E+02  0.56147335788E+02  0.00000000000E+00 0.  1.
         12    1    5    5    0    0  0.29151522909E+02 -0.83763646321E+02 -0.37420537675E+02  0.96262434899E+02  0.00000000000E+00 0. -1.
        -13    1    3    3    0    0 -0.75665144733E+02  0.47660251492E+02 -0.10018009131E+03  0.13428612882E+03  0.00000000000E+00 0.  1.
         14    1    3    3    0    0  0.57441316677E+01 -0.72388521468E+01 -0.71856302402E+02  0.72448079505E+02  0.00000000000E+00 0. -1.
          5    1    4    4  501    0  0.19154672121E+03 -0.98806222633E+02  0.71011686261E+01  0.21569731717E+03  0.47000000000E+01 0. -1.
         -5    1    4    4    0  501  0.19871046725E+02  0.18669225543E+02 -0.34319253587E+02  0.44082872491E+02  0.47000000000E+01 0. -1.
          1    1    1    2  502    0  0.26027342695E+02  0.58881140140E+02  0.32594838291E+03  0.33224502939E+03  0.00000000000E+00 0. -1.
          1    1    1    2  503    0 -0.23458731875E+03  0.58829252704E+02 -0.13803641645E+04  0.14013912079E+04  0.00000000000E+00 0. -1.
<mgrwt>
<rscale>  0 0.10834915E+03</rscale>
<asrwt>0</asrwt>
<pdfrwt beam="1">  1        2 0.75033681E-01 0.64377102E+02</pdfrwt>
<pdfrwt beam="2">  1        2 0.27093108E+00 0.18235580E+03</pdfrwt>
<totfact> 0.10472788E+02</totfact>
</mgrwt>
</event>
<event>
13    1  0.2038932E-008  0.9930023E+02  0.7546771E-02  0.1349084E+00
          2   -1    0    0  502    0  0.00000000000E+00  0.00000000000E+00  0.25988292900E+03  0.25988292900E+03  0.00000000000E+00 0. -1.
          2   -1    0    0  503    0 -0.00000000000E+00 -0.00000000000E+00 -0.16603476937E+04  0.16603476937E+04  0.00000000000E+00 0. -1.
         24    2    1    2    0    0  0.14701826045E+02  0.17999719249E+02 -0.37224368051E+03  0.38108116679E+03  0.78213582070E+02 0.  0.
         25    2    1    2    0    0  0.60081731131E+02 -0.15170120588E+02 -0.17052952078E+03  0.22032175234E+03  0.12498563966E+03 0.  0.
         24    2    1    2    0    0  0.10859621857E+03  0.72645810084E+01 -0.20659459882E+03  0.24735365713E+03  0.81587931774E+02 0.  0.
        -11    1    3    3    0    0 -0.22883876693E+02  0.18482028675E+02 -0.27899605106E+03  0.28054242763E+03  0.00000000000E+00 0.  1.
         12    1    3    3    0    0  0.37585702738E+02 -0.48230942582E+00 -0.93247629446E+02  0.10053873915E+03  0.00000000000E+00 0. -1.
        -13    1    5    5    0    0  0.89136161901E+00  0.26295932744E+02 -0.33461101718E+02  0.42566605838E+02  0.00000000000E+00 0.  1.
         14    1    5    5    0    0  0.10770485695E+03 -0.19031351736E+02 -0.17313349710E+03  0.20478705129E+03  0.00000000000E+00 0. -1.
          5    1    4    4  501    0  0.63170706915E+02 -0.37157474819E+02 -0.32277572964E+02  0.80219373368E+02  0.47000000000E+01 0.  1.
         -5    1    4    4    0  501 -0.30889757848E+01  0.21987354232E+02 -0.13825194782E+03  0.14010237897E+03  0.47000000000E+01 0.  1.
          1    1    1    2  502    0 -0.38152640452E+02 -0.38453872227E+02  0.20020708789E+03  0.20740588782E+03  0.00000000000E+00 0. -1.
          1    1    1    2  503    0 -0.14522713529E+03  0.28359692558E+02 -0.85130405246E+03  0.86406815861E+03  0.00000000000E+00 0. -1.
<mgrwt>
<rscale>  0 0.73341901E+02</rscale>
<asrwt>0</asrwt>
<pdfrwt beam="1">  1        2 0.38218078E-01 0.54169403E+02</pdfrwt>
<pdfrwt beam="2">  1        2 0.24416878E+00 0.99300234E+02</pdfrwt>
<totfact> 0.27240722E+02</totfact>
</mgrwt>
</event>
<event>
13    1  0.2038932E-008  0.7659307E+02  0.7546771E-02  0.1346238E+00
          2   -1    0    0  503    0  0.00000000000E+00  0.00000000000E+00  0.18779914858E+04  0.18779914858E+04  0.00000000000E+00 0. -1.
          2   -1    0    0  502    0 -0.00000000000E+00 -0.00000000000E+00 -0.12805213694E+04  0.12805213694E+04  0.00000000000E+00 0. -1.
         24    2    1    2    0    0  0.31015834796E+03  0.26357951613E+03 -0.56565968232E+02  0.41911407711E+03  0.82368311454E+02 0.  0.
         25    2    1    2    0    0 -0.37001540940E+03 -0.41383502195E+03  0.17436920512E+03  0.59514676884E+03  0.12499691268E+03 0.  0.
         24    2    1    2    0    0  0.19349520962E+02  0.54964587986E+02  0.46732559862E+03  0.47775856199E+03  0.80402229690E+02 0.  0.
        -13    1    3    3    0    0  0.77853509322E+02  0.25976833713E+02 -0.22347264557E+02  0.85060948952E+02  0.00000000000E+00 0.  1.
         14    1    3    3    0    0  0.23230483864E+03  0.23760268242E+03 -0.34218703675E+02  0.33405312815E+03  0.00000000000E+00 0. -1.
        -13    1    5    5    0    0  0.44391174483E+02  0.14191308803E+02  0.15718222069E+03  0.16394578408E+03  0.00000000000E+00 0.  1.
         14    1    5    5    0    0 -0.25041653521E+02  0.40773279183E+02  0.31014337793E+03  0.31381277791E+03  0.00000000000E+00 0. -1.
          5    1    4    4  501    0 -0.31496331100E+03 -0.33179953841E+03  0.18928733343E+03  0.49512079896E+03  0.47000000000E+01 0. -1.
         -5    1    4    4    0  501 -0.55052098408E+02 -0.82035483540E+02 -0.14918128311E+02  0.10002596988E+03  0.47000000000E+01 0. -1.
          1    1    1    2  502    0  0.70524307686E+02  0.29889117747E+02 -0.82375380361E+03  0.82730729859E+03  0.00000000000E+00 0. -1.
          1    1    1    2  503    0 -0.30016767205E+02  0.65401800088E+02  0.83609508452E+03  0.83918614868E+03  0.00000000000E+00 0. -1.
<mgrwt>
<rscale>  0 0.74240977E+02</rscale>
<asrwt>0</asrwt>
<pdfrwt beam="1">  1        2 0.27617522E+00 0.71961113E+02</pdfrwt>
<pdfrwt beam="2">  1        2 0.18831197E+00 0.76593072E+02</pdfrwt>
<totfact> 0.35511130E+01</totfact>
</mgrwt>
</event>
<event>
13    1  0.2038932E-008  0.1331012E+03  0.7546771E-02  0.1274058E+00
          2   -1    0    0  502    0  0.00000000000E+00  0.00000000000E+00  0.39975193666E+04  0.39975193666E+04  0.00000000000E+00 0. -1.
          2   -1    0    0  503    0 -0.00000000000E+00 -0.00000000000E+00 -0.17912372264E+04  0.17912372264E+04  0.00000000000E+00 0. -1.
         24    2    1    2    0    0  0.55147425164E+01  0.39510746834E+02 -0.12296810442E+04  0.12331912845E+04  0.83986678825E+02 0.  0.
         25    2    1    2    0    0 -0.80268425417E+02  0.23473260552E+03  0.16548364752E+04  0.16779905817E+04  0.12500486657E+03 0.  0.
         24    2    1    2    0    0 -0.31752617329E+02  0.18013757098E+02  0.63982606369E+02  0.10870329947E+03  0.79936907909E+02 0.  0.
        -11    1    5    5    0    0 -0.18939486495E+02 -0.22728645305E+02  0.58614096069E+02  0.65657503182E+02  0.00000000000E+00 0.  1.
         12    1    5    5    0    0 -0.12813130834E+02  0.40742402403E+02  0.53685102999E+01  0.43045796289E+02  0.00000000000E+00 0. -1.
        -13    1    3    3    0    0 -0.18387815964E+02  0.59099431248E+02 -0.78298815306E+03  0.78543064772E+03  0.00000000000E+00 0.  1.
         14    1    3    3    0    0  0.23902558480E+02 -0.19588684414E+02 -0.44669289113E+03  0.44776063677E+03  0.00000000000E+00 0. -1.
          5    1    4    4  501    0 -0.24231824448E+02 -0.46570946498E+01  0.29752309278E+03  0.29858156437E+03  0.47000000000E+01 0. -1.
         -5    1    4    4    0  501 -0.56036600969E+02  0.23938970017E+03  0.13573133824E+04  0.13794090174E+04  0.47000000000E+01 0. -1.
          1    1    1    2  502    0  0.44147903713E+02 -0.77706378436E+02  0.22183346388E+04  0.22201342050E+04  0.00000000000E+00 0. -1.
          1    1    1    2  503    0  0.62358396517E+02 -0.21455073102E+03 -0.50119053591E+03  0.54873722225E+03  0.00000000000E+00 0. -1.
<mgrwt>
<rscale>  0 0.10302626E+03</rscale>
<asrwt>0</asrwt>
<pdfrwt beam="1">  1        2 0.58787050E+00 0.79746928E+02</pdfrwt>
<pdfrwt beam="2">  1        2 0.26341724E+00 0.13310119E+03</pdfrwt>
<totfact> 0.13621923E+00</totfact>
</mgrwt>
</event>
<event>
13    1  0.2038932E-008  0.9431673E+02  0.7546771E-02  0.1346576E+00
          2   -1    0    0  502    0  0.00000000000E+00  0.00000000000E+00  0.31748119910E+04  0.31748119910E+04  0.00000000000E+00 0. -1.
          2   -1    0    0  503    0 -0.00000000000E+00 -0.00000000000E+00 -0.19042696267E+04  0.19042696267E+04  0.00000000000E+00 0. -1.
         24    2    1    2    0    0  0.49635384195E+02  0.55189268521E+02 -0.42668744320E+03  0.44039735019E+03  0.79863165143E+02 0.  0.
         25    2    1    2    0    0 -0.97862140093E+02  0.51944795082E+02  0.33422563818E+03  0.37364031834E+03  0.12500020031E+03 0.  0.
         24    2    1    2    0    0  0.30836550163E+02 -0.22813198059E+02 -0.91557943369E+01  0.95495711161E+02  0.86972797176E+02 0.  0.
        -11    1    5    5    0    0 -0.10595658799E+02 -0.38379412813E+02  0.17865091499E+02  0.43639532623E+02  0.00000000000E+00 0.  1.
         12    1    5    5    0    0  0.41432208962E+02  0.15566214755E+02 -0.27020885836E+02  0.51856178538E+02  0.00000000000E+00 0. -1.
        -13    1    3    3    0    0  0.71072039513E+02  0.47225137294E+02 -0.35687443474E+03  0.36693434094E+03  0.00000000000E+00 0.  1.
         14    1    3    3    0    0 -0.21436655318E+02  0.79641312268E+01 -0.69813008458E+02  0.73463009246E+02  0.00000000000E+00 0. -1.
          5    1    4    4  501    0 -0.11994349343E+03  0.22809275410E+02  0.29747783999E+03  0.32159269262E+03  0.47000000000E+01 0.  1.
         -5    1    4    4    0  501  0.22081353340E+02  0.29135519671E+02  0.36747798186E+02  0.52047625723E+02  0.47000000000E+01 0.  1.
          1    1    1    2  502    0 -0.53755934375E+02 -0.22485919627E+02  0.27689590868E+04  0.27695721224E+04  0.00000000000E+00 0. -1.
          1    1    1    2  503    0  0.71146140110E+02 -0.61834945917E+02 -0.13967991232E+04  0.13999761156E+04  0.00000000000E+00 0. -1.
<mgrwt>
<rscale>  0 0.74133489E+02</rscale>
<asrwt>0</asrwt>
<pdfrwt beam="1">  1        2 0.46688412E+00 0.58269349E+02</pdfrwt>
<pdfrwt beam="2">  1        2 0.28003965E+00 0.94316725E+02</pdfrwt>
<totfact> 0.40692449E+00</totfact>
</mgrwt>
</event>
<event>
13    1  0.2038932E-008  0.1149859E+03  0.7546771E-02  0.1409755E+00
         -1   -1    0    0    0  501 -0.00000000000E+00  0.00000000000E+00  0.47239985391E+03  0.47239985391E+03  0.00000000000E+00 0.  1.
          2   -1    0    0  503    0  0.00000000000E+00 -0.00000000000E+00 -0.21217257525E+04  0.21217257525E+04  0.00000000000E+00 0. -1.
         24    2    1    2    0    0 -0.20933029136E+02 -0.19980004707E+03  0.12925282402E+02  0.21660536050E+03  0.79953541237E+02 0.  0.
         25    2    1    2    0    0 -0.11857783928E+02  0.32969853586E+03 -0.78081852088E+03  0.85681757954E+03  0.12496827789E+03 0.  0.
         24    2    1    2    0    0 -0.86782801209E+01 -0.62587738830E+01 -0.10033583121E+03  0.12916426020E+03  0.80632761902E+02 0.  0.
        -11    1    3    3    0    0 -0.11195109703E+02 -0.17811162331E+03  0.37556603699E+02  0.18237209030E+03  0.00000000000E+00 0.  1.
         12    1    3    3    0    0 -0.97379194326E+01 -0.21688423763E+02 -0.24631321297E+02  0.34233270206E+02  0.00000000000E+00 0. -1.
        -13    1    5    5    0    0  0.18371821911E+02 -0.39882766602E+01 -0.10027182151E+03  0.10201896089E+03  0.00000000000E+00 0.  1.
         14    1    5    5    0    0 -0.27050102032E+02 -0.22704972228E+01 -0.64009698762E-01  0.27145299314E+02  0.00000000000E+00 0. -1.
          5    1    4    4  502    0 -0.66542133108E+02  0.20763368499E+03 -0.51251153393E+03  0.55698273315E+03  0.47000000000E+01 0. -1.
         -5    1    4    4    0  502  0.54684349181E+02  0.12206485087E+03 -0.26830698695E+03  0.29983484639E+03  0.47000000000E+01 0. -1.
          1    1    1    2  503    0 -0.15475510449E+02 -0.23935425578E+02 -0.10753236534E+04  0.10757013320E+04  0.00000000000E+00 0. -1.
         -2    1    1    2    0  501  0.56944603633E+02 -0.99704289326E+02  0.29422682449E+03  0.31583707420E+03  0.00000000000E+00 0.  1.
<mgrwt>
<rscale>  0 0.57248529E+02</rscale>
<asrwt>0</asrwt>
<pdfrwt beam="2">  1        2 0.31201850E+00 0.28502562E+02</pdfrwt>
<pdfrwt beam="1">  1       -1 0.69470566E-01 0.11498595E+03</pdfrwt>
<totfact> 0.23807618E+01</totfact>
</mgrwt>
</event>
<event>
13    1  0.2038932E-008  0.1531440E+03  0.7546771E-02  0.1221788E+00
          2   -1    0    0  502    0  0.00000000000E+00  0.00000000000E+00  0.10546255533E+04  0.10546255533E+04  0.00000000000E+00 0. -1.
          2   -1    0    0  503    0 -0.00000000000E+00 -0.00000000000E+00 -0.25156580441E+04  0.25156580441E+04  0.00000000000E+00 0. -1.
         24    2    1    2    0    0 -0.34612453470E+02 -0.31745208700E+02 -0.10682512965E+03  0.14152669427E+03  0.80077566480E+02 0.  0.
         25    2    1    2    0    0  0.37954409696E+03 -0.36141447843E+02 -0.15935626534E+03  0.43171617569E+03  0.12499804505E+03 0.  0.
         24    2    1    2    0    0 -0.14886583873E+02  0.50113749114E+02  0.23257462225E+03  0.25172146819E+03  0.80868686180E+02 0.  0.
        -11    1    3    3    0    0  0.12973024622E+02  0.59562536430E+01 -0.67956444316E+02  0.69439575527E+02  0.00000000000E+00 0.  1.
         12    1    3    3    0    0 -0.47585478092E+02 -0.37701462343E+02 -0.38868685338E+02  0.72087118738E+02  0.00000000000E+00 0. -1.
        -13    1    5    5    0    0  0.17007799498E+02 -0.10821207884E+02  0.20407005330E+02  0.28684658798E+02  0.00000000000E+00 0.  1.
         14    1    5    5    0    0 -0.31894383371E+02  0.60934956998E+02  0.21216761692E+03  0.22303680939E+03  0.00000000000E+00 0. -1.
          5    1    4    4  501    0  0.18518561265E+03 -0.75645169460E+02 -0.54805822729E+02  0.20746486691E+03  0.47000000000E+01 0.  1.
         -5    1    4    4    0  501  0.19435848430E+03  0.39503721617E+02 -0.10455044261E+03  0.22425130879E+03  0.47000000000E+01 0.  1.
          1    1    1    2  502    0 -0.12841952218E+03 -0.17901671845E+02  0.64747997955E+03  0.66033504182E+03  0.00000000000E+00 0. -1.
          1    1    1    2  503    0 -0.20162553743E+03  0.35674579274E+02 -0.20749056977E+04  0.20849842175E+04  0.00000000000E+00 0. -1.
<mgrwt>
<rscale>  0 0.13389490E+03</rscale>
<asrwt>0</asrwt>
<pdfrwt beam="1">  1        2 0.15509199E+00 0.11706531E+03</pdfrwt>
<pdfrwt beam="2">  1        2 0.36994971E+00 0.15314395E+03</pdfrwt>
<totfact> 0.20545790E+01</totfact>
</mgrwt>
</event>
<event>
13    1  0.2038932E-008  0.2843194E+02  0.7546771E-02  0.1629440E+00
          2   -1    0    0  503    0  0.00000000000E+00  0.00000000000E+00  0.42830568731E+04  0.42830568731E+04  0.00000000000E+00 0. -1.
          2   -1    0    0  502    0 -0.00000000000E+00 -0.00000000000E+00 -0.16260477668E+04  0.16260477668E+04  0.00000000000E+00 0. -1.
         24    2    1    2    0    0  0.16574552558E+04  0.26097598774E+03  0.14568201519E+04  0.22235267228E+04  0.80496836404E+02 0.  0.
         25    2    1    2    0    0  0.13082598518E+03 -0.15289466004E+03  0.14462687664E+03  0.27755114490E+03  0.12500195647E+03 0.  0.
         24    2    1    2    0    0 -0.17869556259E+04 -0.15420706936E+03  0.72121609890E+03  0.19341904798E+04  0.62848403596E+02 0.  0.
        -11    1    5    5    0    0 -0.82590686713E+03 -0.80625761079E+02  0.36593702618E+03  0.90693581562E+03  0.00000000000E+00 0.  1.
         12    1    5    5    0    0 -0.96104875878E+03 -0.73581308276E+02  0.35527907271E+03  0.10272546642E+04  0.00000000000E+00 0. -1.
        -13    1    3    3    0    0  0.55550737973E+03  0.76955667092E+02  0.43904585778E+03  0.71223022182E+03  0.00000000000E+00 0.  1.
         14    1    3    3    0    0  0.11019478761E+04  0.18402032065E+03  0.10177742941E+04  0.15112965009E+04  0.00000000000E+00 0. -1.
          5    1    4    4  501    0 -0.13425817892E+01 -0.36011693727E-01 -0.17666417410E+02  0.18330197129E+02  0.47000000000E+01 0. -1.
         -5    1    4    4    0  501  0.13216856697E+03 -0.15285864835E+03  0.16229329405E+03  0.25922094777E+03  0.47000000000E+01 0. -1.
          1    1    1    2  502    0 -0.15391597302E+02  0.23904133992E+02 -0.56919902642E+03  0.56990862475E+03  0.00000000000E+00 0. -1.
          1    1    1    2  503    0  0.14065982201E+02  0.22221607666E+02  0.90354500531E+03  0.90392766764E+03  0.00000000000E+00 0. -1.
<mgrwt>
<rscale>  0 0.27344821E+02</rscale>
<asrwt>0</asrwt>
<pdfrwt beam="1">  1        2 0.62986130E+00 0.26299272E+02</pdfrwt>
<pdfrwt beam="2">  1        2 0.23912467E+00 0.28431936E+02</pdfrwt>
<totfact> 0.15754547E+00</totfact>
</mgrwt>
</event>
<event>
13    1  0.2038932E-008  0.9676008E+02  0.7546771E-02  0.1447698E+00
         -1   -1    0    0    0  501 -0.00000000000E+00  0.00000000000E+00  0.84375976757E+03  0.84375976757E+03  0.00000000000E+00 0.  1.
          2   -1    0    0  503    0  0.00000000000E+00 -0.00000000000E+00 -0.45993265409E+03  0.45993265409E+03  0.00000000000E+00 0. -1.
         24    2    1    2    0    0 -0.35807762517E+02  0.35426904043E+02 -0.82848162072E+01  0.95431590839E+02  0.80630570902E+02 0.  0.
         25    2    1    2    0    0  0.49296312130E+02  0.61788737891E+02  0.12728434728E+03  0.19512541886E+03  0.12499859800E+03 0.  0.
         24    2    1    2    0    0  0.86759357784E+01  0.47405332873E+01 -0.98936546247E+02  0.12744095974E+03  0.79718338653E+02 0.  0.
        -13    1    5    5    0    0 -0.33747065280E+02  0.79910174718E+01 -0.62261374458E+02  0.71268503033E+02  0.00000000000E+00 0.  1.
         14    1    5    5    0    0  0.42423001058E+02 -0.32504841845E+01 -0.36675171789E+02  0.56172456702E+02  0.00000000000E+00 0. -1.
        -13    1    3    3    0    0 -0.35999704715E+02  0.54899822462E+02  0.12630103445E+02  0.66854235161E+02  0.00000000000E+00 0.  1.
         14    1    3    3    0    0  0.19194219715E+00 -0.19472918419E+02 -0.20914919652E+02  0.28577355679E+02  0.00000000000E+00 0. -1.
          5    1    4    4  502    0 -0.78937916488E+01  0.83981190071E+02  0.88741998094E+02  0.12252503605E+03  0.47000000000E+01 0. -1.
         -5    1    4    4    0  502  0.57190103778E+02 -0.22192452180E+02  0.38542349186E+02  0.72600382814E+02  0.47000000000E+01 0. -1.
          1    1    1    2  503    0 -0.37319806971E+02 -0.12232731255E+03 -0.24501516759E+03  0.27638591089E+03  0.00000000000E+00 0. -1.
         -2    1    1    2    0  501  0.15155321581E+02  0.20371137334E+02  0.60877929625E+03  0.60930854134E+03  0.00000000000E+00 0.  1.
<mgrwt>
<rscale>  0 0.49565782E+02</rscale>
<asrwt>0</asrwt>
<pdfrwt beam="2">  1        2 0.67637155E-01 0.96760078E+02</pdfrwt>
<pdfrwt beam="1">  1       -1 0.12408232E+00 0.25390294E+02</pdfrwt>
<totfact> 0.58077546E+01</totfact>
</mgrwt>
</event>
<event>
13    1  0.2038932E-008  0.9261294E+02  0.7546771E-02  0.1351618E+00
          2   -1    0    0  503    0  0.00000000000E+00  0.00000000000E+00  0.36872011641E+04  0.36872011641E+04  0.00000000000E+00 0. -1.
          2   -1    0    0  502    0 -0.00000000000E+00 -0.00000000000E+00 -0.67375694665E+03  0.67375694665E+03  0.00000000000E+00 0. -1.
         24    2    1    2    0    0 -0.87774872490E+02  0.17002468825E+03 -0.18124465598E+03  0.27540460925E+03  0.79907763201E+02 0.  0.
         25    2    1    2    0    0  0.14524840107E+03 -0.22988774676E+03  0.42345673703E+03  0.51854108233E+03  0.12499508715E+03 0.  0.
         24    2    1    2    0    0 -0.32807978813E+02  0.87374340569E+02  0.21463362653E+03  0.24750164817E+03  0.80491200407E+02 0.  0.
        -11    1    5    5    0    0 -0.16696705213E+02 -0.84649451390E+01  0.75508638149E+02  0.77794535131E+02  0.00000000000E+00 0.  1.
         12    1    5    5    0    0 -0.16111273600E+02  0.95839285708E+02  0.13912498839E+03  0.16970711304E+03  0.00000000000E+00 0. -1.
        -13    1    3    3    0    0 -0.40302674588E+02  0.12983169019E+03 -0.83477908273E+02  0.15952784875E+03  0.00000000000E+00 0.  1.
         14    1    3    3    0    0 -0.47472197902E+02  0.40192998054E+02 -0.97766747709E+02  0.11587676050E+03  0.00000000000E+00 0. -1.
          5    1    4    4  501    0 -0.16232728287E+02 -0.26299645868E+02  0.93083136263E+02  0.98192327077E+02  0.47000000000E+01 0.  1.
         -5    1    4    4    0  501  0.16148112936E+03 -0.20358810089E+03  0.33037360076E+03  0.42034875526E+03  0.47000000000E+01 0.  1.
          1    1    1    2  502    0 -0.50499852258E+02 -0.78140092004E+02 -0.37550352906E+03  0.38685786717E+03  0.00000000000E+00 0. -1.
          1    1    1    2  503    0  0.25834302488E+02  0.50628809948E+02  0.29321020390E+04  0.29326529039E+04  0.00000000000E+00 0. -1.
<mgrwt>
<rscale>  0 0.72553703E+02</rscale>
<asrwt>0</asrwt>
<pdfrwt beam="1">  1        2 0.54223546E+00 0.56839138E+02</pdfrwt>
<pdfrwt beam="2">  1        2 0.99081906E-01 0.92612944E+02</pdfrwt>
<totfact> 0.97401290E+00</totfact>
</mgrwt>
</event>
<event>
13    1  0.2038932E-008  0.4070034E+02  0.7546771E-02  0.1560900E+00
          2   -1    0    0  503    0  0.00000000000E+00  0.00000000000E+00  0.41194334323E+04  0.41194334323E+04  0.00000000000E+00 0. -1.
          2   -1    0    0  502    0 -0.00000000000E+00 -0.00000000000E+00 -0.34996962883E+03  0.34996962883E+03  0.00000000000E+00 0. -1.
         24    2    1    2    0    0 -0.61099638512E+02 -0.15559187424E+03  0.28202494973E+03  0.33633994772E+03  0.75129827709E+02 0.  0.
         25    2    1    2    0    0  0.10324762398E+03  0.25991574193E+03  0.10904002181E+04  0.11326139896E+04  0.12500219581E+03 0.  0.
         24    2    1    2    0    0 -0.22227365384E+02 -0.43628594892E+02  0.71701664014E+03  0.72310220092E+03  0.79789853149E+02 0.  0.
        -13    1    5    5    0    0 -0.11702923839E+01  0.20814002609E+02  0.28886281957E+03  0.28961408947E+03  0.00000000000E+00 0.  1.
         14    1    5    5    0    0 -0.21057073000E+02 -0.64442597502E+02  0.42815382057E+03  0.43348811145E+03  0.00000000000E+00 0. -1.
        -13    1    3    3    0    0 -0.12113795001E+02  0.57217415639E+01  0.32998582104E+02  0.35614446180E+02  0.00000000000E+00 0.  1.
         14    1    3    3    0    0 -0.48985843511E+02 -0.16131361580E+03  0.24902636762E+03  0.30072550154E+03  0.00000000000E+00 0. -1.
          5    1    4    4  501    0  0.81220976584E+02  0.25184459918E+03  0.83133319074E+03  0.87244456167E+03  0.47000000000E+01 0.  1.
         -5    1    4    4    0  501  0.22026647399E+02  0.80711427526E+01  0.25906702739E+03  0.26016942791E+03  0.47000000000E+01 0.  1.
          1    1    1    2  502    0 -0.19259921271E+02 -0.20082922745E+02 -0.29780538284E+03  0.29910251487E+03  0.00000000000E+00 0. -1.
          1    1    1    2  503    0 -0.66069881608E+00 -0.40612350060E+02  0.19778273783E+04  0.19782444080E+04  0.00000000000E+00 0. -1.
<mgrwt>
<rscale>  0 0.33652854E+02</rscale>
<asrwt>0</asrwt>
<pdfrwt beam="1">  1        2 0.60579901E+00 0.40700341E+02</pdfrwt>
<pdfrwt beam="2">  1        2 0.51466124E-01 0.27825678E+02</pdfrwt>
<totfact> 0.11210040E+01</totfact>
</mgrwt>
</event>
<event>
13    1  0.2038932E-008  0.8114145E+02  0.7546771E-02  0.1353854E+00
          2   -1    0    0  503    0  0.00000000000E+00  0.00000000000E+00  0.71487521882E+03  0.71487521882E+03  0.00000000000E+00 0. -1.
          2   -1    0    0  502    0 -0.00000000000E+00 -0.00000000000E+00 -0.21809779292E+04  0.21809779292E+04  0.00000000000E+00 0. -1.
         24    2    1    2    0    0  0.26640718484E+02 -0.13087658824E+03 -0.11788761611E+04  0.11889888091E+04  0.78147141048E+02 0.  0.
         25    2    1    2    0    0 -0.21312992791E+03  0.11899853004E+02 -0.18768347929E+03  0.31051370825E+03  0.12501080727E+03 0.  0.
         24    2    1    2    0    0  0.15078097433E+03  0.12256547771E+03  0.18438413961E+03  0.27963954983E+03  0.80271840297E+02 0.  0.
        -11    1    3    3    0    0 -0.18871959930E+02 -0.40131142614E+01 -0.11468911199E+03  0.11630068086E+03  0.00000000000E+00 0.  1.
         12    1    3    3    0    0  0.45512678414E+02 -0.12686347398E+03 -0.10641870491E+04  0.10726881282E+04  0.00000000000E+00 0. -1.
        -11    1    5    5    0    0  0.26181227433E+02  0.11158596292E+02 -0.29122705945E+01  0.28608604669E+02  0.00000000000E+00 0.  1.
         12    1    5    5    0    0  0.12459974690E+03  0.11140688141E+03  0.18729641021E+03  0.25103094517E+03  0.00000000000E+00 0. -1.
          5    1    4    4  501    0 -0.11173814509E+02 -0.13899151905E+02  0.14562670990E+02  0.23498977440E+02  0.47000000000E+01 0. -1.
         -5    1    4    4    0  501 -0.20195611340E+03  0.25799004909E+02 -0.20224615028E+03  0.28701473081E+03  0.47000000000E+01 0. -1.
          1    1    1    2  502    0 -0.23709147845E+02 -0.59074058062E+02 -0.69488248251E+03  0.69779189772E+03  0.00000000000E+00 0. -1.
          1    1    1    2  503    0  0.59417382940E+02  0.55485315590E+02  0.41095527293E+03  0.41891918313E+03  0.00000000000E+00 0. -1.
<mgrwt>
<rscale>  0 0.71867943E+02</rscale>
<asrwt>0</asrwt>
<pdfrwt beam="1">  1        2 0.10512871E+00 0.81141454E+02</pdfrwt>
<pdfrwt beam="2">  1        2 0.32073205E+00 0.63654285E+02</pdfrwt>
<totfact> 0.55012135E+01</totfact>
</mgrwt>
</event>
<event>
13    1  0.2038932E-008  0.8103085E+02  0.7546771E-02  0.1337365E+00
          2   -1    0    0  503    0  0.00000000000E+00  0.00000000000E+00  0.27716999701E+04  0.27716999701E+04  0.00000000000E+00 0. -1.
          2   -1    0    0  502    0 -0.00000000000E+00 -0.00000000000E+00 -0.32996819739E+03  0.32996819739E+03  0.00000000000E+00 0. -1.
         24    2    1    2    0    0  0.34136315515E+02  0.34800695753E+02 -0.23092002984E+03  0.24945153253E+03  0.80781374347E+02 0.  0.
         25    2    1    2    0    0 -0.15154077740E+02 -0.34792935094E+02  0.12088871723E+04  0.12159249144E+04  0.12500003072E+03 0.  0.
         24    2    1    2    0    0 -0.54430401270E+02 -0.29725902436E+02  0.32128081492E+03  0.33701798103E+03  0.80706007467E+02 0.  0.
        -11    1    5    5    0    0 -0.50312208834E+02  0.16951019814E+02  0.13851842879E+03  0.14834422990E+03  0.00000000000E+00 0.  1.
         12    1    5    5    0    0 -0.41181924358E+01 -0.46676922250E+02  0.18276238613E+03  0.18867375113E+03  0.00000000000E+00 0. -1.
        -13    1    3    3    0    0  0.18893938064E+02 -0.25542486102E+02 -0.68284973644E+02  0.75314255738E+02  0.00000000000E+00 0.  1.
         14    1    3    3    0    0  0.15242377451E+02  0.60343181855E+02 -0.16263505619E+03  0.17413727679E+03  0.00000000000E+00 0. -1.
          5    1    4    4  501    0  0.30393832194E+02 -0.86444241162E+01  0.85061281377E+02  0.90862658409E+02  0.47000000000E+01 0. -1.
         -5    1    4    4    0  501 -0.45547909934E+02 -0.26148510978E+02  0.11238258909E+04  0.11250622560E+04  0.47000000000E+01 0. -1.
          1    1    1    2  502    0  0.54319480167E+02 -0.49423436325E+02 -0.59513598294E+02  0.94525924305E+02  0.00000000000E+00 0. -1.
          1    1    1    2  503    0 -0.18871316672E+02  0.79141578102E+02  0.12019974136E+04  0.12047478152E+04  0.00000000000E+00 0. -1.
<mgrwt>
<rscale>  0 0.77141571E+02</rscale>
<asrwt>0</asrwt>
<pdfrwt beam="1">  1        2 0.40760292E+00 0.81030850E+02</pdfrwt>
<pdfrwt beam="2">  1        2 0.48524736E-01 0.73438968E+02</pdfrwt>
<totfact> 0.62780782E+01</totfact>
</mgrwt>
</event>
<event>
13    1  0.2038932E-008  0.1454955E+03  0.7546771E-02  0.1217815E+00
          2   -1    0    0  502    0  0.00000000000E+00  0.00000000000E+00  0.16846748986E+04  0.16846748986E+04  0.00000000000E+00 0. -1.
          2   -1    0    0  503    0 -0.00000000000E+00 -0.00000000000E+00 -0.10096614594E+04  0.10096614594E+04  0.00000000000E+00 0. -1.
         24    2    1    2    0    0  0.10683054828E+03 -0.14978689205E+03 -0.51711102902E+03  0.55431884327E+03  0.77567290766E+02 0.  0.
         25    2    1    2    0    0 -0.17872126715E+03  0.26336073547E+03 -0.87775345528E+02  0.35302572720E+03  0.12498993747E+03 0.  0.
         24    2    1    2    0    0  0.36294521167E+02 -0.10749183938E+02  0.26491473190E+03  0.27924877142E+03  0.79794886689E+02 0.  0.
        -11    1    3    3    0    0  0.94703865759E+01  0.88614053329E+01 -0.45193532895E+02  0.47017742842E+02  0.00000000000E+00 0.  1.
         12    1    3    3    0    0  0.97360161704E+02 -0.15864829738E+03 -0.47191749612E+03  0.50730110043E+03  0.00000000000E+00 0. -1.
        -13    1    5    5    0    0 -0.18062741805E+02 -0.21628463900E+02  0.13651996242E+03  0.13939782363E+03  0.00000000000E+00 0.  1.
         14    1    5    5    0    0  0.54357262972E+02  0.10879279962E+02  0.12839476947E+03  0.13985094779E+03  0.00000000000E+00 0. -1.
          5    1    4    4  501    0 -0.87424292607E+02  0.21745707246E+03 -0.32237033750E+02  0.23662607981E+03  0.47000000000E+01 0.  1.
         -5    1    4    4    0  501 -0.91296974541E+02  0.45903663001E+02 -0.55538311778E+02  0.11639964739E+03  0.47000000000E+01 0.  1.
          1    1    1    2  502    0  0.16309534154E+03 -0.12199910498E+03  0.12355678098E+04  0.12522426620E+04  0.00000000000E+00 0. -1.
          1    1    1    2  503    0 -0.12749914384E+03  0.19174445498E+02 -0.22058272796E+03  0.25550035404E+03  0.00000000000E+00 0. -1.
<mgrwt>
<rscale>  0 0.13671774E+03</rscale>
<asrwt>0</asrwt>
<pdfrwt beam="1">  1        2 0.24774631E+00 0.14549547E+03</pdfrwt>
<pdfrwt beam="2">  1        2 0.14847963E+00 0.12846956E+03</pdfrwt>
<totfact> 0.56187495E+01</totfact>
</mgrwt>
</event>
<event>
13    1  0.2038932E-008  0.9844700E+02  0.7546771E-02  0.1312425E+00
          2   -1    0    0  503    0  0.00000000000E+00  0.00000000000E+00  0.26443407104E+04  0.26443407104E+04  0.00000000000E+00 0. -1.
          2   -1    0    0  502    0 -0.00000000000E+00 -0.00000000000E+00 -0.49479306827E+03  0.49479306827E+03  0.00000000000E+00 0. -1.
         24    2    1    2    0    0 -0.26506976883E+02 -0.10589691896E+03 -0.14113519220E+03  0.19643484910E+03  0.82162827335E+02 0.  0.
         25    2    1    2    0    0  0.18205351986E+03  0.11136750823E+03  0.88309747487E+02  0.26261856745E+03  0.12499477783E+03 0.  0.
         24    2    1    2    0    0 -0.29614187656E+02 -0.22279981298E+02  0.11092590052E+04  0.11128475342E+04  0.81244667567E+02 0.  0.
        -11    1    5    5    0    0 -0.42314749802E+02 -0.41029086532E+02  0.55390880586E+03  0.55703580604E+03  0.00000000000E+00 0.  1.
         12    1    5    5    0    0  0.12700562146E+02  0.18749105234E+02  0.55535019934E+03  0.55581172814E+03  0.00000000000E+00 0. -1.
        -13    1    3    3    0    0 -0.19278999172E+02  0.71276178535E+01 -0.38258067885E+02  0.43429972411E+02  0.00000000000E+00 0.  1.
         14    1    3    3    0    0 -0.72279777106E+01 -0.11302453682E+03 -0.10287712431E+03  0.15300487669E+03  0.00000000000E+00 0. -1.
          5    1    4    4  501    0  0.14220814545E+03  0.10402163194E+03  0.12703999934E+02  0.17671202042E+03  0.47000000000E+01 0.  1.
         -5    1    4    4    0  501  0.39845374403E+02  0.73458762894E+01  0.75605747553E+02  0.85906547032E+02  0.47000000000E+01 0.  1.
          1    1    1    2  502    0 -0.55318696378E+02 -0.51246162097E+02 -0.22920047034E+03  0.24128651620E+03  0.00000000000E+00 0. -1.
          1    1    1    2  503    0 -0.70613658939E+02  0.68055554124E+02  0.13223145519E+04  0.13259463117E+04  0.00000000000E+00 0. -1.
<mgrwt>
<rscale>  0 0.86160696E+02</rscale>
<asrwt>0</asrwt>
<pdfrwt beam="1">  1        2 0.38887363E+00 0.98446996E+02</pdfrwt>
<pdfrwt beam="2">  1        2 0.72763687E-01 0.75407740E+02</pdfrwt>
<totfact> 0.46402941E+01</totfact>
</mgrwt>
</event>
<event>
13    1  0.2038932E-008  0.4869572E+02  0.7546771E-02  0.1474830E+00
          2   -1    0    0  503    0  0.00000000000E+00  0.00000000000E+00  0.19703117967E+04  0.19703117967E+04  0.00000000000E+00 0. -1.
          2   -1    0    0  502    0 -0.00000000000E+00 -0.00000000000E+00 -0.10321802505E+04  0.10321802505E+04  0.00000000000E+00 0. -1.
         24    2    1    2    0    0 -0.22470020120E+03  0.52640596338E+03 -0.12195043391E+03  0.59325074094E+03  0.97371015157E+02 0.  0.
         25    2    1    2    0    0  0.25239589746E+03 -0.45174501580E+03 -0.14180851963E+03  0.55092872191E+03  0.12504220101E+03 0.  0.
         24    2    1    2    0    0  0.71254724189E+01 -0.64712443689E+02  0.32071227789E+03  0.33716914634E+03  0.81167698780E+02 0.  0.
        -11    1    3    3    0    0  0.37564955395E+01  0.68609955504E+02 -0.19922968215E+02  0.71542727901E+02  0.00000000000E+00 0.  1.
         12    1    3    3    0    0 -0.22845669674E+03  0.45779600788E+03 -0.10202746569E+03  0.52170801304E+03  0.00000000000E+00 0. -1.
        -11    1    5    5    0    0  0.43729895691E+02 -0.40331920207E+02  0.20172192606E+03  0.21031096742E+03  0.00000000000E+00 0.  1.
         12    1    5    5    0    0 -0.36604423272E+02 -0.24380523482E+02  0.11899035183E+03  0.12685817891E+03  0.00000000000E+00 0. -1.
          5    1    4    4  501    0  0.11576216817E+03 -0.32788801862E+03 -0.86757851554E+02  0.35841379318E+03  0.47000000000E+01 0.  1.
         -5    1    4    4    0  501  0.13663372929E+03 -0.12385699718E+03 -0.55050668073E+02  0.19251492873E+03  0.47000000000E+01 0.  1.
          1    1    1    2  502    0 -0.15068072187E+02 -0.46378140579E+02 -0.31776465027E+03  0.32148460567E+03  0.00000000000E+00 0. -1.
          1    1    1    2  503    0 -0.19753096499E+02  0.36429636687E+02  0.11989428722E+04  0.11996588323E+04  0.00000000000E+00 0. -1.
<mgrwt>
<rscale>  0 0.44921799E+02</rscale>
<asrwt>0</asrwt>
<pdfrwt beam="1">  1        2 0.28975174E+00 0.41440358E+02</pdfrwt>
<pdfrwt beam="2">  1        2 0.15179121E+00 0.48695720E+02</pdfrwt>
<totfact> 0.47355024E+01</totfact>
</mgrwt>
</event>
<event>
13    1  0.2038932E-008  0.4906007E+02  0.7546771E-02  0.1527641E+00
          2   -1    0    0  502    0  0.00000000000E+00  0.00000000000E+00  0.55356338554E+03  0.55356338554E+03  0.00000000000E+00 0. -1.
          2   -1    0    0  503    0 -0.00000000000E+00 -0.00000000000E+00 -0.19293533206E+04  0.19293533206E+04  0.00000000000E+00 0. -1.
         24    2    1    2    0    0  0.43128607733E+02 -0.63094840725E+01 -0.16388881713E+03  0.18676877640E+03  0.78250527578E+02 0.  0.
         25    2    1    2    0    0  0.12459903581E+01 -0.11573242690E+02 -0.27442086509E+03  0.30177438355E+03  0.12500189970E+03 0.  0.
         24    2    1    2    0    0  0.84296194292E+01  0.38590187376E+02 -0.28119703612E+03  0.29423869157E+03  0.77099762944E+02 0.  0.
        -11    1    3    3    0    0  0.46581156018E+02 -0.82241452151E+01 -0.17165700109E+03  0.17805495411E+03  0.00000000000E+00 0.  1.
         12    1    3    3    0    0 -0.34525482857E+01  0.19146611426E+01  0.77681839605E+01  0.87138222957E+01  0.00000000000E+00 0. -1.
        -11    1    5    5    0    0  0.37226635432E+02  0.20049911355E+02 -0.83482313688E+02  0.93579474403E+02  0.00000000000E+00 0.  1.
         12    1    5    5    0    0 -0.28797016003E+02  0.18540276020E+02 -0.19771472243E+03  0.20065921716E+03  0.00000000000E+00 0. -1.
          5    1    4    4  501    0 -0.61614908487E+02 -0.46373667893E+01 -0.14320141050E+03  0.15603408630E+03  0.47000000000E+01 0. -1.
         -5    1    4    4    0  501  0.62860898845E+02 -0.69358759005E+01 -0.13121945459E+03  0.14574029724E+03  0.47000000000E+01 0. -1.
          1    1    1    2  502    0 -0.30387920593E+02 -0.38515932727E+02  0.52059845400E+03  0.52290501346E+03  0.00000000000E+00 0. -1.
          1    1    1    2  503    0 -0.22416296927E+02  0.17808472114E+02 -0.11768816707E+04  0.11772298411E+04  0.00000000000E+00 0. -1.
<mgrwt>
<rscale>  0 0.37477344E+02</rscale>
<asrwt>0</asrwt>
<pdfrwt beam="1">  1        2 0.81406380E-01 0.49060068E+02</pdfrwt>
<pdfrwt beam="2">  1        2 0.28372843E+00 0.28629217E+02</pdfrwt>
<totfact> 0.10591312E+02</totfact>
</mgrwt>
</event>
<event>
13    1  0.2038932E-008  0.1399353E+03  0.7546771E-02  0.1259824E+00
          2   -1    0    0  502    0  0.00000000000E+00  0.00000000000E+00  0.10620437364E+04  0.10620437364E+04  0.00000000000E+00 0. -1.
          2   -1    0    0  503    0 -0.00000000000E+00 -0.00000000000E+00 -0.12599973540E+04  0.12599973540E+04  0.00000000000E+00 0. -1.
         24    2    1    2    0    0 -0.62407914614E+02 -0.29376966338E+02 -0.10234936033E+03  0.14329646106E+03  0.72806113991E+02 0.  0.
         25    2    1    2    0    0 -0.14179301706E+03  0.21356311623E+02  0.36217049403E+03  0.40908874628E+03  0.12499913543E+03 0.  0.
         24    2    1    2    0    0 -0.72492922516E+02  0.10562080649E+02  0.40258086982E+02  0.11547157964E+03  0.79662982467E+02 0.  0.
        -11    1    5    5    0    0 -0.81035216569E+02 -0.13612355169E+02  0.34918535916E+02  0.89282174526E+02  0.00000000000E+00 0.  1.
         12    1    5    5    0    0  0.85422940532E+01  0.24174435818E+02  0.53395510653E+01  0.26189405117E+02  0.00000000000E+00 0. -1.
        -11    1    3    3    0    0 -0.45528074406E+02 -0.34648415147E+02 -0.22444042739E+02  0.61457735768E+02  0.00000000000E+00 0.  1.
         12    1    3    3    0    0 -0.16879840208E+02  0.52714488089E+01 -0.79905317591E+02  0.81838725292E+02  0.00000000000E+00 0. -1.
          5    1    4    4  501    0 -0.84893559326E+02 -0.11738105502E+02  0.73589024394E+02  0.11305810032E+03  0.47000000000E+01 0.  1.
         -5    1    4    4    0  501 -0.56899457734E+02  0.33094417125E+02  0.28858146963E+03  0.29603064597E+03  0.47000000000E+01 0.  1.
          1    1    1    2  502    0  0.25900684253E+02 -0.83164413973E+02  0.55852706485E+03  0.56527838041E+03  0.00000000000E+00 0. -1.
          1    1    1    2  503    0  0.25079316994E+03  0.80622988039E+02 -0.10565599032E+04  0.10889059231E+04  0.00000000000E+00 0. -1.
<mgrwt>
<rscale>  0 0.11040367E+03</rscale>
<asrwt>0</asrwt>
<pdfrwt beam="1">  1        2 0.15618290E+00 0.87104335E+02</pdfrwt>
<pdfrwt beam="2">  1        2 0.18529373E+00 0.13993529E+03</pdfrwt>
<totfact> 0.88135790E+01</totfact>
</mgrwt>
</event>
<event>
13    1  0.2038932E-008  0.6895252E+02  0.7546771E-02  0.1450840E+00
          2   -1    0    0  502    0  0.00000000000E+00  0.00000000000E+00  0.57079743313E+03  0.57079743313E+03  0.00000000000E+00 0. -1.
          2   -1    0    0  503    0 -0.00000000000E+00 -0.00000000000E+00 -0.14615598636E+04  0.14615598636E+04  0.00000000000E+00 0. -1.
         24    2    1    2    0    0  0.51396282155E+02 -0.15513956124E+02 -0.24476717963E+03  0.26310654685E+03  0.80198641621E+02 0.  0.
         25    2    1    2    0    0 -0.10011175815E+02 -0.55056355893E+02  0.16444297208E+03  0.21400675811E+03  0.12500390188E+03 0.  0.
         24    2    1    2    0    0 -0.30146711990E+02 -0.23030380407E+02 -0.26248228776E+03  0.27714188549E+03  0.80445327022E+02 0.  0.
        -11    1    3    3    0    0  0.42353065790E+02  0.28495231642E+02 -0.14389262674E+03  0.15267890633E+03  0.00000000000E+00 0.  1.
         12    1    3    3    0    0  0.90432163645E+01 -0.44009187766E+02 -0.10087455288E+03  0.11042764052E+03  0.00000000000E+00 0. -1.
        -13    1    5    5    0    0  0.21462372241E+02 -0.89600772176E+01 -0.15859616672E+03  0.16029242185E+03  0.00000000000E+00 0.  1.
         14    1    5    5    0    0 -0.51609084231E+02 -0.14070303189E+02 -0.10388612104E+03  0.11684946364E+03  0.00000000000E+00 0. -1.
          5    1    4    4  501    0 -0.12190602804E+02  0.17709903229E+02 -0.10558186796E+02  0.24409358401E+02  0.47000000000E+01 0. -1.
         -5    1    4    4    0  501  0.21794269890E+01 -0.72766259123E+02  0.17500115888E+03  0.18959739971E+03  0.47000000000E+01 0. -1.
          1    1    1    2  502    0  0.16535727323E+02  0.30635850661E+02  0.36294220412E+03  0.36460804867E+03  0.00000000000E+00 0. -1.
          1    1    1    2  503    0 -0.27774121673E+02  0.62964841763E+02 -0.91089813929E+03  0.91349405761E+03  0.00000000000E+00 0. -1.
<mgrwt>
<rscale>  0 0.48994738E+02</rscale>
<asrwt>0</asrwt>
<pdfrwt beam="1">  1        2 0.83940800E-01 0.34813584E+02</pdfrwt>
<pdfrwt beam="2">  1        2 0.21493527E+00 0.68952520E+02</pdfrwt>
<totfact> 0.15645303E+02</totfact>
</mgrwt>
</event>
<event>
13    1  0.2038932E-008  0.9164998E+02  0.7546771E-02  0.1428742E+00
          2   -1    0    0  503    0  0.00000000000E+00  0.00000000000E+00  0.40534102340E+04  0.40534102340E+04  0.00000000000E+00 0. -1.
          2   -1    0    0  502    0 -0.00000000000E+00 -0.00000000000E+00 -0.19362711736E+04  0.19362711736E+04  0.00000000000E+00 0. -1.
         24    2    1    2    0    0 -0.57156167852E+03 -0.72333279080E+03 -0.39403305938E+03  0.10066525065E+04  0.90521480518E+02 0.  0.
         25    2    1    2    0    0 -0.94550939840E+02  0.23458230757E+03 -0.45417724964E+02  0.28575778536E+03  0.12500401154E+03 0.  0.
         24    2    1    2    0    0  0.67970940348E+03  0.42911315839E+03  0.49703409016E+03  0.94844545105E+03  0.79767856604E+02 0.  0.
        -11    1    5    5    0    0  0.58847791194E+03  0.38123015995E+03  0.40178286658E+03  0.80812880136E+03  0.00000000000E+00 0.  1.
         12    1    5    5    0    0  0.91231491538E+02  0.47882998437E+02  0.95251223576E+02  0.14031664969E+03  0.00000000000E+00 0. -1.
        -11    1    3    3    0    0 -0.36823167712E+03 -0.42487032879E+03 -0.27884848661E+03  0.62758731887E+03  0.00000000000E+00 0.  1.
         12    1    3    3    0    0 -0.20333000140E+03 -0.29846246201E+03 -0.11518457278E+03  0.37906518767E+03  0.00000000000E+00 0. -1.
          5    1    4    4  501    0 -0.11750827577E+03  0.16665700434E+03 -0.65783569325E+01  0.20407870235E+03  0.47000000000E+01 0. -1.
         -5    1    4    4    0  501  0.22957335934E+02  0.67925303232E+02 -0.38839368032E+02  0.81679083010E+02  0.47000000000E+01 0. -1.
          1    1    1    2  502    0  0.12603439444E+02 -0.28209055402E+02 -0.84362870603E+03  0.84419428518E+03  0.00000000000E+00 0. -1.
          1    1    1    2  503    0 -0.26200224568E+02  0.87846380248E+02  0.29031844606E+04  0.29046313795E+04  0.00000000000E+00 0. -1.
<mgrwt>
<rscale>  0 0.53213431E+02</rscale>
<asrwt>0</asrwt>
<pdfrwt beam="1">  1        2 0.59608974E+00 0.91649980E+02</pdfrwt>
<pdfrwt beam="2">  1        2 0.28474576E+00 0.30896561E+02</pdfrwt>
<totfact> 0.12031791E+00</totfact>
</mgrwt>
</event>
<event>
13    1  0.2038932E-008  0.6424822E+02  0.7546771E-02  0.1415826E+00
          2   -1    0    0  502    0  0.00000000000E+00  0.00000000000E+00  0.23150127884E+04  0.23150127884E+04  0.00000000000E+00 0. -1.
          2   -1    0    0  503    0 -0.00000000000E+00 -0.00000000000E+00 -0.23389821635E+04  0.23389821635E+04  0.00000000000E+00 0. -1.
         24    2    1    2    0    0  0.44021324667E+02  0.29464816555E+02 -0.32210410031E+03  0.33595011541E+03  0.79406398800E+02 0.  0.
         25    2    1    2    0    0 -0.72589995894E+02  0.32515702250E+03  0.18198287801E+03  0.39967183123E+03  0.12499363185E+03 0.  0.
         24    2    1    2    0    0  0.93387534320E+02 -0.32415732646E+03  0.17777506434E+03  0.38501950183E+03  0.53261988505E+02 0.  0.
        -11    1    5    5    0    0  0.60365762100E+02 -0.27538344185E+03  0.13750432359E+03  0.31366782475E+03  0.00000000000E+00 0.  1.
         12    1    5    5    0    0  0.33021772220E+02 -0.48773884616E+02  0.40270740749E+02  0.71351677076E+02  0.00000000000E+00 0. -1.
        -13    1    3    3    0    0  0.31947177199E+02  0.24017473121E+02 -0.52312658819E+02  0.65833695163E+02  0.00000000000E+00 0.  1.
         14    1    3    3    0    0  0.12074147468E+02  0.54473434332E+01 -0.26979144149E+03  0.27011642025E+03  0.00000000000E+00 0. -1.
          5    1    4    4  501    0 -0.26018065062E+02  0.11338625604E+03  0.13405652510E+03  0.17755738422E+03  0.47000000000E+01 0.  1.
         -5    1    4    4    0  501 -0.46571930832E+02  0.21177076646E+03  0.47926352914E+02  0.22211444701E+03  0.47000000000E+01 0.  1.
          1    1    1    2  502    0 -0.39402297187E+02  0.28554000056E+02  0.17349495998E+04  0.17356318693E+04  0.00000000000E+00 0. -1.
          1    1    1    2  503    0 -0.25416565905E+02 -0.59018512650E+02 -0.17965728170E+04  0.17977216340E+04  0.00000000000E+00 0. -1.
<mgrwt>
<rscale>  0 0.55913942E+02</rscale>
<asrwt>0</asrwt>
<pdfrwt beam="1">  1        2 0.34044306E+00 0.48660784E+02</pdfrwt>
<pdfrwt beam="2">  1        2 0.34396797E+00 0.64248222E+02</pdfrwt>
<totfact> 0.72896654E+00</totfact>
</mgrwt>
</event>
<event>
13    1  0.2038932E-008  0.2417918E+03  0.7546771E-02  0.1329492E+00
          2   -1    0    0  502    0  0.00000000000E+00  0.00000000000E+00  0.24763170095E+04  0.24763170095E+04  0.00000000000E+00 0. -1.
          2   -1    0    0  503    0 -0.00000000000E+00 -0.00000000000E+00 -0.19994864798E+04  0.19994864798E+04  0.00000000000E+00 0. -1.
         24    2    1    2    0    0  0.67951758922E+02  0.17680296262E+03 -0.55325102037E+02  0.21235710648E+03  0.78472572435E+02 0.  0.
         25    2    1    2    0    0  0.19211881421E+03 -0.43203345002E+02  0.98759783062E+03  0.10147666776E+04  0.12500306828E+03 0.  0.
         24    2    1    2    0    0 -0.80429119553E+02  0.28488586362E+01  0.67202911771E+02  0.13074492042E+03  0.78109177418E+02 0.  0.
        -13    1    5    5    0    0 -0.36074942502E+02  0.39306531514E+02  0.42635319054E+02  0.68294767933E+02  0.00000000000E+00 0.  1.
         14    1    5    5    0    0 -0.44354177051E+02 -0.36457672878E+02  0.24567592717E+02  0.62450152485E+02  0.00000000000E+00 0. -1.
        -13    1    3    3    0    0  0.68429262991E+02  0.12238106864E+03 -0.83458089499E+01  0.14046117799E+03  0.00000000000E+00 0.  1.
         14    1    3    3    0    0 -0.47750406861E+00  0.54421893985E+02 -0.46979293087E+02  0.71895928494E+02  0.00000000000E+00 0. -1.
          5    1    4    4  501    0  0.87666459793E+02 -0.55030137888E+02  0.26480308840E+03  0.28435275605E+03  0.47000000000E+01 0. -1.
         -5    1    4    4    0  501  0.10445235442E+03  0.11826792886E+02  0.72279474222E+03  0.73041392153E+03  0.47000000000E+01 0. -1.
          1    1    1    2  502    0  0.24899306350E+02  0.86731164049E+01  0.12888710159E+04  0.12891406805E+04  0.00000000000E+00 0. -1.
          1    1    1    2  503    0 -0.20454075993E+03 -0.14512159266E+03 -0.18115161266E+04  0.18287941043E+04  0.00000000000E+00 0. -1.
<mgrwt>
<rscale>  0 0.79845045E+02</rscale>
<asrwt>0</asrwt>
<pdfrwt beam="1">  1        2 0.36416427E+00 0.26366615E+02</pdfrwt>
<pdfrwt beam="2">  1        2 0.29404213E+00 0.24179179E+03</pdfrwt>
<totfact> 0.84692532E+00</totfact>
</mgrwt>
</event>
<event>
13    1  0.2038932E-008  0.1848134E+03  0.7546771E-02  0.1327288E+00
          2   -1    0    0  503    0  0.00000000000E+00  0.00000000000E+00  0.11495179085E+04  0.11495179085E+04  0.00000000000E+00 0. -1.
          2   -1    0    0  502    0 -0.00000000000E+00 -0.00000000000E+00 -0.24204440959E+03  0.24204440959E+03  0.00000000000E+00 0. -1.
         24    2    1    2    0    0  0.43978740945E+02 -0.31792402225E+02  0.33843954065E+02  0.10378469451E+03  0.81737158591E+02 0.  0.
         25    2    1    2    0    0  0.39121065170E+02 -0.17116604935E+03  0.26185028217E+03  0.33914398253E+03  0.12499918570E+03 0.  0.
         24    2    1    2    0    0 -0.14941705017E+02  0.44636287687E+02  0.21126742147E+03  0.22386675116E+03  0.57155456224E+02 0.  0.
        -11    1    5    5    0    0 -0.20813902535E+02  0.25305159777E+02  0.19553288041E+03  0.19825911574E+03  0.00000000000E+00 0.  1.
         12    1    5    5    0    0  0.58721975176E+01  0.19331127910E+02  0.15734541051E+02  0.25607635425E+02  0.00000000000E+00 0. -1.
        -13    1    3    3    0    0  0.21704357002E+02  0.16753289411E+02 -0.15132885400E+02  0.31317024755E+02  0.00000000000E+00 0.  1.
         14    1    3    3    0    0  0.22274383943E+02 -0.48545691637E+02  0.48976839465E+02  0.72467669760E+02  0.00000000000E+00 0. -1.
          5    1    4    4  501    0 -0.33320489037E+02 -0.11285927380E+03  0.18038564051E+03  0.21542641429E+03  0.47000000000E+01 0.  1.
         -5    1    4    4    0  501  0.72441554207E+02 -0.58306775545E+02  0.81464641659E+02  0.12371756824E+03  0.47000000000E+01 0.  1.
          1    1    1    2  502    0 -0.41881649042E+02  0.18170281861E+03 -0.10770275019E+03  0.21533664160E+03  0.00000000000E+00 0. -1.
          1    1    1    2  503    0 -0.26276452055E+02 -0.23380654724E+02  0.50821459138E+03  0.50943024825E+03  0.00000000000E+00 0. -1.
<mgrwt>
<rscale>  0 0.80624780E+02</rscale>
<asrwt>0</asrwt>
<pdfrwt beam="1">  1        2 0.16904675E+00 0.35172531E+02</pdfrwt>
<pdfrwt beam="2">  1        2 0.35594767E-01 0.18481340E+03</pdfrwt>
<totfact> 0.57695342E+02</totfact>
</mgrwt>
</event>
<event>
13    1  0.2038932E-008  0.1124422E+03  0.7546771E-02  0.1317178E+00
          2   -1    0    0  503    0  0.00000000000E+00  0.00000000000E+00  0.35934536911E+04  0.35934536911E+04  0.00000000000E+00 0. -1.
          2   -1    0    0  502    0 -0.00000000000E+00 -0.00000000000E+00 -0.30124418759E+04  0.30124418759E+04  0.00000000000E+00 0. -1.
         24    2    1    2    0    0  0.10960652806E+04 -0.11383554849E+04 -0.19494927139E+03  0.15942385497E+04  0.79868803001E+02 0.  0.
         25    2    1    2    0    0 -0.29014814209E+03  0.52635201037E+03  0.12682703497E+04  0.14090306814E+04  0.12500159179E+03 0.  0.
         24    2    1    2    0    0 -0.80701638792E+03  0.55544689838E+03 -0.20248447319E+03  0.10062484050E+04  0.10834751231E+03 0.  0.
        -13    1    5    5    0    0 -0.12245472508E+03  0.13511406889E+03 -0.39067555724E+02  0.18648658187E+03  0.00000000000E+00 0.  1.
         14    1    5    5    0    0 -0.68456166284E+03  0.42033282949E+03 -0.16341691746E+03  0.81976182315E+03  0.00000000000E+00 0. -1.
        -13    1    3    3    0    0  0.57915489167E+03 -0.54428825898E+03 -0.10243224838E+03  0.80135039959E+03  0.00000000000E+00 0.  1.
         14    1    3    3    0    0  0.51691038896E+03 -0.59406722589E+03 -0.92517023013E+02  0.79288815014E+03  0.00000000000E+00 0. -1.
          5    1    4    4  501    0 -0.10984409899E+03  0.11201601593E+03  0.25296689784E+03  0.29770397262E+03  0.47000000000E+01 0.  1.
         -5    1    4    4    0  501 -0.18030404311E+03  0.41433599444E+03  0.10153034519E+04  0.11113267088E+04  0.47000000000E+01 0.  1.
          1    1    1    2  502    0 -0.38908457739E+02  0.10555308954E+03 -0.14400386325E+04  0.14444260403E+04  0.00000000000E+00 0. -1.
          1    1    1    2  503    0  0.40007707126E+02 -0.48996513419E+02  0.11502138425E+04  0.11519518906E+04  0.00000000000E+00 0. -1.
<mgrwt>
<rscale>  0 0.84336231E+02</rscale>
<asrwt>0</asrwt>
<pdfrwt beam="1">  1        2 0.52844907E+00 0.63255632E+02</pdfrwt>
<pdfrwt beam="2">  1        2 0.44300616E+00 0.11244216E+03</pdfrwt>
<totfact> 0.63599478E-01</totfact>
</mgrwt>
</event>
<event>
13    1  0.2038932E-008  0.1232882E+03  0.7546771E-02  0.1430608E+00
          2   -1    0    0  503    0  0.00000000000E+00  0.00000000000E+00  0.94760331450E+03  0.94760331450E+03  0.00000000000E+00 0. -1.
          2   -1    0    0  502    0 -0.00000000000E+00 -0.00000000000E+00 -0.31746393742E+04  0.31746393742E+04  0.00000000000E+00 0. -1.
         24    2    1    2    0    0  0.22721716036E+03  0.22155998379E+03 -0.10388808591E+04  0.10894725331E+04  0.83429589805E+02 0.  0.
         25    2    1    2    0    0 -0.32621329868E+03  0.20308448817E+02  0.31358420950E+03  0.46987877532E+03  0.12499383073E+03 0.  0.
         24    2    1    2    0    0  0.10967828235E+03 -0.96846392654E+02 -0.36760067828E+03  0.40310296850E+03  0.77156951444E+02 0.  0.
        -11    1    5    5    0    0  0.30632161455E+01 -0.47100587064E+02 -0.90738211624E+02  0.10228035805E+03  0.00000000000E+00 0.  1.
         12    1    5    5    0    0  0.10661506621E+03 -0.49745805590E+02 -0.27686246665E+03  0.30082261045E+03  0.00000000000E+00 0. -1.
        -11    1    3    3    0    0  0.81787286593E+02  0.13215401076E+03 -0.43519705817E+03  0.46211505304E+03  0.00000000000E+00 0.  1.
         12    1    3    3    0    0  0.14542987376E+03  0.89405973024E+02 -0.60368380095E+03  0.62735748001E+03  0.00000000000E+00 0. -1.
          5    1    4    4  501    0 -0.19731766016E+03  0.11868643295E+02  0.10340946728E+03  0.22313836879E+03  0.47000000000E+01 0.  1.
         -5    1    4    4    0  501 -0.12889563852E+03  0.84398055217E+01  0.21017474222E+03  0.24674040652E+03  0.47000000000E+01 0.  1.
          1    1    1    2  502    0 -0.12939992174E+02 -0.12248971526E+03 -0.16444092025E+04  0.16490157061E+04  0.00000000000E+00 0. -1.
          1    1    1    2  503    0  0.22578481435E+01 -0.22532324694E+02  0.51027047074E+03  0.51077270566E+03  0.00000000000E+00 0. -1.
<mgrwt>
<rscale>  0 0.52838250E+02</rscale>
<asrwt>0</asrwt>
<pdfrwt beam="1">  1        2 0.13935343E+00 0.22645166E+02</pdfrwt>
<pdfrwt beam="2">  1        2 0.46685873E+00 0.12328815E+03</pdfrwt>
<totfact> 0.11828047E+01</totfact>
</mgrwt>
</event>
<event>
13    1  0.2038932E-008  0.1410774E+03  0.7546771E-02  0.1311086E+00
         -3   -1    0    0    0  501 -0.00000000000E+00  0.00000000000E+00  0.14955398294E+04  0.14955398294E+04  0.00000000000E+00 0.  1.
          2   -1    0    0  503    0  0.00000000000E+00 -0.00000000000E+00 -0.25741516764E+04  0.25741516764E+04  0.00000000000E+00 0. -1.
         24    2    1    2    0    0  0.48261123043E+02 -0.20670882001E+02  0.31112827217E+03  0.32628739202E+03  0.83103785025E+02 0.  0.
         25    2    1    2    0    0  0.13255222058E+03  0.49475255296E+02 -0.59543572433E+03  0.62465247741E+03  0.12501649352E+03 0.  0.
         24    2    1    2    0    0 -0.23977532209E+02  0.26713978251E+02  0.12987839044E+03  0.15657005549E+03  0.79732222403E+02 0.  0.
        -11    1    5    5    0    0 -0.22878806889E+02  0.13658772920E+02  0.13839962678E+03  0.14094133026E+03  0.00000000000E+00 0.  1.
         12    1    5    5    0    0 -0.10987253202E+01  0.13055205331E+02 -0.85212363431E+01  0.15628725232E+02  0.00000000000E+00 0. -1.
        -13    1    3    3    0    0  0.51314738602E+01 -0.79588897483E+01  0.25113947856E+03  0.25131795328E+03  0.00000000000E+00 0.  1.
         14    1    3    3    0    0  0.43129649183E+02 -0.12711992253E+02  0.59988793616E+02  0.74969438741E+02  0.00000000000E+00 0. -1.
          5    1    4    4  502    0 -0.24032792817E+00 -0.16746784173E+02 -0.22357250524E+03  0.22424822773E+03  0.47000000000E+01 0.  1.
         -5    1    4    4    0  502  0.13279254851E+03  0.66222039469E+02 -0.37186321909E+03  0.40040424968E+03  0.47000000000E+01 0.  1.
          1    1    1    2  503    0  0.52700052177E+02  0.77206689248E+01 -0.19310579264E+04  0.19317923334E+04  0.00000000000E+00 0. -1.
         -4    1    1    2    0  501 -0.20953586359E+03 -0.63239020471E+02  0.10068751410E+04  0.10303892476E+04  0.00000000000E+00 0.  1.
<mgrwt>
<rscale>  0 0.86684193E+02</rscale>
<asrwt>0</asrwt>
<pdfrwt beam="2">  1        2 0.37855172E+00 0.53262597E+02</pdfrwt>
<pdfrwt beam="1">  1       -3 0.21993233E+00 0.14107741E+03</pdfrwt>
<totfact> 0.40107521E-01</totfact>
</mgrwt>
</event>
<event>
13    1  0.2038932E-008  0.7295332E+02  0.7546771E-02  0.1358220E+00
          2   -1    0    0  503    0  0.00000000000E+00  0.00000000000E+00  0.15853137937E+04  0.15853137937E+04  0.00000000000E+00 0. -1.
          2   -1    0    0  502    0 -0.00000000000E+00 -0.00000000000E+00 -0.30520673045E+04  0.30520673045E+04  0.00000000000E+00 0. -1.
         24    2    1    2    0    0 -0.94499781223E+03  0.64773551790E+03 -0.85666145887E+03  0.14317769908E+04  0.59450231666E+02 0.  0.
         25    2    1    2    0    0  0.72369893614E+03 -0.54196543710E+03 -0.57217828682E+03  0.10772553532E+04  0.12499767530E+03 0.  0.
         24    2    1    2    0    0  0.27367409972E+03 -0.23554015780E+03 -0.21985523080E+03  0.43005764840E+03  0.78972018132E+02 0.  0.
        -11    1    5    5    0    0  0.63636465273E+02 -0.90047536923E+02 -0.95611666938E+02  0.14594433690E+03  0.00000000000E+00 0.  1.
         12    1    5    5    0    0  0.21003763445E+03 -0.14549262087E+03 -0.12424356386E+03  0.28411331150E+03  0.00000000000E+00 0. -1.
        -13    1    3    3    0    0 -0.21712732729E+03  0.11936244283E+03 -0.18834995531E+03  0.31123524010E+03  0.00000000000E+00 0.  1.
         14    1    3    3    0    0 -0.72787048494E+03  0.52837307508E+03 -0.66831150356E+03  0.11205417507E+04  0.00000000000E+00 0. -1.
          5    1    4    4  501    0  0.10263566439E+03 -0.77395619506E+02 -0.33462332300E+02  0.13291342749E+03  0.47000000000E+01 0. -1.
         -5    1    4    4    0  501  0.62106327175E+03 -0.46456981760E+03 -0.53871595452E+03  0.94434192568E+03  0.47000000000E+01 0. -1.
          1    1    1    2  502    0 -0.16776561074E+02  0.66138396340E+02 -0.75522072756E+03  0.75829683357E+03  0.00000000000E+00 0. -1.
          1    1    1    2  503    0 -0.35598662560E+02  0.63631680656E+02  0.93716219318E+03  0.93999427227E+03  0.00000000000E+00 0. -1.
<mgrwt>
<rscale>  0 0.70553688E+02</rscale>
<asrwt>0</asrwt>
<pdfrwt beam="1">  1        2 0.23313439E+00 0.72953320E+02</pdfrwt>
<pdfrwt beam="2">  1        2 0.44883342E+00 0.68232987E+02</pdfrwt>
<totfact> 0.67086264E+00</totfact>
</mgrwt>
</event>
<event>
13    1  0.2038932E-008  0.1461215E+03  0.7546771E-02  0.1229532E+00
          2   -1    0    0  502    0  0.00000000000E+00  0.00000000000E+00  0.28798499585E+04  0.28798499585E+04  0.00000000000E+00 0. -1.
          2   -1    0    0  503    0 -0.00000000000E+00 -0.00000000000E+00 -0.28456144829E+04  0.28456144829E+04  0.00000000000E+00 0. -1.
         24    2    1    2    0    0  0.63866708618E+02  0.40173087567E+02 -0.47505557696E+03  0.48762586051E+03  0.80052140504E+02 0.  0.
         25    2    1    2    0    0 -0.11683255468E+03  0.19871764361E+03  0.34317598331E+03  0.43189521251E+03  0.12500068542E+03 0.  0.
         24    2    1    2    0    0 -0.56346336545E+02 -0.32662183440E+02 -0.30319828635E+03  0.31991378513E+03  0.78574176446E+02 0.  0.
        -11    1    5    5    0    0  0.18207173248E+02  0.41723474146E+01 -0.64191332901E+02  0.66853847012E+02  0.00000000000E+00 0.  1.
         12    1    5    5    0    0 -0.74553509792E+02 -0.36834530855E+02 -0.23900695345E+03  0.25305993812E+03  0.00000000000E+00 0. -1.
        -13    1    3    3    0    0 -0.13901100242E+02 -0.10289552686E+02 -0.73030346030E+02  0.75050295960E+02  0.00000000000E+00 0.  1.
         14    1    3    3    0    0  0.77767808861E+02  0.50462640253E+02 -0.40202523093E+03  0.41257556455E+03  0.00000000000E+00 0. -1.
          5    1    4    4  501    0 -0.33613040470E+02  0.24509575808E+02  0.46039491599E+01  0.42117005399E+02  0.47000000000E+01 0.  1.
         -5    1    4    4    0  501 -0.83219514213E+02  0.17420806780E+03  0.33857203415E+03  0.38977820711E+03  0.47000000000E+01 0.  1.
          1    1    1    2  502    0  0.68148608073E+02 -0.10647508647E+03  0.24746072483E+04  0.24778341773E+04  0.00000000000E+00 0. -1.
          1    1    1    2  503    0  0.41163574537E+02 -0.99753461263E+02 -0.20052938927E+04  0.20081954060E+04  0.00000000000E+00 0. -1.
<mgrwt>
<rscale>  0 0.12861090E+03</rscale>
<asrwt>0</asrwt>
<pdfrwt beam="1">  1        2 0.42350735E+00 0.14612152E+03</pdfrwt>
<pdfrwt beam="2">  1        2 0.41847271E+00 0.11319868E+03</pdfrwt>
<totfact> 0.16916431E+00</totfact>
</mgrwt>
</event>
<event>
13    1  0.2038932E-008  0.8084432E+02  0.7546771E-02  0.1346913E+00
          2   -1    0    0  502    0  0.00000000000E+00  0.00000000000E+00  0.37591858514E+04  0.37591858514E+04  0.00000000000E+00 0. -1.
          2   -1    0    0  503    0 -0.00000000000E+00 -0.00000000000E+00 -0.36547195084E+04  0.36547195084E+04  0.00000000000E+00 0. -1.
         24    2    1    2    0    0 -0.42808336624E+02 -0.38584353397E+02 -0.86147595227E+03  0.86724137042E+03  0.81519765747E+02 0.  0.
         25    2    1    2    0    0 -0.98830850739E+02  0.13292434039E+03  0.18042775413E+04  0.18161694278E+04  0.12497010400E+03 0.  0.
         24    2    1    2    0    0  0.63128494942E-01 -0.67392976921E+02 -0.63959225225E+03  0.64817740984E+03  0.80708662216E+02 0.  0.
        -11    1    5    5    0    0 -0.35135793746E+02 -0.39942134545E+02 -0.46236733157E+03  0.46541749797E+03  0.00000000000E+00 0.  1.
         12    1    5    5    0    0  0.35198922241E+02 -0.27450842376E+02 -0.17722492068E+03  0.18275991187E+03  0.00000000000E+00 0. -1.
        -13    1    3    3    0    0 -0.44924331654E+02 -0.39632037316E+02 -0.86256379953E+03  0.86464166116E+03  0.00000000000E+00 0.  1.
         14    1    3    3    0    0  0.21159950293E+01  0.10476839196E+01  0.10878472573E+01  0.25997092558E+01  0.00000000000E+00 0. -1.
          5    1    4    4  501    0 -0.94042444524E+02  0.87135989930E+02  0.16530204951E+04  0.16579914081E+04  0.47000000000E+01 0. -1.
         -5    1    4    4    0  501 -0.47884062151E+01  0.45788350463E+02  0.15125704620E+03  0.15817801964E+03  0.47000000000E+01 0. -1.
          1    1    1    2  502    0  0.80756304382E+02  0.29778607828E+01  0.19404092450E+04  0.19420912662E+04  0.00000000000E+00 0. -1.
          1    1    1    2  503    0  0.60819754486E+02 -0.29924870858E+02 -0.21391522388E+04  0.21402258856E+04  0.00000000000E+00 0. -1.
<mgrwt>
<rscale>  0 0.74026168E+02</rscale>
<asrwt>0</asrwt>
<pdfrwt beam="1">  1        2 0.55282145E+00 0.80844318E+02</pdfrwt>
<pdfrwt beam="2">  1        2 0.53745875E+00 0.67783039E+02</pdfrwt>
<totfact> 0.22738112E-01</totfact>
</mgrwt>
</event>
<event>
13    1  0.2038932E-008  0.1170011E+03  0.7546771E-02  0.1422582E+00
          2   -1    0    0  503    0  0.00000000000E+00  0.00000000000E+00  0.53602588561E+03  0.53602588561E+03  0.00000000000E+00 0. -1.
          2   -1    0    0  502    0 -0.00000000000E+00 -0.00000000000E+00 -0.14590523639E+04  0.14590523639E+04  0.00000000000E+00 0. -1.
         24    2    1    2    0    0 -0.20831236632E+03  0.36777003328E+02 -0.15009652330E+03  0.27126370440E+03  0.79425695332E+02 0.  0.
         25    2    1    2    0    0  0.69918301775E+02  0.58676560118E+02  0.31925577873E+03  0.35479668931E+03  0.12499972345E+03 0.  0.
         24    2    1    2    0    0  0.48681743872E+02 -0.13316668094E+02 -0.21439261446E+03  0.23341382801E+03  0.77269503280E+02 0.  0.
        -11    1    3    3    0    0 -0.13039276549E+03  0.43133963930E+02 -0.54474458844E+02  0.14775073199E+03  0.00000000000E+00 0.  1.
         12    1    3    3    0    0 -0.77919600829E+02 -0.63569606024E+01 -0.95622064458E+02  0.12351297241E+03  0.00000000000E+00 0. -1.
        -13    1    5    5    0    0 -0.17470370406E+02  0.12274207245E+02 -0.51167569751E+02  0.55443576723E+02  0.00000000000E+00 0.  1.
         14    1    5    5    0    0  0.66152114278E+02 -0.25590875339E+02 -0.16322504471E+03  0.17797025129E+03  0.00000000000E+00 0. -1.
          5    1    4    4  501    0 -0.13516048762E+02 -0.29787478096E+02  0.71486834619E+02  0.78755539165E+02  0.47000000000E+01 0.  1.
         -5    1    4    4    0  501  0.83434350537E+02  0.88464038214E+02  0.24776894411E+03  0.27604115014E+03  0.47000000000E+01 0.  1.
          1    1    1    2  502    0  0.66306209187E+02 -0.91914891230E+02 -0.10022250396E+04  0.10086128547E+04  0.00000000000E+00 0. -1.
          1    1    1    2  503    0  0.23406111488E+02  0.97779958776E+01  0.12443192032E+03  0.12699117313E+03  0.00000000000E+00 0. -1.
<mgrwt>
<rscale>  0 0.54478436E+02</rscale>
<asrwt>0</asrwt>
<pdfrwt beam="1">  1        2 0.78827336E-01 0.25366420E+02</pdfrwt>
<pdfrwt beam="2">  1        2 0.21456652E+00 0.11700114E+03</pdfrwt>
<totfact> 0.16148290E+02</totfact>
</mgrwt>
</event>
<event>
13    1  0.2038932E-008  0.1058978E+03  0.7546771E-02  0.1305437E+00
          2   -1    0    0  502    0  0.00000000000E+00  0.00000000000E+00  0.11562007325E+03  0.11562007325E+03  0.00000000000E+00 0. -1.
          2   -1    0    0  503    0 -0.00000000000E+00 -0.00000000000E+00 -0.23089937701E+04  0.23089937701E+04  0.00000000000E+00 0. -1.
         24    2    1    2    0    0  0.27882196064E+02 -0.26694373127E+01 -0.76823445588E+03  0.77100286616E+03  0.58963528319E+02 0.  0.
         25    2    1    2    0    0  0.19196035463E+03  0.13249571337E+03 -0.50522971798E+03  0.57033871336E+03  0.12500115286E+03 0.  0.
         24    2    1    2    0    0 -0.39912825198E+02 -0.50791938842E+02 -0.47381525562E+03  0.48599300132E+03  0.86691673267E+02 0.  0.
        -11    1    5    5    0    0 -0.14792918213E+02 -0.68035815198E+02 -0.23074858196E+03  0.24102408729E+03  0.00000000000E+00 0.  1.
         12    1    5    5    0    0 -0.25119906984E+02  0.17243876356E+02 -0.24306667366E+03  0.24496891403E+03  0.00000000000E+00 0. -1.
        -13    1    3    3    0    0  0.32980921819E+02 -0.25224688527E+02 -0.43996129938E+03  0.44191624893E+03  0.00000000000E+00 0.  1.
         14    1    3    3    0    0 -0.50987257551E+01  0.22555251215E+02 -0.32827315650E+03  0.32908661723E+03  0.00000000000E+00 0. -1.
          5    1    4    4  501    0  0.11403325705E+03  0.39829912689E+01 -0.21190031188E+03  0.24071410451E+03  0.47000000000E+01 0.  1.
         -5    1    4    4    0  501  0.77927097573E+02  0.12851272210E+03 -0.29332940610E+03  0.32962460885E+03  0.47000000000E+01 0.  1.
          1    1    1    2  502    0 -0.92951520196E+02 -0.45377101549E+02  0.33480741186E+02  0.10871994519E+03  0.00000000000E+00 0. -1.
          1    1    1    2  503    0 -0.86978205297E+02 -0.33657235665E+02 -0.47957500859E+03  0.48855931736E+03  0.00000000000E+00 0. -1.
<mgrwt>
<rscale>  0 0.88941005E+02</rscale>
<asrwt>0</asrwt>
<pdfrwt beam="1">  1        2 0.17002953E-01 0.10589778E+03</pdfrwt>
<pdfrwt beam="2">  1        2 0.33955789E+00 0.74699419E+02</pdfrwt>
<totfact> 0.33612463E+02</totfact>
</mgrwt>
</event>
<event>
13    1  0.2038932E-008  0.5092692E+02  0.7546771E-02  0.1519608E+00
         -1   -1    0    0    0  501 -0.00000000000E+00  0.00000000000E+00  0.71573867487E+03  0.71573867487E+03  0.00000000000E+00 0.  1.
          2   -1    0    0  503    0  0.00000000000E+00 -0.00000000000E+00 -0.88240762560E+03  0.88240762560E+03  0.00000000000E+00 0. -1.
         24    2    1    2    0    0  0.60514375563E+02 -0.31799886170E+02  0.30282551718E+03  0.32029368695E+03  0.78813258004E+02 0.  0.
         25    2    1    2    0    0 -0.78692639344E+02  0.13146328869E+03 -0.17653939748E+03  0.26507890777E+03  0.12500216286E+03 0.  0.
         24    2    1    2    0    0  0.57281844211E+01 -0.22719825617E+02  0.15418752340E+02  0.84838560577E+02  0.80067726733E+02 0.  0.
        -13    1    5    5    0    0  0.41557652208E+02 -0.22678763006E+02  0.54997577176E+01  0.47661431824E+02  0.00000000000E+00 0.  1.
         14    1    5    5    0    0 -0.35829467787E+02 -0.41062610818E-01  0.99189946219E+01  0.37177128753E+02  0.00000000000E+00 0. -1.
        -13    1    3    3    0    0  0.33770515626E+02  0.22011228419E+02  0.16653281626E+03  0.17134211623E+03  0.00000000000E+00 0.  1.
         14    1    3    3    0    0  0.26743859937E+02 -0.53811114589E+02  0.13629270092E+03  0.14895157072E+03  0.00000000000E+00 0. -1.
          5    1    4    4  502    0  0.33335705164E+02  0.41192764334E+02 -0.56975362341E+02  0.77951234667E+02  0.47000000000E+01 0. -1.
         -5    1    4    4    0  502 -0.11202834451E+03  0.90270524360E+02 -0.11956403514E+03  0.18712767310E+03  0.47000000000E+01 0. -1.
          1    1    1    2  503    0 -0.36932669777E+01 -0.28858627690E+02 -0.61573240687E+03  0.61641938442E+03  0.00000000000E+00 0. -1.
         -2    1    1    2    0  501  0.16143346337E+02 -0.48084949218E+02  0.30735858411E+03  0.31151576076E+03  0.00000000000E+00 0.  1.
<mgrwt>
<rscale>  0 0.38492435E+02</rscale>
<asrwt>0</asrwt>
<pdfrwt beam="2">  1        2 0.12976583E+00 0.29093996E+02</pdfrwt>
<pdfrwt beam="1">  1       -1 0.10525569E+00 0.50926918E+02</pdfrwt>
<totfact> 0.40545766E+01</totfact>
</mgrwt>
</event>
<event>
13    1  0.2038932E-008  0.9298984E+02  0.7546771E-02  0.1342183E+00
          2   -1    0    0  502    0  0.00000000000E+00  0.00000000000E+00  0.69371615989E+03  0.69371615989E+03  0.00000000000E+00 0. -1.
          2   -1    0    0  503    0 -0.00000000000E+00 -0.00000000000E+00 -0.31156910898E+04  0.31156910898E+04  0.00000000000E+00 0. -1.
         24    2    1    2    0    0 -0.28027000583E+03  0.22108049717E+03 -0.15483080096E+04  0.15909791807E+04  0.80803455568E+02 0.  0.
         25    2    1    2    0    0 -0.12381598787E+03 -0.40079072286E+03  0.29603331958E+03  0.52841831968E+03  0.12500636741E+03 0.  0.
         24    2    1    2    0    0  0.37484309321E+03  0.11277002596E+03 -0.27946530231E+03  0.48544157876E+03  0.65789420974E+02 0.  0.
        -11    1    3    3    0    0 -0.21730378874E+03  0.15500717308E+03 -0.12811365841E+04  0.13086478164E+04  0.00000000000E+00 0.  1.
         12    1    3    3    0    0 -0.62966217094E+02  0.66073324088E+02 -0.26717142548E+03  0.28233136426E+03  0.00000000000E+00 0. -1.
        -13    1    5    5    0    0  0.47811626041E+02  0.32588431325E+02 -0.23378692055E+02  0.62406094919E+02  0.00000000000E+00 0.  1.
         14    1    5    5    0    0  0.32703146717E+03  0.80181594637E+02 -0.25608661025E+03  0.42303548384E+03  0.00000000000E+00 0. -1.
          5    1    4    4  501    0 -0.68477913881E+00  0.38805935889E+01 -0.60490760634E+01  0.86144791074E+01  0.47000000000E+01 0. -1.
         -5    1    4    4    0  501 -0.12313120873E+03 -0.40467131645E+03  0.30208239564E+03  0.51980384057E+03  0.47000000000E+01 0. -1.
          1    1    1    2  502    0 -0.28063316984E+02  0.88921296645E+02  0.14234454379E+03  0.17016614206E+03  0.00000000000E+00 0. -1.
          1    1    1    2  503    0  0.57306217468E+02 -0.21981096914E+02 -0.10325794814E+04  0.10344020285E+04  0.00000000000E+00 0. -1.
<mgrwt>
<rscale>  0 0.75547759E+02</rscale>
<asrwt>0</asrwt>
<pdfrwt beam="1">  1        2 0.10201708E+00 0.92989839E+02</pdfrwt>
<pdfrwt beam="2">  1        2 0.45818986E+00 0.61377286E+02</pdfrwt>
<totfact> 0.19524000E+01</totfact>
</mgrwt>
</event>
<event>
13    1  0.2038932E-008  0.1448693E+03  0.7546771E-02  0.1289540E+00
          2   -1    0    0  502    0  0.00000000000E+00  0.00000000000E+00  0.20542133293E+04  0.20542133293E+04  0.00000000000E+00 0. -1.
          2   -1    0    0  503    0 -0.00000000000E+00 -0.00000000000E+00 -0.93422037562E+03  0.93422037562E+03  0.00000000000E+00 0. -1.
         24    2    1    2    0    0  0.18517114447E+02 -0.47677003319E+02 -0.11643976123E+03  0.15212177266E+03  0.83467571847E+02 0.  0.
         25    2    1    2    0    0  0.26131015444E+02 -0.27151408210E+02 -0.95787485416E+02  0.16194550466E+03  0.12502429837E+03 0.  0.
         24    2    1    2    0    0  0.24221191639E+02 -0.31526117044E+02  0.31810687272E+02  0.10192818371E+03  0.88299901642E+02 0.  0.
        -11    1    3    3    0    0 -0.25685610613E+02 -0.29767324259E+02 -0.19067784993E+02  0.43696963403E+02  0.00000000000E+00 0.  1.
         12    1    3    3    0    0  0.44202725060E+02 -0.17909679060E+02 -0.97371976237E+02  0.10842480926E+03  0.00000000000E+00 0. -1.
        -11    1    5    5    0    0  0.48729269003E+02 -0.41440997715E+02  0.38496250573E+02  0.74658283247E+02  0.00000000000E+00 0.  1.
         12    1    5    5    0    0 -0.24508077364E+02  0.99148806706E+01 -0.66855633016E+01  0.27269900466E+02  0.00000000000E+00 0. -1.
          5    1    4    4  501    0  0.30963107557E+02 -0.70961653040E+02 -0.87360824866E+02  0.11682582742E+03  0.47000000000E+01 0. -1.
         -5    1    4    4    0  501 -0.48320921130E+01  0.43810244830E+02 -0.84266605501E+01  0.45119677241E+02  0.47000000000E+01 0.  1.
          1    1    1    2  502    0 -0.12516888401E+03  0.77509296096E+02  0.19320433607E+04  0.19376445722E+04  0.00000000000E+00 0. -1.
          1    1    1    2  503    0  0.56299562484E+02  0.28845232477E+02 -0.63163384763E+03  0.63479367171E+03  0.00000000000E+00 0. -1.
<mgrwt>
<rscale>  0 0.95730219E+02</rscale>
<asrwt>0</asrwt>
<pdfrwt beam="1">  1        2 0.30209020E+00 0.14486934E+03</pdfrwt>
<pdfrwt beam="2">  1        2 0.13738535E+00 0.63258898E+02</pdfrwt>
<totfact> 0.42332739E+01</totfact>
</mgrwt>
</event>
<event>
13    1  0.2038932E-008  0.5891229E+02  0.7546771E-02  0.1528885E+00
          2   -1    0    0  503    0  0.00000000000E+00  0.00000000000E+00  0.18579123483E+04  0.18579123483E+04  0.00000000000E+00 0. -1.
         -1   -1    0    0    0  501 -0.00000000000E+00 -0.00000000000E+00 -0.12696320821E+04  0.12696320821E+04  0.00000000000E+00 0.  1.
         24    2    1    2    0    0  0.31508667440E+03  0.33616777179E+02 -0.32835757873E+03  0.46362252654E+03  0.81960036091E+02 0.  0.
         25    2    1    2    0    0  0.83225143048E+02 -0.47988273828E+03  0.16137200445E+03  0.52809063792E+03  0.12499972441E+03 0.  0.
         24    2    1    2    0    0 -0.41736131432E+03  0.48130244065E+03 -0.54885297644E+02  0.64442999076E+03  0.80219143764E+02 0.  0.
        -13    1    3    3    0    0  0.15816443444E+03  0.37359114619E+01 -0.10841328001E+03  0.19178994927E+03  0.00000000000E+00 0.  1.
         14    1    3    3    0    0  0.15692223995E+03  0.29880865718E+02 -0.21994429872E+03  0.27183257727E+03  0.00000000000E+00 0. -1.
        -13    1    5    5    0    0 -0.13748748674E+03  0.17625014491E+03 -0.55998114126E+02  0.23044025554E+03  0.00000000000E+00 0.  1.
         14    1    5    5    0    0 -0.27987382759E+03  0.30505229575E+03  0.11128164822E+01  0.41398973522E+03  0.00000000000E+00 0. -1.
          5    1    4    4  502    0  0.80870946405E+02 -0.25789603430E+03  0.14160623675E+03  0.30516371142E+03  0.47000000000E+01 0.  1.
         -5    1    4    4    0  502  0.23541966427E+01 -0.22198670397E+03  0.19765767692E+02  0.22292692649E+03  0.47000000000E+01 0.  1.
          1    1    1    2  503    0  0.12168176876E+02 -0.57659125527E+02  0.11496102378E+04  0.11511196020E+04  0.00000000000E+00 0. -1.
         -2    1    1    2    0  501  0.68813200038E+01  0.22622645973E+02 -0.33945909971E+03  0.34028167310E+03  0.00000000000E+00 0.  1.
<mgrwt>
<rscale>  0 0.37323508E+02</rscale>
<asrwt>0</asrwt>
<pdfrwt beam="1">  1        2 0.27322241E+00 0.58912291E+02</pdfrwt>
<pdfrwt beam="2">  1       -1 0.18671060E+00 0.23646071E+02</pdfrwt>
<totfact> 0.32835506E+00</totfact>
</mgrwt>
</event>
<event>
13    1  0.2038932E-008  0.1162251E+03  0.7546771E-02  0.1322119E+00
          2   -1    0    0  503    0  0.00000000000E+00  0.00000000000E+00  0.33519369373E+04  0.33519369373E+04  0.00000000000E+00 0. -1.
         -1   -1    0    0    0  501 -0.00000000000E+00 -0.00000000000E+00 -0.38831451504E+03  0.38831451504E+03  0.00000000000E+00 0.  1.
         24    2    1    2    0    0  0.58741983355E+02 -0.19454104513E+02  0.11785402293E+03  0.15834891619E+03  0.85765527735E+02 0.  0.
         25    2    1    2    0    0  0.10173741302E+03 -0.15005192926E+02  0.57038425804E+03  0.59290804952E+03  0.12500438528E+03 0.  0.
         24    2    1    2    0    0 -0.13076329709E+03 -0.26835078847E+02  0.26903858391E+02  0.15724566262E+03  0.78633450224E+02 0.  0.
        -11    1    3    3    0    0  0.63764893127E+02 -0.46003779182E+02  0.84501301370E+02  0.11542434417E+03  0.00000000000E+00 0.  1.
         12    1    3    3    0    0 -0.50229097719E+01  0.26549674669E+02  0.33352721556E+02  0.42924572017E+02  0.00000000000E+00 0. -1.
        -11    1    5    5    0    0 -0.11237135307E+03 -0.50727560761E+02  0.12784013046E+02  0.12395175433E+03  0.00000000000E+00 0.  1.
         12    1    5    5    0    0 -0.18391944022E+02  0.23892481914E+02  0.14119845345E+02  0.33293908294E+02  0.00000000000E+00 0. -1.
          5    1    4    4  502    0  0.24098674443E+02  0.29805777832E+02  0.38502565954E+03  0.38695733486E+03  0.47000000000E+01 0. -1.
         -5    1    4    4    0  502  0.77638738577E+02 -0.44810970758E+02  0.18535859851E+03  0.20595071466E+03  0.47000000000E+01 0. -1.
          1    1    1    2  503    0 -0.11737452159E+02  0.11701816348E+03  0.25357989803E+04  0.25385246673E+04  0.00000000000E+00 0. -1.
         -2    1    1    2    0  501 -0.17978647125E+02 -0.55723787194E+02 -0.28731869735E+03  0.29322415668E+03  0.00000000000E+00 0.  1.
<mgrwt>
<rscale>  0 0.82493927E+02</rscale>
<asrwt>0</asrwt>
<pdfrwt beam="1">  1        2 0.49293189E+00 0.11622511E+03</pdfrwt>
<pdfrwt beam="2">  1       -1 0.57105078E-01 0.58552303E+02</pdfrwt>
<totfact> 0.67807469E+00</totfact>
</mgrwt>
</event>
<event>
13    1  0.2038932E-008  0.1483073E+03  0.7546771E-02  0.1335154E+00
          2   -1    0    0  502    0  0.00000000000E+00  0.00000000000E+00  0.97233384884E+03  0.97233384884E+03  0.00000000000E+00 0. -1.
          2   -1    0    0  503    0 -0.00000000000E+00 -0.00000000000E+00 -0.13214107280E+04  0.13214107280E+04  0.00000000000E+00 0. -1.
         24    2    1    2    0    0  0.18592665118E+02  0.11641141347E+03 -0.75743393811E+03  0.77077691958E+03  0.80582782121E+02 0.  0.
         25    2    1    2    0    0 -0.23920231799E+03 -0.52950217421E+02  0.29021846000E+03  0.39983758565E+03  0.12498746306E+03 0.  0.
         24    2    1    2    0    0  0.65873042461E+02  0.52609092136E+02 -0.21734230114E+02  0.11753659034E+03  0.78965175947E+02 0.  0.
        -11    1    5    5    0    0  0.50691642193E+02  0.63804726101E+02  0.84664489921E+01  0.81929032824E+02  0.00000000000E+00 0.  1.
         12    1    5    5    0    0  0.15181400268E+02 -0.11195633964E+02 -0.30200679106E+02  0.35607557518E+02  0.00000000000E+00 0. -1.
        -11    1    3    3    0    0  0.25015134609E+02 -0.77349652762E+00 -0.15676531048E+03  0.15875048922E+03  0.00000000000E+00 0.  1.
         12    1    3    3    0    0 -0.64224694906E+01  0.11718491000E+03 -0.60066862763E+03  0.61202643037E+03  0.00000000000E+00 0. -1.
          5    1    4    4  501    0 -0.13873829675E+03 -0.42137611031E+02  0.77923575369E+02  0.16467564133E+03  0.47000000000E+01 0.  1.
         -5    1    4    4    0  501 -0.10046402124E+03 -0.10812606389E+02  0.21229488463E+03  0.23516194433E+03  0.47000000000E+01 0.  1.
          1    1    1    2  502    0  0.21798451495E+02 -0.34612906160E+02  0.55792098473E+03  0.55941849358E+03  0.00000000000E+00 0. -1.
          1    1    1    2  503    0  0.13293815891E+03 -0.81457382026E+02 -0.41804815571E+03  0.44617498773E+03  0.00000000000E+00 0. -1.
<mgrwt>
<rscale>  0 0.77887873E+02</rscale>
<asrwt>0</asrwt>
<pdfrwt beam="1">  1        2 0.14299027E+00 0.40905082E+02</pdfrwt>
<pdfrwt beam="2">  1        2 0.19432511E+00 0.14830726E+03</pdfrwt>
<totfact> 0.95007815E+01</totfact>
</mgrwt>
</event>
<event>
13    1  0.2038932E-008  0.7079615E+02  0.7546771E-02  0.1443938E+00
          2   -1    0    0  502    0  0.00000000000E+00  0.00000000000E+00  0.13497076963E+04  0.13497076963E+04  0.00000000000E+00 0. -1.
          2   -1    0    0  503    0 -0.00000000000E+00 -0.00000000000E+00 -0.23644968422E+04  0.23644968422E+04  0.00000000000E+00 0. -1.
         24    2    1    2    0    0 -0.11454512221E+03 -0.71482412238E+01 -0.18090066529E+03  0.22882448046E+03  0.80398443896E+02 0.  0.
         25    2    1    2    0    0 -0.11285548506E+03  0.21798142670E+03  0.61008125110E+02  0.28213399769E+03  0.12500135370E+03 0.  0.
         24    2    1    2    0    0  0.13638851991E+03 -0.15826673668E+03 -0.79340050287E+03  0.82440715085E+03  0.80700707053E+02 0.  0.
        -11    1    3    3    0    0 -0.15860452378E+02  0.30601684737E+02 -0.44140140900E+02  0.56003295412E+02  0.00000000000E+00 0.  1.
         12    1    3    3    0    0 -0.98684669831E+02 -0.37749925961E+02 -0.13676052439E+03  0.17282118505E+03  0.00000000000E+00 0. -1.
        -13    1    5    5    0    0  0.83880899191E+02 -0.36813659748E+02 -0.33310976002E+03  0.34547556066E+03  0.00000000000E+00 0.  1.
         14    1    5    5    0    0  0.52507620719E+02 -0.12145307693E+03 -0.46029074285E+03  0.47893159019E+03  0.00000000000E+00 0. -1.
          5    1    4    4  501    0 -0.97323718174E+02  0.23086407672E+03  0.42123153345E+02  0.25409954366E+03  0.47000000000E+01 0. -1.
         -5    1    4    4    0  501 -0.15531766889E+02 -0.12882650019E+02  0.18884971765E+02  0.28034454030E+02  0.47000000000E+01 0. -1.
          1    1    1    2  502    0  0.56914786673E+02 -0.42049308501E+02  0.11373148577E+04  0.11395141609E+04  0.00000000000E+00 0. -1.
          1    1    1    2  503    0  0.34097300690E+02 -0.10517140293E+02 -0.12388109606E+04  0.12393247485E+04  0.00000000000E+00 0. -1.
<mgrwt>
<rscale>  0 0.50261109E+02</rscale>
<asrwt>0</asrwt>
<pdfrwt beam="1">  1        2 0.19848643E+00 0.70796152E+02</pdfrwt>
<pdfrwt beam="2">  1        2 0.34772012E+00 0.35682435E+02</pdfrwt>
<totfact> 0.21209915E+01</totfact>
</mgrwt>
</event>
<event>
13    1  0.2038932E-008  0.5860525E+02  0.7546771E-02  0.1406680E+00
          2   -1    0    0  503    0  0.00000000000E+00  0.00000000000E+00  0.19517985076E+04  0.19517985076E+04  0.00000000000E+00 0. -1.
          2   -1    0    0  502    0 -0.00000000000E+00 -0.00000000000E+00 -0.94275340837E+03  0.94275340837E+03  0.00000000000E+00 0. -1.
         24    2    1    2    0    0 -0.58622608487E+02 -0.48845452520E+02 -0.58888315357E+02  0.12433266091E+03  0.78538451886E+02 0.  0.
         25    2    1    2    0    0 -0.98302854314E+02  0.93922569051E+02  0.14962404171E+03  0.23769339261E+03  0.12500357951E+03 0.  0.
         24    2    1    2    0    0  0.75392597012E+02  0.12898017143E+02 -0.10163564828E+03  0.15519716589E+03  0.88915424804E+02 0.  0.
        -11    1    5    5    0    0  0.36852161291E+02  0.42102582784E+02 -0.18337980230E+02  0.58881158173E+02  0.00000000000E+00 0.  1.
         12    1    5    5    0    0  0.38540435722E+02 -0.29204565640E+02 -0.83297668046E+02  0.96316007713E+02  0.00000000000E+00 0. -1.
        -13    1    3    3    0    0  0.21381873589E+01 -0.48170665000E+02 -0.32096587635E+02  0.57923878923E+02  0.00000000000E+00 0.  1.
         14    1    3    3    0    0 -0.60760795845E+02 -0.67478751935E+00 -0.26791727722E+02  0.66408781982E+02  0.00000000000E+00 0. -1.
          5    1    4    4  501    0  0.22919069976E+02 -0.89606978073E+01  0.14263230329E+02  0.28828937080E+02  0.47000000000E+01 0.  1.
         -5    1    4    4    0  501 -0.12122192429E+03  0.10288326686E+03  0.13536081138E+03  0.20886445553E+03  0.47000000000E+01 0.  1.
          1    1    1    2  502    0  0.58189766272E+02 -0.56620637615E+01 -0.67694853316E+03  0.67946848670E+03  0.00000000000E+00 0. -1.
          1    1    1    2  503    0  0.23343099516E+02 -0.52313069913E+02  0.16968935543E+04  0.16978602098E+04  0.00000000000E+00 0. -1.
<mgrwt>
<rscale>  0 0.57941307E+02</rscale>
<asrwt>0</asrwt>
<pdfrwt beam="1">  1        2 0.28702919E+00 0.57284881E+02</pdfrwt>
<pdfrwt beam="2">  1        2 0.13864021E+00 0.58605255E+02</pdfrwt>
<totfact> 0.51841385E+01</totfact>
</mgrwt>
</event>
<event>
13    1  0.2038932E-008  0.1011667E+03  0.7546771E-02  0.1283962E+00
          2   -1    0    0  502    0  0.00000000000E+00  0.00000000000E+00  0.28506372172E+04  0.28506372172E+04  0.00000000000E+00 0. -1.
          2   -1    0    0  503    0 -0.00000000000E+00 -0.00000000000E+00 -0.47994386107E+03  0.47994386107E+03  0.00000000000E+00 0. -1.
         24    2    1    2    0    0 -0.18309484168E+03  0.95932617335E+02 -0.13935480059E+03  0.26145746350E+03  0.78825482288E+02 0.  0.
         25    2    1    2    0    0 -0.40074821547E+02  0.56456073132E+02  0.61210958680E+03  0.62856667643E+03  0.12499856376E+03 0.  0.
         24    2    1    2    0    0  0.14699755593E+03 -0.32980714883E+02  0.83387784723E+02  0.18950804119E+03  0.79143957644E+02 0.  0.
        -11    1    5    5    0    0  0.24126293156E+02  0.19898516042E+02  0.35782382427E+02  0.47522708827E+02  0.00000000000E+00 0.  1.
         12    1    5    5    0    0  0.12287126277E+03 -0.52879230925E+02  0.47605402296E+02  0.14198533236E+03  0.00000000000E+00 0. -1.
        -13    1    3    3    0    0 -0.12412577632E+03  0.21032160109E+02 -0.79761700187E+02  0.14903519357E+03  0.00000000000E+00 0.  1.
         14    1    3    3    0    0 -0.58969065355E+02  0.74900457226E+02 -0.59593100398E+02  0.11242226993E+03  0.00000000000E+00 0. -1.
          5    1    4    4  501    0 -0.20497643652E+02  0.22837662203E+01  0.51590030329E+03  0.51633378925E+03  0.47000000000E+01 0. -1.
         -5    1    4    4    0  501 -0.19577177895E+02  0.54172306911E+02  0.96209283510E+02  0.11223288718E+03  0.47000000000E+01 0. -1.
          1    1    1    2  502    0 -0.17234539963E+02 -0.99669545710E+02  0.20210338314E+04  0.20235633905E+04  0.00000000000E+00 0. -1.
          1    1    1    2  503    0  0.93406647257E+02 -0.19738429874E+02 -0.20648304621E+03  0.22748550665E+03  0.00000000000E+00 0. -1.
<mgrwt>
<rscale>  0 0.98276767E+02</rscale>
<asrwt>0</asrwt>
<pdfrwt beam="1">  1        2 0.41921135E+00 0.10116668E+03</pdfrwt>
<pdfrwt beam="2">  1        2 0.70579981E-01 0.95469405E+02</pdfrwt>
<totfact> 0.37336885E+01</totfact>
</mgrwt>
</event>
<event>
13    1  0.2038932E-008  0.4742727E+02  0.7546771E-02  0.1479245E+00
          2   -1    0    0  503    0  0.00000000000E+00  0.00000000000E+00  0.36205207385E+04  0.36205207385E+04  0.00000000000E+00 0. -1.
          2   -1    0    0  502    0 -0.00000000000E+00 -0.00000000000E+00 -0.22994588858E+04  0.22994588858E+04  0.00000000000E+00 0. -1.
         24    2    1    2    0    0  0.13516984021E+04 -0.83722008182E+03 -0.62128548856E+03  0.17089592402E+04  0.80746458713E+02 0.  0.
         25    2    1    2    0    0 -0.14663131604E+03  0.28307155409E+03  0.23919066428E+03  0.41769588302E+03  0.12500971658E+03 0.  0.
         24    2    1    2    0    0 -0.11207299640E+04  0.54235087539E+03  0.43251035362E+03  0.13196158801E+04  0.64348587431E+02 0.  0.
        -11    1    5    5    0    0 -0.21041647197E+03  0.13031728523E+03  0.86221049245E+02  0.26209112125E+03  0.00000000000E+00 0.  1.
         12    1    5    5    0    0 -0.91031349202E+03  0.41203359016E+03  0.34628930438E+03  0.10575247588E+04  0.00000000000E+00 0. -1.
        -13    1    3    3    0    0  0.10153738607E+04 -0.65310953297E+03 -0.44148400301E+03  0.12854743342E+04  0.00000000000E+00 0.  1.
         14    1    3    3    0    0  0.33632454138E+03 -0.18411054885E+03 -0.17980148555E+03  0.42348490591E+03  0.00000000000E+00 0. -1.
          5    1    4    4  501    0 -0.83948611697E+02  0.94560857105E+02  0.15950296939E+03  0.20359865507E+03  0.47000000000E+01 0. -1.
         -5    1    4    4    0  501 -0.62682704341E+02  0.18851069698E+03  0.79687694893E+02  0.21409722795E+03  0.47000000000E+01 0. -1.
          1    1    1    2  502    0 -0.47050610081E+02 -0.58155204714E+01 -0.60036949834E+03  0.60223842017E+03  0.00000000000E+00 0. -1.
          1    1    1    2  503    0 -0.37286511987E+02  0.17613172813E+02  0.18710158217E+04  0.18714702009E+04  0.00000000000E+00 0. -1.
<mgrwt>
<rscale>  0 0.44224070E+02</rscale>
<asrwt>0</asrwt>
<pdfrwt beam="1">  1        2 0.53242952E+00 0.41237214E+02</pdfrwt>
<pdfrwt beam="2">  1        2 0.33815572E+00 0.47427266E+02</pdfrwt>
<totfact> 0.17221279E+00</totfact>
</mgrwt>
</event>
<event>
13    1  0.2038932E-008  0.1200382E+03  0.7546771E-02  0.1291894E+00
          2   -1    0    0  502    0  0.00000000000E+00  0.00000000000E+00  0.12671475146E+04  0.12671475146E+04  0.00000000000E+00 0. -1.
          2   -1    0    0  503    0 -0.00000000000E+00 -0.00000000000E+00 -0.15084599985E+04  0.15084599985E+04  0.00000000000E+00 0. -1.
         24    2    1    2    0    0  0.34139738433E+02  0.29358590344E+01 -0.52169347351E+03  0.52583170061E+03  0.56220601715E+02 0.  0.
         25    2    1    2    0    0  0.27184039462E+02  0.37808700222E+03  0.12232432383E+03  0.41746689266E+03  0.12500645191E+03 0.  0.
         24    2    1    2    0    0  0.28970463263E+02 -0.10251644774E+03 -0.39881608896E+02  0.14126131708E+03  0.83757430573E+02 0.  0.
        -13    1    3    3    0    0  0.12841170185E+02  0.25255577373E+02 -0.13676716971E+03  0.13967103691E+03  0.00000000000E+00 0.  1.
         14    1    3    3    0    0  0.21298568248E+02 -0.22319718339E+02 -0.38492630380E+03  0.38616066370E+03  0.00000000000E+00 0. -1.
        -13    1    5    5    0    0  0.45338133749E+02 -0.26346842282E+02  0.26406513409E+01  0.52504052316E+02  0.00000000000E+00 0.  1.
         14    1    5    5    0    0 -0.16367670486E+02 -0.76169605459E+02 -0.42522260237E+02  0.88757264765E+02  0.00000000000E+00 0. -1.
          5    1    4    4  501    0  0.52793664311E+02  0.26218332391E+03  0.34431088054E+02  0.26969400467E+03  0.47000000000E+01 0. -1.
         -5    1    4    4    0  501 -0.25609624849E+02  0.11590367830E+03  0.87893235780E+02  0.14777288799E+03  0.47000000000E+01 0. -1.
          1    1    1    2  502    0 -0.20761122305E+02 -0.71757668848E+02  0.92702522048E+03  0.93003007835E+03  0.00000000000E+00 0. -1.
          1    1    1    2  503    0 -0.69533118852E+02 -0.20674874466E+03 -0.72908694579E+03  0.76101752448E+03  0.00000000000E+00 0. -1.
<mgrwt>
<rscale>  0 0.94682004E+02</rscale>
<asrwt>0</asrwt>
<pdfrwt beam="1">  1        2 0.18634522E+00 0.74681887E+02</pdfrwt>
<pdfrwt beam="2">  1        2 0.22183235E+00 0.12003823E+03</pdfrwt>
<totfact> 0.52151627E+01</totfact>
</mgrwt>
</event>
<event>
13    1  0.2038932E-008  0.8719404E+02  0.7546771E-02  0.1379018E+00
          2   -1    0    0  503    0  0.00000000000E+00  0.00000000000E+00  0.16995429419E+04  0.16995429419E+04  0.00000000000E+00 0. -1.
          2   -1    0    0  502    0 -0.00000000000E+00 -0.00000000000E+00 -0.15821718683E+04  0.15821718683E+04  0.00000000000E+00 0. -1.
         24    2    1    2    0    0  0.91632499830E+02 -0.10865066079E+02 -0.57623785546E+03  0.58910230635E+03  0.80479168660E+02 0.  0.
         25    2    1    2    0    0 -0.10687628054E+03  0.56494999206E+02  0.50109570851E+03  0.53041209466E+03  0.12500342713E+03 0.  0.
         24    2    1    2    0    0  0.51594779085E+02 -0.69606858350E+02 -0.15705858733E+03  0.19699802045E+03  0.81447432416E+02 0.  0.
        -13    1    5    5    0    0  0.12965756330E+02 -0.61230898426E+01  0.76856791443E+01  0.16268765483E+02  0.00000000000E+00 0.  1.
         14    1    5    5    0    0  0.38629022755E+02 -0.63483768507E+02 -0.16474426648E+03  0.18072925497E+03  0.00000000000E+00 0. -1.
        -13    1    3    3    0    0  0.84465537405E+02 -0.23517067650E+02 -0.30176326615E+03  0.31424281738E+03  0.00000000000E+00 0.  1.
         14    1    3    3    0    0  0.71669624251E+01  0.12652001572E+02 -0.27447458931E+03  0.27485948896E+03  0.00000000000E+00 0. -1.
          5    1    4    4  501    0  0.47998348678E+01  0.61623139510E+02  0.18209733401E+03  0.19235898418E+03  0.47000000000E+01 0. -1.
         -5    1    4    4    0  501 -0.11167611541E+03 -0.51281403045E+01  0.31899837450E+03  0.33805311049E+03  0.47000000000E+01 0. -1.
          1    1    1    2  502    0 -0.84378156184E+02  0.22760647957E+02 -0.80495055488E+03  0.80968087302E+03  0.00000000000E+00 0. -1.
          1    1    1    2  503    0  0.48027157812E+02  0.12162772662E+01  0.11545223628E+04  0.11555215158E+04  0.00000000000E+00 0. -1.
<mgrwt>
<rscale>  0 0.64722674E+02</rscale>
<asrwt>0</asrwt>
<pdfrwt beam="1">  1        2 0.24993279E+00 0.48042556E+02</pdfrwt>
<pdfrwt beam="2">  1        2 0.23267233E+00 0.87194038E+02</pdfrwt>
<totfact> 0.31436918E+01</totfact>
</mgrwt>
</event>
<event>
13    1  0.2038932E-008  0.9718142E+02  0.7546771E-02  0.1320544E+00
          2   -1    0    0  503    0  0.00000000000E+00  0.00000000000E+00  0.38113992055E+04  0.38113992055E+04  0.00000000000E+00 0. -1.
         -1   -1    0    0    0  501 -0.00000000000E+00 -0.00000000000E+00 -0.99688113616E+03  0.99688113616E+03  0.00000000000E+00 0.  1.
         24    2    1    2    0    0  0.33942270213E+02  0.13007283574E+02 -0.35399383733E+03  0.36142137913E+03  0.63186306183E+02 0.  0.
         25    2    1    2    0    0  0.14117819698E+03  0.63211766031E+02  0.78498073950E+03  0.80978252052E+03  0.12500383387E+03 0.  0.
         24    2    1    2    0    0 -0.16568328028E+02  0.45586615921E+02 -0.58263821936E+02  0.10712774011E+03  0.75690360747E+02 0.  0.
        -11    1    5    5    0    0 -0.29448311746E+02  0.25236976405E+02 -0.70236506118E+02  0.80232629487E+02  0.00000000000E+00 0.  1.
         12    1    5    5    0    0  0.12879983718E+02  0.20349639516E+02  0.11972684182E+02  0.26895110625E+02  0.00000000000E+00 0. -1.
        -13    1    3    3    0    0  0.39777560648E+02 -0.47417181498E+01 -0.11652270426E+03  0.12321639027E+03  0.00000000000E+00 0.  1.
         14    1    3    3    0    0 -0.58352904345E+01  0.17749001724E+02 -0.23747113307E+03  0.23820498886E+03  0.00000000000E+00 0. -1.
          5    1    4    4  502    0  0.93192310989E+02  0.99560575303E+02  0.48755919429E+03  0.50629356397E+03  0.47000000000E+01 0. -1.
         -5    1    4    4    0  502  0.47985885986E+02 -0.36348809272E+02  0.29742154521E+03  0.30348895655E+03  0.47000000000E+01 0. -1.
          1    1    1    2  503    0 -0.67064664141E+01 -0.70699527799E+02  0.29736439757E+04  0.29744918716E+04  0.00000000000E+00 0. -1.
         -2    1    1    2    0  501 -0.15184567275E+03 -0.51106137728E+02 -0.53184898666E+03  0.55545683024E+03  0.00000000000E+00 0.  1.
<mgrwt>
<rscale>  0 0.83075405E+02</rscale>
<asrwt>0</asrwt>
<pdfrwt beam="1">  1        2 0.56049988E+00 0.71016899E+02</pdfrwt>
<pdfrwt beam="2">  1       -1 0.14660017E+00 0.97181419E+02</pdfrwt>
<totfact> 0.52003162E-01</totfact>
</mgrwt>
</event>
<event>
13    1  0.2038932E-008  0.4517989E+02  0.7546771E-02  0.1524986E+00
          2   -1    0    0  502    0  0.00000000000E+00  0.00000000000E+00  0.59169691717E+03  0.59169691717E+03  0.00000000000E+00 0. -1.
          2   -1    0    0  503    0 -0.00000000000E+00 -0.00000000000E+00 -0.20084238231E+04  0.20084238231E+04  0.00000000000E+00 0. -1.
         24    2    1    2    0    0 -0.25142218928E+03 -0.10419499979E+03 -0.16772425188E+04  0.17011721542E+04  0.82307449586E+02 0.  0.
         25    2    1    2    0    0  0.15598381145E+03  0.12877915523E+02  0.37994117193E+03  0.42950592677E+03  0.12499302722E+03 0.  0.
         24    2    1    2    0    0  0.24100687693E+02  0.83298785746E+02 -0.13450035934E+03  0.17943924152E+03  0.81169969091E+02 0.  0.
        -13    1    5    5    0    0  0.16728434280E+02  0.91285639918E+02 -0.76045968849E+02  0.11998290689E+03  0.00000000000E+00 0.  1.
         14    1    5    5    0    0  0.73722534126E+01 -0.79868541722E+01 -0.58454390489E+02  0.59456334628E+02  0.00000000000E+00 0. -1.
        -13    1    3    3    0    0  0.24426519647E+01 -0.10174599793E+02 -0.13038913504E+03  0.13080831612E+03  0.00000000000E+00 0.  1.
         14    1    3    3    0    0 -0.25386484124E+03 -0.94020399994E+02 -0.15468533837E+04  0.15703638381E+04  0.00000000000E+00 0. -1.
          5    1    4    4  501    0  0.25882341980E+02  0.51853644593E+01 -0.10299057939E+01  0.26831592142E+02  0.47000000000E+01 0. -1.
         -5    1    4    4    0  501  0.13010146947E+03  0.76925510636E+01  0.38097107773E+03  0.40267433462E+03  0.47000000000E+01 0. -1.
          1    1    1    2  502    0  0.30063747537E+02 -0.98620190493E+01  0.14713217528E+03  0.15049573196E+03  0.00000000000E+00 0. -1.
          1    1    1    2  503    0  0.41273942597E+02  0.17880317567E+02 -0.13205737504E+03  0.13950768579E+03  0.00000000000E+00 0. -1.
<mgrwt>
<rscale>  0 0.37808608E+02</rscale>
<asrwt>0</asrwt>
<pdfrwt beam="1">  1        2 0.87014252E-01 0.31639980E+02</pdfrwt>
<pdfrwt beam="2">  1        2 0.29535645E+00 0.45179890E+02</pdfrwt>
<totfact> 0.86769787E+01</totfact>
</mgrwt>
</event>
<event>
13    1  0.2038932E-008  0.1838274E+03  0.7546771E-02  0.1342605E+00
          2   -1    0    0  502    0  0.00000000000E+00  0.00000000000E+00  0.17690863814E+04  0.17690863814E+04  0.00000000000E+00 0. -1.
          4   -1    0    0  503    0 -0.00000000000E+00 -0.00000000000E+00 -0.93292443171E+03  0.93292443171E+03  0.00000000000E+00 0. -1.
         24    2    1    2    0    0  0.17345566372E+03  0.34050421007E+02 -0.18991935260E+03  0.26526583895E+03  0.55229578799E+02 0.  0.
         25    2    1    2    0    0 -0.68918748646E+02  0.29788224745E+03  0.25382162732E+03  0.41657592268E+03  0.12500581426E+03 0.  0.
         24    2    1    2    0    0 -0.27274902935E+03 -0.45704376452E+03 -0.27539160059E+03  0.60304119940E+03  0.67358138350E+02 0.  0.
        -11    1    5    5    0    0 -0.50086456841E+02 -0.61317053900E+02 -0.18370329511E+02  0.81276708005E+02  0.00000000000E+00 0.  1.
         12    1    5    5    0    0 -0.22266257250E+03 -0.39572671062E+03 -0.25702127108E+03  0.52176449139E+03  0.00000000000E+00 0. -1.
        -11    1    3    3    0    0  0.11335962524E+03  0.14906450904E+01 -0.14241466889E+03  0.18202902123E+03  0.00000000000E+00 0.  1.
         12    1    3    3    0    0  0.60096038479E+02  0.32559775917E+02 -0.47504683715E+02  0.83236817716E+02  0.00000000000E+00 0. -1.
          5    1    4    4  501    0  0.12049683775E+02  0.52860397800E+02  0.10597989500E+03  0.11913540481E+03  0.47000000000E+01 0.  1.
         -5    1    4    4    0  501 -0.80968432422E+02  0.24502184965E+03  0.14784173232E+03  0.29744051786E+03  0.47000000000E+01 0.  1.
          1    1    1    2  502    0  0.15610278407E+03  0.96644591109E+02  0.12241992267E+04  0.12378901416E+04  0.00000000000E+00 0. -1.
          3    1    1    2  503    0  0.12109330204E+02  0.28466504954E+02 -0.17654795114E+03  0.17923771041E+03  0.00000000000E+00 0. -1.
<mgrwt>
<rscale>  0 0.75410277E+02</rscale>
<asrwt>0</asrwt>
<pdfrwt beam="1">  1        2 0.26015976E+00 0.18382736E+03</pdfrwt>
<pdfrwt beam="2">  1        4 0.13719477E+00 0.30935057E+02</pdfrwt>
<totfact> 0.22121763E+00</totfact>
</mgrwt>
</event>
<event>
13    1  0.2038932E-008  0.3544081E+02  0.7546771E-02  0.1566991E+00
          2   -1    0    0  502    0  0.00000000000E+00  0.00000000000E+00  0.24193834146E+04  0.24193834146E+04  0.00000000000E+00 0. -1.
          4   -1    0    0  503    0 -0.00000000000E+00 -0.00000000000E+00 -0.16022148899E+04  0.16022148899E+04  0.00000000000E+00 0. -1.
         24    2    1    2    0    0  0.64793994177E+02 -0.21472590175E+03 -0.32976233021E+03  0.40705347478E+03  0.81509891076E+02 0.  0.
         25    2    1    2    0    0 -0.48975021883E+02  0.16195015301E+03  0.97603382581E+03  0.99844464771E+03  0.12499312218E+03 0.  0.
         24    2    1    2    0    0  0.28468721396E+02  0.10195550264E+03 -0.25576219329E+03  0.28822338400E+03  0.80330734769E+02 0.  0.
        -13    1    3    3    0    0  0.35641751920E+02 -0.32689398107E+02 -0.36225079499E+02  0.60425057825E+02  0.00000000000E+00 0.  1.
         14    1    3    3    0    0  0.29152242257E+02 -0.18203650364E+03 -0.29353725071E+03  0.34662841695E+03  0.00000000000E+00 0. -1.
        -13    1    5    5    0    0  0.15048948461E+02  0.10133630534E+03 -0.15021249227E+03  0.18182219463E+03  0.00000000000E+00 0.  1.
         14    1    5    5    0    0  0.13419772935E+02  0.61919730259E+00 -0.10554970103E+03  0.10640118936E+03  0.00000000000E+00 0. -1.
          5    1    4    4  501    0  0.20673936504E+02  0.46034838596E+02  0.52791215001E+03  0.53033946312E+03  0.47000000000E+01 0. -1.
         -5    1    4    4    0  501 -0.69648958387E+02  0.11591531442E+03  0.44812167579E+03  0.46810518458E+03  0.47000000000E+01 0. -1.
          1    1    1    2  502    0 -0.20551045905E+02 -0.22875148202E+02  0.13767661155E+04  0.13771094926E+04  0.00000000000E+00 0. -1.
          3    1    1    2  503    0 -0.23736647785E+02 -0.26304605701E+02 -0.95010689310E+03  0.95076730542E+03  0.00000000000E+00 0. -1.
<mgrwt>
<rscale>  0 0.33012677E+02</rscale>
<asrwt>0</asrwt>
<pdfrwt beam="1">  1        2 0.35579168E+00 0.30750901E+02</pdfrwt>
<pdfrwt beam="2">  1        4 0.23561984E+00 0.35440811E+02</pdfrwt>
<totfact> 0.32760134E-01</totfact>
</mgrwt>
</event>
<event>
13    1  0.2038932E-008  0.1465361E+03  0.7546771E-02  0.1250955E+00
          2   -1    0    0  503    0  0.00000000000E+00  0.00000000000E+00  0.11436156913E+04  0.11436156913E+04  0.00000000000E+00 0. -1.
          2   -1    0    0  502    0 -0.00000000000E+00 -0.00000000000E+00 -0.71841297274E+03  0.71841297274E+03  0.00000000000E+00 0. -1.
         24    2    1    2    0    0 -0.73371141583E+02  0.52285187528E+02 -0.19519812834E+03  0.22988155380E+03  0.81401192973E+02 0.  0.
         25    2    1    2    0    0  0.37122231618E+02 -0.17969639776E+03  0.65305333761E+03  0.68976292011E+03  0.12500147499E+03 0.  0.
         24    2    1    2    0    0 -0.23668850811E+02  0.18892623109E+03 -0.19467846323E+03  0.28384425378E+03  0.80090705242E+02 0.  0.
        -13    1    3    3    0    0 -0.40854323699E+02  0.55182100296E+02 -0.61238915706E+02  0.92001873649E+02  0.00000000000E+00 0.  1.
         14    1    3    3    0    0 -0.32516817885E+02 -0.28969127681E+01 -0.13395921263E+03  0.13787968015E+03  0.00000000000E+00 0. -1.
        -13    1    5    5    0    0  0.16827737658E+02  0.66597853736E+01 -0.78984711774E+01  0.19746172866E+02  0.00000000000E+00 0.  1.
         14    1    5    5    0    0 -0.40496588469E+02  0.18226644572E+03 -0.18677999205E+03  0.26409808091E+03  0.00000000000E+00 0. -1.
          5    1    4    4  501    0 -0.22092733520E+02 -0.91416127598E+02  0.45794513166E+03  0.46752628896E+03  0.47000000000E+01 0.  1.
         -5    1    4    4    0  501  0.59214965138E+02 -0.88280270165E+02  0.19510820595E+03  0.22223663115E+03  0.47000000000E+01 0.  1.
          1    1    1    2  502    0 -0.89248857713E+02 -0.16799384451E+02 -0.22431152479E+03  0.24199842577E+03  0.00000000000E+00 0. -1.
          1    1    1    2  503    0  0.14916661849E+03 -0.44715636407E+02  0.38633749730E+03  0.41654151057E+03  0.00000000000E+00 0. -1.
<mgrwt>
<rscale>  0 0.11535965E+03</rscale>
<asrwt>0</asrwt>
<pdfrwt beam="1">  1        2 0.16817878E+00 0.14653610E+03</pdfrwt>
<pdfrwt beam="2">  1        2 0.10564897E+00 0.90816177E+02</pdfrwt>
<totfact> 0.16507968E+02</totfact>
</mgrwt>
</event>
<event>
13    1  0.2038932E-008  0.2259374E+03  0.7546771E-02  0.1274206E+00
          2   -1    0    0  503    0  0.00000000000E+00  0.00000000000E+00  0.23962515496E+04  0.23962515496E+04  0.00000000000E+00 0. -1.
          2   -1    0    0  502    0 -0.00000000000E+00 -0.00000000000E+00 -0.10052900316E+04  0.10052900316E+04  0.00000000000E+00 0. -1.
         24    2    1    2    0    0 -0.33092712904E+02 -0.47676876119E+02 -0.61626378610E+03  0.62357327313E+03  0.75460988262E+02 0.  0.
         25    2    1    2    0    0  0.53311183521E+02  0.18034213937E+03  0.33595665840E+03  0.40479063994E+03  0.12499286516E+03 0.  0.
         24    2    1    2    0    0 -0.19992751105E+03  0.29732163941E+02  0.11966901456E+04  0.12163143523E+04  0.80611959030E+02 0.  0.
        -13    1    3    3    0    0 -0.74265815997E+01  0.18542126044E+02 -0.22755682734E+03  0.22843177148E+03  0.00000000000E+00 0.  1.
         14    1    3    3    0    0 -0.25666131305E+02 -0.66219002164E+02 -0.38870695876E+03  0.39514150166E+03  0.00000000000E+00 0. -1.
        -13    1    5    5    0    0 -0.47695332293E+02 -0.35271256972E+01  0.13438269409E+03  0.14263938379E+03  0.00000000000E+00 0.  1.
         14    1    5    5    0    0 -0.15223217876E+03  0.33259289638E+02  0.10623074515E+04  0.10736749685E+04  0.00000000000E+00 0. -1.
          5    1    4    4  501    0  0.68329632587E+02  0.16768343476E+03  0.33900982159E+03  0.38436495953E+03  0.47000000000E+01 0.  1.
         -5    1    4    4    0  501 -0.15018449065E+02  0.12658704612E+02 -0.30531631898E+01  0.20425680411E+02  0.47000000000E+01 0.  1.
          1    1    1    2  502    0 -0.78304434553E+00  0.46906223299E+02 -0.31595027257E+03  0.31941412254E+03  0.00000000000E+00 0. -1.
          1    1    1    2  503    0  0.18049208478E+03 -0.20930365049E+03  0.79052877269E+03  0.83744919322E+03  0.00000000000E+00 0. -1.
<mgrwt>
<rscale>  0 0.10295313E+03</rscale>
<asrwt>0</asrwt>
<pdfrwt beam="1">  1        2 0.35238993E+00 0.22593741E+03</pdfrwt>
<pdfrwt beam="2">  1        2 0.14783677E+00 0.46912759E+02</pdfrwt>
<totfact> 0.25182549E+01</totfact>
</mgrwt>
</event>
<event>
13    1  0.2038932E-008  0.8635455E+02  0.7546771E-02  0.1335884E+00
          2   -1    0    0  503    0  0.00000000000E+00  0.00000000000E+00  0.30325580379E+04  0.30325580379E+04  0.00000000000E+00 0. -1.
          2   -1    0    0  502    0 -0.00000000000E+00 -0.00000000000E+00 -0.25041255743E+04  0.25041255743E+04  0.00000000000E+00 0. -1.
         24    2    1    2    0    0  0.85269853539E+03 -0.11128538808E+03 -0.87764572388E+03  0.12314292773E+04  0.81711801494E+02 0.  0.
         25    2    1    2    0    0 -0.14048357871E+02  0.20752066114E+03 -0.51506474943E+03  0.56936758706E+03  0.12500228770E+03 0.  0.
         24    2    1    2    0    0 -0.76678511441E+03 -0.57938355432E+02  0.21107592653E+03  0.80162245063E+03  0.82031956491E+02 0.  0.
        -13    1    5    5    0    0 -0.35857278856E+03 -0.44195608113E+02  0.60552177621E+02  0.36632535086E+03  0.00000000000E+00 0.  1.
         14    1    5    5    0    0 -0.40821232585E+03 -0.13742747319E+02  0.15052374890E+03  0.43529709977E+03  0.00000000000E+00 0. -1.
        -13    1    3    3    0    0  0.38484178746E+03 -0.39130079517E+02 -0.33924347842E+03  0.51450996312E+03  0.00000000000E+00 0.  1.
         14    1    3    3    0    0  0.46785674793E+03 -0.72155308566E+02 -0.53840224545E+03  0.71691931418E+03  0.00000000000E+00 0. -1.
          5    1    4    4  501    0 -0.26964978551E+02  0.21148186187E+03 -0.51214669654E+03  0.55476843524E+03  0.47000000000E+01 0. -1.
         -5    1    4    4    0  501  0.12916620680E+02 -0.39612007323E+01 -0.29180528936E+01  0.14599151816E+02  0.47000000000E+01 0. -1.
          1    1    1    2  502    0 -0.19362818382E+02 -0.84300850678E+02 -0.60851502828E+03  0.61463167166E+03  0.00000000000E+00 0. -1.
          1    1    1    2  503    0 -0.52502244730E+02  0.46003933057E+02  0.23185820387E+04  0.23196326256E+04  0.00000000000E+00 0. -1.
<mgrwt>
<rscale>  0 0.77640500E+02</rscale>
<asrwt>0</asrwt>
<pdfrwt beam="1">  1        2 0.44596442E+00 0.69805785E+02</pdfrwt>
<pdfrwt beam="2">  1        2 0.36825376E+00 0.86354551E+02</pdfrwt>
<totfact> 0.24317718E+00</totfact>
</mgrwt>
</event>
<event>
13    1  0.2038932E-008  0.1667216E+03  0.7546771E-02  0.1260275E+00
          2   -1    0    0  503    0  0.00000000000E+00  0.00000000000E+00  0.13532547254E+03  0.13532547254E+03  0.00000000000E+00 0. -1.
          2   -1    0    0  502    0 -0.00000000000E+00 -0.00000000000E+00 -0.28418414351E+04  0.28418414351E+04  0.00000000000E+00 0. -1.
         24    2    1    2    0    0 -0.30219535921E+02  0.13756625355E+03 -0.59121480656E+03  0.61273635064E+03  0.77930696348E+02 0.  0.
         25    2    1    2    0    0  0.25850593325E+03 -0.29890546527E+03 -0.78882195797E+03  0.89108536029E+03  0.12499297285E+03 0.  0.
         24    2    1    2    0    0 -0.61678560471E+02 -0.17801956827E+01 -0.34895326845E+03  0.36337829432E+03  0.80423798087E+02 0.  0.
        -13    1    3    3    0    0  0.15200323325E+02  0.70775241884E+02 -0.37509375307E+03  0.38201506291E+03  0.00000000000E+00 0.  1.
         14    1    3    3    0    0 -0.45419859246E+02  0.66791011669E+02 -0.21612105349E+03  0.23072128774E+03  0.00000000000E+00 0. -1.
        -13    1    5    5    0    0 -0.34690791786E+02  0.38474831169E+02 -0.15350780369E+03  0.16201360887E+03  0.00000000000E+00 0.  1.
         14    1    5    5    0    0 -0.26987768685E+02 -0.40255026852E+02 -0.19544546477E+03  0.20136468544E+03  0.00000000000E+00 0. -1.
          5    1    4    4  501    0  0.68718162070E+02 -0.17256112683E+03 -0.32975595280E+03  0.37849782918E+03  0.47000000000E+01 0.  1.
         -5    1    4    4    0  501  0.18978777118E+03 -0.12634433844E+03 -0.45906600517E+03  0.51258753111E+03  0.47000000000E+01 0.  1.
          1    1    1    2  502    0 -0.20473845120E+03  0.10111987591E+03 -0.10061629690E+04  0.10317494768E+04  0.00000000000E+00 0. -1.
          1    1    1    2  503    0  0.38130614340E+02  0.61999531492E+02  0.28637039345E+02  0.78217425665E+02  0.00000000000E+00 0. -1.
<mgrwt>
<rscale>  0 0.11015939E+03</rscale>
<asrwt>0</asrwt>
<pdfrwt beam="1">  1        2 0.19900807E-01 0.72786576E+02</pdfrwt>
<pdfrwt beam="2">  1        2 0.41791782E+00 0.16672156E+03</pdfrwt>
<totfact> 0.13435741E+02</totfact>
</mgrwt>
</event>
<event>
13    1  0.2038932E-008  0.5536878E+03  0.7546771E-02  0.1141976E+00
          2   -1    0    0  502    0  0.00000000000E+00  0.00000000000E+00  0.23270866446E+04  0.23270866446E+04  0.00000000000E+00 0. -1.
          2   -1    0    0  503    0 -0.00000000000E+00 -0.00000000000E+00 -0.10407949141E+04  0.10407949141E+04  0.00000000000E+00 0. -1.
         24    2    1    2    0    0 -0.98361455779E+02 -0.11312538512E+02  0.10332118698E+04  0.10411737154E+04  0.81932827849E+02 0.  0.
         25    2    1    2    0    0  0.47514264119E+03  0.36730669072E+03  0.14206453065E+03  0.62966680192E+03  0.12499286399E+03 0.  0.
         24    2    1    2    0    0 -0.47156191998E+02  0.68900330361E+02  0.23105784893E+02  0.12037445849E+03  0.83577335414E+02 0.  0.
        -11    1    5    5    0    0 -0.49937360620E+02  0.50247701039E+02 -0.19757872021E+02  0.73545529791E+02  0.00000000000E+00 0.  1.
         12    1    5    5    0    0  0.27811686216E+01  0.18652629321E+02  0.42863656914E+02  0.46828928704E+02  0.00000000000E+00 0. -1.
        -13    1    3    3    0    0 -0.65554967847E+02  0.24192946786E+01  0.29948098220E+03  0.30658141740E+03  0.00000000000E+00 0.  1.
         14    1    3    3    0    0 -0.32806487932E+02 -0.13731833191E+02  0.73373088759E+03  0.73459229801E+03  0.00000000000E+00 0. -1.
          5    1    4    4  501    0  0.32250951830E+03  0.20731754290E+03  0.38198317484E+02  0.38532344134E+03  0.47000000000E+01 0.  1.
         -5    1    4    4    0  501  0.15263312289E+03  0.15998914782E+03  0.10386621316E+03  0.24434336058E+03  0.47000000000E+01 0.  1.
          1    1    1    2  502    0  0.61846330242E+02 -0.49563929213E+02  0.73107992396E+03  0.73536345222E+03  0.00000000000E+00 0. -1.
          1    1    1    2  503    0 -0.39147132366E+03 -0.37533055335E+03 -0.64317037872E+03  0.84130313062E+03  0.00000000000E+00 0. -1.
<mgrwt>
<rscale>  0 0.20948320E+03</rscale>
<asrwt>0</asrwt>
<pdfrwt beam="1">  1        2 0.34221862E+00 0.79256240E+02</pdfrwt>
<pdfrwt beam="2">  1        2 0.15305808E+00 0.55368778E+03</pdfrwt>
<totfact> 0.26135452E+01</totfact>
</mgrwt>
</event>
<event>
13    1  0.2038932E-008  0.1222489E+03  0.7546771E-02  0.1392249E+00
          2   -1    0    0  503    0  0.00000000000E+00  0.00000000000E+00  0.11173886774E+04  0.11173886774E+04  0.00000000000E+00 0. -1.
          2   -1    0    0  502    0 -0.00000000000E+00 -0.00000000000E+00 -0.31680364941E+03  0.31680364941E+03  0.00000000000E+00 0. -1.
         24    2    1    2    0    0 -0.67848602806E+02  0.20374573956E+02 -0.14635559930E+03  0.18202816824E+03  0.81827479626E+02 0.  0.
         25    2    1    2    0    0 -0.67042038240E+02  0.81983355228E+02  0.79780083499E+03  0.81444906474E+03  0.12500080524E+03 0.  0.
         24    2    1    2    0    0  0.14816043079E+02 -0.45966061102E+01 -0.10345337013E+02  0.85777041069E+02  0.83725927026E+02 0.  0.
        -11    1    3    3    0    0 -0.12602485431E+02  0.44063280546E+02 -0.45259113705E+02  0.64411044898E+02  0.00000000000E+00 0.  1.
         12    1    3    3    0    0 -0.55246117375E+02 -0.23688706590E+02 -0.10109648559E+03  0.11761712335E+03  0.00000000000E+00 0. -1.
        -13    1    5    5    0    0 -0.25880356803E+02  0.23995922829E+02 -0.65515211230E+01  0.35895955339E+02  0.00000000000E+00 0.  1.
         14    1    5    5    0    0  0.40696399882E+02 -0.28592528940E+02 -0.37938158900E+01  0.49881085730E+02  0.00000000000E+00 0. -1.
          5    1    4    4  501    0 -0.29066175551E+02  0.93637476886E+02  0.72292277493E+03  0.72955619944E+03  0.47000000000E+01 0.  1.
         -5    1    4    4    0  501 -0.37975862689E+02 -0.11654121658E+02  0.74878060065E+02  0.84892865293E+02  0.47000000000E+01 0.  1.
          1    1    1    2  502    0  0.15084772890E+03 -0.98747828564E+02 -0.91389528093E+01  0.18052615162E+03  0.00000000000E+00 0. -1.
          1    1    1    2  503    0 -0.30773130932E+02  0.98650549070E+00  0.16862408212E+03  0.17141190113E+03  0.00000000000E+00 0. -1.
<mgrwt>
<rscale>  0 0.61350737E+02</rscale>
<asrwt>0</asrwt>
<pdfrwt beam="1">  1        2 0.16432186E+00 0.30788939E+02</pdfrwt>
<pdfrwt beam="2">  1        2 0.46588772E-01 0.12224887E+03</pdfrwt>
<totfact> 0.45177595E+02</totfact>
</mgrwt>
</event>
<event>
13    1  0.2038932E-008  0.1819130E+03  0.7546771E-02  0.1274704E+00
         -1   -1    0    0    0  501 -0.00000000000E+00  0.00000000000E+00  0.70918930858E+03  0.70918930858E+03  0.00000000000E+00 0.  1.
          2   -1    0    0  503    0  0.00000000000E+00 -0.00000000000E+00 -0.22001302277E+04  0.22001302277E+04  0.00000000000E+00 0. -1.
         24    2    1    2    0    0  0.21756425692E+03  0.11379323851E+03  0.42940110820E+02  0.26278861716E+03  0.83252010017E+02 0.  0.
         25    2    1    2    0    0  0.13510630096E+03 -0.64129059984E+02 -0.10039527087E+04  0.10226983264E+04  0.12499830630E+03 0.  0.
         24    2    1    2    0    0  0.42490709697E+02  0.32224985993E+02 -0.16610574212E+02  0.96496792772E+02  0.78688053139E+02 0.  0.
        -13    1    5    5    0    0 -0.21821629935E+02  0.14161020909E+02  0.45827989672E+01  0.26414391770E+02  0.00000000000E+00 0.  1.
         14    1    5    5    0    0  0.64312339632E+02  0.18063965084E+02 -0.21193373180E+02  0.70082401002E+02  0.00000000000E+00 0. -1.
        -13    1    3    3    0    0  0.19057089742E+03  0.77640581839E+02  0.83717830657E+01  0.20595002705E+03  0.00000000000E+00 0.  1.
         14    1    3    3    0    0  0.26993359499E+02  0.36152656672E+02  0.34568327754E+02  0.56838590106E+02  0.00000000000E+00 0. -1.
          5    1    4    4  502    0  0.37340268200E+02 -0.36676198721E+02 -0.70458096832E+03  0.70653794668E+03  0.47000000000E+01 0.  1.
         -5    1    4    4    0  502  0.97766032762E+02 -0.27452861263E+02 -0.29937174043E+03  0.31616037975E+03  0.47000000000E+01 0.  1.
          1    1    1    2  503    0  0.56923094337E+02  0.11061746224E+02 -0.91417981903E+03  0.91601710815E+03  0.00000000000E+00 0. -1.
         -2    1    1    2    0  501 -0.45208436191E+03 -0.92950910744E+02  0.40086207206E+03  0.61131869177E+03  0.00000000000E+00 0.  1.
<mgrwt>
<rscale>  0 0.10270716E+03</rscale>
<asrwt>0</asrwt>
<pdfrwt beam="2">  1        2 0.32354856E+00 0.57987938E+02</pdfrwt>
<pdfrwt beam="1">  1       -1 0.10429255E+00 0.18191302E+03</pdfrwt>
<totfact> 0.84274137E+00</totfact>
</mgrwt>
</event>
<event>
13    1  0.2038932E-008  0.4349574E+02  0.7546771E-02  0.1513885E+00
         -1   -1    0    0    0  501 -0.00000000000E+00  0.00000000000E+00  0.80008258388E+03  0.80008258388E+03  0.00000000000E+00 0.  1.
          2   -1    0    0  503    0  0.00000000000E+00 -0.00000000000E+00 -0.69211105593E+03  0.69211105593E+03  0.00000000000E+00 0. -1.
         24    2    1    2    0    0  0.20183393189E+01  0.17595288890E+02  0.49924714894E+03  0.50596611763E+03  0.80251657846E+02 0.  0.
         25    2    1    2    0    0  0.45057215620E+02  0.23719101991E+02 -0.38602759211E+03  0.40895454469E+03  0.12503507219E+03 0.  0.
         24    2    1    2    0    0 -0.37444802138E+02 -0.59182648590E+02 -0.21203936663E+02  0.10847978713E+03  0.80084693828E+02 0.  0.
        -13    1    3    3    0    0 -0.27294007913E+01  0.40164180892E+02  0.13216150770E+03  0.13815670513E+03  0.00000000000E+00 0.  1.
         14    1    3    3    0    0  0.47477401102E+01 -0.22568892003E+02  0.36708564124E+03  0.36780941250E+03  0.00000000000E+00 0. -1.
        -13    1    5    5    0    0 -0.16394302624E+02 -0.62872398981E+02  0.14773861770E+02  0.66633165194E+02  0.00000000000E+00 0.  1.
         14    1    5    5    0    0 -0.21050499515E+02  0.36897503917E+01 -0.35977798433E+02  0.41846621940E+02  0.00000000000E+00 0. -1.
          5    1    4    4  502    0  0.33674325376E+02  0.68891626217E+01 -0.15766024208E+02  0.38106144787E+02  0.47000000000E+01 0.  1.
         -5    1    4    4    0  502  0.11382890243E+02  0.16829939369E+02 -0.37026156790E+03  0.37084839990E+03  0.47000000000E+01 0.  1.
          1    1    1    2  503    0 -0.43135823321E+02  0.64431843310E+01 -0.22300223575E+03  0.22722722334E+03  0.00000000000E+00 0. -1.
         -2    1    1    2    0  501  0.33505070520E+02  0.11425073379E+02  0.23895814354E+03  0.24156596701E+03  0.00000000000E+00 0.  1.
<mgrwt>
<rscale>  0 0.39239343E+02</rscale>
<asrwt>0</asrwt>
<pdfrwt beam="2">  1        2 0.10178104E+00 0.43495744E+02</pdfrwt>
<pdfrwt beam="1">  1       -1 0.11765920E+00 0.35399464E+02</pdfrwt>
<totfact> 0.41929247E+01</totfact>
</mgrwt>
</event>
<event>
13    1  0.2038932E-008  0.1324613E+03  0.7546771E-02  0.1328927E+00
          2   -1    0    0  503    0  0.00000000000E+00  0.00000000000E+00  0.20420960239E+04  0.20420960239E+04  0.00000000000E+00 0. -1.
          2   -1    0    0  502    0 -0.00000000000E+00 -0.00000000000E+00 -0.26917502806E+04  0.26917502806E+04  0.00000000000E+00 0. -1.
         24    2    1    2    0    0 -0.55585717837E+03 -0.95057309604E+03  0.61455652725E+02  0.11050688766E+04  0.69527052699E+02 0.  0.
         25    2    1    2    0    0 -0.31890117538E+03 -0.12240467150E+03  0.12400041278E+03  0.38429327368E+03  0.12499741821E+03 0.  0.
         24    2    1    2    0    0  0.75295801039E+03  0.11202371987E+04 -0.10407673436E+02  0.13521839354E+04  0.80099493283E+02 0.  0.
        -11    1    5    5    0    0  0.45828884064E+03  0.61110051886E+03 -0.10341284390E+02  0.76392371855E+03  0.00000000000E+00 0.  1.
         12    1    5    5    0    0  0.29466916974E+03  0.50913667981E+03 -0.66389046288E-01  0.58826021686E+03  0.00000000000E+00 0. -1.
        -11    1    3    3    0    0 -0.20106417193E+03 -0.32630208855E+03  0.53390558322E+02  0.38697597593E+03  0.00000000000E+00 0.  1.
         12    1    3    3    0    0 -0.35479300644E+03 -0.62427100749E+03  0.80650944028E+01  0.71809290064E+03  0.00000000000E+00 0. -1.
          5    1    4    4  501    0 -0.44572982730E+02  0.25802363837E+02  0.13428878881E+02  0.53431615707E+02  0.47000000000E+01 0. -1.
         -5    1    4    4    0  501 -0.27432819265E+03 -0.14820703534E+03  0.11057153390E+03  0.33086165797E+03  0.47000000000E+01 0. -1.
          1    1    1    2  502    0 -0.10726194349E+02 -0.47164788021E+02 -0.13498359718E+04  0.13507023060E+04  0.00000000000E+00 0. -1.
          1    1    1    2  503    0  0.13252653772E+03 -0.94643111176E-01  0.52513332314E+03  0.54159791288E+03  0.00000000000E+00 0. -1.
<mgrwt>
<rscale>  0 0.80043929E+02</rscale>
<asrwt>0</asrwt>
<pdfrwt beam="1">  1        2 0.30030824E+00 0.13246127E+03</pdfrwt>
<pdfrwt beam="2">  1        2 0.39584563E+00 0.48369086E+02</pdfrwt>
<totfact> 0.61543799E+00</totfact>
</mgrwt>
</event>
<event>
13    1  0.2038932E-008  0.8572219E+02  0.7546771E-02  0.1330312E+00
          2   -1    0    0  503    0  0.00000000000E+00  0.00000000000E+00  0.19645631023E+04  0.19645631023E+04  0.00000000000E+00 0. -1.
          2   -1    0    0  502    0 -0.00000000000E+00 -0.00000000000E+00 -0.52926876201E+03  0.52926876201E+03  0.00000000000E+00 0. -1.
         24    2    1    2    0    0  0.48032986301E+02 -0.11911499538E+02 -0.12309538570E+03  0.15548944924E+03  0.81089106856E+02 0.  0.
         25    2    1    2    0    0 -0.71476660828E+02 -0.21225632212E+01 -0.67860983760E+02  0.15921587346E+03  0.12502464927E+03 0.  0.
         24    2    1    2    0    0 -0.19920650422E+02 -0.97177006358E+02  0.53831716123E+03  0.55308443234E+03  0.79226386615E+02 0.  0.
        -11    1    3    3    0    0 -0.18489659903E+02  0.72322614808E+01 -0.54639172860E+02  0.58134433344E+02  0.00000000000E+00 0.  1.
         12    1    3    3    0    0  0.66522646204E+02 -0.19143761019E+02 -0.68456212841E+02  0.97355015898E+02  0.00000000000E+00 0. -1.
        -11    1    5    5    0    0  0.17312156824E+02 -0.65255371602E+02  0.41354560909E+03  0.41902022039E+03  0.00000000000E+00 0.  1.
         12    1    5    5    0    0 -0.37232807246E+02 -0.31921634756E+02  0.12477155215E+03  0.13406421195E+03  0.00000000000E+00 0. -1.
          5    1    4    4  501    0 -0.70276947063E+02 -0.53623793244E+02 -0.59881481169E+02  0.10687489077E+03  0.47000000000E+01 0. -1.
         -5    1    4    4    0  501 -0.11997137653E+01  0.51501230023E+02 -0.79795025908E+01  0.52340982687E+02  0.47000000000E+01 0. -1.
          1    1    1    2  502    0 -0.24470070516E+02  0.82051978876E+02 -0.26120704099E+03  0.27488257466E+03  0.00000000000E+00 0. -1.
          1    1    1    2  503    0  0.67834395466E+02  0.29159090242E+02  0.13491405895E+04  0.13511595346E+04  0.00000000000E+00 0. -1.
<mgrwt>
<rscale>  0 0.79557434E+02</rscale>
<asrwt>0</asrwt>
<pdfrwt beam="1">  1        2 0.28890634E+00 0.73836019E+02</pdfrwt>
<pdfrwt beam="2">  1        2 0.77833642E-01 0.85722191E+02</pdfrwt>
<totfact> 0.95585832E+01</totfact>
</mgrwt>
</event>
<event>
13    1  0.2038932E-008  0.7140634E+02  0.7546771E-02  0.1521258E+00
          2   -1    0    0  503    0  0.00000000000E+00  0.00000000000E+00  0.14734346013E+04  0.14734346013E+04  0.00000000000E+00 0. -1.
          2   -1    0    0  502    0 -0.00000000000E+00 -0.00000000000E+00 -0.19633029438E+04  0.19633029438E+04  0.00000000000E+00 0. -1.
         24    2    1    2    0    0  0.60259114957E+02  0.79821341488E+02 -0.47504476114E+03  0.49219388580E+03  0.81146094419E+02 0.  0.
         25    2    1    2    0    0 -0.35401498750E+02 -0.15097361271E+03  0.94794360005E+03  0.96864313169E+03  0.12500459933E+03 0.  0.
         24    2    1    2    0    0 -0.37454420966E+02 -0.75283686593E+01 -0.48803898773E+03  0.49610182688E+03  0.80470237399E+02 0.  0.
        -11    1    3    3    0    0  0.38750958209E+02  0.88385275122E+02 -0.43803371610E+03  0.44853888356E+03  0.00000000000E+00 0.  1.
         12    1    3    3    0    0  0.21508156748E+02 -0.85639336336E+01 -0.37011045037E+02  0.43655002242E+02  0.00000000000E+00 0. -1.
        -13    1    5    5    0    0 -0.52551076187E+02 -0.29243820872E+02 -0.27981226142E+03  0.28620223324E+03  0.00000000000E+00 0.  1.
         14    1    5    5    0    0  0.15096655222E+02  0.21715452213E+02 -0.20822672631E+03  0.20989959364E+03  0.00000000000E+00 0. -1.
          5    1    4    4  501    0  0.28531758990E+02 -0.76031664648E+02  0.64359213999E+03  0.64871242316E+03  0.47000000000E+01 0.  1.
         -5    1    4    4    0  501 -0.63933257740E+02 -0.74941948061E+02  0.30435146006E+03  0.31993070853E+03  0.47000000000E+01 0.  1.
          1    1    1    2  502    0 -0.15749076347E+02  0.13157811023E+02 -0.97461937306E+03  0.97483541367E+03  0.00000000000E+00 0. -1.
          1    1    1    2  503    0  0.28345881106E+02  0.65522828857E+02  0.49989117935E+03  0.50496328705E+03  0.00000000000E+00 0. -1.
<mgrwt>
<rscale>  0 0.38280758E+02</rscale>
<asrwt>0</asrwt>
<pdfrwt beam="1">  1        2 0.21668156E+00 0.71406343E+02</pdfrwt>
<pdfrwt beam="2">  1        2 0.28872102E+00 0.20522217E+02</pdfrwt>
<totfact> 0.30088220E+01</totfact>
</mgrwt>
</event>
<event>
13    1  0.2038932E-008  0.1826232E+03  0.7546771E-02  0.1334779E+00
          2   -1    0    0  502    0  0.00000000000E+00  0.00000000000E+00  0.47010384021E+04  0.47010384021E+04  0.00000000000E+00 0. -1.
          2   -1    0    0  503    0 -0.00000000000E+00 -0.00000000000E+00 -0.73877927521E+02  0.73877927521E+02  0.00000000000E+00 0. -1.
         24    2    1    2    0    0 -0.10947676803E+02 -0.33038785799E+02  0.20940650486E+04  0.20959936618E+04  0.82882987150E+02 0.  0.
         25    2    1    2    0    0  0.31092864050E+02  0.16044213122E+03  0.43059307968E+03  0.47722600405E+03  0.12500326000E+03 0.  0.
         24    2    1    2    0    0 -0.50136287934E+02 -0.28984532488E+03  0.16104108661E+04  0.16390394698E+04  0.80642830678E+02 0.  0.
        -11    1    3    3    0    0 -0.19932384152E+02  0.24344132879E+02  0.82632858021E+03  0.82692736030E+03  0.00000000000E+00 0.  1.
         12    1    3    3    0    0  0.89847073493E+01 -0.57382918678E+02  0.12677364684E+04  0.12690663015E+04  0.00000000000E+00 0. -1.
        -11    1    5    5    0    0 -0.68129732306E+02 -0.16177926073E+03  0.90261727014E+03  0.91952820837E+03  0.00000000000E+00 0.  1.
         12    1    5    5    0    0  0.17993444372E+02 -0.12806606415E+03  0.70779359597E+03  0.71951126143E+03  0.00000000000E+00 0. -1.
          5    1    4    4  501    0  0.21575293935E+02  0.14323383453E+03  0.43323748144E+03  0.45683501397E+03  0.47000000000E+01 0. -1.
         -5    1    4    4    0  501  0.95175701154E+01  0.17208296691E+02 -0.26444017607E+01  0.20390990084E+02  0.47000000000E+01 0. -1.
          1    1    1    2  502    0 -0.28205411953E+02 -0.17754031410E+02  0.26449702832E+03  0.26658850104E+03  0.00000000000E+00 0. -1.
          1    1    1    2  503    0  0.58196512640E+02  0.18019601086E+03  0.22759445187E+03  0.29606869294E+03  0.00000000000E+00 0. -1.
<mgrwt>
<rscale>  0 0.78015734E+02</rscale>
<asrwt>0</asrwt>
<pdfrwt beam="1">  1        2 0.69132897E+00 0.33327930E+02</pdfrwt>
<pdfrwt beam="2">  1        2 0.10864404E-01 0.18262325E+03</pdfrwt>
<totfact> 0.25617679E+01</totfact>
</mgrwt>
</event>
<event>
13    1  0.2038932E-008  0.6441063E+02  0.7546771E-02  0.1474964E+00
          2   -1    0    0  502    0  0.00000000000E+00  0.00000000000E+00  0.12421935402E+04  0.12421935402E+04  0.00000000000E+00 0. -1.
          2   -1    0    0  503    0 -0.00000000000E+00 -0.00000000000E+00 -0.65213495536E+03  0.65213495536E+03  0.00000000000E+00 0. -1.
         24    2    1    2    0    0 -0.62842621102E+02 -0.96051940667E+02 -0.36930817170E+03  0.39505727680E+03  0.80663225453E+02 0.  0.
         25    2    1    2    0    0  0.46897499423E+02 -0.11883713327E+01  0.64765981768E+03  0.66127824198E+03  0.12499954477E+03 0.  0.
         24    2    1    2    0    0  0.10598847216E+03  0.67632786081E+02  0.19562376815E+03  0.24613335863E+03  0.80654953855E+02 0.  0.
        -11    1    5    5    0    0  0.51496440343E+02  0.77636166420E+02  0.11001913540E+03  0.14416472474E+03  0.00000000000E+00 0.  1.
         12    1    5    5    0    0  0.54492031813E+02 -0.10003380339E+02  0.85604632749E+02  0.10196863389E+03  0.00000000000E+00 0. -1.
        -11    1    3    3    0    0  0.15794621461E+02 -0.37458075495E+02 -0.13684530187E+03  0.14275578493E+03  0.00000000000E+00 0.  1.
         12    1    3    3    0    0 -0.78637242563E+02 -0.58593865172E+02 -0.23246286982E+03  0.25230149187E+03  0.00000000000E+00 0. -1.
          5    1    4    4  501    0  0.65268067934E+01  0.28154058343E+02  0.55629495962E+03  0.55706500725E+03  0.47000000000E+01 0. -1.
         -5    1    4    4    0  501  0.40370692629E+02 -0.29342429675E+02  0.91364858063E+02  0.10421323472E+03  0.47000000000E+01 0. -1.
          1    1    1    2  502    0 -0.31017363153E+02  0.41960798316E+01  0.34891796545E+03  0.35031904104E+03  0.00000000000E+00 0. -1.
          1    1    1    2  503    0 -0.59025987323E+02  0.25411446088E+02 -0.23283479472E+03  0.24154057714E+03  0.00000000000E+00 0. -1.
<mgrwt>
<rscale>  0 0.44900406E+02</rscale>
<asrwt>0</asrwt>
<pdfrwt beam="1">  1        2 0.18267552E+00 0.31299903E+02</pdfrwt>
<pdfrwt beam="2">  1        2 0.95902199E-01 0.64410629E+02</pdfrwt>
<totfact> 0.18170630E+02</totfact>
</mgrwt>
</event>
<event>
13    1  0.2038932E-008  0.3303241E+02  0.7546771E-02  0.1595817E+00
          2   -1    0    0  502    0  0.00000000000E+00  0.00000000000E+00  0.10386569162E+04  0.10386569162E+04  0.00000000000E+00 0. -1.
          2   -1    0    0  503    0 -0.00000000000E+00 -0.00000000000E+00 -0.12686483111E+04  0.12686483111E+04  0.00000000000E+00 0. -1.
         24    2    1    2    0    0  0.31501311722E+03  0.21999035654E+03 -0.65875915619E+02  0.39902456372E+03  0.85158353705E+02 0.  0.
         25    2    1    2    0    0 -0.15173513165E+03  0.15042136141E+03  0.23740132859E+03  0.34297884965E+03  0.12499985738E+03 0.  0.
         24    2    1    2    0    0 -0.21874850422E+03 -0.34874160199E+03  0.95245120775E+02  0.43496970005E+03  0.10322496728E+03 0.  0.
        -11    1    3    3    0    0  0.40090877119E+02  0.67941212219E+02 -0.52606699368E+01  0.79063021661E+02  0.00000000000E+00 0.  1.
         12    1    3    3    0    0  0.27492224010E+03  0.15204914432E+03 -0.60615245682E+02  0.31996154206E+03  0.00000000000E+00 0. -1.
        -11    1    5    5    0    0 -0.48244305900E+02 -0.17193854448E+03  0.46878324336E+02  0.18462923231E+03  0.00000000000E+00 0.  1.
         12    1    5    5    0    0 -0.17050419832E+03 -0.17680305750E+03  0.48366796439E+02  0.25034046774E+03  0.00000000000E+00 0. -1.
          5    1    4    4  501    0 -0.62102267947E+02  0.10261896130E+03  0.20261051274E+03  0.23550043052E+03  0.47000000000E+01 0.  1.
         -5    1    4    4    0  501 -0.89632863698E+02  0.47802400106E+02  0.34790815853E+02  0.10747841913E+03  0.47000000000E+01 0.  1.
          1    1    1    2  502    0  0.23101513212E+02 -0.15143146981E+02  0.31584700527E+03  0.31705255960E+03  0.00000000000E+00 0. -1.
          1    1    1    2  503    0  0.32369005441E+02 -0.65269689801E+01 -0.81260893397E+03  0.81327955428E+03  0.00000000000E+00 0. -1.
<mgrwt>
<rscale>  0 0.30206509E+02</rscale>
<asrwt>0</asrwt>
<pdfrwt beam="1">  1        2 0.15274367E+00 0.27622361E+02</pdfrwt>
<pdfrwt beam="2">  1        2 0.18656593E+00 0.33032410E+02</pdfrwt>
<totfact> 0.10506350E+02</totfact>
</mgrwt>
</event>
<event>
13    1  0.2038932E-008  0.4891356E+02  0.7546771E-02  0.1524527E+00
          2   -1    0    0  503    0  0.00000000000E+00  0.00000000000E+00  0.15597453407E+04  0.15597453407E+04  0.00000000000E+00 0. -1.
          2   -1    0    0  502    0 -0.00000000000E+00 -0.00000000000E+00 -0.38859136217E+03  0.38859136217E+03  0.00000000000E+00 0. -1.
         24    2    1    2    0    0 -0.11577245851E+03  0.14599482795E+03 -0.15199161404E+03  0.25358475003E+03  0.80535847750E+02 0.  0.
         25    2    1    2    0    0  0.10590839433E+03 -0.92383503931E+02  0.25672113580E+03  0.31825004913E+03  0.12500420961E+03 0.  0.
         24    2    1    2    0    0  0.97041000458E+01 -0.29068476770E+02 -0.10083594939E+03  0.13287995259E+03  0.80932361952E+02 0.  0.
        -11    1    5    5    0    0 -0.27464060502E+01  0.24991029662E+02 -0.56581888786E+02  0.61916108149E+02  0.00000000000E+00 0.  1.
         12    1    5    5    0    0  0.12450506096E+02 -0.54059506432E+02 -0.44254060608E+02  0.70963844442E+02  0.00000000000E+00 0. -1.
        -13    1    3    3    0    0  0.22799301360E+01 -0.16140424092E+01 -0.26639377528E+02  0.26785437264E+02  0.00000000000E+00 0.  1.
         14    1    3    3    0    0 -0.11805238865E+03  0.14760887036E+03 -0.12535223651E+03  0.22679931276E+03  0.00000000000E+00 0. -1.
          5    1    4    4  501    0  0.35404648568E+02 -0.39056846311E+02  0.21307708624E+03  0.21955149980E+03  0.47000000000E+01 0.  1.
         -5    1    4    4    0  501  0.70503745758E+02 -0.53326657620E+02  0.43644049558E+02  0.98698549334E+02  0.47000000000E+01 0.  1.
          1    1    1    2  502    0 -0.22412255582E+02  0.18894519220E+02 -0.31980269468E+02  0.43382596650E+02  0.00000000000E+00 0. -1.
          1    1    1    2  503    0  0.22572219721E+02 -0.43437366466E+02  0.11992406756E+04  0.12002393545E+04  0.00000000000E+00 0. -1.
<mgrwt>
<rscale>  0 0.37866255E+02</rscale>
<asrwt>0</asrwt>
<pdfrwt beam="1">  1        2 0.22937431E+00 0.48913558E+02</pdfrwt>
<pdfrwt beam="2">  1        2 0.57145789E-01 0.29314025E+02</pdfrwt>
<totfact> 0.21366382E+02</totfact>
</mgrwt>
</event>
<event>
13    1  0.2038932E-008  0.4521742E+02  0.7546771E-02  0.1477884E+00
          2   -1    0    0  502    0  0.00000000000E+00  0.00000000000E+00  0.17402235555E+04  0.17402235555E+04  0.00000000000E+00 0. -1.
          2   -1    0    0  503    0 -0.00000000000E+00 -0.00000000000E+00 -0.36387808999E+04  0.36387808999E+04  0.00000000000E+00 0. -1.
         24    2    1    2    0    0  0.12790489728E+03  0.52138602148E+02 -0.18513355368E+04  0.18580765146E+04  0.76986802037E+02 0.  0.
         25    2    1    2    0    0 -0.14171486584E+03 -0.51102318988E+02  0.94946813497E+02  0.21756363371E+03  0.12499794843E+03 0.  0.
         24    2    1    2    0    0  0.53677980819E+02  0.35396941410E+02 -0.10452589190E+03  0.14651144923E+03  0.80035452101E+02 0.  0.
        -11    1    3    3    0    0  0.64353357426E+02 -0.72001756791E+00 -0.48624255375E+03  0.49048312317E+03  0.00000000000E+00 0.  1.
         12    1    3    3    0    0  0.63551539852E+02  0.52858619716E+02 -0.13650929831E+04  0.13675933914E+04  0.00000000000E+00 0. -1.
        -11    1    5    5    0    0  0.58882068844E+02 -0.70209171838E+01 -0.52651512707E+02  0.79300523957E+02  0.00000000000E+00 0.  1.
         12    1    5    5    0    0 -0.52040880253E+01  0.42417858594E+02 -0.51874379193E+02  0.67210925277E+02  0.00000000000E+00 0. -1.
          5    1    4    4  501    0 -0.16253198049E+03 -0.59026999248E+02  0.83398745835E+02  0.19203716341E+03  0.47000000000E+01 0. -1.
         -5    1    4    4    0  501  0.20817114645E+02  0.79246802602E+01  0.11548067662E+02  0.25526470302E+02  0.47000000000E+01 0. -1.
          1    1    1    2  502    0 -0.44678536655E+02  0.69720274355E+01  0.15589786613E+04  0.15596343312E+04  0.00000000000E+00 0. -1.
          1    1    1    2  503    0  0.48105244021E+01 -0.43405252007E+02 -0.15966213905E+04  0.15972185266E+04  0.00000000000E+00 0. -1.
<mgrwt>
<rscale>  0 0.44437486E+02</rscale>
<asrwt>0</asrwt>
<pdfrwt beam="1">  1        2 0.25591523E+00 0.45217415E+02</pdfrwt>
<pdfrwt beam="2">  1        2 0.53511483E+00 0.43671009E+02</pdfrwt>
<totfact> 0.30355372E+00</totfact>
</mgrwt>
</event>
<event>
13    1  0.2038932E-008  0.4247071E+02  0.7546771E-02  0.1530225E+00
          2   -1    0    0  502    0  0.00000000000E+00  0.00000000000E+00  0.17059820396E+04  0.17059820396E+04  0.00000000000E+00 0. -1.
          2   -1    0    0  503    0 -0.00000000000E+00 -0.00000000000E+00 -0.20429086095E+04  0.20429086095E+04  0.00000000000E+00 0. -1.
         24    2    1    2    0    0  0.72425945929E+03 -0.23190892228E+03 -0.84732061602E+03  0.11396697861E+04  0.50611089158E+02 0.  0.
         25    2    1    2    0    0 -0.63406435834E+03  0.28881361583E+03  0.70253808166E+03  0.99731447541E+03  0.12500196593E+03 0.  0.
         24    2    1    2    0    0 -0.84429679343E+02 -0.46923735224E+02  0.49025748553E+02  0.13469661289E+03  0.80059014621E+02 0.  0.
        -11    1    3    3    0    0  0.32554409611E+03 -0.94859734184E+02 -0.41303939873E+03  0.53439580142E+03  0.00000000000E+00 0.  1.
         12    1    3    3    0    0  0.39871536318E+03 -0.13704918809E+03 -0.43428121730E+03  0.60527398465E+03  0.00000000000E+00 0. -1.
        -13    1    5    5    0    0 -0.98319306761E+02 -0.50784886557E+02  0.39897451786E+02  0.11763331775E+03  0.00000000000E+00 0.  1.
         14    1    5    5    0    0  0.13889627418E+02  0.38611513332E+01  0.91282967667E+01  0.17063295147E+02  0.00000000000E+00 0. -1.
          5    1    4    4  501    0 -0.56376571323E+03  0.21066344301E+03  0.58067463693E+03  0.83631094075E+03  0.47000000000E+01 0.  1.
         -5    1    4    4    0  501 -0.70298645109E+02  0.78150172813E+02  0.12186344472E+03  0.16100353467E+03  0.47000000000E+01 0.  1.
          1    1    1    2  502    0 -0.30644974275E+01 -0.42379873211E+02  0.61698148254E+03  0.61844287900E+03  0.00000000000E+00 0. -1.
          1    1    1    2  503    0 -0.27009241814E+01  0.32398914886E+02 -0.85815126667E+03  0.85876689571E+03  0.00000000000E+00 0. -1.
<mgrwt>
<rscale>  0 0.37158822E+02</rscale>
<asrwt>0</asrwt>
<pdfrwt beam="1">  1        2 0.25087971E+00 0.42470711E+02</pdfrwt>
<pdfrwt beam="2">  1        2 0.30042773E+00 0.32511301E+02</pdfrwt>
<totfact> 0.21253016E+01</totfact>
</mgrwt>
</event>
<event>
13    1  0.2038932E-008  0.1109556E+03  0.7546771E-02  0.1272784E+00
          2   -1    0    0  502    0  0.00000000000E+00  0.00000000000E+00  0.28063625820E+04  0.28063625820E+04  0.00000000000E+00 0. -1.
          2   -1    0    0  503    0 -0.00000000000E+00 -0.00000000000E+00 -0.37936450217E+03  0.37936450217E+03  0.00000000000E+00 0. -1.
         24    2    1    2    0    0 -0.53855752555E+02  0.43934251013E+02 -0.23071743593E+02  0.10838198943E+03  0.79897996125E+02 0.  0.
         25    2    1    2    0    0  0.15141018243E+03  0.65510230697E+02  0.18833759262E+03  0.27984160755E+03  0.12499457129E+03 0.  0.
         24    2    1    2    0    0 -0.64025653663E+01 -0.43418615561E+02  0.20822934739E+03  0.22742006942E+03  0.80213825757E+02 0.  0.
        -11    1    5    5    0    0  0.21485042808E+02  0.13702280452E+02  0.38412777175E+02  0.46096648515E+02  0.00000000000E+00 0.  1.
         12    1    5    5    0    0 -0.27887608175E+02 -0.57120896013E+02  0.16981657021E+03  0.18132342091E+03  0.00000000000E+00 0. -1.
        -13    1    3    3    0    0  0.61819316955E+01  0.28181921935E+01 -0.34112110566E+02  0.34782101345E+02  0.00000000000E+00 0.  1.
         14    1    3    3    0    0 -0.60037684251E+02  0.41116058820E+02  0.11040366974E+02  0.73599888084E+02  0.00000000000E+00 0. -1.
          5    1    4    4  501    0  0.13780813507E+03  0.83204019121E+02  0.19786795100E+03  0.25512312111E+03  0.47000000000E+01 0. -1.
         -5    1    4    4    0  501  0.13602047361E+02 -0.17693788424E+02 -0.95303583791E+01  0.24718486443E+02  0.47000000000E+01 0. -1.
          1    1    1    2  502    0 -0.96681585099E+02  0.44988144404E+02  0.22985413762E+04  0.23010136289E+04  0.00000000000E+00 0. -1.
          1    1    1    2  503    0  0.55297205854E+01 -0.11101401055E+03 -0.24503849280E+03  0.26906978891E+03  0.00000000000E+00 0. -1.
<mgrwt>
<rscale>  0 0.10365946E+03</rscale>
<asrwt>0</asrwt>
<pdfrwt beam="1">  1        2 0.41270037E+00 0.96843072E+02</pdfrwt>
<pdfrwt beam="2">  1        2 0.55788898E-01 0.11095563E+03</pdfrwt>
<totfact> 0.50794623E+01</totfact>
</mgrwt>
</event>
<event>
13    1  0.2038932E-008  0.1543555E+03  0.7546771E-02  0.1242454E+00
          2   -1    0    0  503    0  0.00000000000E+00  0.00000000000E+00  0.81148539727E+03  0.81148539727E+03  0.00000000000E+00 0. -1.
          2   -1    0    0  502    0 -0.00000000000E+00 -0.00000000000E+00 -0.15973785520E+04  0.15973785520E+04  0.00000000000E+00 0. -1.
         24    2    1    2    0    0  0.28491074268E+03 -0.82802357026E+02 -0.78404286765E+03  0.84240583969E+03  0.83030228270E+02 0.  0.
         25    2    1    2    0    0 -0.73130784244E+02 -0.13187144030E+01  0.10229664649E+03  0.17731283529E+03  0.12500154824E+03 0.  0.
         24    2    1    2    0    0  0.65796987306E+02  0.85760544599E+02 -0.26280897206E+03  0.29744471071E+03  0.87867431887E+02 0.  0.
        -11    1    3    3    0    0  0.23151113072E+02  0.15889062975E+02 -0.61869869686E+02  0.67943484851E+02  0.00000000000E+00 0.  1.
         12    1    3    3    0    0  0.26175962961E+03 -0.98691420000E+02 -0.72217299796E+03  0.77446235484E+03  0.00000000000E+00 0. -1.
        -11    1    5    5    0    0 -0.58086542547E+01 -0.91179552630E+01 -0.22355081162E+01  0.11039704206E+02  0.00000000000E+00 0.  1.
         12    1    5    5    0    0  0.71605641561E+02  0.94878499862E+02 -0.26057346394E+03  0.28640500650E+03  0.00000000000E+00 0. -1.
          5    1    4    4  501    0 -0.57750103397E+02 -0.18442294465E+02  0.12847599992E+03  0.14213854235E+03  0.47000000000E+01 0.  1.
         -5    1    4    4    0  501 -0.15380680847E+02  0.17123580062E+02 -0.26179353429E+02  0.35174292934E+02  0.47000000000E+01 0.  1.
          1    1    1    2  502    0 -0.18707723996E+03 -0.26679056488E+02 -0.44359455427E+03  0.48216780725E+03  0.00000000000E+00 0. -1.
          1    1    1    2  503    0 -0.90499705791E+02  0.25039583317E+02  0.60225659278E+03  0.60953275632E+03  0.00000000000E+00 0. -1.
<mgrwt>
<rscale>  0 0.12039084E+03</rscale>
<asrwt>0</asrwt>
<pdfrwt beam="1">  1        2 0.11933609E+00 0.93899827E+02</pdfrwt>
<pdfrwt beam="2">  1        2 0.23490861E+00 0.15435549E+03</pdfrwt>
<totfact> 0.82690633E+01</totfact>
</mgrwt>
</event>
<event>
13    1  0.2038932E-008  0.2865176E+03  0.7546771E-02  0.1248727E+00
         -3   -1    0    0    0  501 -0.00000000000E+00  0.00000000000E+00  0.10054194511E+04  0.10054194511E+04  0.00000000000E+00 0.  1.
          2   -1    0    0  503    0  0.00000000000E+00 -0.00000000000E+00 -0.41511575295E+04  0.41511575295E+04  0.00000000000E+00 0. -1.
         24    2    1    2    0    0  0.98072865704E+01  0.98530339044E+02  0.13223222060E+01  0.12826111850E+03  0.81515369107E+02 0.  0.
         25    2    1    2    0    0  0.33956548675E+03 -0.14601610509E+03 -0.35125579344E+03  0.52500282695E+03  0.12498765197E+03 0.  0.
         24    2    1    2    0    0 -0.25232501682E+02  0.42768771084E+02 -0.48358631810E+02  0.10811437530E+03  0.82971766007E+02 0.  0.
        -11    1    3    3    0    0 -0.52516033830E+01  0.10584865882E+03 -0.12281583212E+02  0.10668812117E+03  0.00000000000E+00 0.  1.
         12    1    3    3    0    0  0.15058889953E+02 -0.73183197809E+01  0.13603905418E+02  0.21572997327E+02  0.00000000000E+00 0. -1.
        -13    1    5    5    0    0 -0.19626503718E+02  0.64887217369E+02 -0.51428760901E+02  0.85090940022E+02  0.00000000000E+00 0.  1.
         14    1    5    5    0    0 -0.56059979636E+01 -0.22118446285E+02  0.30701290909E+01  0.23023435275E+02  0.00000000000E+00 0. -1.
          5    1    4    4  502    0  0.36600044319E+01  0.10094380199E+02 -0.38331781439E+02  0.40083757462E+02  0.47000000000E+01 0. -1.
         -5    1    4    4    0  502  0.33590548232E+03 -0.15611048529E+03 -0.31292401200E+03  0.48491906949E+03  0.47000000000E+01 0. -1.
          1    1    1    2  503    0 -0.28117279619E+03  0.24948165544E+02 -0.35650543521E+04  0.35762121142E+04  0.00000000000E+00 0. -1.
         -4    1    1    2    0  501 -0.42967475453E+02 -0.20231170583E+02  0.81760837671E+03  0.81898654561E+03  0.00000000000E+00 0.  1.
<mgrwt>
<rscale>  0 0.11665049E+03</rscale>
<asrwt>0</asrwt>
<pdfrwt beam="2">  1        2 0.61046433E+00 0.28651763E+03</pdfrwt>
<pdfrwt beam="1">  1       -3 0.14785580E+00 0.47492149E+02</pdfrwt>
<totfact> 0.10419793E-01</totfact>
</mgrwt>
</event>
<event>
13    1  0.2038932E-008  0.8123702E+02  0.7546771E-02  0.1410383E+00
          2   -1    0    0  503    0  0.00000000000E+00  0.00000000000E+00  0.24059482985E+04  0.24059482985E+04  0.00000000000E+00 0. -1.
         -3   -1    0    0    0  501 -0.00000000000E+00 -0.00000000000E+00 -0.87874728152E+03  0.87874728152E+03  0.00000000000E+00 0.  1.
         24    2    1    2    0    0  0.25116292034E+02 -0.34150381724E+02 -0.52756006141E+03  0.53299449454E+03  0.62979648391E+02 0.  0.
         25    2    1    2    0    0 -0.35569602024E+02  0.21467176444E+02  0.86850780799E+03  0.87844036532E+03  0.12500250645E+03 0.  0.
         24    2    1    2    0    0 -0.32197409404E+02 -0.23295808991E+02  0.11654910165E+03  0.14616059443E+03  0.78739179448E+02 0.  0.
        -11    1    3    3    0    0  0.20657504906E+02 -0.51270165318E+02 -0.45322809190E+03  0.45658631785E+03  0.00000000000E+00 0.  1.
         12    1    3    3    0    0  0.44587871287E+01  0.17119783594E+02 -0.74331969512E+02  0.76408176686E+02  0.00000000000E+00 0. -1.
        -13    1    5    5    0    0 -0.39893191181E+02 -0.43956841970E+02  0.10651049865E+03  0.12193505231E+03  0.00000000000E+00 0.  1.
         14    1    5    5    0    0  0.76957817767E+01  0.20661032978E+02  0.10038602995E+02  0.24225542120E+02  0.00000000000E+00 0. -1.
          5    1    4    4  502    0 -0.15760339089E+02 -0.20084399537E+02  0.76044348878E+03  0.76088643109E+03  0.47000000000E+01 0. -1.
         -5    1    4    4    0  502 -0.19809262935E+02  0.41551575980E+02  0.10806431921E+03  0.11755393422E+03  0.47000000000E+01 0. -1.
          1    1    1    2  503    0  0.32078993730E+02  0.74708401661E+02  0.13959890591E+04  0.13983546976E+04  0.00000000000E+00 0. -1.
         -4    1    1    2    0  501  0.10571725664E+02 -0.38729387389E+02 -0.32628489038E+03  0.32874542814E+03  0.00000000000E+00 0.  1.
<mgrwt>
<rscale>  0 0.57108380E+02</rscale>
<asrwt>0</asrwt>
<pdfrwt beam="1">  1        2 0.35381592E+00 0.81237016E+02</pdfrwt>
<pdfrwt beam="2">  1       -3 0.12922754E+00 0.40146318E+02</pdfrwt>
<totfact> 0.18111296E+00</totfact>
</mgrwt>
</event>
<event>
13    1  0.2038932E-008  0.1301254E+03  0.7546771E-02  0.1313431E+00
          4   -1    0    0  503    0 -0.00000000000E+00  0.00000000000E+00  0.12065765655E+04  0.12065765655E+04  0.00000000000E+00 0. -1.
          2   -1    0    0  502    0  0.00000000000E+00 -0.00000000000E+00 -0.49211269471E+03  0.49211269471E+03  0.00000000000E+00 0. -1.
         24    2    1    2    0    0  0.13437356061E+03  0.11427861924E+03  0.25571204024E+03  0.32198360961E+03  0.84669597399E+02 0.  0.
         25    2    1    2    0    0 -0.15763387520E+03 -0.11081475238E+03 -0.14054707791E+03  0.26927028730E+03  0.12499863422E+03 0.  0.
         24    2    1    2    0    0 -0.96320222675E+02 -0.68992589527E+02  0.36855970719E+03  0.39482708381E+03  0.77553888615E+02 0.  0.
        -13    1    5    5    0    0 -0.27579568216E+02  0.16167316131E+02  0.74929448934E+02  0.81464329688E+02  0.00000000000E+00 0.  1.
         14    1    5    5    0    0 -0.68740654459E+02 -0.85159905658E+02  0.29363025826E+03  0.31336275412E+03  0.00000000000E+00 0. -1.
        -13    1    3    3    0    0  0.86657023139E+01  0.55572937559E+02  0.61973830213E+02  0.83691107155E+02  0.00000000000E+00 0.  1.
         14    1    3    3    0    0  0.12570785829E+03  0.58705681679E+02  0.19373821003E+03  0.23829250245E+03  0.00000000000E+00 0. -1.
          5    1    4    4  501    0 -0.63195810176E+02 -0.99094224839E+02 -0.26338712490E+02  0.12053710464E+03  0.47000000000E+01 0. -1.
         -5    1    4    4    0  501 -0.94438065024E+02 -0.11720527543E+02 -0.11420836542E+03  0.14873318266E+03  0.47000000000E+01 0. -1.
          1    1    1    2  502    0 -0.31960308123E+02 -0.46632942530E+02 -0.21834987112E+03  0.22554990322E+03  0.00000000000E+00 0. -1.
          3    1    1    2  503    0  0.15154084539E+03  0.11216166520E+03  0.44908907239E+03  0.48705837628E+03  0.00000000000E+00 0. -1.
<mgrwt>
<rscale>  0 0.85770100E+02</rscale>
<asrwt>0</asrwt>
<pdfrwt beam="2">  1        2 0.72369514E-01 0.56533995E+02</pdfrwt>
<pdfrwt beam="1">  1        4 0.17743773E+00 0.13012542E+03</pdfrwt>
<totfact> 0.72682371E+00</totfact>
</mgrwt>
</event>
<event>
13    1  0.2038932E-008  0.2764113E+02  0.7546771E-02  0.1651688E+00
         -1   -1    0    0    0  501 -0.00000000000E+00  0.00000000000E+00  0.14198070398E+04  0.14198070398E+04  0.00000000000E+00 0.  1.
          2   -1    0    0  503    0  0.00000000000E+00 -0.00000000000E+00 -0.13319758933E+04  0.13319758933E+04  0.00000000000E+00 0. -1.
         24    2    1    2    0    0  0.65510325556E+03 -0.35032723256E+03  0.65335227226E+02  0.75279989421E+03  0.10271097067E+03 0.  0.
         25    2    1    2    0    0 -0.37352090176E+03 -0.33407148074E+03  0.34776980630E+03  0.62264672467E+03  0.12499394892E+03 0.  0.
         24    2    1    2    0    0 -0.28557818826E+03  0.66777781445E+03 -0.36491551709E+03  0.81669407749E+03  0.79647790399E+02 0.  0.
        -11    1    3    3    0    0  0.13117842185E+03 -0.84703858573E+02 -0.26096125420E+02  0.15831465433E+03  0.00000000000E+00 0.  1.
         12    1    3    3    0    0  0.52392483371E+03 -0.26562337398E+03  0.91431352645E+02  0.59448523988E+03  0.00000000000E+00 0. -1.
        -13    1    5    5    0    0 -0.26164579178E+03  0.55792408195E+03 -0.28619946616E+03  0.67944678674E+03  0.00000000000E+00 0.  1.
         14    1    5    5    0    0 -0.23932396476E+02  0.10985373250E+03 -0.78716050930E+02  0.13724729075E+03  0.00000000000E+00 0. -1.
          5    1    4    4  502    0 -0.36923549627E+03 -0.31352158820E+03  0.35431669329E+03  0.60016085104E+03  0.47000000000E+01 0.  1.
         -5    1    4    4    0  502 -0.42854054868E+01 -0.20549892534E+02 -0.65468869902E+01  0.22485873624E+02  0.47000000000E+01 0.  1.
          1    1    1    2  503    0 -0.19658055351E+02  0.19449323447E+02 -0.25878900208E+03  0.26026229639E+03  0.00000000000E+00 0. -1.
         -2    1    1    2    0  501  0.23653889814E+02 -0.28284246043E+01  0.29843063214E+03  0.29937994035E+03  0.00000000000E+00 0.  1.
<mgrwt>
<rscale>  0 0.25660825E+02</rscale>
<asrwt>0</asrwt>
<pdfrwt beam="2">  1        2 0.19587881E+00 0.27641130E+02</pdfrwt>
<pdfrwt beam="1">  1       -1 0.20879515E+00 0.23822395E+02</pdfrwt>
<totfact> 0.44991949E+00</totfact>
</mgrwt>
</event>
