<event>
13    1  0.1675423E-008  0.1430794E+03  0.7546771E-02  0.1304499E+00
          2   -1    0    0  503    0  0.00000000000E+00  0.00000000000E+00  0.34347080174E+04  0.34347080174E+04  0.00000000000E+00 0. -1.
         -1   -1    0    0    0  501 -0.00000000000E+00 -0.00000000000E+00 -0.15993343002E+04  0.15993343002E+04  0.00000000000E+00 0.  1.
         24    2    1    2    0    0  0.34388028662E+01  0.48421375532E+02  0.78051110988E+03  0.78662018715E+03  0.84954524379E+02 0.  0.
         25    2    1    2    0    0 -0.24393178215E+03 -0.12441292991E+03  0.11593938826E+04  0.11978332461E+04  0.12501607507E+03 0.  0.
         24    2    1    2    0    0  0.47787919798E+02  0.36630113231E+02 -0.95281853878E+02  0.13730212887E+03  0.78407859556E+02 0.  0.
        -11    1    3    3    0    0 -0.34042946832E+02  0.15459191757E+01  0.18678472531E+03  0.18986796914E+03  0.00000000000E+00 0.  1.
         12    1    3    3    0    0  0.37481749698E+02  0.46875456356E+02  0.59372638457E+03  0.59675221801E+03  0.00000000000E+00 0. -1.
        -13    1    5    5    0    0 -0.48408959684E+01  0.39895958599E+02 -0.65211125655E+02  0.76600343965E+02  0.00000000000E+00 0.  1.
         14    1    5    5    0    0  0.52628815767E+02 -0.32658453683E+01 -0.30070728224E+02  0.60701784907E+02  0.00000000000E+00 0. -1.
          5    1    4    4  502    0 -0.13980249597E+02 -0.55365502885E+02  0.30490758630E+03  0.31024427871E+03  0.47000000000E+01 0.  1.
         -5    1    4    4    0  502 -0.22995153256E+03 -0.69047427027E+02  0.85448629626E+03  0.88758896737E+03  0.47000000000E+01 0.  1.
          1    1    1    2  503    0  0.37636055537E+02  0.41147760790E+02  0.14468641361E+04  0.14479383410E+04  0.00000000000E+00 0. -1.
         -2    1    1    2    0  501  0.15506900395E+03 -0.17863196403E+01 -0.14561135575E+04  0.14643484145E+04  0.00000000000E+00 0.  1.
<mgrwt>
<rscale>  0 0.89323378E+02</rscale>
<asrwt>0</asrwt>
<pdfrwt beam="1">  1        2 0.50510412E+00 0.55763885E+02</pdfrwt>
<pdfrwt beam="2">  1       -1 0.23519622E+00 0.14307945E+03</pdfrwt>
<totfact> 0.22371612E-01</totfact>
</mgrwt>
</event>
<event>
13    1  0.1675423E-008  0.2761227E+02  0.7546771E-02  0.1651498E+00
          4   -1    0    0  503    0 -0.00000000000E+00  0.00000000000E+00  0.14279912059E+03  0.14279912059E+03  0.00000000000E+00 0. -1.
          2   -1    0    0  502    0  0.00000000000E+00 -0.00000000000E+00 -0.17023799174E+04  0.17023799174E+04  0.00000000000E+00 0. -1.
         24    2    1    2    0    0  0.30111152046E+02 -0.39743208991E+02 -0.68396553491E+03  0.69057005209E+03  0.81190761531E+02 0.  0.
         25    2    1    2    0    0 -0.52053303626E+02  0.23482411395E+02 -0.41384266249E+03  0.43606381118E+03  0.12499971223E+03 0.  0.
         24    2    1    2    0    0  0.39467210751E+02  0.11080263148E+02  0.46135921669E+02  0.10437408392E+03  0.84172401476E+02 0.  0.
        -11    1    5    5    0    0  0.47582461298E+02  0.31970686341E+02  0.50174868142E+01  0.57544683353E+02  0.00000000000E+00 0.  1.
         12    1    5    5    0    0 -0.81152505472E+01 -0.20890423193E+02  0.41118434855E+02  0.46829400568E+02  0.00000000000E+00 0. -1.
        -13    1    3    3    0    0 -0.16907244115E+02 -0.32643626642E+02 -0.46750072839E+03  0.46894391169E+03  0.00000000000E+00 0.  1.
         14    1    3    3    0    0  0.47018396161E+02 -0.70995823490E+01 -0.21646480652E+03  0.22162614040E+03  0.00000000000E+00 0. -1.
          5    1    4    4  501    0 -0.31232765320E+02  0.35928869682E+02 -0.40784110273E+03  0.41063709572E+03  0.47000000000E+01 0. -1.
         -5    1    4    4    0  501 -0.20820538305E+02 -0.12446458288E+02 -0.60015597583E+01  0.25426715454E+02  0.47000000000E+01 0. -1.
          1    1    1    2  502    0  0.30538782330E+01  0.23676632640E+02 -0.55716440123E+03  0.55767560382E+03  0.00000000000E+00 0. -1.
          3    1    1    2  503    0 -0.20578937404E+02 -0.18496098192E+02  0.49255880179E+02  0.56495486945E+02  0.00000000000E+00 0. -1.
<mgrwt>
<rscale>  0 0.25674529E+02</rscale>
<asrwt>0</asrwt>
<pdfrwt beam="2">  1        2 0.25034998E+00 0.23872769E+02</pdfrwt>
<pdfrwt beam="1">  1        4 0.20999871E-01 0.27612273E+02</pdfrwt>
<totfact> 0.12193972E+02</totfact>
</mgrwt>
</event>
<event>
13    1  0.1675423E-008  0.1487577E+03  0.7546771E-02  0.1282827E+00
          2   -1    0    0  502    0  0.00000000000E+00  0.00000000000E+00  0.25550024611E+04  0.25550024611E+04  0.00000000000E+00 0. -1.
          2   -1    0    0  503    0 -0.00000000000E+00 -0.00000000000E+00 -0.16197490064E+04  0.16197490064E+04  0.00000000000E+00 0. -1.
         24    2    1    2    0    0 -0.95094501694E+01 -0.62509176006E+02 -0.22180487481E+02  0.10863449519E+03  0.85508203079E+02 0.  0.
         25    2    1    2    0    0 -0.11260927979E+03  0.56175899517E+02  0.50640099551E+03  0.53656646523E+03  0.12500008708E+03 0.  0.
         24    2    1    2    0    0 -0.29496769742E+02 -0.11629937608E+03 -0.74941071166E+03  0.76331781913E+03  0.81498919877E+02 0.  0.
        -11    1    5    5    0    0 -0.13382446536E+02 -0.11581578872E+02 -0.33867351693E+03  0.33913562761E+03  0.00000000000E+00 0.  1.
         12    1    5    5    0    0 -0.16114323206E+02 -0.10471779721E+03 -0.41073719474E+03  0.42418219152E+03  0.00000000000E+00 0. -1.
        -11    1    3    3    0    0  0.13844858885E+02  0.16920937690E+02 -0.12743654270E+02  0.25306105469E+02  0.00000000000E+00 0.  1.
         12    1    3    3    0    0 -0.23354309054E+02 -0.79430113696E+02 -0.94368332118E+01  0.83328389726E+02  0.00000000000E+00 0. -1.
          5    1    4    4  501    0 -0.43143510143E+02  0.44582401653E+02  0.42190761761E+03  0.42647049230E+03  0.47000000000E+01 0.  1.
         -5    1    4    4    0  501 -0.69465769652E+02  0.11593497864E+02  0.84493377898E+02  0.11009597293E+03  0.47000000000E+01 0.  1.
          1    1    1    2  502    0 -0.50079859845E+01 -0.65436596394E+02  0.19636485354E+04  0.19647449195E+04  0.00000000000E+00 0. -1.
          1    1    1    2  503    0  0.15662348569E+03  0.18806924896E+03 -0.76320487707E+03  0.80148776850E+03  0.00000000000E+00 0. -1.
<mgrwt>
<rscale>  0 0.98806175E+02</rscale>
<asrwt>0</asrwt>
<pdfrwt beam="1">  1        2 0.37573566E+00 0.65627952E+02</pdfrwt>
<pdfrwt beam="2">  1        2 0.23819838E+00 0.14875765E+03</pdfrwt>
<totfact> 0.10954371E+01</totfact>
</mgrwt>
</event>
<event>
13    1  0.1675423E-008  0.1301486E+03  0.7546771E-02  0.1313677E+00
          2   -1    0    0  502    0  0.00000000000E+00  0.00000000000E+00  0.12857335921E+04  0.12857335921E+04  0.00000000000E+00 0. -1.
          2   -1    0    0  503    0 -0.00000000000E+00 -0.00000000000E+00 -0.29685429627E+04  0.29685429627E+04  0.00000000000E+00 0. -1.
         24    2    1    2    0    0  0.18126767132E+03 -0.78166257094E+02 -0.62400163331E+03  0.65959921497E+03  0.82007033859E+02 0.  0.
         25    2    1    2    0    0 -0.36549331368E+03  0.21097807078E+03 -0.69008047634E+03  0.81849690994E+03  0.12501607521E+03 0.  0.
         24    2    1    2    0    0  0.40920576746E+02  0.35530930359E+02 -0.66102683818E+03  0.66806176729E+03  0.80081855082E+02 0.  0.
        -11    1    5    5    0    0  0.60599872653E+01  0.55458174260E+02 -0.42459900947E+03  0.42824835245E+03  0.00000000000E+00 0.  1.
         12    1    5    5    0    0  0.34860589480E+02 -0.19927243900E+02 -0.23642782871E+03  0.23981341484E+03  0.00000000000E+00 0. -1.
        -13    1    3    3    0    0  0.10850577556E+03 -0.24072027969E+01 -0.33082223816E+03  0.34817043415E+03  0.00000000000E+00 0.  1.
         14    1    3    3    0    0  0.72761895758E+02 -0.75759054297E+02 -0.29317939515E+03  0.31142878082E+03  0.00000000000E+00 0. -1.
          5    1    4    4  501    0 -0.13287813820E+03  0.12430469155E+03 -0.20916920776E+03  0.27727622225E+03  0.47000000000E+01 0. -1.
         -5    1    4    4    0  501 -0.23261517548E+03  0.86673379223E+02 -0.48091126858E+03  0.54122068769E+03  0.47000000000E+01 0. -1.
          1    1    1    2  502    0  0.23444970038E+02 -0.51294295296E+02  0.11918081889E+04  0.11931418736E+04  0.00000000000E+00 0. -1.
          1    1    1    2  503    0  0.11986009558E+03 -0.11704844875E+03 -0.89950861172E+03  0.91497678901E+03  0.00000000000E+00 0. -1.
<mgrwt>
<rscale>  0 0.85674749E+02</rscale>
<asrwt>0</asrwt>
<pdfrwt beam="1">  1        2 0.18907847E+00 0.56398328E+02</pdfrwt>
<pdfrwt beam="2">  1        2 0.43655042E+00 0.13014859E+03</pdfrwt>
<totfact> 0.96098457E+00</totfact>
</mgrwt>
</event>
<event>
13    1  0.1675423E-008  0.1634563E+03  0.7546771E-02  0.1325400E+00
          2   -1    0    0  502    0  0.00000000000E+00  0.00000000000E+00  0.11216357364E+04  0.11216357364E+04  0.00000000000E+00 0. -1.
          2   -1    0    0  503    0 -0.00000000000E+00 -0.00000000000E+00 -0.21903628190E+04  0.21903628190E+04  0.00000000000E+00 0. -1.
         24    2    1    2    0    0  0.89346837139E+02  0.80223696091E+02  0.56278406123E+03  0.58176624955E+03  0.85483161002E+02 0.  0.
         25    2    1    2    0    0 -0.53688913033E+02  0.22535209348E+03 -0.24683713391E+03  0.36085918375E+03  0.12499885759E+03 0.  0.
         24    2    1    2    0    0 -0.57112367983E+02 -0.14573821313E+03  0.15494297859E+03  0.23491850753E+03  0.81718597781E+02 0.  0.
        -11    1    5    5    0    0 -0.18260345720E+02  0.43217746689E+01  0.31908287527E+02  0.37016979550E+02  0.00000000000E+00 0.  1.
         12    1    5    5    0    0 -0.38852022263E+02 -0.15005998780E+03  0.12303469106E+03  0.19790152798E+03  0.00000000000E+00 0. -1.
        -11    1    3    3    0    0  0.85665762575E+02  0.35628618230E+02  0.46589619089E+03  0.47504450528E+03  0.00000000000E+00 0.  1.
         12    1    3    3    0    0  0.36810745645E+01  0.44595077861E+02  0.96887870345E+02  0.10672174427E+03  0.00000000000E+00 0. -1.
          5    1    4    4  501    0 -0.50539481743E+02  0.22424543680E+03 -0.25964663700E+03  0.34681222765E+03  0.47000000000E+01 0.  1.
         -5    1    4    4    0  501 -0.31494312895E+01  0.11066566777E+01  0.12809503084E+02  0.14046956101E+02  0.47000000000E+01 0.  1.
          1    1    1    2  502    0  0.42149995156E+02 -0.19457835541E+03  0.26384895664E+03  0.33053536938E+03  0.00000000000E+00 0. -1.
          1    1    1    2  503    0 -0.20695551279E+02  0.34740778974E+02 -0.18034659452E+04  0.18039192452E+04  0.00000000000E+00 0. -1.
<mgrwt>
<rscale>  0 0.81300897E+02</rscale>
<asrwt>0</asrwt>
<pdfrwt beam="1">  1        2 0.16494643E+00 0.16345627E+03</pdfrwt>
<pdfrwt beam="2">  1        2 0.32211217E+00 0.40437947E+02</pdfrwt>
<totfact> 0.31473160E+01</totfact>
</mgrwt>
</event>
<event>
13    1  0.1675423E-008  0.3133298E+03  0.7546771E-02  0.1193294E+00
          2   -1    0    0  503    0  0.00000000000E+00  0.00000000000E+00  0.14922171365E+04  0.14922171365E+04  0.00000000000E+00 0. -1.
          2   -1    0    0  502    0 -0.00000000000E+00 -0.00000000000E+00 -0.31955324632E+04  0.31955324632E+04  0.00000000000E+00 0. -1.
         24    2    1    2    0    0  0.12166617533E+03 -0.39500201249E+03 -0.15371270766E+03  0.44830956141E+03  0.80775109159E+02 0.  0.
         25    2    1    2    0    0  0.29487249118E+03  0.12292183548E+03 -0.82107387571E+03  0.88985798917E+03  0.12500147135E+03 0.  0.
         24    2    1    2    0    0 -0.66588740463E+02  0.11280946303E+03 -0.23277581955E+03  0.27915717908E+03  0.81142548368E+02 0.  0.
        -11    1    3    3    0    0  0.85200343111E+02 -0.23769693425E+03 -0.13335045275E+03  0.28555432805E+03  0.00000000000E+00 0.  1.
         12    1    3    3    0    0  0.36465832222E+02 -0.15730507824E+03 -0.20362254906E+02  0.16275523336E+03  0.00000000000E+00 0. -1.
        -13    1    5    5    0    0 -0.58837799060E+02  0.22598584777E+02 -0.10694531059E+03  0.12413654614E+03  0.00000000000E+00 0.  1.
         14    1    5    5    0    0 -0.77509414032E+01  0.90210878256E+02 -0.12583050897E+03  0.15502063294E+03  0.00000000000E+00 0. -1.
          5    1    4    4  501    0  0.16570578297E+03  0.11104215364E+03 -0.61265278971E+03  0.64432468300E+03  0.47000000000E+01 0.  1.
         -5    1    4    4    0  501  0.12916670820E+03  0.11879681841E+02 -0.20842108600E+03  0.24553330617E+03  0.47000000000E+01 0.  1.
          1    1    1    2  502    0 -0.59152943337E+02  0.50325688458E+02 -0.17634947585E+04  0.17652040983E+04  0.00000000000E+00 0. -1.
          1    1    1    2  503    0 -0.29079698271E+03  0.10894502553E+03  0.12677418346E+04  0.13052207718E+04  0.00000000000E+00 0. -1.
<mgrwt>
<rscale>  0 0.15599534E+03</rscale>
<asrwt>0</asrwt>
<pdfrwt beam="1">  1        2 0.21944370E+00 0.31332984E+03</pdfrwt>
<pdfrwt beam="2">  1        2 0.46993124E+00 0.77664314E+02</pdfrwt>
<totfact> 0.54747622E+00</totfact>
</mgrwt>
</event>
<event>
13    1  0.1675423E-008  0.2405877E+03  0.7546771E-02  0.1300880E+00
          2   -1    0    0  503    0  0.00000000000E+00  0.00000000000E+00  0.27455884610E+04  0.27455884610E+04  0.00000000000E+00 0. -1.
          2   -1    0    0  502    0 -0.00000000000E+00 -0.00000000000E+00 -0.82750164755E+03  0.82750164755E+03  0.00000000000E+00 0. -1.
         24    2    1    2    0    0  0.20362587540E+03 -0.89791946294E+02  0.82371531854E+03  0.85691584631E+03  0.79194386829E+02 0.  0.
         25    2    1    2    0    0  0.10966423133E+03  0.12406668723E+02 -0.12891110059E+03  0.21076866006E+03  0.12500074859E+03 0.  0.
         24    2    1    2    0    0 -0.50905727509E+02  0.51201797599E+02 -0.19353492976E+02  0.10945623203E+03  0.79956812524E+02 0.  0.
        -11    1    5    5    0    0 -0.54150291541E+02  0.66779659168E+02 -0.21220845867E+01  0.86001629029E+02  0.00000000000E+00 0.  1.
         12    1    5    5    0    0  0.32445640322E+01 -0.15577861569E+02 -0.17231408389E+02  0.23454603000E+02  0.00000000000E+00 0. -1.
        -11    1    3    3    0    0  0.52801332757E+00 -0.13143183310E+02  0.11365673503E+03  0.11441536385E+03  0.00000000000E+00 0.  1.
         12    1    3    3    0    0  0.20309786207E+03 -0.76648762983E+02  0.71005858351E+03  0.74250048246E+03  0.00000000000E+00 0. -1.
          5    1    4    4  501    0  0.64376863848E+02  0.66487664930E+02 -0.93726633083E+02  0.13180198001E+03  0.47000000000E+01 0. -1.
         -5    1    4    4    0  501  0.45287367478E+02 -0.54080996207E+02 -0.35184467508E+02  0.78966680047E+02  0.47000000000E+01 0. -1.
          1    1    1    2  502    0 -0.36439119571E+01  0.34089086978E+02 -0.56692806824E+03  0.56796371231E+03  0.00000000000E+00 0. -1.
          1    1    1    2  503    0 -0.25874046726E+03 -0.79056070063E+01  0.18095641567E+04  0.18279856578E+04  0.00000000000E+00 0. -1.
<mgrwt>
<rscale>  0 0.90819267E+02</rscale>
<asrwt>0</asrwt>
<pdfrwt beam="1">  1        2 0.40376301E+00 0.24058775E+03</pdfrwt>
<pdfrwt beam="2">  1        2 0.12169142E+00 0.34283290E+02</pdfrwt>
<totfact> 0.21141039E+01</totfact>
</mgrwt>
</event>
<event>
13    1  0.1675423E-008  0.1125683E+03  0.7546771E-02  0.1279617E+00
          2   -1    0    0  503    0  0.00000000000E+00  0.00000000000E+00  0.47792569153E+04  0.47792569153E+04  0.00000000000E+00 0. -1.
         -1   -1    0    0    0  501 -0.00000000000E+00 -0.00000000000E+00 -0.14695026231E+04  0.14695026231E+04  0.00000000000E+00 0.  1.
         24    2    1    2    0    0 -0.43912221124E+01  0.10394498753E+03  0.36507476651E+03  0.38805683820E+03  0.80527518682E+02 0.  0.
         25    2    1    2    0    0  0.20732211542E+02 -0.54576445128E+02 -0.14815626556E+03  0.20244364558E+03  0.12499895061E+03 0.  0.
         24    2    1    2    0    0  0.45301533301E+01 -0.50484422283E+02  0.44761761338E+02  0.10333907952E+03  0.78141863907E+02 0.  0.
        -11    1    3    3    0    0  0.74376047816E+01  0.95511693897E+02  0.19398601567E+03  0.21635243450E+03  0.00000000000E+00 0.  1.
         12    1    3    3    0    0 -0.11828826894E+02  0.84332936342E+01  0.17108875084E+03  0.17170440370E+03  0.00000000000E+00 0. -1.
        -13    1    5    5    0    0  0.25083544420E+02  0.63059783754E+01  0.32799901116E+02  0.41770600632E+02  0.00000000000E+00 0.  1.
         14    1    5    5    0    0 -0.20553391090E+02 -0.56790400659E+02  0.11961860223E+02  0.61568478885E+02  0.00000000000E+00 0. -1.
          5    1    4    4  502    0  0.44344742239E+02 -0.78335881014E+02 -0.14180242382E+03  0.16802673543E+03  0.47000000000E+01 0. -1.
         -5    1    4    4    0  502 -0.23612530697E+02  0.23759435886E+02 -0.63538417388E+01  0.34416910151E+02  0.47000000000E+01 0. -1.
          1    1    1    2  503    0 -0.10266041395E+03 -0.46919595792E+02  0.42989606924E+04  0.43004422614E+04  0.00000000000E+00 0. -1.
         -2    1    1    2    0  501  0.81789271191E+02  0.48035475672E+02 -0.12508866625E+04  0.12544777137E+04  0.00000000000E+00 0.  1.
<mgrwt>
<rscale>  0 0.10032337E+03</rscale>
<asrwt>0</asrwt>
<pdfrwt beam="1">  1        2 0.70283189E+00 0.11256831E+03</pdfrwt>
<pdfrwt beam="2">  1       -1 0.21610333E+00 0.89410405E+02</pdfrwt>
<totfact> 0.30277703E-02</totfact>
</mgrwt>
</event>
<event>
13    1  0.1675423E-008  0.6253043E+02  0.7546771E-02  0.1496844E+00
          2   -1    0    0  502    0  0.00000000000E+00  0.00000000000E+00  0.96436405307E+03  0.96436405307E+03  0.00000000000E+00 0. -1.
          2   -1    0    0  503    0 -0.00000000000E+00 -0.00000000000E+00 -0.25468452598E+04  0.25468452598E+04  0.00000000000E+00 0. -1.
         24    2    1    2    0    0 -0.19842943292E+02  0.19102442084E+02  0.85579288812E+01  0.81642909950E+02  0.76378536948E+02 0.  0.
         25    2    1    2    0    0  0.28095035936E+03 -0.50921966612E+02  0.26849946839E+03  0.41138723105E+03  0.12498535209E+03 0.  0.
         24    2    1    2    0    0 -0.17786034330E+03  0.50806998367E+02 -0.99461195498E+03  0.10148349531E+04  0.80133564836E+02 0.  0.
        -11    1    3    3    0    0 -0.36863093405E+02  0.37663370099E+02 -0.51818875296E+01  0.52955349691E+02  0.00000000000E+00 0.  1.
         12    1    3    3    0    0  0.17020150113E+02 -0.18560928014E+02  0.13739816411E+02  0.28687560259E+02  0.00000000000E+00 0. -1.
        -13    1    5    5    0    0 -0.16408065020E+02  0.16937087292E+02 -0.43108750027E+02  0.49137092430E+02  0.00000000000E+00 0.  1.
         14    1    5    5    0    0 -0.16145227828E+03  0.33869911075E+02 -0.95150320495E+03  0.96569786066E+03  0.00000000000E+00 0. -1.
          5    1    4    4  501    0  0.12965932223E+03  0.15132863668E+02  0.18462007304E+03  0.22615747782E+03  0.47000000000E+01 0.  1.
         -5    1    4    4    0  501  0.15129103712E+03 -0.66054830279E+02  0.83879395354E+02  0.18522975323E+03  0.47000000000E+01 0.  1.
          1    1    1    2  502    0 -0.26630493226E+02  0.74720746364E+01  0.56819140468E+03  0.56886420825E+03  0.00000000000E+00 0. -1.
          1    1    1    2  503    0 -0.56616579540E+02 -0.26459548476E+02 -0.14331180537E+04  0.14344800105E+04  0.00000000000E+00 0. -1.
<mgrwt>
<rscale>  0 0.41587537E+02</rscale>
<asrwt>0</asrwt>
<pdfrwt beam="1">  1        2 0.14181824E+00 0.27658906E+02</pdfrwt>
<pdfrwt beam="2">  1        2 0.37453607E+00 0.62530428E+02</pdfrwt>
<totfact> 0.26902366E+01</totfact>
</mgrwt>
</event>
<event>
13    1  0.1675423E-008  0.1342644E+03  0.7546771E-02  0.1380490E+00
          2   -1    0    0  503    0  0.00000000000E+00  0.00000000000E+00  0.33325817078E+04  0.33325817078E+04  0.00000000000E+00 0. -1.
         -3   -1    0    0    0  501 -0.00000000000E+00 -0.00000000000E+00 -0.15927542351E+03  0.15927542351E+03  0.00000000000E+00 0.  1.
         24    2    1    2    0    0 -0.55851802595E+02  0.80734062161E+02  0.30668234617E+03  0.33166265575E+03  0.79426967195E+02 0.  0.
         25    2    1    2    0    0  0.14908088010E+03 -0.72313800647E+02  0.20069961922E+03  0.28872054624E+03  0.12499928836E+03 0.  0.
         24    2    1    2    0    0  0.48190146947E+01 -0.13649076615E+03  0.46374307816E+02  0.16456290809E+03  0.79230184576E+02 0.  0.
        -13    1    3    3    0    0 -0.58827023562E+02  0.94976678794E+02  0.27254917165E+03  0.29455770094E+03  0.00000000000E+00 0.  1.
         14    1    3    3    0    0  0.29752209676E+01 -0.14242616632E+02  0.34133174519E+02  0.37104954805E+02  0.00000000000E+00 0. -1.
        -13    1    5    5    0    0  0.96744746739E+01 -0.14642794062E+03  0.41710591487E+02  0.15255985939E+03  0.00000000000E+00 0.  1.
         14    1    5    5    0    0 -0.48554599792E+01  0.99371744741E+01  0.46637163288E+01  0.12003048702E+02  0.00000000000E+00 0. -1.
          5    1    4    4  502    0  0.11836299319E+03 -0.26159961001E+02  0.19899223321E+03  0.23305394353E+03  0.47000000000E+01 0.  1.
         -5    1    4    4    0  502  0.30717886904E+02 -0.46153839645E+02  0.17073860065E+01  0.55666602706E+02  0.47000000000E+01 0.  1.
          1    1    1    2  503    0 -0.70710176546E+02  0.11382393651E+03  0.26558835332E+04  0.26592617697E+04  0.00000000000E+00 0. -1.
         -4    1    1    2    0  501 -0.27337915649E+02  0.14246568123E+02 -0.36333522185E+02  0.47649251512E+02  0.00000000000E+00 0.  1.
<mgrwt>
<rscale>  0 0.64335205E+02</rscale>
<asrwt>0</asrwt>
<pdfrwt beam="1">  1        2 0.49008550E+00 0.13426444E+03</pdfrwt>
<pdfrwt beam="2">  1       -3 0.23422859E-01 0.30827363E+02</pdfrwt>
<totfact> 0.15785418E+01</totfact>
</mgrwt>
</event>
<event>
13    1  0.1675423E-008  0.9821933E+02  0.7546771E-02  0.1359460E+00
          4   -1    0    0  503    0 -0.00000000000E+00  0.00000000000E+00  0.23644133111E+04  0.23644133111E+04  0.00000000000E+00 0. -1.
          2   -1    0    0  502    0  0.00000000000E+00 -0.00000000000E+00 -0.75102533314E+03  0.75102533314E+03  0.00000000000E+00 0. -1.
         24    2    1    2    0    0  0.42323143786E+02  0.91076213066E+02 -0.21980926886E+03  0.25446333205E+03  0.79682793570E+02 0.  0.
         25    2    1    2    0    0  0.27862196765E+02 -0.14824137906E+03  0.85910416874E+03  0.88114683789E+03  0.12493185619E+03 0.  0.
         24    2    1    2    0    0 -0.22711232874E+02 -0.14359007142E+02  0.11972161742E+03  0.14940208988E+03  0.85239296090E+02 0.  0.
        -11    1    5    5    0    0 -0.51063322283E+02  0.22797212387E+01  0.96344335803E+02  0.10906370181E+03  0.00000000000E+00 0.  1.
         12    1    5    5    0    0  0.28352089410E+02 -0.16638728381E+02  0.23377281614E+02  0.40338388065E+02  0.00000000000E+00 0. -1.
        -13    1    3    3    0    0  0.49691847527E+02  0.42822413816E+02 -0.17965607769E+03  0.19125727459E+03  0.00000000000E+00 0.  1.
         14    1    3    3    0    0 -0.73687037411E+01  0.48253799250E+02 -0.40153191179E+02  0.63206057452E+02  0.00000000000E+00 0. -1.
          5    1    4    4  501    0 -0.12521758611E+01 -0.58658174065E+02  0.63877115455E+03  0.64147722267E+03  0.47000000000E+01 0. -1.
         -5    1    4    4    0  501  0.29114372626E+02 -0.89583204996E+02  0.22033301420E+03  0.23966961521E+03  0.47000000000E+01 0. -1.
          1    1    1    2  502    0  0.41053434159E+02  0.28811329447E+02 -0.48493305964E+03  0.48751979395E+03  0.00000000000E+00 0. -1.
          3    1    1    2  503    0 -0.88527541836E+02  0.42712843691E+02  0.13393045203E+04  0.13429065905E+04  0.00000000000E+00 0. -1.
<mgrwt>
<rscale>  0 0.70186499E+02</rscale>
<asrwt>0</asrwt>
<pdfrwt beam="2">  1        2 0.11044490E+00 0.50154533E+02</pdfrwt>
<pdfrwt beam="1">  1        4 0.34770784E+00 0.98219330E+02</pdfrwt>
<totfact> 0.46358365E-01</totfact>
</mgrwt>
</event>
<event>
13    1  0.1675423E-008  0.1319182E+03  0.7546771E-02  0.1353651E+00
          2   -1    0    0  502    0  0.00000000000E+00  0.00000000000E+00  0.23043181822E+03  0.23043181822E+03  0.00000000000E+00 0. -1.
          2   -1    0    0  503    0 -0.00000000000E+00 -0.00000000000E+00 -0.36181944422E+04  0.36181944422E+04  0.00000000000E+00 0. -1.
         24    2    1    2    0    0 -0.38761288964E+02  0.12896529929E+03 -0.59910658207E+02  0.16602412053E+03  0.76421434734E+02 0.  0.
         25    2    1    2    0    0  0.24137597090E+02 -0.19435528354E+03 -0.37802559169E+03  0.44371424304E+03  0.12498952625E+03 0.  0.
         24    2    1    2    0    0 -0.41274316704E+02  0.14060791814E+03 -0.12484481605E+04  0.12605270581E+04  0.93976054703E+02 0.  0.
        -11    1    5    5    0    0  0.10557223752E+02  0.87490558652E+02 -0.89758003300E+03  0.90189576363E+03  0.00000000000E+00 0.  1.
         12    1    5    5    0    0 -0.51831540456E+02  0.53117359491E+02 -0.35086812748E+03  0.35863129443E+03  0.00000000000E+00 0. -1.
        -13    1    3    3    0    0  0.47529077025E+01  0.10281591795E+03 -0.49459769289E+02  0.11419269632E+03  0.00000000000E+00 0.  1.
         14    1    3    3    0    0 -0.43514196667E+02  0.26149381346E+02 -0.10450888919E+02  0.51831424209E+02  0.00000000000E+00 0. -1.
          5    1    4    4  501    0 -0.82302603898E+01 -0.74279906994E+02 -0.26576382988E+03  0.27611183430E+03  0.47000000000E+01 0. -1.
         -5    1    4    4    0  501  0.32367857480E+02 -0.12007537654E+03 -0.11226176181E+03  0.16760240874E+03  0.47000000000E+01 0. -1.
          1    1    1    2  502    0  0.83870079935E+02 -0.10270990055E+03  0.10648861421E+03  0.17006863008E+03  0.00000000000E+00 0. -1.
          1    1    1    2  503    0 -0.27972071358E+02  0.27491966653E+02 -0.18078668278E+04  0.18082922087E+04  0.00000000000E+00 0. -1.
<mgrwt>
<rscale>  0 0.71929772E+02</rscale>
<asrwt>0</asrwt>
<pdfrwt beam="1">  1        2 0.33887030E-01 0.13191817E+03</pdfrwt>
<pdfrwt beam="2">  1        2 0.53208745E+00 0.39220467E+02</pdfrwt>
<totfact> 0.36539426E+01</totfact>
</mgrwt>
</event>
<event>
13    1  0.1675423E-008  0.6569693E+02  0.7546771E-02  0.1380060E+00
          2   -1    0    0  503    0  0.00000000000E+00  0.00000000000E+00  0.23388284513E+04  0.23388284513E+04  0.00000000000E+00 0. -1.
          2   -1    0    0  502    0 -0.00000000000E+00 -0.00000000000E+00 -0.29466437847E+04  0.29466437847E+04  0.00000000000E+00 0. -1.
         24    2    1    2    0    0 -0.10315884695E+03  0.81738872527E+02  0.36934612994E+02  0.16042775117E+03  0.83963722658E+02 0.  0.
         25    2    1    2    0    0 -0.47940593279E+02 -0.18634130406E+03  0.91254419214E+02  0.24693050686E+03  0.12500369638E+03 0.  0.
         24    2    1    2    0    0  0.30015041272E+02  0.60467838768E+02 -0.73193475533E+03  0.73937675810E+03  0.79951498623E+02 0.  0.
        -13    1    3    3    0    0 -0.93237904513E+02  0.25647962373E+02  0.36798116224E+02  0.10346606289E+03  0.00000000000E+00 0.  1.
         14    1    3    3    0    0 -0.99209424400E+01  0.56090910155E+02  0.13649677010E+00  0.56961688285E+02  0.00000000000E+00 0. -1.
        -13    1    5    5    0    0  0.85002637195E+01 -0.17760361026E+02 -0.23900514120E+03  0.23981480860E+03  0.00000000000E+00 0.  1.
         14    1    5    5    0    0  0.21514777553E+02  0.78228199794E+02 -0.49292961413E+03  0.49956194949E+03  0.00000000000E+00 0. -1.
          5    1    4    4  501    0 -0.68425728502E+01 -0.13233199999E+03  0.11434625877E+03  0.17508779489E+03  0.47000000000E+01 0. -1.
         -5    1    4    4    0  501 -0.41098020429E+02 -0.54009304070E+02 -0.23091839553E+02  0.71842711970E+02  0.47000000000E+01 0. -1.
          1    1    1    2  502    0  0.59594929935E+02  0.21108777208E+02 -0.20703994121E+04  0.20713644927E+04  0.00000000000E+00 0. -1.
          1    1    1    2  503    0  0.61489469024E+02  0.23025815559E+02  0.20663298019E+04  0.20673727272E+04  0.00000000000E+00 0. -1.
<mgrwt>
<rscale>  0 0.64448051E+02</rscale>
<asrwt>0</asrwt>
<pdfrwt beam="1">  1        2 0.34394536E+00 0.65696934E+02</pdfrwt>
<pdfrwt beam="2">  1        2 0.43332997E+00 0.63222908E+02</pdfrwt>
<totfact> 0.34174232E+00</totfact>
</mgrwt>
</event>
<event>
13    1  0.1675423E-008  0.6797461E+02  0.7546771E-02  0.1372375E+00
          2   -1    0    0  503    0  0.00000000000E+00  0.00000000000E+00  0.20294193835E+04  0.20294193835E+04  0.00000000000E+00 0. -1.
         -1   -1    0    0    0  501 -0.00000000000E+00 -0.00000000000E+00 -0.28615573289E+03  0.28615573289E+03  0.00000000000E+00 0.  1.
         24    2    1    2    0    0 -0.94181618342E+02  0.74716873586E+02  0.97813687295E+03  0.98874238718E+03  0.80043597809E+02 0.  0.
         25    2    1    2    0    0  0.23117569766E+03 -0.20611329593E+03  0.13665226017E+03  0.36086512228E+03  0.12499960927E+03 0.  0.
         24    2    1    2    0    0 -0.18270989590E+03  0.85878138190E+01  0.33053565877E+03  0.38605439620E+03  0.79545700717E+02 0.  0.
        -11    1    3    3    0    0 -0.17010913891E+02  0.89716185760E+01  0.33085791023E+02  0.38269187330E+02  0.00000000000E+00 0.  1.
         12    1    3    3    0    0 -0.77170704451E+02  0.65745255010E+02  0.94505108193E+03  0.95047319985E+03  0.00000000000E+00 0. -1.
        -11    1    5    5    0    0 -0.84774616069E+02  0.43441260977E+02  0.14841033975E+03  0.17635052489E+03  0.00000000000E+00 0.  1.
         12    1    5    5    0    0 -0.97935279829E+02 -0.34853447158E+02  0.18212531902E+03  0.20970387131E+03  0.00000000000E+00 0. -1.
          5    1    4    4  502    0 -0.86511999017E+01 -0.34076973980E+02 -0.26139932511E+00  0.35471703440E+02  0.47000000000E+01 0. -1.
         -5    1    4    4    0  502  0.23982689756E+03 -0.17203632195E+03  0.13691365950E+03  0.32539341884E+03  0.47000000000E+01 0. -1.
          1    1    1    2  503    0  0.15955715091E+02  0.64932096758E+02  0.42868362825E+03  0.43386681731E+03  0.00000000000E+00 0. -1.
         -2    1    1    2    0  501  0.29760101487E+02  0.57876511764E+02 -0.13074476956E+03  0.14604639339E+03  0.00000000000E+00 0.  1.
<mgrwt>
<rscale>  0 0.66511356E+02</rscale>
<asrwt>0</asrwt>
<pdfrwt beam="1">  1        2 0.29844402E+00 0.67974612E+02</pdfrwt>
<pdfrwt beam="2">  1       -1 0.42081727E-01 0.65079599E+02</pdfrwt>
<totfact> 0.59801972E+01</totfact>
</mgrwt>
</event>
<event>
13    1  0.1675423E-008  0.1286229E+03  0.7546771E-02  0.1382739E+00
          2   -1    0    0  503    0  0.00000000000E+00  0.00000000000E+00  0.32770782970E+04  0.32770782970E+04  0.00000000000E+00 0. -1.
         -3   -1    0    0    0  501 -0.00000000000E+00 -0.00000000000E+00 -0.28249168820E+03  0.28249168820E+03  0.00000000000E+00 0.  1.
         24    2    1    2    0    0  0.36475245050E+02 -0.65416897661E+02  0.71208182142E+02  0.13089061889E+03  0.80323937328E+02 0.  0.
         25    2    1    2    0    0  0.81196751686E+02  0.51190576901E+02  0.16646298683E+04  0.16720739449E+04  0.12500116441E+03 0.  0.
         24    2    1    2    0    0  0.16911973187E+01  0.50960420095E+02  0.31094985874E+03  0.32510177069E+03  0.80009512491E+02 0.  0.
        -13    1    3    3    0    0  0.20825784624E+02 -0.77534033842E+02  0.30970937218E+02  0.86049047997E+02  0.00000000000E+00 0.  1.
         14    1    3    3    0    0  0.15649460427E+02  0.12117136182E+02  0.40237244923E+02  0.44841570890E+02  0.00000000000E+00 0. -1.
        -13    1    5    5    0    0  0.16142295045E+02 -0.84957565336E+01  0.17284585310E+02  0.25129832028E+02  0.00000000000E+00 0.  1.
         14    1    5    5    0    0 -0.14451097726E+02  0.59456176629E+02  0.29366527343E+03  0.29997193866E+03  0.00000000000E+00 0. -1.
          5    1    4    4  502    0 -0.14734062878E+02 -0.22793285605E+02  0.14345872608E+03  0.14607916541E+03  0.47000000000E+01 0.  1.
         -5    1    4    4    0  502  0.95930814564E+02  0.73983862506E+02  0.15211711422E+04  0.15259947795E+04  0.47000000000E+01 0.  1.
          1    1    1    2  503    0  0.30812215177E+02  0.69937069626E+01  0.11641254484E+04  0.11645541483E+04  0.00000000000E+00 0. -1.
         -4    1    1    2    0  501 -0.15017540923E+03 -0.43727806298E+02 -0.21632674885E+03  0.26694950243E+03  0.00000000000E+00 0.  1.
<mgrwt>
<rscale>  0 0.63749228E+02</rscale>
<asrwt>0</asrwt>
<pdfrwt beam="1">  1        2 0.48192326E+00 0.31595958E+02</pdfrwt>
<pdfrwt beam="2">  1       -3 0.41542897E-01 0.12862291E+03</pdfrwt>
<totfact> 0.87834630E+00</totfact>
</mgrwt>
</event>
<event>
13    1  0.1675423E-008  0.5234214E+02  0.7546771E-02  0.1486660E+00
          2   -1    0    0  503    0  0.00000000000E+00  0.00000000000E+00  0.81447046695E+03  0.81447046695E+03  0.00000000000E+00 0. -1.
          2   -1    0    0  502    0 -0.00000000000E+00 -0.00000000000E+00 -0.43590540891E+04  0.43590540891E+04  0.00000000000E+00 0. -1.
         24    2    1    2    0    0 -0.59653075253E+03  0.10670992065E+04 -0.73119573268E+03  0.14272551033E+04  0.88658193315E+02 0.  0.
         25    2    1    2    0    0  0.28564983834E+02 -0.92768068736E+03 -0.95392607112E+03  0.13367900461E+04  0.12500104894E+03 0.  0.
         24    2    1    2    0    0  0.55062403870E+03 -0.14032062706E+03 -0.55715309560E+03  0.80302794614E+03  0.10750627878E+03 0.  0.
        -13    1    3    3    0    0 -0.43687017680E+03  0.70354739502E+03 -0.51341307358E+03  0.97438568983E+03  0.00000000000E+00 0.  1.
         14    1    3    3    0    0 -0.15966057574E+03  0.36355181152E+03 -0.21778265909E+03  0.45286941352E+03  0.00000000000E+00 0. -1.
        -13    1    5    5    0    0  0.25977611285E+03 -0.11873779634E+03 -0.25173856153E+03  0.38072903285E+03  0.00000000000E+00 0.  1.
         14    1    5    5    0    0  0.29084792585E+03 -0.21582830712E+02 -0.30541453406E+03  0.42229891330E+03  0.00000000000E+00 0. -1.
          5    1    4    4  501    0  0.93152461389E+01 -0.59186032220E+02 -0.11160000431E+03  0.12675334782E+03  0.47000000000E+01 0. -1.
         -5    1    4    4    0  501  0.19249737695E+02 -0.86849465514E+03 -0.84232606680E+03  0.12100366983E+04  0.47000000000E+01 0. -1.
          1    1    1    2  502    0  0.50843149627E+02  0.12542220879E+02 -0.14518337466E+04  0.14527778774E+04  0.00000000000E+00 0. -1.
          1    1    1    2  503    0 -0.33501419631E+02 -0.11640112993E+02  0.14952502390E+03  0.15367358303E+03  0.00000000000E+00 0. -1.
<mgrwt>
<rscale>  0 0.43085572E+02</rscale>
<asrwt>0</asrwt>
<pdfrwt beam="1">  1        2 0.11977507E+00 0.35466003E+02</pdfrwt>
<pdfrwt beam="2">  1        2 0.64103736E+00 0.52342142E+02</pdfrwt>
<totfact> 0.29510722E+00</totfact>
</mgrwt>
</event>
<event>
13    1  0.1675423E-008  0.7540524E+02  0.7546771E-02  0.1393486E+00
          2   -1    0    0  502    0  0.00000000000E+00  0.00000000000E+00  0.67224515183E+03  0.67224515183E+03  0.00000000000E+00 0. -1.
          2   -1    0    0  503    0 -0.00000000000E+00 -0.00000000000E+00 -0.22392787515E+04  0.22392787515E+04  0.00000000000E+00 0. -1.
         24    2    1    2    0    0  0.55526130713E+03  0.12136078447E+03 -0.22480324346E+03  0.61653173759E+03  0.80816619456E+02 0.  0.
         25    2    1    2    0    0 -0.44144122835E+03 -0.41570757588E+02 -0.33425364345E+03  0.56916612684E+03  0.12500438319E+03 0.  0.
         24    2    1    2    0    0 -0.17206833053E+03 -0.45141325956E+02  0.29426905674E+03  0.35262608502E+03  0.78138520618E+02 0.  0.
        -11    1    3    3    0    0  0.40142961405E+01  0.50844249947E+01 -0.13241513464E+02  0.14741222129E+02  0.00000000000E+00 0.  1.
         12    1    3    3    0    0  0.55124701099E+03  0.11627635947E+03 -0.21156172999E+03  0.60179051546E+03  0.00000000000E+00 0. -1.
        -11    1    5    5    0    0 -0.28006211622E+02  0.15542176284E+02  0.22626207388E+02  0.39215461158E+02  0.00000000000E+00 0.  1.
         12    1    5    5    0    0 -0.14406211891E+03 -0.60683502240E+02  0.27164284935E+03  0.31341062386E+03  0.00000000000E+00 0. -1.
          5    1    4    4  501    0 -0.56202253565E+02 -0.41473717407E+02 -0.22404346153E+02  0.73503790840E+02  0.47000000000E+01 0. -1.
         -5    1    4    4    0  501 -0.38523897478E+03 -0.97040181213E-01 -0.31184929729E+03  0.49566233600E+03  0.47000000000E+01 0. -1.
          1    1    1    2  502    0  0.25828867326E+02 -0.71954809543E+02 -0.67344422459E+01  0.76746190238E+02  0.00000000000E+00 0. -1.
          1    1    1    2  503    0  0.32419384416E+02  0.37306108618E+02 -0.12955113272E+04  0.12964537636E+04  0.00000000000E+00 0. -1.
<mgrwt>
<rscale>  0 0.61047948E+02</rscale>
<asrwt>0</asrwt>
<pdfrwt beam="1">  1        2 0.98859581E-01 0.75405244E+02</pdfrwt>
<pdfrwt beam="2">  1        2 0.32930570E+00 0.49424308E+02</pdfrwt>
<totfact> 0.57255680E+01</totfact>
</mgrwt>
</event>
<event>
13    1  0.1675423E-008  0.2674199E+02  0.7546771E-02  0.1651327E+00
          2   -1    0    0  502    0  0.00000000000E+00  0.00000000000E+00  0.23909118458E+04  0.23909118458E+04  0.00000000000E+00 0. -1.
          2   -1    0    0  503    0 -0.00000000000E+00 -0.00000000000E+00 -0.82207091133E+03  0.82207091133E+03  0.00000000000E+00 0. -1.
         24    2    1    2    0    0 -0.27287748838E+03 -0.13675211353E+03  0.39452106638E+03  0.50561702780E+03  0.82694877484E+02 0.  0.
         25    2    1    2    0    0  0.28467689994E+03  0.17130371728E+03 -0.13035502034E+03  0.37815646273E+03  0.12499591220E+03 0.  0.
         24    2    1    2    0    0 -0.11501827332E+02 -0.48895049169E+01  0.10533028877E+01  0.82208558851E+02  0.81246159362E+02 0.  0.
        -11    1    5    5    0    0  0.69366998147E+01 -0.39094666457E+02  0.12624425233E+02  0.41663975592E+02  0.00000000000E+00 0.  1.
         12    1    5    5    0    0 -0.18438527147E+02  0.34205161540E+02 -0.11571122345E+02  0.40544583259E+02  0.00000000000E+00 0. -1.
        -13    1    3    3    0    0 -0.18140821267E+03 -0.97309417507E+02  0.32286706618E+03  0.38291148427E+03  0.00000000000E+00 0.  1.
         14    1    3    3    0    0 -0.91469275716E+02 -0.39442696027E+02  0.71654000205E+02  0.12270554354E+03  0.00000000000E+00 0. -1.
          5    1    4    4  501    0  0.23549727179E+03  0.16179821537E+03 -0.60542014926E+02  0.29210452425E+03  0.47000000000E+01 0. -1.
         -5    1    4    4    0  501  0.49179628147E+02  0.95055019080E+01 -0.69813005411E+02  0.86051938478E+02  0.47000000000E+01 0. -1.
          1    1    1    2  502    0 -0.21113674202E+02 -0.16415676319E+02  0.17748876781E+04  0.17750891616E+04  0.00000000000E+00 0. -1.
          1    1    1    2  503    0  0.20816089983E+02 -0.13246422513E+02 -0.47126609261E+03  0.47191154612E+03  0.00000000000E+00 0. -1.
<mgrwt>
<rscale>  0 0.25686887E+02</rscale>
<asrwt>0</asrwt>
<pdfrwt beam="1">  1        2 0.35160468E+00 0.26741991E+02</pdfrwt>
<pdfrwt beam="2">  1        2 0.12089278E+00 0.24673413E+02</pdfrwt>
<totfact> 0.43669559E+01</totfact>
</mgrwt>
</event>
<event>
13    1  0.1675423E-008  0.2994656E+02  0.7546771E-02  0.1643616E+00
          2   -1    0    0  503    0  0.00000000000E+00  0.00000000000E+00  0.16133738847E+04  0.16133738847E+04  0.00000000000E+00 0. -1.
          2   -1    0    0  502    0 -0.00000000000E+00 -0.00000000000E+00 -0.26238848786E+04  0.26238848786E+04  0.00000000000E+00 0. -1.
         24    2    1    2    0    0  0.36512797128E+02 -0.44232364053E+03  0.21543164431E+03  0.50445657509E+03  0.10527229196E+03 0.  0.
         25    2    1    2    0    0  0.29914728286E+03 -0.13273270234E+03 -0.61393640543E+03  0.70685949735E+03  0.12500148786E+03 0.  0.
         24    2    1    2    0    0 -0.33964852003E+03  0.58557536440E+03  0.42734508959E+03  0.80523870604E+03  0.86752081014E+02 0.  0.
        -11    1    3    3    0    0  0.41371848928E+02 -0.12247376901E+03  0.10333365101E+03  0.16549712207E+03  0.00000000000E+00 0.  1.
         12    1    3    3    0    0 -0.48590517992E+01 -0.31984987152E+03  0.11209799330E+03  0.33895945302E+03  0.00000000000E+00 0. -1.
        -11    1    5    5    0    0 -0.99664202170E+02  0.25661036060E+03  0.17153231795E+03  0.32435345915E+03  0.00000000000E+00 0.  1.
         12    1    5    5    0    0 -0.23998431786E+03  0.32896500380E+03  0.25581277164E+03  0.48088524689E+03  0.00000000000E+00 0. -1.
          5    1    4    4  501    0  0.14394431435E+03 -0.28373386234E+02 -0.16697692533E+03  0.22232498347E+03  0.47000000000E+01 0.  1.
         -5    1    4    4    0  501  0.15520296850E+03 -0.10435931610E+03 -0.44695948010E+03  0.48453451388E+03  0.47000000000E+01 0.  1.
          1    1    1    2  502    0  0.26837451074E+02 -0.13293711735E+02 -0.16296657880E+04  0.16299409659E+04  0.00000000000E+00 0. -1.
          1    1    1    2  503    0 -0.22849011031E+02  0.27746902068E+01  0.59031446569E+03  0.59076301900E+03  0.00000000000E+00 0. -1.
<mgrwt>
<rscale>  0 0.26254068E+02</rscale>
<asrwt>0</asrwt>
<pdfrwt beam="1">  1        2 0.23726087E+00 0.23016868E+02</pdfrwt>
<pdfrwt beam="2">  1        2 0.38586542E+00 0.29946563E+02</pdfrwt>
<totfact> 0.13553702E+01</totfact>
</mgrwt>
</event>
<event>
13    1  0.1675423E-008  0.2589427E+03  0.7546771E-02  0.1163178E+00
          2   -1    0    0  503    0  0.00000000000E+00  0.00000000000E+00  0.16144812870E+04  0.16144812870E+04  0.00000000000E+00 0. -1.
          2   -1    0    0  502    0 -0.00000000000E+00 -0.00000000000E+00 -0.20954850195E+04  0.20954850195E+04  0.00000000000E+00 0. -1.
         24    2    1    2    0    0  0.17571246005E+03 -0.68828478891E+02  0.37733586904E+03  0.42944114963E+03  0.80156813836E+02 0.  0.
         25    2    1    2    0    0 -0.31803041148E+03  0.33596942474E+03  0.21777253581E+03  0.52637332839E+03  0.12500082598E+03 0.  0.
         24    2    1    2    0    0  0.27356539670E+02 -0.25535752746E+03 -0.90264374196E+02  0.28393861160E+03  0.80731845111E+02 0.  0.
        -11    1    5    5    0    0 -0.13276932773E+00 -0.56081995080E+01  0.11546768183E+02  0.12837343373E+02  0.00000000000E+00 0.  1.
         12    1    5    5    0    0  0.27489308997E+02 -0.24974932795E+03 -0.10181114238E+03  0.27110126823E+03  0.00000000000E+00 0. -1.
        -13    1    3    3    0    0  0.58771977956E+02 -0.23807547252E+02  0.21625603997E+03  0.22536108698E+03  0.00000000000E+00 0.  1.
         14    1    3    3    0    0  0.11694048210E+03 -0.45020931639E+02  0.16107982907E+03  0.20408006265E+03  0.00000000000E+00 0. -1.
          5    1    4    4  501    0 -0.22204148968E+03  0.18276495878E+03  0.78599527338E+02  0.29817013431E+03  0.47000000000E+01 0. -1.
         -5    1    4    4    0  501 -0.95988921802E+02  0.15320446596E+03  0.13917300848E+03  0.22820319408E+03  0.47000000000E+01 0. -1.
          1    1    1    2  502    0 -0.12378907704E+03 -0.45760124778E+02 -0.17058245191E+04  0.17109222702E+04  0.00000000000E+00 0. -1.
          1    1    1    2  503    0  0.23875048880E+03  0.33976706388E+02  0.71997675596E+03  0.75929094660E+03  0.00000000000E+00 0. -1.
<mgrwt>
<rscale>  0 0.18486287E+03</rscale>
<asrwt>0</asrwt>
<pdfrwt beam="1">  1        2 0.23742372E+00 0.25894271E+03</pdfrwt>
<pdfrwt beam="2">  1        2 0.30815956E+00 0.13197623E+03</pdfrwt>
<totfact> 0.16248947E+01</totfact>
</mgrwt>
</event>
<event>
13    1  0.1675423E-008  0.1104896E+03  0.7546771E-02  0.1287531E+00
          2   -1    0    0  502    0  0.00000000000E+00  0.00000000000E+00  0.16682813927E+04  0.16682813927E+04  0.00000000000E+00 0. -1.
          4   -1    0    0  503    0 -0.00000000000E+00 -0.00000000000E+00 -0.13211191471E+04  0.13211191471E+04  0.00000000000E+00 0. -1.
         24    2    1    2    0    0 -0.26120565997E+02  0.36011607405E+02  0.52277398700E+03  0.53093060049E+03  0.81335977409E+02 0.  0.
         25    2    1    2    0    0 -0.90091051374E+02 -0.16931215245E+03 -0.22193498712E+03  0.31884676377E+03  0.12500047099E+03 0.  0.
         24    2    1    2    0    0  0.14720487532E+03  0.96943915020E+02 -0.67637635191E+03  0.70510402487E+03  0.92840284847E+02 0.  0.
        -11    1    5    5    0    0  0.88181970086E+02  0.18120380793E+02 -0.21063925400E+03  0.22907052053E+03  0.00000000000E+00 0.  1.
         12    1    5    5    0    0  0.59022905232E+02  0.78823534227E+02 -0.46573709791E+03  0.47603350435E+03  0.00000000000E+00 0. -1.
        -11    1    3    3    0    0 -0.25904025742E+02  0.61680446596E+02  0.39045062435E+03  0.39614036162E+03  0.00000000000E+00 0.  1.
         12    1    3    3    0    0 -0.21654025480E+00 -0.25668839191E+02  0.13232336264E+03  0.13479023887E+03  0.00000000000E+00 0. -1.
          5    1    4    4  501    0 -0.53203451914E+02 -0.81567888372E+02 -0.25907718409E+02  0.10088224612E+03  0.47000000000E+01 0. -1.
         -5    1    4    4    0  501 -0.36887599460E+02 -0.87744264083E+02 -0.19602726871E+03  0.21796451765E+03  0.47000000000E+01 0. -1.
          1    1    1    2  502    0 -0.10454979233E+03 -0.52768862223E+01  0.10710031497E+04  0.10761069887E+04  0.00000000000E+00 0. -1.
          3    1    1    2  503    0  0.73556534383E+02  0.41633516251E+02 -0.34830355208E+03  0.35841216193E+03  0.00000000000E+00 0. -1.
<mgrwt>
<rscale>  0 0.96637278E+02</rscale>
<asrwt>0</asrwt>
<pdfrwt beam="1">  1        2 0.24533550E+00 0.11048957E+03</pdfrwt>
<pdfrwt beam="2">  1        4 0.19428223E+00 0.84521674E+02</pdfrwt>
<totfact> 0.11030050E+00</totfact>
</mgrwt>
</event>
<event>
13    1  0.1675423E-008  0.1524854E+03  0.7546771E-02  0.1272244E+00
          2   -1    0    0  502    0  0.00000000000E+00  0.00000000000E+00  0.10199866220E+04  0.10199866220E+04  0.00000000000E+00 0. -1.
          2   -1    0    0  503    0 -0.00000000000E+00 -0.00000000000E+00 -0.16733831028E+04  0.16733831028E+04  0.00000000000E+00 0. -1.
         24    2    1    2    0    0  0.10195300965E+02 -0.27709985895E+02  0.90504920640E+01  0.90302375498E+02  0.84857646290E+02 0.  0.
         25    2    1    2    0    0 -0.41542656225E+02 -0.11736255542E+03  0.39773517088E+03  0.43510565350E+03  0.12499560731E+03 0.  0.
         24    2    1    2    0    0 -0.14796860600E+03  0.41298872402E+02 -0.22250505072E+03  0.28252010452E+03  0.81907305156E+02 0.  0.
        -11    1    3    3    0    0 -0.11305502864E+02 -0.15916542831E+02  0.43694314603E+02  0.47857537122E+02  0.00000000000E+00 0.  1.
         12    1    3    3    0    0  0.21500803829E+02 -0.11793443064E+02 -0.34643822539E+02  0.42444838376E+02  0.00000000000E+00 0. -1.
        -13    1    5    5    0    0 -0.77991778226E+02  0.45481277428E+02 -0.17770813073E+03  0.19932747878E+03  0.00000000000E+00 0.  1.
         14    1    5    5    0    0 -0.69976827777E+02 -0.41824050254E+01 -0.44796919985E+02  0.83192625741E+02  0.00000000000E+00 0. -1.
          5    1    4    4  501    0 -0.91584949781E+01  0.26731137971E+02  0.66437085268E+02  0.72349209163E+02  0.47000000000E+01 0. -1.
         -5    1    4    4    0  501 -0.32384161247E+02 -0.14409369339E+03  0.33129808561E+03  0.36275644434E+03  0.47000000000E+01 0. -1.
          1    1    1    2  502    0  0.70777887665E+02 -0.28382275964E+01  0.51721064875E+03  0.52203871513E+03  0.00000000000E+00 0. -1.
          1    1    1    2  503    0  0.10853807360E+03  0.10661189651E+03 -0.13548877417E+04  0.13634028761E+04  0.00000000000E+00 0. -1.
<mgrwt>
<rscale>  0 0.10392915E+03</rscale>
<asrwt>0</asrwt>
<pdfrwt beam="1">  1        2 0.14999803E+00 0.70834772E+02</pdfrwt>
<pdfrwt beam="2">  1        2 0.24608575E+00 0.15248540E+03</pdfrwt>
<totfact> 0.57583114E+01</totfact>
</mgrwt>
</event>
<event>
13    1  0.1675423E-008  0.1000330E+03  0.7546771E-02  0.1367379E+00
          2   -1    0    0  503    0  0.00000000000E+00  0.00000000000E+00  0.11918382772E+04  0.11918382772E+04  0.00000000000E+00 0. -1.
          2   -1    0    0  502    0 -0.00000000000E+00 -0.00000000000E+00 -0.28829760576E+04  0.28829760576E+04  0.00000000000E+00 0. -1.
         24    2    1    2    0    0 -0.55047520259E+02  0.26962664805E+02 -0.38266247699E+02  0.11074284067E+03  0.83919343816E+02 0.  0.
         25    2    1    2    0    0  0.19079779550E+03 -0.15248725972E+03 -0.21690588502E+03  0.34975560542E+03  0.12499862968E+03 0.  0.
         24    2    1    2    0    0 -0.16858342586E+03  0.69909236282E+02 -0.24895312190E+03  0.31718409941E+03  0.72941231319E+02 0.  0.
        -11    1    3    3    0    0 -0.68143335947E+02  0.44156886528E+02 -0.23377911189E+02  0.84497760878E+02  0.00000000000E+00 0.  1.
         12    1    3    3    0    0  0.13095815688E+02 -0.17194221723E+02 -0.14888336510E+02  0.26245079791E+02  0.00000000000E+00 0. -1.
        -13    1    5    5    0    0 -0.63601302963E+02  0.21331445932E+01 -0.12961318638E+03  0.14439270801E+03  0.00000000000E+00 0.  1.
         14    1    5    5    0    0 -0.10498212289E+03  0.67776091689E+02 -0.11933993552E+03  0.17279139140E+03  0.00000000000E+00 0. -1.
          5    1    4    4  501    0  0.20415362172E+03 -0.12175718376E+03 -0.17160142306E+03  0.29321093338E+03  0.47000000000E+01 0. -1.
         -5    1    4    4    0  501 -0.13355826218E+02 -0.30730075958E+02 -0.45304461959E+02  0.56544672037E+02  0.47000000000E+01 0. -1.
          1    1    1    2  502    0  0.16868683405E+02  0.98852784869E+02 -0.22404466687E+04  0.22426898361E+04  0.00000000000E+00 0. -1.
          1    1    1    2  503    0  0.15964467207E+02 -0.43237426238E+02  0.10534341430E+04  0.10544419533E+04  0.00000000000E+00 0. -1.
<mgrwt>
<rscale>  0 0.67901221E+02</rscale>
<asrwt>0</asrwt>
<pdfrwt beam="1">  1        2 0.17527034E+00 0.46090555E+02</pdfrwt>
<pdfrwt beam="2">  1        2 0.42396706E+00 0.10003299E+03</pdfrwt>
<totfact> 0.12539450E+01</totfact>
</mgrwt>
</event>
<event>
13    1  0.1675423E-008  0.1407360E+03  0.7546771E-02  0.1250083E+00
          2   -1    0    0  503    0  0.00000000000E+00  0.00000000000E+00  0.15429134484E+04  0.15429134484E+04  0.00000000000E+00 0. -1.
          2   -1    0    0  502    0 -0.00000000000E+00 -0.00000000000E+00 -0.16955441262E+04  0.16955441262E+04  0.00000000000E+00 0. -1.
         24    2    1    2    0    0  0.26658693030E+02 -0.10326673453E+03 -0.44275271829E+03  0.46274165204E+03  0.82007088746E+02 0.  0.
         25    2    1    2    0    0 -0.15014935849E+03  0.71672326945E+02  0.39700278974E+02  0.21183910099E+03  0.12497175781E+03 0.  0.
         24    2    1    2    0    0  0.14339818226E+03  0.73638059678E+02  0.11178626745E+04  0.11321946723E+04  0.79134154704E+02 0.  0.
        -11    1    5    5    0    0  0.37427329006E+02  0.62640511325E+02  0.46963639065E+03  0.47527147825E+03  0.00000000000E+00 0.  1.
         12    1    5    5    0    0  0.10597085326E+03  0.10997548352E+02  0.64822628386E+03  0.65692319406E+03  0.00000000000E+00 0. -1.
        -11    1    3    3    0    0  0.30600657372E+02 -0.11008193721E+03 -0.43969203899E+03  0.45429453252E+03  0.00000000000E+00 0.  1.
         12    1    3    3    0    0 -0.39419643417E+01  0.68152026750E+01 -0.30606793045E+01  0.84471195196E+01  0.00000000000E+00 0. -1.
          5    1    4    4  501    0 -0.60212288265E+02  0.21835391650E+02  0.78868887101E+02  0.10170887542E+03  0.47000000000E+01 0.  1.
         -5    1    4    4    0  501 -0.89937070230E+02  0.49836935295E+02 -0.39168608127E+02  0.11013022557E+03  0.47000000000E+01 0.  1.
          1    1    1    2  502    0  0.26094281797E+02  0.91746543507E+02 -0.11296872951E+04  0.11337070717E+04  0.00000000000E+00 0. -1.
          1    1    1    2  503    0 -0.46001798594E+02 -0.13379019560E+03  0.26224638211E+03  0.29797507755E+03  0.00000000000E+00 0. -1.
<mgrwt>
<rscale>  0 0.11586255E+03</rscale>
<asrwt>0</asrwt>
<pdfrwt beam="1">  1        2 0.22689904E+00 0.14073597E+03</pdfrwt>
<pdfrwt beam="2">  1        2 0.24934472E+00 0.95385218E+02</pdfrwt>
<totfact> 0.29839853E+01</totfact>
</mgrwt>
</event>
<event>
13    1  0.1675423E-008  0.3754194E+02  0.7546771E-02  0.1597885E+00
          2   -1    0    0  503    0  0.00000000000E+00  0.00000000000E+00  0.19963386761E+04  0.19963386761E+04  0.00000000000E+00 0. -1.
          2   -1    0    0  502    0 -0.00000000000E+00 -0.00000000000E+00 -0.99742170579E+03  0.99742170579E+03  0.00000000000E+00 0. -1.
         24    2    1    2    0    0  0.61192453057E+03 -0.35265067419E+03  0.69881508837E+03  0.99669284283E+03  0.78993456084E+02 0.  0.
         25    2    1    2    0    0 -0.15696001195E+03 -0.88702925306E+02 -0.26644496999E+02  0.22098949145E+03  0.12498708655E+03 0.  0.
         24    2    1    2    0    0 -0.39786740642E+03  0.41941956167E+03 -0.29209454748E+03  0.65493484744E+03  0.97000968694E+02 0.  0.
        -11    1    3    3    0    0  0.49372158264E+03 -0.31859505815E+03  0.58305444784E+03  0.82777793000E+03  0.00000000000E+00 0.  1.
         12    1    3    3    0    0  0.11820294793E+03 -0.34055616036E+02  0.11576064053E+03  0.16891491283E+03  0.00000000000E+00 0. -1.
        -11    1    5    5    0    0 -0.29333041588E+03  0.31373526150E+03 -0.26249679221E+03  0.50336578461E+03  0.00000000000E+00 0.  1.
         12    1    5    5    0    0 -0.10453699054E+03  0.10568430017E+03 -0.29597755268E+02  0.15156906284E+03  0.00000000000E+00 0. -1.
          5    1    4    4  501    0  0.51811338357E+01  0.11738463578E+02  0.20336976476E+02  0.24501393576E+02  0.47000000000E+01 0.  1.
         -5    1    4    4    0  501 -0.16214114578E+03 -0.10044138888E+03 -0.46981473475E+02  0.19648809788E+03  0.47000000000E+01 0.  1.
          1    1    1    2  502    0 -0.33744216923E+02  0.16387162984E+02 -0.24958362800E+03  0.25238700175E+03  0.00000000000E+00 0. -1.
          1    1    1    2  503    0 -0.23352895284E+02  0.55468748437E+01  0.86842455440E+03  0.86875619838E+03  0.00000000000E+00 0. -1.
<mgrwt>
<rscale>  0 0.30018405E+02</rscale>
<asrwt>0</asrwt>
<pdfrwt beam="1">  1        2 0.29357922E+00 0.24002615E+02</pdfrwt>
<pdfrwt beam="2">  1        2 0.14667966E+00 0.37541937E+02</pdfrwt>
<totfact> 0.52066712E+01</totfact>
</mgrwt>
</event>
<event>
13    1  0.1675423E-008  0.8719681E+02  0.7546771E-02  0.1360369E+00
          2   -1    0    0  503    0  0.00000000000E+00  0.00000000000E+00  0.17010620765E+04  0.17010620765E+04  0.00000000000E+00 0. -1.
          2   -1    0    0  502    0 -0.00000000000E+00 -0.00000000000E+00 -0.17304800343E+04  0.17304800343E+04  0.00000000000E+00 0. -1.
         24    2    1    2    0    0  0.34311016233E+02 -0.51551001648E+01  0.22461596632E+03  0.24194923471E+03  0.82965528754E+02 0.  0.
         25    2    1    2    0    0 -0.15154284355E+03 -0.10487255111E+03 -0.44017792438E+03  0.49329971874E+03  0.12499808794E+03 0.  0.
         24    2    1    2    0    0  0.83541185930E+02 -0.16392276519E+01 -0.16319286767E+02  0.11698762659E+03  0.80236954328E+02 0.  0.
        -11    1    5    5    0    0  0.21835580189E+02 -0.38258787102E+02 -0.47388410432E+01  0.44305574900E+02  0.00000000000E+00 0.  1.
         12    1    5    5    0    0  0.61705605740E+02  0.36619559451E+02 -0.11580445724E+02  0.72682051686E+02  0.00000000000E+00 0. -1.
        -13    1    3    3    0    0  0.12549788449E+02  0.26670573179E+02  0.18244490432E+03  0.18481060515E+03  0.00000000000E+00 0.  1.
         14    1    3    3    0    0  0.21761227783E+02 -0.31825673344E+02  0.42171061998E+02  0.57138629564E+02  0.00000000000E+00 0. -1.
          5    1    4    4  501    0 -0.47621920107E+02  0.26199990620E+02 -0.91113674707E+02  0.10619829802E+03  0.47000000000E+01 0. -1.
         -5    1    4    4    0  501 -0.10392092344E+03 -0.13107254173E+03 -0.34906424967E+03  0.38710142072E+03  0.47000000000E+01 0. -1.
          1    1    1    2  502    0 -0.27013053093E+02  0.49127902435E+02 -0.11863931562E+04  0.11877171283E+04  0.00000000000E+00 0. -1.
          1    1    1    2  503    0  0.60703694481E+02  0.62538976494E+02  0.13888564432E+04  0.13915884024E+04  0.00000000000E+00 0. -1.
<mgrwt>
<rscale>  0 0.69919005E+02</rscale>
<asrwt>0</asrwt>
<pdfrwt beam="1">  1        2 0.25015619E+00 0.87196813E+02</pdfrwt>
<pdfrwt beam="2">  1        2 0.25448236E+00 0.56064747E+02</pdfrwt>
<totfact> 0.26242532E+01</totfact>
</mgrwt>
</event>
<event>
13    1  0.1675423E-008  0.8751386E+02  0.7546771E-02  0.1395650E+00
          2   -1    0    0  503    0  0.00000000000E+00  0.00000000000E+00  0.43496122777E+04  0.43496122777E+04  0.00000000000E+00 0. -1.
          2   -1    0    0  502    0 -0.00000000000E+00 -0.00000000000E+00 -0.19370077522E+04  0.19370077522E+04  0.00000000000E+00 0. -1.
         24    2    1    2    0    0 -0.97899109217E+02 -0.27453399275E+02  0.76221914649E+03  0.77327971132E+03  0.81520303891E+02 0.  0.
         25    2    1    2    0    0 -0.36812644315E+02  0.30401301584E+03 -0.78526103200E+03  0.85207881620E+03  0.12499734420E+03 0.  0.
         24    2    1    2    0    0  0.38677212871E+02 -0.19226207830E+03  0.69511069052E+03  0.72662512981E+03  0.79652831982E+02 0.  0.
        -11    1    5    5    0    0  0.50466477072E+02 -0.18631915826E+03  0.67839938880E+03  0.70532788458E+03  0.00000000000E+00 0.  1.
         12    1    5    5    0    0 -0.11789264200E+02 -0.59429200479E+01  0.16711301716E+02  0.21297245224E+02  0.00000000000E+00 0. -1.
        -11    1    3    3    0    0 -0.10942340068E+03 -0.31188315901E+02  0.60583168289E+03  0.61642373385E+03  0.00000000000E+00 0.  1.
         12    1    3    3    0    0  0.11524291460E+02  0.37349166256E+01  0.15638746360E+03  0.15685597746E+03  0.00000000000E+00 0. -1.
          5    1    4    4  501    0  0.34921691042E+02  0.19895323789E+03 -0.44267959176E+03  0.48660993242E+03  0.47000000000E+01 0.  1.
         -5    1    4    4    0  501 -0.71734335357E+02  0.10505977795E+03 -0.34258144024E+03  0.36546888378E+03  0.47000000000E+01 0.  1.
          1    1    1    2  502    0  0.24503713938E+02 -0.33934251035E+02 -0.10959764777E+04  0.10967754579E+04  0.00000000000E+00 0. -1.
          1    1    1    2  503    0  0.71530826722E+02 -0.50363287226E+02  0.28365121983E+04  0.28378609146E+04  0.00000000000E+00 0. -1.
<mgrwt>
<rscale>  0 0.60522909E+02</rscale>
<asrwt>0</asrwt>
<pdfrwt beam="1">  1        2 0.63964886E+00 0.87513857E+02</pdfrwt>
<pdfrwt beam="2">  1        2 0.28485408E+00 0.41856486E+02</pdfrwt>
<totfact> 0.72247374E-01</totfact>
</mgrwt>
</event>
<event>
13    1  0.1675423E-008  0.8973884E+02  0.7546771E-02  0.1392768E+00
          2   -1    0    0  503    0  0.00000000000E+00  0.00000000000E+00  0.13659254656E+04  0.13659254656E+04  0.00000000000E+00 0. -1.
          2   -1    0    0  502    0 -0.00000000000E+00 -0.00000000000E+00 -0.17643933005E+04  0.17643933005E+04  0.00000000000E+00 0. -1.
         24    2    1    2    0    0 -0.21191771076E+03 -0.23680218778E+03  0.74248225984E+03  0.81031847541E+03  0.65967667429E+02 0.  0.
         25    2    1    2    0    0  0.35169470066E+03  0.18733476896E+03 -0.77620198212E+03  0.88141810339E+03  0.12499951116E+03 0.  0.
         24    2    1    2    0    0 -0.13588129323E+03 -0.19465500892E+02 -0.19358930038E+03  0.25072109062E+03  0.80880260171E+02 0.  0.
        -13    1    5    5    0    0 -0.99423601118E+02 -0.41092002950E+02 -0.17269219131E+03  0.20346055663E+03  0.00000000000E+00 0.  1.
         14    1    5    5    0    0 -0.36457692111E+02  0.21626502058E+02 -0.20897109071E+02  0.47260533988E+02  0.00000000000E+00 0. -1.
        -13    1    3    3    0    0 -0.16715007428E+03 -0.21714484472E+03  0.59821059117E+03  0.65798703810E+03  0.00000000000E+00 0.  1.
         14    1    3    3    0    0 -0.44767636485E+02 -0.19657343053E+02  0.14427166867E+03  0.15233143731E+03  0.00000000000E+00 0. -1.
          5    1    4    4  501    0  0.70919301207E+02  0.43072416622E+02 -0.29030189134E+03  0.30196367078E+03  0.47000000000E+01 0.  1.
         -5    1    4    4    0  501  0.28077539945E+03  0.14426235234E+03 -0.48590009078E+03  0.57945443260E+03  0.47000000000E+01 0.  1.
          1    1    1    2  502    0 -0.44683105142E+02  0.77935221327E+02 -0.67567390705E+03  0.68161991409E+03  0.00000000000E+00 0. -1.
          1    1    1    2  503    0  0.40787408475E+02 -0.90023016202E+01  0.50451509476E+03  0.50624118260E+03  0.00000000000E+00 0. -1.
<mgrwt>
<rscale>  0 0.61223416E+02</rscale>
<asrwt>0</asrwt>
<pdfrwt beam="1">  1        2 0.20087139E+00 0.41769057E+02</pdfrwt>
<pdfrwt beam="2">  1        2 0.25946960E+00 0.89738838E+02</pdfrwt>
<totfact> 0.37275022E+01</totfact>
</mgrwt>
</event>
<event>
13    1  0.1675423E-008  0.6556301E+02  0.7546771E-02  0.1412789E+00
          2   -1    0    0  503    0  0.00000000000E+00  0.00000000000E+00  0.33076683782E+03  0.33076683782E+03  0.00000000000E+00 0. -1.
          2   -1    0    0  502    0 -0.00000000000E+00 -0.00000000000E+00 -0.25137815357E+04  0.25137815357E+04  0.00000000000E+00 0. -1.
         24    2    1    2    0    0  0.24419955479E+02  0.92783844564E+02  0.11107409237E+03  0.16740229428E+03  0.80504025352E+02 0.  0.
         25    2    1    2    0    0  0.31874757450E+02 -0.16160008814E+03 -0.75768880197E+03  0.78539661140E+03  0.12499971172E+03 0.  0.
         24    2    1    2    0    0 -0.50552755116E+02  0.24034665023E+02 -0.24933225788E+03  0.26779456593E+03  0.80088129898E+02 0.  0.
        -11    1    3    3    0    0  0.28854888250E+02 -0.96724888723E+00  0.13027013894E+02  0.31674015175E+02  0.00000000000E+00 0.  1.
         12    1    3    3    0    0 -0.44349327707E+01  0.93751093452E+02  0.98047078475E+02  0.13572827911E+03  0.00000000000E+00 0. -1.
        -11    1    5    5    0    0 -0.53106878231E+00  0.11273557735E+02 -0.18484558201E+03  0.18518980621E+03  0.00000000000E+00 0.  1.
         12    1    5    5    0    0 -0.50021686334E+02  0.12761107288E+02 -0.64486675872E+02  0.82604759717E+02  0.00000000000E+00 0. -1.
          5    1    4    4  501    0  0.73734314716E+02 -0.10616223584E+03 -0.38178869289E+03  0.40310279769E+03  0.47000000000E+01 0.  1.
         -5    1    4    4    0  501 -0.41859557266E+02 -0.55437852296E+02 -0.37590010907E+03  0.38229381371E+03  0.47000000000E+01 0.  1.
          1    1    1    2  502    0 -0.48547572351E+02 -0.51618576235E+01 -0.14486628505E+04  0.14494852762E+04  0.00000000000E+00 0. -1.
          1    1    1    2  503    0  0.42805614538E+02  0.49943436173E+02  0.16159512009E+03  0.17446962569E+03  0.00000000000E+00 0. -1.
<mgrwt>
<rscale>  0 0.56576199E+02</rscale>
<asrwt>0</asrwt>
<pdfrwt beam="1">  1        2 0.48642182E-01 0.65563013E+02</pdfrwt>
<pdfrwt beam="2">  1        2 0.36967376E+00 0.48821220E+02</pdfrwt>
<totfact> 0.90367564E+01</totfact>
</mgrwt>
</event>
<event>
13    1  0.1675423E-008  0.6726508E+02  0.7546771E-02  0.1436685E+00
          2   -1    0    0  503    0  0.00000000000E+00  0.00000000000E+00  0.23020274842E+04  0.23020274842E+04  0.00000000000E+00 0. -1.
         -1   -1    0    0    0  501 -0.00000000000E+00 -0.00000000000E+00 -0.28639040980E+03  0.28639040980E+03  0.00000000000E+00 0.  1.
         24    2    1    2    0    0 -0.74862554747E+01  0.77767824198E+01  0.98119711217E+03  0.98451412520E+03  0.80023542906E+02 0.  0.
         25    2    1    2    0    0 -0.13415376889E+02 -0.19429085488E+02 -0.15786615949E+03  0.20274669358E+03  0.12500814272E+03 0.  0.
         24    2    1    2    0    0 -0.21184621877E+02  0.92736309334E+01  0.11087427162E+03  0.13679299756E+03  0.76710049138E+02 0.  0.
        -11    1    3    3    0    0 -0.40709129814E+02  0.14421994838E+02  0.69048597278E+03  0.69183531696E+03  0.00000000000E+00 0.  1.
         12    1    3    3    0    0  0.33222874339E+02 -0.66452124184E+01  0.29071113939E+03  0.29267880824E+03  0.00000000000E+00 0. -1.
        -13    1    5    5    0    0 -0.73128464517E+01 -0.31805006010E+02  0.26925033539E+02  0.42308315514E+02  0.00000000000E+00 0.  1.
         14    1    5    5    0    0 -0.13871775426E+02  0.41078636943E+02  0.83949238081E+02  0.94484682044E+02  0.00000000000E+00 0. -1.
          5    1    4    4  502    0  0.38167202621E+02  0.27031705174E+02 -0.10602292128E+03  0.11597585213E+03  0.47000000000E+01 0. -1.
         -5    1    4    4    0  502 -0.51582579510E+02 -0.46460790662E+02 -0.51843238211E+02  0.86770841451E+02  0.47000000000E+01 0. -1.
          1    1    1    2  503    0 -0.16572773313E+02  0.36016514607E+02  0.11600153768E+04  0.11606926899E+04  0.00000000000E+00 0. -1.
         -2    1    1    2    0  501  0.58659027554E+02 -0.33637842472E+02 -0.78583526691E+02  0.10367138770E+03  0.00000000000E+00 0.  1.
<mgrwt>
<rscale>  0 0.51641319E+02</rscale>
<asrwt>0</asrwt>
<pdfrwt beam="1">  1        2 0.33853344E+00 0.39646515E+02</pdfrwt>
<pdfrwt beam="2">  1       -1 0.42116238E-01 0.67265077E+02</pdfrwt>
<totfact> 0.47520495E+01</totfact>
</mgrwt>
</event>
<event>
13    1  0.1675423E-008  0.8903448E+02  0.7546771E-02  0.1368001E+00
          2   -1    0    0  502    0  0.00000000000E+00  0.00000000000E+00  0.19652697136E+03  0.19652697136E+03  0.00000000000E+00 0. -1.
          2   -1    0    0  503    0 -0.00000000000E+00 -0.00000000000E+00 -0.35960259841E+04  0.35960259841E+04  0.00000000000E+00 0. -1.
         24    2    1    2    0    0 -0.13767993548E+03 -0.11007466941E+03  0.14607756314E+02  0.19436403130E+03  0.80571661510E+02 0.  0.
         25    2    1    2    0    0  0.27828283144E+03  0.12214185135E+03 -0.11924779102E+04  0.12369269189E+04  0.12499868092E+03 0.  0.
         24    2    1    2    0    0 -0.61391221994E+02 -0.23098012319E+02 -0.77627135985E+02  0.12788580251E+03  0.77629929350E+02 0.  0.
        -11    1    3    3    0    0 -0.11129967916E+03 -0.46432628025E+02  0.28883744430E+02  0.12400757323E+03  0.00000000000E+00 0.  1.
         12    1    3    3    0    0 -0.26380256321E+02 -0.63642041385E+02 -0.14275988115E+02  0.70356458068E+02  0.00000000000E+00 0. -1.
        -11    1    5    5    0    0 -0.21252289800E+02  0.17173467732E+02 -0.63748785962E+02  0.69357735886E+02  0.00000000000E+00 0.  1.
         12    1    5    5    0    0 -0.40138932194E+02 -0.40271480050E+02 -0.13878350023E+02  0.58528066622E+02  0.00000000000E+00 0. -1.
          5    1    4    4  501    0  0.25489994639E+03  0.63364643878E+02 -0.10153550042E+04  0.10487883177E+04  0.47000000000E+01 0.  1.
         -5    1    4    4    0  501  0.23382885045E+02  0.58777207476E+02 -0.17712290599E+03  0.18813860120E+03  0.47000000000E+01 0.  1.
          1    1    1    2  502    0 -0.80131117748E+02 -0.40478144397E+02 -0.10251054300E+01  0.89780437995E+02  0.00000000000E+00 0. -1.
          1    1    1    2  503    0  0.91944378470E+00  0.51508974772E+02 -0.21429766175E+04  0.21435957648E+04  0.00000000000E+00 0. -1.
<mgrwt>
<rscale>  0 0.67725957E+02</rscale>
<asrwt>0</asrwt>
<pdfrwt beam="1">  1        2 0.28901024E-01 0.89034478E+02</pdfrwt>
<pdfrwt beam="2">  1        2 0.52882737E+00 0.51517180E+02</pdfrwt>
<totfact> 0.41846108E+01</totfact>
</mgrwt>
</event>
<event>
13    1  0.1675423E-008  0.5868988E+02  0.7546771E-02  0.1416183E+00
          2   -1    0    0  503    0  0.00000000000E+00  0.00000000000E+00  0.47295340411E+03  0.47295340411E+03  0.00000000000E+00 0. -1.
          2   -1    0    0  502    0 -0.00000000000E+00 -0.00000000000E+00 -0.29495437869E+04  0.29495437869E+04  0.00000000000E+00 0. -1.
         24    2    1    2    0    0  0.23154402796E+03  0.82021398806E+02  0.18748071901E+03  0.31921319972E+03  0.80049360585E+02 0.  0.
         25    2    1    2    0    0 -0.41457336576E+03 -0.47291931329E+02 -0.87400925685E+03  0.97653654478E+03  0.12499535937E+03 0.  0.
         24    2    1    2    0    0  0.28935645089E+03 -0.65311627977E+00 -0.10352078502E+04  0.10801375093E+04  0.10636805695E+03 0.  0.
        -13    1    5    5    0    0  0.23061912800E+03 -0.39823315829E+02 -0.71842956966E+03  0.75558727176E+03  0.00000000000E+00 0.  1.
         14    1    5    5    0    0  0.58737322898E+02  0.39170199550E+02 -0.31677828058E+03  0.32455023753E+03  0.00000000000E+00 0. -1.
        -13    1    3    3    0    0  0.79461582144E+02  0.63923248292E+02  0.50785582241E+02  0.11392760891E+03  0.00000000000E+00 0.  1.
         14    1    3    3    0    0  0.15208244581E+03  0.18098150513E+02  0.13669513677E+03  0.20528559081E+03  0.00000000000E+00 0. -1.
          5    1    4    4  501    0 -0.33797293763E+03 -0.12375218752E+02 -0.78045761845E+03  0.85059687091E+03  0.47000000000E+01 0. -1.
         -5    1    4    4    0  501 -0.76600428128E+02 -0.34916712577E+02 -0.93551638408E+02  0.12593967387E+03  0.47000000000E+01 0. -1.
          1    1    1    2  502    0 -0.55872152156E+02 -0.17454381440E+02 -0.89490767686E+03  0.89681999472E+03  0.00000000000E+00 0. -1.
          1    1    1    2  503    0 -0.50454960939E+02 -0.16621969757E+02  0.14005368220E+03  0.14978994245E+03  0.00000000000E+00 0. -1.
<mgrwt>
<rscale>  0 0.55836810E+02</rscale>
<asrwt>0</asrwt>
<pdfrwt beam="1">  1        2 0.69551967E-01 0.53122434E+02</pdfrwt>
<pdfrwt beam="2">  1        2 0.43375647E+00 0.58689881E+02</pdfrwt>
<totfact> 0.36842699E+01</totfact>
</mgrwt>
</event>
<event>
13    1  0.1675423E-008  0.8060909E+02  0.7546771E-02  0.1459057E+00
          2   -1    0    0  502    0  0.00000000000E+00  0.00000000000E+00  0.11714924669E+04  0.11714924669E+04  0.00000000000E+00 0. -1.
          2   -1    0    0  503    0 -0.00000000000E+00 -0.00000000000E+00 -0.22817509414E+03  0.22817509414E+03  0.00000000000E+00 0. -1.
         24    2    1    2    0    0  0.10750492537E+02  0.75810133594E+02  0.18232433420E+02  0.11042081679E+03  0.77444081154E+02 0.  0.
         25    2    1    2    0    0 -0.62987272919E+02  0.45853581916E+02  0.50660953378E+02  0.15576949351E+03  0.12501062110E+03 0.  0.
         24    2    1    2    0    0  0.11211946185E+03 -0.68210868954E+02 -0.29170676100E+02  0.15708109559E+03  0.81240666402E+02 0.  0.
        -11    1    3    3    0    0 -0.18360365974E+02  0.52445131800E+02 -0.17991283467E+02  0.58406174066E+02  0.00000000000E+00 0.  1.
         12    1    3    3    0    0  0.29110858512E+02  0.23365001795E+02  0.36223716887E+02  0.52014642720E+02  0.00000000000E+00 0. -1.
        -13    1    5    5    0    0  0.16671744342E+02 -0.43193603741E+02 -0.35296611499E+02  0.58219285867E+02  0.00000000000E+00 0.  1.
         14    1    5    5    0    0  0.95447717511E+02 -0.25017265212E+02  0.61259353983E+01  0.98861809721E+02  0.00000000000E+00 0. -1.
          5    1    4    4  501    0  0.93416130806E+01  0.40392907630E+02 -0.26764680331E+02  0.49571068527E+02  0.47000000000E+01 0. -1.
         -5    1    4    4    0  501 -0.72328886000E+02  0.54606742864E+01  0.77425633709E+02  0.10619842498E+03  0.47000000000E+01 0. -1.
          1    1    1    2  502    0 -0.74948369889E+02 -0.29801616353E+02  0.93258282668E+03  0.93606416613E+03  0.00000000000E+00 0. -1.
          1    1    1    2  503    0  0.15065688418E+02 -0.23651230204E+02 -0.28988164569E+02  0.40331989075E+02  0.00000000000E+00 0. -1.
<mgrwt>
<rscale>  0 0.47544114E+02</rscale>
<asrwt>0</asrwt>
<pdfrwt beam="1">  1        2 0.17227830E+00 0.80609087E+02</pdfrwt>
<pdfrwt beam="2">  1        2 0.33555162E-01 0.28042034E+02</pdfrwt>
<totfact> 0.54687175E+02</totfact>
</mgrwt>
</event>
<event>
13    1  0.1675423E-008  0.1721396E+03  0.7546771E-02  0.1232597E+00
          2   -1    0    0  503    0  0.00000000000E+00  0.00000000000E+00  0.84453603741E+03  0.84453603741E+03  0.00000000000E+00 0. -1.
          2   -1    0    0  502    0 -0.00000000000E+00 -0.00000000000E+00 -0.22573121568E+04  0.22573121568E+04  0.00000000000E+00 0. -1.
         24    2    1    2    0    0 -0.12955442798E+00  0.18353422134E+02  0.26273714000E+03  0.27229609694E+03  0.69119424085E+02 0.  0.
         25    2    1    2    0    0  0.19075834808E+02  0.14242905447E+03  0.81345201169E+02  0.20708764220E+03  0.12497330422E+03 0.  0.
         24    2    1    2    0    0  0.91052842888E+02 -0.13105896367E+03 -0.25338264581E+03  0.31021799731E+03  0.81026961567E+02 0.  0.
        -11    1    3    3    0    0  0.32001799497E+02  0.22132101314E+02  0.15475346460E+03  0.15956998429E+03  0.00000000000E+00 0.  1.
         12    1    3    3    0    0 -0.32131353925E+02 -0.37786791794E+01  0.10798367540E+03  0.11272611265E+03  0.00000000000E+00 0. -1.
        -13    1    5    5    0    0  0.10122276032E+03 -0.86576626570E+02 -0.18311554291E+03  0.22643511550E+03  0.00000000000E+00 0.  1.
         14    1    5    5    0    0 -0.10169917436E+02 -0.44482337100E+02 -0.70267102899E+02  0.83782881810E+02  0.00000000000E+00 0. -1.
          5    1    4    4  501    0 -0.13801456150E+02  0.65140589528E+02 -0.25187552770E+02  0.71346194086E+02  0.47000000000E+01 0. -1.
         -5    1    4    4    0  501  0.32877290958E+02  0.77288464941E+02  0.10653275394E+03  0.13574144811E+03  0.47000000000E+01 0. -1.
          1    1    1    2  502    0 -0.14441476014E+03  0.99250787866E+02 -0.18926865208E+04  0.19007810521E+04  0.00000000000E+00 0. -1.
          1    1    1    2  503    0  0.34415636867E+02 -0.12897430080E+03  0.38921070608E+03  0.41146540566E+03  0.00000000000E+00 0. -1.
<mgrwt>
<rscale>  0 0.12659530E+03</rscale>
<asrwt>0</asrwt>
<pdfrwt beam="1">  1        2 0.12419648E+00 0.93100994E+02</pdfrwt>
<pdfrwt beam="2">  1        2 0.33195767E+00 0.17213961E+03</pdfrwt>
<totfact> 0.36803713E+01</totfact>
</mgrwt>
</event>
<event>
13    1  0.1675423E-008  0.1452736E+03  0.7546771E-02  0.1355647E+00
          2   -1    0    0  503    0  0.00000000000E+00  0.00000000000E+00  0.10458680029E+04  0.10458680029E+04  0.00000000000E+00 0. -1.
          2   -1    0    0  502    0 -0.00000000000E+00 -0.00000000000E+00 -0.35558284064E+04  0.35558284064E+04  0.00000000000E+00 0. -1.
         24    2    1    2    0    0  0.59279927152E+01  0.10827092141E+02  0.32481483026E+03  0.33505934836E+03  0.81287920054E+02 0.  0.
         25    2    1    2    0    0 -0.22156062076E+03  0.96274239180E+02 -0.19785598827E+04  0.19971686027E+04  0.12500152165E+03 0.  0.
         24    2    1    2    0    0 -0.15697416738E+02 -0.45101414925E+02 -0.14244724181E+02  0.94757679448E+02  0.80595031651E+02 0.  0.
        -11    1    5    5    0    0 -0.23025679330E+02  0.79194469853E+01 -0.30304894617E+02  0.38875264461E+02  0.00000000000E+00 0.  1.
         12    1    5    5    0    0  0.73282625920E+01 -0.53020861911E+02  0.16060170436E+02  0.55882414987E+02  0.00000000000E+00 0. -1.
        -11    1    3    3    0    0  0.32484426412E+02 -0.21970890636E+02  0.13324772327E+03  0.13889893358E+03  0.00000000000E+00 0.  1.
         12    1    3    3    0    0 -0.26556433697E+02  0.32797982777E+02  0.19156710699E+03  0.19616041478E+03  0.00000000000E+00 0. -1.
          5    1    4    4  501    0 -0.60140249878E+02 -0.26442828352E+02 -0.63135894476E+03  0.63478522348E+03  0.47000000000E+01 0.  1.
         -5    1    4    4    0  501 -0.16142037088E+03  0.12271706753E+03 -0.13472009380E+04  0.13623833792E+04  0.47000000000E+01 0.  1.
          1    1    1    2  502    0 -0.19282460140E+02 -0.29230507677E+02 -0.14841609127E+04  0.14845739627E+04  0.00000000000E+00 0. -1.
          1    1    1    2  503    0  0.25061250492E+03 -0.32769408719E+02  0.64219028586E+03  0.69013681616E+03  0.00000000000E+00 0. -1.
<mgrwt>
<rscale>  0 0.71324191E+02</rscale>
<asrwt>0</asrwt>
<pdfrwt beam="1">  1        2 0.15380412E+00 0.14527360E+03</pdfrwt>
<pdfrwt beam="2">  1        2 0.52291594E+00 0.35017651E+02</pdfrwt>
<totfact> 0.73201550E+00</totfact>
</mgrwt>
</event>
<event>
13    1  0.1675423E-008  0.5890704E+02  0.7546771E-02  0.1406808E+00
         -1   -1    0    0    0  501  0.00000000000E+00  0.00000000000E+00  0.11711731351E+04  0.11711731351E+04  0.00000000000E+00 0.  1.
         -1   -1    0    0    0  502 -0.00000000000E+00 -0.00000000000E+00 -0.26904817041E+03  0.26904817041E+03  0.00000000000E+00 0.  1.
         24    2    1    2    0    0  0.64751120042E+02  0.21844989594E+02  0.70986590453E+03  0.71771656597E+03  0.80855151577E+02 0.  0.
         25    2    1    2    0    0 -0.10884322208E+03  0.40628119094E+02 -0.11749831189E+03  0.20719261598E+03  0.12500174305E+03 0.  0.
         24    2    1    2    0    0  0.19642702046E+02 -0.91127757730E+02  0.21739527243E+02  0.12480411311E+03  0.80083429190E+02 0.  0.
        -13    1    3    3    0    0  0.58964291275E-01  0.34318563531E+02  0.14423623521E+03  0.14826280325E+03  0.00000000000E+00 0.  1.
         14    1    3    3    0    0  0.64692155751E+02 -0.12473573937E+02  0.56562966933E+03  0.56945376273E+03  0.00000000000E+00 0. -1.
        -13    1    5    5    0    0 -0.11996889454E+02 -0.87063008235E+02  0.28115823255E+02  0.92273464640E+02  0.00000000000E+00 0.  1.
         14    1    5    5    0    0  0.31639591500E+02 -0.40647494954E+01 -0.63762960121E+01  0.32530648466E+02  0.00000000000E+00 0. -1.
          5    1    4    4  503    0 -0.13591460229E+03  0.39987202334E+02 -0.87862548546E+02  0.16677431728E+03  0.47000000000E+01 0.  1.
         -5    1    4    4    0  503  0.27071380213E+02  0.64091676064E+00 -0.29635763348E+02  0.40418298704E+02  0.47000000000E+01 0.  1.
         -2    1    1    2    0  502  0.57117949562E+02 -0.17974536393E+02 -0.30320539492E+02  0.67118397149E+02  0.00000000000E+00 0.  1.
         -2    1    1    2    0  501 -0.32668549570E+02  0.46629185434E+02  0.31833838432E+03  0.32338961331E+03  0.00000000000E+00 0.  1.
<mgrwt>
<rscale>  0 0.57912274E+02</rscale>
<asrwt>0</asrwt>
<pdfrwt beam="1">  1       -1 0.17223134E+00 0.56934305E+02</pdfrwt>
<pdfrwt beam="2">  1       -1 0.39565908E-01 0.58907042E+02</pdfrwt>
<totfact> 0.15547670E+01</totfact>
</mgrwt>
</event>
<event>
13    1  0.1675423E-008  0.1048996E+03  0.7546771E-02  0.1288601E+00
          2   -1    0    0  502    0  0.00000000000E+00  0.00000000000E+00  0.12065548329E+04  0.12065548329E+04  0.00000000000E+00 0. -1.
          2   -1    0    0  503    0 -0.00000000000E+00 -0.00000000000E+00 -0.25331502842E+04  0.25331502842E+04  0.00000000000E+00 0. -1.
         24    2    1    2    0    0  0.40746116941E+02  0.62219385306E+02 -0.26608192150E+03  0.28795806673E+03  0.81171185121E+02 0.  0.
         25    2    1    2    0    0  0.15769637799E+03 -0.95579462461E+02 -0.50237379977E+03  0.54955237082E+03  0.12499916920E+03 0.  0.
         24    2    1    2    0    0 -0.45045635183E+02  0.21416534771E+01 -0.53821776459E+02  0.89139729305E+02  0.54912765280E+02 0.  0.
        -11    1    3    3    0    0 -0.51201571517E+01 -0.59657037505E+00  0.42365708590E+01  0.66723637576E+01  0.00000000000E+00 0.  1.
         12    1    3    3    0    0  0.45866274092E+02  0.62815955681E+02 -0.27031849236E+03  0.28128570298E+03  0.00000000000E+00 0. -1.
        -11    1    5    5    0    0 -0.50469592919E+02  0.80615976036E+01 -0.20840243790E+02  0.55194971932E+02  0.00000000000E+00 0.  1.
         12    1    5    5    0    0  0.54239577354E+01 -0.59199441265E+01 -0.32981532669E+02  0.33944757374E+02  0.00000000000E+00 0. -1.
          5    1    4    4  501    0  0.26233697418E+02  0.94215505681E+01 -0.21237478562E+03  0.21424778193E+03  0.47000000000E+01 0. -1.
         -5    1    4    4    0  501  0.13146268057E+03 -0.10500101303E+03 -0.28999901415E+03  0.33530458889E+03  0.47000000000E+01 0. -1.
          1    1    1    2  502    0 -0.70323579412E+02 -0.53086068344E+02  0.11505705575E+04  0.11539394023E+04  0.00000000000E+00 0. -1.
          1    1    1    2  503    0 -0.83073280336E+02  0.84304492021E+02 -0.16548885111E+04  0.16591155479E+04  0.00000000000E+00 0. -1.
<mgrwt>
<rscale>  0 0.96152422E+02</rscale>
<asrwt>0</asrwt>
<pdfrwt beam="1">  1        2 0.17743454E+00 0.88134653E+02</pdfrwt>
<pdfrwt beam="2">  1        2 0.37252209E+00 0.10489958E+03</pdfrwt>
<totfact> 0.17738824E+01</totfact>
</mgrwt>
</event>
<event>
13    1  0.1675423E-008  0.8610713E+02  0.7546771E-02  0.1387239E+00
          2   -1    0    0  502    0  0.00000000000E+00  0.00000000000E+00  0.51570861357E+03  0.51570861357E+03  0.00000000000E+00 0. -1.
          2   -1    0    0  503    0 -0.00000000000E+00 -0.00000000000E+00 -0.31650774031E+04  0.31650774031E+04  0.00000000000E+00 0. -1.
         24    2    1    2    0    0  0.48088505961E+03 -0.22002275674E+03  0.32246899509E+02  0.53599225587E+03  0.81162687128E+02 0.  0.
         25    2    1    2    0    0 -0.52257830587E+03  0.19779135989E+03 -0.13775882773E+04  0.14918416748E+04  0.12503044786E+03 0.  0.
         24    2    1    2    0    0 -0.14751679682E+02  0.22039322910E+02 -0.46155063501E+02  0.95586166984E+02  0.79391949366E+02 0.  0.
        -11    1    5    5    0    0 -0.22532768355E+02 -0.23425993895E+02 -0.33807500516E+01  0.32679233629E+02  0.00000000000E+00 0.  1.
         12    1    5    5    0    0  0.77810886728E+01  0.45465316804E+02 -0.42774313450E+02  0.62906933355E+02  0.00000000000E+00 0. -1.
        -11    1    3    3    0    0  0.73543196343E+02 -0.42352424666E+01  0.11501506994E+02  0.74557519207E+02  0.00000000000E+00 0.  1.
         12    1    3    3    0    0  0.40734186327E+03 -0.21578751428E+03  0.20745392515E+02  0.46143473666E+03  0.00000000000E+00 0. -1.
          5    1    4    4  501    0 -0.17719041277E+03  0.41337557763E+02 -0.31744827212E+03  0.36592448884E+03  0.47000000000E+01 0. -1.
         -5    1    4    4    0  501 -0.34538789310E+03  0.15645380213E+03 -0.10601400052E+04  0.11259171859E+04  0.47000000000E+01 0. -1.
          1    1    1    2  502    0  0.89987351099E+02 -0.30563770602E+02  0.13425887087E+03  0.16449106918E+03  0.00000000000E+00 0. -1.
          1    1    1    2  503    0 -0.33542425156E+02  0.30755844543E+02 -0.13921312191E+04  0.13928748499E+04  0.00000000000E+00 0. -1.
<mgrwt>
<rscale>  0 0.62598716E+02</rscale>
<asrwt>0</asrwt>
<pdfrwt beam="1">  1        2 0.75839500E-01 0.86107126E+02</pdfrwt>
<pdfrwt beam="2">  1        2 0.46545257E+00 0.45508420E+02</pdfrwt>
<totfact> 0.26956489E+01</totfact>
</mgrwt>
</event>
<event>
13    1  0.1675423E-008  0.5870141E+02  0.7546771E-02  0.1489203E+00
          2   -1    0    0  502    0  0.00000000000E+00  0.00000000000E+00  0.30083445207E+04  0.30083445207E+04  0.00000000000E+00 0. -1.
          2   -1    0    0  503    0 -0.00000000000E+00 -0.00000000000E+00 -0.84070020990E+03  0.84070020990E+03  0.00000000000E+00 0. -1.
         24    2    1    2    0    0  0.47092491243E+01  0.69775362473E+02  0.10632720191E+04  0.10685266399E+04  0.79441898574E+02 0.  0.
         25    2    1    2    0    0 -0.10857879056E+03 -0.16306146865E+03  0.22145719711E+02  0.23343960906E+03  0.12500088744E+03 0.  0.
         24    2    1    2    0    0  0.24804898418E+02  0.51843558764E+02  0.64704027440E+02  0.10043936208E+03  0.50974667406E+02 0.  0.
        -11    1    3    3    0    0 -0.35731969278E+01  0.32362496157E+02  0.11607872874E+03  0.12055857564E+03  0.00000000000E+00 0.  1.
         12    1    3    3    0    0  0.82824460522E+01  0.37412866316E+02  0.94719329039E+03  0.94796806425E+03  0.00000000000E+00 0. -1.
        -13    1    5    5    0    0  0.10862666925E+02  0.58450445202E+02  0.59616642446E+02  0.84193801040E+02  0.00000000000E+00 0.  1.
         14    1    5    5    0    0  0.13942231493E+02 -0.66068864385E+01  0.50873849943E+01  0.16245561040E+02  0.00000000000E+00 0. -1.
          5    1    4    4  501    0 -0.72838423316E+02 -0.28177445900E+02 -0.30849473935E+02  0.84102225955E+02  0.47000000000E+01 0. -1.
         -5    1    4    4    0  501 -0.35740367247E+02 -0.13488402275E+03  0.52995193646E+02  0.14933738311E+03  0.47000000000E+01 0. -1.
          1    1    1    2  502    0  0.25213121003E+02  0.18150686805E+02  0.17307367809E+04  0.17310155845E+04  0.00000000000E+00 0. -1.
          1    1    1    2  503    0  0.53851522017E+02  0.23291860607E+02 -0.71321423632E+03  0.71562353517E+03  0.00000000000E+00 0. -1.
<mgrwt>
<rscale>  0 0.42704424E+02</rscale>
<asrwt>0</asrwt>
<pdfrwt beam="1">  1        2 0.44240360E+00 0.31066846E+02</pdfrwt>
<pdfrwt beam="2">  1        2 0.12363239E+00 0.58701415E+02</pdfrwt>
<totfact> 0.20293053E+01</totfact>
</mgrwt>
</event>
<event>
13    1  0.1675423E-008  0.1056812E+03  0.7546771E-02  0.1310764E+00
          2   -1    0    0  503    0  0.00000000000E+00  0.00000000000E+00  0.23001635698E+04  0.23001635698E+04  0.00000000000E+00 0. -1.
          2   -1    0    0  502    0 -0.00000000000E+00 -0.00000000000E+00 -0.55401323694E+03  0.55401323694E+03  0.00000000000E+00 0. -1.
         24    2    1    2    0    0 -0.11092274107E+03 -0.25593389491E+03  0.21487417746E+03  0.36119398424E+03  0.80524338316E+02 0.  0.
         25    2    1    2    0    0  0.10554434112E+03  0.20434809112E+03 -0.19171074125E+02  0.26246918845E+03  0.12499917806E+03 0.  0.
         24    2    1    2    0    0  0.70967326925E+02  0.12653010185E+01  0.42523920578E+03  0.43856581609E+03  0.80458874166E+02 0.  0.
        -11    1    5    5    0    0  0.85475155646E+02 -0.13492805639E+02  0.33705199783E+03  0.34798291234E+03  0.00000000000E+00 0.  1.
         12    1    5    5    0    0 -0.14507828721E+02  0.14758106657E+02  0.88187207954E+02  0.90582903757E+02  0.00000000000E+00 0. -1.
        -13    1    3    3    0    0 -0.34525087110E+02 -0.10250549800E+03  0.13246246758E+03  0.17101363711E+03  0.00000000000E+00 0.  1.
         14    1    3    3    0    0 -0.76397653958E+02 -0.15342839690E+03  0.82411709876E+02  0.19018034712E+03  0.00000000000E+00 0. -1.
          5    1    4    4  501    0  0.26654534134E+02  0.44328715023E+02  0.49016466113E+02  0.71415706366E+02  0.47000000000E+01 0.  1.
         -5    1    4    4    0  501  0.78889806991E+02  0.16001937609E+03 -0.68187540238E+02  0.19105348208E+03  0.47000000000E+01 0.  1.
          1    1    1    2  502    0  0.69222251181E+02 -0.17128047422E+02 -0.32560618721E+03  0.33332338535E+03  0.00000000000E+00 0. -1.
          1    1    1    2  503    0 -0.13481117816E+03  0.67448550193E+02  0.14508142109E+04  0.14586244326E+04  0.00000000000E+00 0. -1.
<mgrwt>
<rscale>  0 0.86810748E+02</rscale>
<asrwt>0</asrwt>
<pdfrwt beam="1">  1        2 0.33825934E+00 0.10568119E+03</pdfrwt>
<pdfrwt beam="2">  1        2 0.81472536E-01 0.71309817E+02</pdfrwt>
<totfact> 0.60429616E+01</totfact>
</mgrwt>
</event>
<event>
13    1  0.1675423E-008  0.7445615E+02  0.7546771E-02  0.1480100E+00
          2   -1    0    0  503    0  0.00000000000E+00  0.00000000000E+00  0.23343322055E+04  0.23343322055E+04  0.00000000000E+00 0. -1.
         -3   -1    0    0    0  501 -0.00000000000E+00 -0.00000000000E+00 -0.46435234689E+03  0.46435234689E+03  0.00000000000E+00 0.  1.
         24    2    1    2    0    0  0.61636278157E+02  0.60234935783E+02  0.22846845407E+03  0.24986791568E+03  0.52998702871E+02 0.  0.
         25    2    1    2    0    0  0.43195903718E+02 -0.76645729099E+02  0.24025137676E+03  0.28475645143E+03  0.12500023484E+03 0.  0.
         24    2    1    2    0    0 -0.31155603469E+02 -0.51715357699E+02 -0.75209509028E+02  0.12522898594E+03  0.79879151356E+02 0.  0.
        -11    1    3    3    0    0  0.71242803524E+02  0.50573305525E+02  0.19223482524E+03  0.21115734493E+03  0.00000000000E+00 0.  1.
         12    1    3    3    0    0 -0.96065253670E+01  0.96616302580E+01  0.36233628835E+02  0.38710570746E+02  0.00000000000E+00 0. -1.
        -13    1    5    5    0    0  0.21529652139E+02 -0.11463016036E+02  0.75073701979E+00  0.24402669197E+02  0.00000000000E+00 0.  1.
         14    1    5    5    0    0 -0.52685255609E+02 -0.40252341663E+02 -0.75960246048E+02  0.10082631674E+03  0.00000000000E+00 0. -1.
          5    1    4    4  502    0  0.38694823090E+02 -0.88987797293E+02  0.24968134959E+03  0.26791600127E+03  0.47000000000E+01 0.  1.
         -5    1    4    4    0  502  0.45010806277E+01  0.12342068194E+02 -0.94299728327E+01  0.16840450165E+02  0.47000000000E+01 0.  1.
          1    1    1    2  503    0 -0.19665014306E+02  0.17174769085E+02  0.18033928404E+04  0.18035818313E+04  0.00000000000E+00 0. -1.
         -4    1    1    2    0  501 -0.54011564099E+02  0.50951381930E+02 -0.32692330355E+03  0.33524936806E+03  0.00000000000E+00 0.  1.
<mgrwt>
<rscale>  0 0.44090630E+02</rscale>
<asrwt>0</asrwt>
<pdfrwt beam="1">  1        2 0.34328414E+00 0.26109107E+02</pdfrwt>
<pdfrwt beam="2">  1       -3 0.68287111E-01 0.74456153E+02</pdfrwt>
<totfact> 0.94501988E+00</totfact>
</mgrwt>
</event>
<event>
13    1  0.1675423E-008  0.2403725E+03  0.7546771E-02  0.1234901E+00
          2   -1    0    0  502    0  0.00000000000E+00  0.00000000000E+00  0.15168844569E+04  0.15168844569E+04  0.00000000000E+00 0. -1.
          2   -1    0    0  503    0 -0.00000000000E+00 -0.00000000000E+00 -0.71427750210E+03  0.71427750210E+03  0.00000000000E+00 0. -1.
         24    2    1    2    0    0 -0.11114236533E+03  0.65191839672E+02  0.27843006255E+03  0.31660156468E+03  0.78170644696E+02 0.  0.
         25    2    1    2    0    0  0.45201684123E+03  0.24158396639E+03  0.85758567128E+02  0.53447027728E+03  0.12498763093E+03 0.  0.
         24    2    1    2    0    0 -0.91112147294E+02 -0.47293083075E+02 -0.43458549715E+02  0.13545846160E+03  0.76956417432E+02 0.  0.
        -11    1    3    3    0    0 -0.60485986419E+02  0.75966165416E+02  0.15721371990E+03  0.18478519033E+03  0.00000000000E+00 0.  1.
         12    1    3    3    0    0 -0.50656378907E+02 -0.10774325744E+02  0.12121634265E+03  0.13181637435E+03  0.00000000000E+00 0. -1.
        -13    1    5    5    0    0 -0.80343194955E+02 -0.18083505168E+02 -0.58368987622E+02  0.10094048172E+03  0.00000000000E+00 0.  1.
         14    1    5    5    0    0 -0.10768952340E+02 -0.29209577908E+02  0.14910437907E+02  0.34517979874E+02  0.00000000000E+00 0. -1.
          5    1    4    4  501    0  0.33159184639E+03  0.11298859306E+03  0.41803367284E+02  0.35283025136E+03  0.47000000000E+01 0. -1.
         -5    1    4    4    0  501  0.12042499483E+03  0.12859537333E+03  0.43955199844E+02  0.18164002592E+03  0.47000000000E+01 0. -1.
          1    1    1    2  502    0 -0.19983172345E+02  0.61973224293E+02  0.75913739785E+03  0.76192492840E+03  0.00000000000E+00 0. -1.
          1    1    1    2  503    0 -0.22977915626E+03 -0.32145594728E+03 -0.27726052303E+03  0.48270672704E+03  0.00000000000E+00 0. -1.
<mgrwt>
<rscale>  0 0.12510769E+03</rscale>
<asrwt>0</asrwt>
<pdfrwt beam="1">  1        2 0.22307124E+00 0.65115342E+02</pdfrwt>
<pdfrwt beam="2">  1        2 0.10504081E+00 0.24037245E+03</pdfrwt>
<totfact> 0.10987606E+02</totfact>
</mgrwt>
</event>
<event>
13    1  0.1675423E-008  0.2376806E+03  0.7546771E-02  0.1263587E+00
          2   -1    0    0  502    0  0.00000000000E+00  0.00000000000E+00  0.46931661012E+04  0.46931661012E+04  0.00000000000E+00 0. -1.
          2   -1    0    0  503    0 -0.00000000000E+00 -0.00000000000E+00 -0.30168607883E+04  0.30168607883E+04  0.00000000000E+00 0. -1.
         24    2    1    2    0    0 -0.19150965259E+03 -0.22822081780E+02  0.92557107414E+03  0.94865681982E+03  0.77917610582E+02 0.  0.
         25    2    1    2    0    0  0.26615730203E+03  0.29035562670E+03  0.97690148502E+02  0.42463310937E+03  0.12499525224E+03 0.  0.
         24    2    1    2    0    0 -0.15581166842E+03 -0.74319121224E+02 -0.12694364957E+03  0.22903840811E+03  0.80890632511E+02 0.  0.
        -13    1    3    3    0    0 -0.55420308293E+01 -0.19759485418E+01  0.17536424334E+03  0.17546292007E+03  0.00000000000E+00 0.  1.
         14    1    3    3    0    0 -0.18596762176E+03 -0.20846133239E+02  0.75020683081E+03  0.77319389975E+03  0.00000000000E+00 0. -1.
        -13    1    5    5    0    0 -0.13859723866E+03 -0.29368292499E+02 -0.85167576352E+02  0.16530337937E+03  0.00000000000E+00 0.  1.
         14    1    5    5    0    0 -0.17214429756E+02 -0.44950828725E+02 -0.41776073222E+02  0.63735028742E+02  0.00000000000E+00 0. -1.
          5    1    4    4  501    0  0.15396367224E+03  0.18767994398E+03 -0.18577276456E+01  0.24280468467E+03  0.47000000000E+01 0.  1.
         -5    1    4    4    0  501  0.11219362979E+03  0.10267568271E+03  0.99547876147E+02  0.18182842471E+03  0.47000000000E+01 0.  1.
          1    1    1    2  502    0  0.12249002679E+03 -0.22032772711E+03  0.34390000020E+04  0.34482269542E+04  0.00000000000E+00 0. -1.
          1    1    1    2  503    0 -0.41326007809E+02  0.27113303412E+02 -0.26590122621E+04  0.26594715979E+04  0.00000000000E+00 0. -1.
<mgrwt>
<rscale>  0 0.10838681E+03</rscale>
<asrwt>0</asrwt>
<pdfrwt beam="1">  1        2 0.69017149E+00 0.23768061E+03</pdfrwt>
<pdfrwt beam="2">  1        2 0.44365600E+00 0.49426411E+02</pdfrwt>
<totfact> 0.89662300E-02</totfact>
</mgrwt>
</event>
<event>
13    1  0.1675423E-008  0.1151699E+03  0.7546771E-02  0.1254341E+00
          2   -1    0    0  503    0  0.00000000000E+00  0.00000000000E+00  0.11614180515E+04  0.11614180515E+04  0.00000000000E+00 0. -1.
          2   -1    0    0  502    0 -0.00000000000E+00 -0.00000000000E+00 -0.12973256025E+04  0.12973256025E+04  0.00000000000E+00 0. -1.
         24    2    1    2    0    0 -0.60344290068E+02  0.10203652777E+02  0.64004211567E+03  0.64791327924E+03  0.79950983163E+02 0.  0.
         25    2    1    2    0    0  0.94550252527E+02  0.14764592351E+02 -0.13631255405E+03  0.20823906688E+03  0.12499861256E+03 0.  0.
         24    2    1    2    0    0 -0.30429768000E+02 -0.32312621598E+02 -0.59541157549E+03  0.60252825934E+03  0.80964700863E+02 0.  0.
        -11    1    5    5    0    0 -0.25255350490E+01  0.26587261547E+02 -0.14725845295E+03  0.14966065872E+03  0.00000000000E+00 0.  1.
         12    1    5    5    0    0 -0.27904232951E+02 -0.58899883145E+02 -0.44815312254E+03  0.45286760062E+03  0.00000000000E+00 0. -1.
        -13    1    3    3    0    0 -0.70521053997E+02  0.23614315331E+02  0.59829664730E+03  0.60290109729E+03  0.00000000000E+00 0.  1.
         14    1    3    3    0    0  0.10176763929E+02 -0.13410662555E+02  0.41745468376E+02  0.45012181952E+02  0.00000000000E+00 0. -1.
          5    1    4    4  501    0  0.79237293783E+02 -0.76535880947E+00 -0.10042283171E+02  0.80012948649E+02  0.47000000000E+01 0.  1.
         -5    1    4    4    0  501  0.15312958744E+02  0.15529951161E+02 -0.12627027088E+03  0.12822611823E+03  0.47000000000E+01 0.  1.
          1    1    1    2  502    0 -0.98231875769E+02  0.14128349151E+03 -0.49306861219E+03  0.52223288169E+03  0.00000000000E+00 0. -1.
          1    1    1    2  503    0  0.94455681311E+02 -0.13393911504E+03  0.44884307513E+03  0.47783016686E+03  0.00000000000E+00 0. -1.
<mgrwt>
<rscale>  0 0.11343317E+03</rscale>
<asrwt>0</asrwt>
<pdfrwt beam="1">  1        2 0.17079677E+00 0.11516990E+03</pdfrwt>
<pdfrwt beam="2">  1        2 0.19078317E+00 0.11172262E+03</pdfrwt>
<totfact> 0.74256627E+01</totfact>
</mgrwt>
</event>
<event>
13    1  0.1675423E-008  0.8012260E+02  0.7546771E-02  0.1382646E+00
         -1   -1    0    0    0  501 -0.00000000000E+00  0.00000000000E+00  0.99896821726E+03  0.99896821726E+03  0.00000000000E+00 0.  1.
          2   -1    0    0  503    0  0.00000000000E+00 -0.00000000000E+00 -0.43102275874E+03  0.43102275874E+03  0.00000000000E+00 0. -1.
         24    2    1    2    0    0  0.11110257308E+03  0.15081709761E+02  0.41555046682E+02  0.14448513431E+03  0.81104207148E+02 0.  0.
         25    2    1    2    0    0 -0.11513060472E+03 -0.15640377605E+03  0.12276399159E+03  0.26155873761E+03  0.12499911312E+03 0.  0.
         24    2    1    2    0    0 -0.11158305798E+02  0.47197509965E+02  0.45814650911E+03  0.46782820493E+03  0.81319694915E+02 0.  0.
        -13    1    3    3    0    0  0.12238511875E+03  0.18590176907E+02  0.45712417452E+02  0.13195960397E+03  0.00000000000E+00 0.  1.
         14    1    3    3    0    0 -0.11282545674E+02 -0.35084671458E+01 -0.41573707700E+01  0.12525530341E+02  0.00000000000E+00 0. -1.
        -13    1    5    5    0    0  0.30076321419E+02  0.14438090986E+02  0.90980672731E+02  0.96904728430E+02  0.00000000000E+00 0.  1.
         14    1    5    5    0    0 -0.41234627217E+02  0.32759418979E+02  0.36716583638E+03  0.37092347650E+03  0.00000000000E+00 0. -1.
          5    1    4    4  502    0 -0.11838798103E+03 -0.16647647761E+03  0.83696899277E+02  0.22081076196E+03  0.47000000000E+01 0. -1.
         -5    1    4    4    0  502  0.32573763101E+01  0.10072701561E+02  0.39067092313E+02  0.40747975643E+02  0.47000000000E+01 0. -1.
          1    1    1    2  503    0 -0.37680012016E+02  0.34011903801E+02 -0.29672093342E+03  0.30103140241E+03  0.00000000000E+00 0. -1.
         -2    1    1    2    0  501  0.52866349455E+02  0.60112652522E+02  0.24220084455E+03  0.25508749675E+03  0.00000000000E+00 0.  1.
<mgrwt>
<rscale>  0 0.63773312E+02</rscale>
<asrwt>0</asrwt>
<pdfrwt beam="2">  1        2 0.63385700E-01 0.50760151E+02</pdfrwt>
<pdfrwt beam="1">  1       -1 0.14690709E+00 0.80122601E+02</pdfrwt>
<totfact> 0.38809734E+01</totfact>
</mgrwt>
</event>
<event>
13    1  0.1675423E-008  0.1080567E+03  0.7546771E-02  0.1348431E+00
          2   -1    0    0  503    0  0.00000000000E+00  0.00000000000E+00  0.19147872254E+04  0.19147872254E+04  0.00000000000E+00 0. -1.
          2   -1    0    0  502    0 -0.00000000000E+00 -0.00000000000E+00 -0.33256353195E+04  0.33256353195E+04  0.00000000000E+00 0. -1.
         24    2    1    2    0    0 -0.32033624857E+02 -0.66591562305E+02  0.50703781146E+02  0.12218988543E+03  0.83059649572E+02 0.  0.
         25    2    1    2    0    0 -0.18167566114E+03  0.22536667827E+03 -0.15422908964E+04  0.15741923585E+04  0.12499674821E+03 0.  0.
         24    2    1    2    0    0  0.11298050218E+03 -0.15364292320E+03 -0.82177180535E+02  0.22239353120E+03  0.79593039873E+02 0.  0.
        -11    1    3    3    0    0  0.21419026561E+02 -0.45080280253E+02  0.39129268027E+02  0.63420075551E+02  0.00000000000E+00 0.  1.
         12    1    3    3    0    0 -0.53452651419E+02 -0.21511282052E+02  0.11574513119E+02  0.58769809878E+02  0.00000000000E+00 0. -1.
        -13    1    5    5    0    0 -0.85159412592E+01 -0.26393780342E+02 -0.25167588918E+02  0.37450773400E+02  0.00000000000E+00 0.  1.
         14    1    5    5    0    0  0.12149644344E+03 -0.12724914286E+03 -0.57009591618E+02  0.18494275780E+03  0.00000000000E+00 0. -1.
          5    1    4    4  501    0 -0.37548518646E+02  0.21864669954E+01 -0.38146288130E+03  0.38334148184E+03  0.47000000000E+01 0. -1.
         -5    1    4    4    0  501 -0.14412714250E+03  0.22318021128E+03 -0.11608280151E+04  0.11908508767E+04  0.47000000000E+01 0. -1.
          1    1    1    2  502    0 -0.30507102308E+02 -0.39688415945E+02 -0.15763247069E+04  0.15771193471E+04  0.00000000000E+00 0. -1.
          1    1    1    2  503    0  0.13123588613E+03  0.34556223177E+02  0.17392409085E+04  0.17445274226E+04  0.00000000000E+00 0. -1.
<mgrwt>
<rscale>  0 0.73546959E+02</rscale>
<asrwt>0</asrwt>
<pdfrwt beam="1">  1        2 0.28158636E+00 0.10805667E+03</pdfrwt>
<pdfrwt beam="2">  1        2 0.48906401E+00 0.50058502E+02</pdfrwt>
<totfact> 0.33767601E+00</totfact>
</mgrwt>
</event>
<event>
13    1  0.1675423E-008  0.1763796E+03  0.7546771E-02  0.1272726E+00
          2   -1    0    0  503    0  0.00000000000E+00  0.00000000000E+00  0.18019365520E+04  0.18019365520E+04  0.00000000000E+00 0. -1.
          2   -1    0    0  502    0 -0.00000000000E+00 -0.00000000000E+00 -0.16234623734E+04  0.16234623734E+04  0.00000000000E+00 0. -1.
         24    2    1    2    0    0 -0.30551712003E+03  0.78059872158E+02 -0.61402715774E+02  0.33501728986E+03  0.95038080409E+02 0.  0.
         25    2    1    2    0    0 -0.39587280001E+02  0.14530708928E+02 -0.41593883961E+03  0.43635516820E+03  0.12498968070E+03 0.  0.
         24    2    1    2    0    0  0.41395655765E+02 -0.91883517654E-01  0.17950731812E+03  0.20102658405E+03  0.80468636594E+02 0.  0.
        -11    1    3    3    0    0  0.11694351200E+01  0.12659500506E+02 -0.12159409612E+02  0.17592094067E+02  0.00000000000E+00 0.  1.
         12    1    3    3    0    0 -0.30668655515E+03  0.65400371652E+02 -0.49243306162E+02  0.31742519579E+03  0.00000000000E+00 0. -1.
        -13    1    5    5    0    0  0.22112585018E+02 -0.36740144867E+02  0.54554447745E+02  0.69390146490E+02  0.00000000000E+00 0.  1.
         14    1    5    5    0    0  0.19283070747E+02  0.36648261349E+02  0.12495287038E+03  0.13163643756E+03  0.00000000000E+00 0. -1.
          5    1    4    4  501    0 -0.34607897634E+01  0.61576277541E+02 -0.12586663229E+03  0.14024305382E+03  0.47000000000E+01 0.  1.
         -5    1    4    4    0  501 -0.36126490238E+02 -0.47045568613E+02 -0.29007220732E+03  0.29611211438E+03  0.47000000000E+01 0.  1.
          1    1    1    2  502    0  0.25599527060E+02  0.55319259196E+02 -0.97044698619E+03  0.97235945474E+03  0.00000000000E+00 0. -1.
          1    1    1    2  503    0  0.27810921721E+03 -0.14781795676E+03  0.14467554021E+04  0.14806404285E+04  0.00000000000E+00 0. -1.
<mgrwt>
<rscale>  0 0.10368838E+03</rscale>
<asrwt>0</asrwt>
<pdfrwt beam="1">  1        2 0.26499067E+00 0.17637957E+03</pdfrwt>
<pdfrwt beam="2">  1        2 0.23874447E+00 0.60955363E+02</pdfrwt>
<totfact> 0.24537920E+01</totfact>
</mgrwt>
</event>
<event>
13    1  0.1675423E-008  0.4299833E+03  0.7546771E-02  0.1225700E+00
          2   -1    0    0  502    0  0.00000000000E+00  0.00000000000E+00  0.87926256052E+03  0.87926256052E+03  0.00000000000E+00 0. -1.
          2   -1    0    0  503    0 -0.00000000000E+00 -0.00000000000E+00 -0.34922054604E+04  0.34922054604E+04  0.00000000000E+00 0. -1.
         24    2    1    2    0    0 -0.30908123921E+03  0.22212230012E+03  0.14203479422E+03  0.41380437204E+03  0.78680664124E+02 0.  0.
         25    2    1    2    0    0  0.50422906516E+03 -0.30236148423E+03 -0.15988601172E+03  0.62197905517E+03  0.12499996411E+03 0.  0.
         24    2    1    2    0    0  0.14418718079E+03  0.39902123794E+03  0.10772814784E+03  0.44251216712E+03  0.64836508096E+02 0.  0.
        -11    1    3    3    0    0 -0.85626926130E+02  0.10716369101E+03  0.56548597853E+02  0.14837038474E+03  0.00000000000E+00 0.  1.
         12    1    3    3    0    0 -0.22345431308E+03  0.11495860911E+03  0.85486196371E+02  0.26543398730E+03  0.00000000000E+00 0. -1.
        -13    1    5    5    0    0  0.78389052759E+02  0.15142386880E+03  0.66524760101E+02  0.18302889210E+03  0.00000000000E+00 0.  1.
         14    1    5    5    0    0  0.65798128030E+02  0.24759736914E+03  0.41203387735E+02  0.25948327502E+03  0.00000000000E+00 0. -1.
          5    1    4    4  501    0  0.39065251443E+03 -0.19329810752E+03 -0.72627475490E+02  0.44189408866E+03  0.47000000000E+01 0.  1.
         -5    1    4    4    0  501  0.11357655073E+03 -0.10906337672E+03 -0.87258536235E+02  0.18008496651E+03  0.47000000000E+01 0.  1.
          1    1    1    2  502    0 -0.24282355141E+02 -0.31820002541E+02  0.73845240524E+02  0.83995624177E+02  0.00000000000E+00 0. -1.
          1    1    1    2  503    0 -0.31505265160E+03 -0.28696205128E+03 -0.27766650707E+04  0.28091768024E+04  0.00000000000E+00 0. -1.
<mgrwt>
<rscale>  0 0.13119017E+03</rscale>
<asrwt>0</asrwt>
<pdfrwt beam="1">  1        2 0.12930332E+00 0.40026808E+02</pdfrwt>
<pdfrwt beam="2">  1        2 0.51355964E+00 0.42998334E+03</pdfrwt>
<totfact> 0.67730437E+00</totfact>
</mgrwt>
</event>
<event>
13    1  0.1675423E-008  0.2342863E+03  0.7546771E-02  0.1200217E+00
          2   -1    0    0  503    0  0.00000000000E+00  0.00000000000E+00  0.23014171517E+04  0.23014171517E+04  0.00000000000E+00 0. -1.
          2   -1    0    0  502    0 -0.00000000000E+00 -0.00000000000E+00 -0.14648914379E+04  0.14648914379E+04  0.00000000000E+00 0. -1.
         24    2    1    2    0    0 -0.11614201675E+03  0.16143798659E+03  0.25893922254E+03  0.33836383532E+03  0.88822139776E+02 0.  0.
         25    2    1    2    0    0  0.10200280773E+03  0.11195235016E+03 -0.70873737783E+03  0.73543923253E+03  0.12499717007E+03 0.  0.
         24    2    1    2    0    0  0.56607677033E+00  0.29643269973E+02 -0.99079222109E+02  0.13219169846E+03  0.82334130160E+02 0.  0.
        -11    1    5    5    0    0  0.30384005351E+02 -0.59617830035E+01 -0.11442673256E+02  0.33010080415E+02  0.00000000000E+00 0.  1.
         12    1    5    5    0    0 -0.29817928581E+02  0.35605052976E+02 -0.87636548853E+02  0.99181618041E+02  0.00000000000E+00 0. -1.
        -11    1    3    3    0    0 -0.13692761329E+02 -0.72494609648E+01  0.40800992253E+01  0.16021660550E+02  0.00000000000E+00 0.  1.
         12    1    3    3    0    0 -0.10244925542E+03  0.16868744756E+03  0.25485912332E+03  0.32234217477E+03  0.00000000000E+00 0. -1.
          5    1    4    4  501    0  0.17837671276E+02  0.95740801756E+02 -0.50549787887E+03  0.51481518934E+03  0.47000000000E+01 0.  1.
         -5    1    4    4    0  501  0.84165136455E+02  0.16211548406E+02 -0.20323949896E+03  0.22062404319E+03  0.47000000000E+01 0.  1.
          1    1    1    2  502    0 -0.10427220236E+02  0.93021864674E+02 -0.56360596870E+03  0.57132607344E+03  0.00000000000E+00 0. -1.
          1    1    1    2  503    0  0.24000352481E+02 -0.39605547140E+03  0.19490090599E+04  0.19889877498E+04  0.00000000000E+00 0. -1.
<mgrwt>
<rscale>  0 0.15020819E+03</rscale>
<asrwt>0</asrwt>
<pdfrwt beam="1">  1        2 0.33844370E+00 0.23428632E+03</pdfrwt>
<pdfrwt beam="2">  1        2 0.21542521E+00 0.96303107E+02</pdfrwt>
<totfact> 0.15475673E+01</totfact>
</mgrwt>
</event>
<event>
13    1  0.1675423E-008  0.1521017E+03  0.7546771E-02  0.1356410E+00
          2   -1    0    0  502    0  0.00000000000E+00  0.00000000000E+00  0.13290200633E+04  0.13290200633E+04  0.00000000000E+00 0. -1.
          2   -1    0    0  503    0 -0.00000000000E+00 -0.00000000000E+00 -0.21963115825E+04  0.21963115825E+04  0.00000000000E+00 0. -1.
         24    2    1    2    0    0  0.78397043459E+02 -0.14748944471E+03  0.29403481588E+03  0.34779270879E+03  0.81265383832E+02 0.  0.
         25    2    1    2    0    0 -0.56053205319E+02  0.20236683789E+03 -0.62752097705E+03  0.67342581930E+03  0.12500183423E+03 0.  0.
         24    2    1    2    0    0  0.96666460574E+02  0.84490971290E+02  0.10629444734E+02  0.15181919695E+03  0.80330284678E+02 0.  0.
        -11    1    5    5    0    0  0.10845660133E+03  0.61857018370E+02  0.19782365055E+01  0.12487208861E+03  0.00000000000E+00 0.  1.
         12    1    5    5    0    0 -0.11790140757E+02  0.22633952921E+02  0.86512082290E+01  0.26947108337E+02  0.00000000000E+00 0. -1.
        -11    1    3    3    0    0  0.87289837780E+02 -0.91919844158E+02  0.22938022845E+03  0.26207644445E+03  0.00000000000E+00 0.  1.
         12    1    3    3    0    0 -0.88927943214E+01 -0.55569600548E+02  0.64654587429E+02  0.85716264335E+02  0.00000000000E+00 0. -1.
          5    1    4    4  501    0 -0.27158115840E+02  0.20727735770E+03 -0.58746940920E+03  0.62357346241E+03  0.47000000000E+01 0.  1.
         -5    1    4    4    0  501 -0.28895089479E+02 -0.49105198099E+01 -0.40051567844E+02  0.49852356891E+02  0.47000000000E+01 0.  1.
          1    1    1    2  502    0 -0.89493709239E+02 -0.12410277858E+03  0.89726204394E+03  0.91021415016E+03  0.00000000000E+00 0. -1.
          1    1    1    2  503    0 -0.29516589476E+02 -0.15265585898E+02 -0.14416968467E+04  0.14420797706E+04  0.00000000000E+00 0. -1.
<mgrwt>
<rscale>  0 0.71094420E+02</rscale>
<asrwt>0</asrwt>
<pdfrwt beam="1">  1        2 0.19544413E+00 0.15210166E+03</pdfrwt>
<pdfrwt beam="2">  1        2 0.32298699E+00 0.33230516E+02</pdfrwt>
<totfact> 0.24917390E+01</totfact>
</mgrwt>
</event>
<event>
13    1  0.1675423E-008  0.4223406E+02  0.7546771E-02  0.1566427E+00
          2   -1    0    0  502    0  0.00000000000E+00  0.00000000000E+00  0.15768550054E+04  0.15768550054E+04  0.00000000000E+00 0. -1.
          4   -1    0    0  503    0 -0.00000000000E+00 -0.00000000000E+00 -0.25152435153E+03  0.25152435153E+03  0.00000000000E+00 0. -1.
         24    2    1    2    0    0 -0.75636401125E+02 -0.38963472727E+02  0.33662211852E+03  0.35609032307E+03  0.79037017414E+02 0.  0.
         25    2    1    2    0    0  0.19632263243E+03 -0.16815075801E+03  0.72861249883E+02  0.29622730421E+03  0.12499840239E+03 0.  0.
         24    2    1    2    0    0 -0.95751188137E+02  0.17911833347E+03  0.50674776126E+03  0.55199005964E+03  0.81535666955E+02 0.  0.
        -11    1    5    5    0    0 -0.95001896808E+02  0.94721105616E+02  0.32507697909E+03  0.35167099764E+03  0.00000000000E+00 0.  1.
         12    1    5    5    0    0 -0.74929132843E+00  0.84397227856E+02  0.18167078217E+03  0.20031906200E+03  0.00000000000E+00 0. -1.
        -11    1    3    3    0    0 -0.30194618476E+01  0.77584087035E+01  0.15248683224E+03  0.15271392884E+03  0.00000000000E+00 0.  1.
         12    1    3    3    0    0 -0.72616939278E+02 -0.46721881430E+02  0.18413528629E+03  0.20337639423E+03  0.00000000000E+00 0. -1.
          5    1    4    4  501    0  0.13666807404E+03 -0.35021776696E+02  0.34907163453E+02  0.14541419245E+03  0.47000000000E+01 0.  1.
         -5    1    4    4    0  501  0.59654558387E+02 -0.13312898131E+03  0.37954086430E+02  0.15081311176E+03  0.47000000000E+01 0.  1.
          1    1    1    2  502    0  0.16566248697E+02  0.19904302445E+02  0.51208742804E+03  0.51274180228E+03  0.00000000000E+00 0. -1.
          3    1    1    2  503    0 -0.41501291865E+02  0.80915948155E+01 -0.10298790379E+03  0.11132986778E+03  0.00000000000E+00 0. -1.
<mgrwt>
<rscale>  0 0.33071266E+02</rscale>
<asrwt>0</asrwt>
<pdfrwt beam="1">  1        2 0.23189044E+00 0.25896368E+02</pdfrwt>
<pdfrwt beam="2">  1        4 0.36988876E-01 0.42234057E+02</pdfrwt>
<totfact> 0.53107465E+01</totfact>
</mgrwt>
</event>
<event>
13    1  0.1675423E-008  0.8762205E+02  0.7546771E-02  0.1377981E+00
          2   -1    0    0  503    0  0.00000000000E+00  0.00000000000E+00  0.22601540910E+04  0.22601540910E+04  0.00000000000E+00 0. -1.
          2   -1    0    0  502    0 -0.00000000000E+00 -0.00000000000E+00 -0.14203330859E+04  0.14203330859E+04  0.00000000000E+00 0. -1.
         24    2    1    2    0    0  0.76326084740E+02 -0.11922375671E+03  0.47063119911E+03  0.49808400446E+03  0.80956621358E+02 0.  0.
         25    2    1    2    0    0  0.70806230969E+02  0.58835436983E+02 -0.11144528611E+04  0.11252136663E+04  0.12500193724E+03 0.  0.
         24    2    1    2    0    0 -0.90160732993E+02  0.42375751474E+02  0.11851807538E+03  0.17497044207E+03  0.81507418794E+02 0.  0.
        -11    1    3    3    0    0  0.58032451155E+02 -0.76298065978E+02  0.18196306408E+03  0.20566894989E+03  0.00000000000E+00 0.  1.
         12    1    3    3    0    0  0.18293633585E+02 -0.42925690732E+02  0.28866813504E+03  0.29241505457E+03  0.00000000000E+00 0. -1.
        -13    1    5    5    0    0 -0.52658948942E+02  0.46360405474E+02  0.25587547533E+02  0.74679144934E+02  0.00000000000E+00 0.  1.
         14    1    5    5    0    0 -0.37501784051E+02 -0.39846540004E+01  0.92930527848E+02  0.10029129713E+03  0.00000000000E+00 0. -1.
          5    1    4    4  501    0  0.71175173025E+02  0.81824062580E+01 -0.27491404479E+03  0.28413496626E+03  0.47000000000E+01 0.  1.
         -5    1    4    4    0  501 -0.36894205573E+00  0.50653030725E+02 -0.83953881630E+03  0.84107870007E+03  0.47000000000E+01 0.  1.
          1    1    1    2  502    0  0.28092583994E+02  0.39184916749E+02 -0.25510429067E+03  0.25962058873E+03  0.00000000000E+00 0. -1.
          1    1    1    2  503    0 -0.85064166710E+02 -0.21172348495E+02  0.16202288823E+04  0.16225984753E+04  0.00000000000E+00 0. -1.
<mgrwt>
<rscale>  0 0.64997424E+02</rscale>
<asrwt>0</asrwt>
<pdfrwt beam="1">  1        2 0.33237560E+00 0.87622051E+02</pdfrwt>
<pdfrwt beam="2">  1        2 0.20887251E+00 0.48214634E+02</pdfrwt>
<totfact> 0.20113106E+01</totfact>
</mgrwt>
</event>
<event>
13    1  0.1675423E-008  0.5854313E+02  0.7546771E-02  0.1469982E+00
          2   -1    0    0  503    0  0.00000000000E+00  0.00000000000E+00  0.17020576232E+04  0.17020576232E+04  0.00000000000E+00 0. -1.
          2   -1    0    0  502    0 -0.00000000000E+00 -0.00000000000E+00 -0.39633742190E+03  0.39633742190E+03  0.00000000000E+00 0. -1.
         24    2    1    2    0    0  0.25210738247E+02 -0.69408763481E+01  0.61804047722E+03  0.62371124332E+03  0.79736606904E+02 0.  0.
         25    2    1    2    0    0 -0.20195711023E+03 -0.24892638621E+02  0.10725123440E+03  0.26178952853E+03  0.12499844853E+03 0.  0.
         24    2    1    2    0    0  0.82942592593E+02  0.38757412584E+02 -0.64274522551E+02  0.13694355014E+03  0.78998170729E+02 0.  0.
        -11    1    3    3    0    0 -0.22178533119E+02  0.62620174849E+01  0.37690355422E+03  0.37760745408E+03  0.00000000000E+00 0.  1.
         12    1    3    3    0    0  0.47389271366E+02 -0.13202893833E+02  0.24113692300E+03  0.24610378924E+03  0.00000000000E+00 0. -1.
        -11    1    5    5    0    0 -0.14154044396E+02 -0.26347437761E+00 -0.16982892884E+02  0.22109388101E+02  0.00000000000E+00 0.  1.
         12    1    5    5    0    0  0.97096636988E+02  0.39020886961E+02 -0.47291629667E+02  0.11483416203E+03  0.00000000000E+00 0. -1.
          5    1    4    4  501    0 -0.12309736047E+02  0.10231663668E+02  0.61209151204E+02  0.63441837411E+02  0.47000000000E+01 0.  1.
         -5    1    4    4    0  501 -0.18964737418E+03 -0.35124302290E+02  0.46042083199E+02  0.19834769111E+03  0.47000000000E+01 0.  1.
          1    1    1    2  502    0  0.58232190268E+02 -0.40969816961E+01 -0.21129424650E+03  0.21921001767E+03  0.00000000000E+00 0. -1.
          1    1    1    2  503    0  0.35571589121E+02 -0.28269159183E+01  0.85599725871E+03  0.85674070542E+03  0.00000000000E+00 0. -1.
<mgrwt>
<rscale>  0 0.45705995E+02</rscale>
<asrwt>0</asrwt>
<pdfrwt beam="1">  1        2 0.25030259E+00 0.35683741E+02</pdfrwt>
<pdfrwt beam="2">  1        2 0.58284916E-01 0.58543132E+02</pdfrwt>
<totfact> 0.18553940E+02</totfact>
</mgrwt>
</event>
<event>
13    1  0.1675423E-008  0.8418898E+02  0.7546771E-02  0.1327130E+00
          2   -1    0    0  502    0  0.00000000000E+00  0.00000000000E+00  0.86960867729E+03  0.86960867729E+03  0.00000000000E+00 0. -1.
          2   -1    0    0  503    0 -0.00000000000E+00 -0.00000000000E+00 -0.14250663843E+04  0.14250663843E+04  0.00000000000E+00 0. -1.
         24    2    1    2    0    0  0.22444383934E+02 -0.45967383777E+02  0.34450938937E+03  0.36120727468E+03  0.95745627479E+02 0.  0.
         25    2    1    2    0    0 -0.24735184743E+02  0.77203202457E+02 -0.39316205855E+03  0.42044346522E+03  0.12499655728E+03 0.  0.
         24    2    1    2    0    0  0.23571028401E+02 -0.39987032237E+02 -0.59973486552E+02  0.11084429880E+03  0.80839862451E+02 0.  0.
        -11    1    3    3    0    0  0.33619186209E+02  0.21635709132E+02  0.13249072537E+03  0.13839127826E+03  0.00000000000E+00 0.  1.
         12    1    3    3    0    0 -0.11174802275E+02 -0.67603092909E+02  0.21201866400E+03  0.22281599642E+03  0.00000000000E+00 0. -1.
        -13    1    5    5    0    0 -0.23169534744E+02  0.58860533792E+01 -0.31215756368E+02  0.39317889189E+02  0.00000000000E+00 0.  1.
         14    1    5    5    0    0  0.46740563145E+02 -0.45873085616E+02 -0.28757730184E+02  0.71526409615E+02  0.00000000000E+00 0. -1.
          5    1    4    4  501    0 -0.22076673576E+02 -0.28044313384E+02 -0.51042977900E+02  0.62460696619E+02  0.47000000000E+01 0.  1.
         -5    1    4    4    0  501 -0.26585111670E+01  0.10524751584E+03 -0.34211908065E+03  0.35798276860E+03  0.47000000000E+01 0.  1.
          1    1    1    2  502    0 -0.16020518698E+02 -0.75640883883E+02  0.47259269682E+03  0.47887582673E+03  0.00000000000E+00 0. -1.
          1    1    1    2  503    0 -0.52597088946E+01  0.84392097441E+02 -0.91942424808E+03  0.92330419614E+03  0.00000000000E+00 0. -1.
<mgrwt>
<rscale>  0 0.80680806E+02</rscale>
<asrwt>0</asrwt>
<pdfrwt beam="1">  1        2 0.12788363E+00 0.77318823E+02</pdfrwt>
<pdfrwt beam="2">  1        2 0.20956858E+00 0.84188976E+02</pdfrwt>
<totfact> 0.97715247E+01</totfact>
</mgrwt>
</event>
<event>
13    1  0.1675423E-008  0.2085905E+03  0.7546771E-02  0.1149495E+00
          2   -1    0    0  503    0  0.00000000000E+00  0.00000000000E+00  0.19785864918E+04  0.19785864918E+04  0.00000000000E+00 0. -1.
          2   -1    0    0  502    0 -0.00000000000E+00 -0.00000000000E+00 -0.31515886027E+04  0.31515886027E+04  0.00000000000E+00 0. -1.
         24    2    1    2    0    0 -0.57505647601E+02 -0.99247482401E+02  0.59857012644E+03  0.61471638184E+03  0.80206430956E+02 0.  0.
         25    2    1    2    0    0 -0.74876395393E+02  0.26133603715E+03 -0.80087411837E+03  0.85494147382E+03  0.12499028475E+03 0.  0.
         24    2    1    2    0    0  0.10829404864E+03 -0.10259095401E+03 -0.16153433956E+04  0.16241902087E+04  0.80044009650E+02 0.  0.
        -11    1    3    3    0    0 -0.31878185312E+02  0.51480676371E+01  0.12560867792E+03  0.12969294995E+03  0.00000000000E+00 0.  1.
         12    1    3    3    0    0 -0.25627462289E+02 -0.10439555004E+03  0.47296144852E+03  0.48502343189E+03  0.00000000000E+00 0. -1.
        -13    1    5    5    0    0  0.33167020069E+02  0.91342400031E+01 -0.36605764057E+03  0.36767061588E+03  0.00000000000E+00 0.  1.
         14    1    5    5    0    0  0.75127028570E+02 -0.11172519401E+03 -0.12492857550E+04  0.12565195928E+04  0.00000000000E+00 0. -1.
          5    1    4    4  501    0 -0.96763105602E+01  0.21664990670E+03 -0.63741045014E+03  0.67330898182E+03  0.47000000000E+01 0.  1.
         -5    1    4    4    0  501 -0.65200084833E+02  0.44686130452E+02 -0.16346366823E+03  0.18163249199E+03  0.47000000000E+01 0.  1.
          1    1    1    2  502    0  0.20065616906E+03 -0.17847655389E+02 -0.67492367278E+03  0.70434608046E+03  0.00000000000E+00 0. -1.
          1    1    1    2  503    0 -0.17656817470E+03 -0.41649945351E+02  0.13195689494E+04  0.13319809497E+04  0.00000000000E+00 0. -1.
<mgrwt>
<rscale>  0 0.20028953E+03</rscale>
<asrwt>0</asrwt>
<pdfrwt beam="1">  1        2 0.29096861E+00 0.19231889E+03</pdfrwt>
<pdfrwt beam="2">  1        2 0.46346890E+00 0.20859050E+03</pdfrwt>
<totfact> 0.29292709E+00</totfact>
</mgrwt>
</event>
<event>
13    1  0.1675423E-008  0.1181268E+03  0.7546771E-02  0.1283550E+00
          2   -1    0    0  502    0  0.00000000000E+00  0.00000000000E+00  0.94428482179E+03  0.94428482179E+03  0.00000000000E+00 0. -1.
          2   -1    0    0  503    0 -0.00000000000E+00 -0.00000000000E+00 -0.70495518423E+03  0.70495518423E+03  0.00000000000E+00 0. -1.
         24    2    1    2    0    0 -0.13722227616E+02 -0.98092545951E+01  0.19284252634E+03  0.21251598977E+03  0.87694269678E+02 0.  0.
         25    2    1    2    0    0  0.98699572654E+02 -0.49279659925E+02 -0.40867906762E+02  0.17164870838E+03  0.12499201079E+03 0.  0.
         24    2    1    2    0    0  0.27499446120E+02  0.24839528275E+03  0.22454619714E+03  0.34553554248E+03  0.80730294394E+02 0.  0.
        -11    1    3    3    0    0  0.99862227323E+01  0.42179718474E+01  0.18291270182E+03  0.18323365525E+03  0.00000000000E+00 0.  1.
         12    1    3    3    0    0 -0.23708450348E+02 -0.14027226442E+02  0.99298245245E+01  0.29282334515E+02  0.00000000000E+00 0. -1.
        -13    1    5    5    0    0  0.16627830476E+02  0.12812802136E+03  0.16869305447E+03  0.21248675543E+03  0.00000000000E+00 0.  1.
         14    1    5    5    0    0  0.10871615644E+02  0.12026726139E+03  0.55853142668E+02  0.13304878705E+03  0.00000000000E+00 0. -1.
          5    1    4    4  501    0  0.49534696852E+02  0.52527221651E+01 -0.75307649347E+02  0.90413546178E+02  0.47000000000E+01 0.  1.
         -5    1    4    4    0  501  0.49164875802E+02 -0.54532382090E+02  0.34439742585E+02  0.81235162204E+02  0.47000000000E+01 0.  1.
          1    1    1    2  502    0 -0.72466100116E+02 -0.11763650767E+03  0.37560753908E+03  0.40021332688E+03  0.00000000000E+00 0. -1.
          1    1    1    2  503    0 -0.40010691042E+02 -0.71669860560E+02 -0.51279871823E+03  0.51932643851E+03  0.00000000000E+00 0. -1.
<mgrwt>
<rscale>  0 0.98468584E+02</rscale>
<asrwt>0</asrwt>
<pdfrwt beam="1">  1        2 0.13886541E+00 0.11812680E+03</pdfrwt>
<pdfrwt beam="2">  1        2 0.10366988E+00 0.82081815E+02</pdfrwt>
<totfact> 0.22236763E+02</totfact>
</mgrwt>
</event>
<event>
13    1  0.1675423E-008  0.6197534E+02  0.7546771E-02  0.1422604E+00
          2   -1    0    0  503    0  0.00000000000E+00  0.00000000000E+00  0.10419470940E+04  0.10419470940E+04  0.00000000000E+00 0. -1.
          2   -1    0    0  502    0 -0.00000000000E+00 -0.00000000000E+00 -0.22741311400E+03  0.22741311400E+03  0.00000000000E+00 0. -1.
         24    2    1    2    0    0  0.25882685919E+02  0.10680313566E+03  0.36774442525E+03  0.39393684010E+03  0.88732454419E+02 0.  0.
         25    2    1    2    0    0  0.10251607920E+03  0.14187708976E+02 -0.25209761520E+02  0.16424677049E+03  0.12502252582E+03 0.  0.
         24    2    1    2    0    0 -0.29922718976E+02 -0.85908142208E+02 -0.22954328940E+02  0.12279205610E+03  0.79217484287E+02 0.  0.
        -13    1    5    5    0    0 -0.36672336518E+02 -0.16510787069E+02  0.15576936605E+02  0.43128961376E+02  0.00000000000E+00 0.  1.
         14    1    5    5    0    0  0.67496175427E+01 -0.69397355139E+02 -0.38531265545E+02  0.79663094729E+02  0.00000000000E+00 0. -1.
        -13    1    3    3    0    0  0.24183962268E+01  0.53474628382E+02  0.58674741684E+02  0.79423610045E+02  0.00000000000E+00 0.  1.
         14    1    3    3    0    0  0.23464289692E+02  0.53328507280E+02  0.30906968356E+03  0.31451323005E+03  0.00000000000E+00 0. -1.
          5    1    4    4  501    0  0.14109739484E+02 -0.31364831837E+02 -0.50726126827E+02  0.61465985450E+02  0.47000000000E+01 0.  1.
         -5    1    4    4    0  501  0.88406339713E+02  0.45552540813E+02  0.25516365307E+02  0.10278078504E+03  0.47000000000E+01 0.  1.
          1    1    1    2  502    0 -0.37073577253E+02 -0.30299311648E+02 -0.32164483705E+02  0.57680607042E+02  0.00000000000E+00 0. -1.
          1    1    1    2  503    0 -0.61402468887E+02 -0.47833907819E+01  0.52711812889E+03  0.53070393424E+03  0.00000000000E+00 0. -1.
<mgrwt>
<rscale>  0 0.54473681E+02</rscale>
<asrwt>0</asrwt>
<pdfrwt beam="1">  1        2 0.15322751E+00 0.61975341E+02</pdfrwt>
<pdfrwt beam="2">  1        2 0.33443105E-01 0.47880042E+02</pdfrwt>
<totfact> 0.66426015E+02</totfact>
</mgrwt>
</event>
<event>
13    1  0.1675423E-008  0.6364922E+02  0.7546771E-02  0.1445516E+00
         -3   -1    0    0    0  502 -0.00000000000E+00  0.00000000000E+00  0.13552525199E+04  0.13552525199E+04  0.00000000000E+00 0.  1.
         -1   -1    0    0    0  501  0.00000000000E+00 -0.00000000000E+00 -0.71797257116E+03  0.71797257116E+03  0.00000000000E+00 0.  1.
         24    2    1    2    0    0 -0.10105531825E+03  0.68767739450E+02 -0.10525153877E+03  0.17999462159E+03  0.79868629951E+02 0.  0.
         25    2    1    2    0    0  0.86651683341E+02 -0.16988049800E+03  0.60387614651E+02  0.23587763532E+03  0.12499478796E+03 0.  0.
         24    2    1    2    0    0  0.46430366538E+02  0.74973522605E+02 -0.16694027323E+03  0.20522228187E+03  0.80438312521E+02 0.  0.
        -11    1    3    3    0    0 -0.11426114063E+03  0.58115597298E+02 -0.86171817551E+02  0.15446233537E+03  0.00000000000E+00 0.  1.
         12    1    3    3    0    0  0.13205822387E+02  0.10652142152E+02 -0.19079721222E+02  0.25532286213E+02  0.00000000000E+00 0. -1.
        -11    1    5    5    0    0  0.42340485186E+02  0.62256665994E+02 -0.56896439950E+02  0.94370620563E+02  0.00000000000E+00 0.  1.
         12    1    5    5    0    0  0.40898813528E+01  0.12716856611E+02 -0.11004383328E+03  0.11085166131E+03  0.00000000000E+00 0. -1.
          5    1    4    4  503    0  0.95820562151E+02 -0.63600432619E+02  0.41096655906E+01  0.11517627582E+03  0.47000000000E+01 0.  1.
         -5    1    4    4    0  503 -0.91688788101E+01 -0.10628006538E+03  0.56277949060E+02  0.12070135950E+03  0.47000000000E+01 0.  1.
         -2    1    1    2    0  501 -0.64057604638E+02  0.34944067594E+01 -0.29777173999E+03  0.30460399985E+03  0.00000000000E+00 0.  1.
         -4    1    1    2    0  502  0.32030873006E+02  0.22644829181E+02  0.11468558861E+04  0.11475265525E+04  0.00000000000E+00 0.  1.
<mgrwt>
<rscale>  0 0.49967732E+02</rscale>
<asrwt>0</asrwt>
<pdfrwt beam="2">  1       -1 0.10558420E+00 0.63649224E+02</pdfrwt>
<pdfrwt beam="1">  1       -3 0.19930184E+00 0.39227097E+02</pdfrwt>
<totfact> 0.74007663E-01</totfact>
</mgrwt>
</event>
<event>
13    1  0.1675423E-008  0.1180548E+03  0.7546771E-02  0.1349096E+00
          2   -1    0    0  503    0  0.00000000000E+00  0.00000000000E+00  0.24748261053E+03  0.24748261053E+03  0.00000000000E+00 0. -1.
          2   -1    0    0  502    0 -0.00000000000E+00 -0.00000000000E+00 -0.43607827732E+04  0.43607827732E+04  0.00000000000E+00 0. -1.
         24    2    1    2    0    0  0.41237691309E+02 -0.36809628886E+02 -0.91855737177E+02  0.13390545729E+03  0.80235273272E+02 0.  0.
         25    2    1    2    0    0 -0.92940906532E+02  0.15484275068E+03 -0.13179964992E+04  0.13361715837E+04  0.12500175869E+03 0.  0.
         24    2    1    2    0    0  0.53936593282E+02 -0.22138261041E+02 -0.19909884734E+03  0.22214050833E+03  0.79415336880E+02 0.  0.
        -11    1    3    3    0    0  0.19656155198E+02 -0.56301608900E+02 -0.32755598233E+02  0.68037966001E+02  0.00000000000E+00 0.  1.
         12    1    3    3    0    0  0.21581536111E+02  0.19491980014E+02 -0.59100138945E+02  0.65867491292E+02  0.00000000000E+00 0. -1.
        -11    1    5    5    0    0  0.67509038215E+02 -0.16838307932E+02 -0.19494525955E+03  0.20698949991E+03  0.00000000000E+00 0.  1.
         12    1    5    5    0    0 -0.13572444933E+02 -0.52999531091E+01 -0.41535877923E+01  0.15151008414E+02  0.00000000000E+00 0. -1.
          5    1    4    4  501    0 -0.29070290146E+02  0.73473838385E+02 -0.96660330013E+03  0.96983891267E+03  0.47000000000E+01 0.  1.
         -5    1    4    4    0  501 -0.63870616386E+02  0.81368912291E+02 -0.35139319906E+03  0.36633267104E+03  0.47000000000E+01 0.  1.
          1    1    1    2  502    0  0.44197826540E+02  0.11053446729E+02 -0.26934809553E+04  0.26938662333E+04  0.00000000000E+00 0. -1.
          1    1    1    2  503    0 -0.46431204599E+02 -0.10694830748E+03  0.18913187631E+03  0.22218160110E+03  0.00000000000E+00 0. -1.
<mgrwt>
<rscale>  0 0.73337999E+02</rscale>
<asrwt>0</asrwt>
<pdfrwt beam="1">  1        2 0.36394502E-01 0.11805476E+03</pdfrwt>
<pdfrwt beam="2">  1        2 0.64129157E+00 0.45559045E+02</pdfrwt>
<totfact> 0.10749836E+01</totfact>
</mgrwt>
</event>
<event>
13    1  0.1675423E-008  0.2189262E+03  0.7546771E-02  0.1223783E+00
          2   -1    0    0  502    0  0.00000000000E+00  0.00000000000E+00  0.19022752803E+04  0.19022752803E+04  0.00000000000E+00 0. -1.
          2   -1    0    0  503    0 -0.00000000000E+00 -0.00000000000E+00 -0.72423752544E+03  0.72423752544E+03  0.00000000000E+00 0. -1.
         24    2    1    2    0    0 -0.13240112387E+03  0.37894224831E+02  0.62967313420E+03  0.64962027263E+03  0.80945739907E+02 0.  0.
         25    2    1    2    0    0  0.15918856099E+03  0.20406901224E+02 -0.35327439255E+02  0.20649383824E+03  0.12503694534E+03 0.  0.
         24    2    1    2    0    0  0.15396478877E+03 -0.87698819599E+01  0.63854821798E+02  0.18721533632E+03  0.84794321000E+02 0.  0.
        -11    1    5    5    0    0  0.16423611792E+03 -0.11650911919E+02  0.55796877542E+02  0.17384630488E+03  0.00000000000E+00 0.  1.
         12    1    5    5    0    0 -0.10271329142E+02  0.28810299589E+01  0.80579442561E+01  0.13369031439E+02  0.00000000000E+00 0. -1.
        -11    1    3    3    0    0 -0.19718530881E+01  0.28936932417E+02  0.11606255188E+03  0.11963172744E+03  0.00000000000E+00 0.  1.
         12    1    3    3    0    0 -0.13042927078E+03  0.89572924144E+01  0.51361058232E+03  0.52998854519E+03  0.00000000000E+00 0. -1.
          5    1    4    4  501    0  0.16885264251E+03  0.34727048021E+02 -0.65175251754E+01  0.17257389977E+03  0.47000000000E+01 0.  1.
         -5    1    4    4    0  501 -0.96640815286E+01 -0.14320146797E+02 -0.28809914080E+02  0.33919938464E+02  0.47000000000E+01 0.  1.
          1    1    1    2  502    0 -0.19009884889E+03  0.30123013940E+02  0.10396013101E+04  0.10572681080E+04  0.00000000000E+00 0. -1.
          1    1    1    2  503    0  0.93466230043E+01 -0.79654258036E+02 -0.51976407199E+03  0.52591525051E+03  0.00000000000E+00 0. -1.
<mgrwt>
<rscale>  0 0.13250678E+03</rscale>
<asrwt>0</asrwt>
<pdfrwt beam="1">  1        2 0.27974636E+00 0.21892621E+03</pdfrwt>
<pdfrwt beam="2">  1        2 0.10650552E+00 0.80200749E+02</pdfrwt>
<totfact> 0.65085054E+01</totfact>
</mgrwt>
</event>
<event>
13    1  0.1675423E-008  0.1591919E+03  0.7546771E-02  0.1262840E+00
          2   -1    0    0  503    0  0.00000000000E+00  0.00000000000E+00  0.36897750070E+04  0.36897750070E+04  0.00000000000E+00 0. -1.
          2   -1    0    0  502    0 -0.00000000000E+00 -0.00000000000E+00 -0.20807431214E+04  0.20807431214E+04  0.00000000000E+00 0. -1.
         24    2    1    2    0    0 -0.17842670948E+03  0.32350880462E+02  0.94563335019E+03  0.96609754148E+03  0.78989597653E+02 0.  0.
         25    2    1    2    0    0  0.99704667679E+01  0.10754415494E+02  0.13937494856E+03  0.18779487278E+03  0.12500588104E+03 0.  0.
         24    2    1    2    0    0  0.99104832966E+02 -0.10786016624E+03 -0.30499581469E+03  0.34777865050E+03  0.80448489026E+02 0.  0.
        -13    1    5    5    0    0 -0.96779449260E+01 -0.31146403801E+02 -0.79425864659E+02  0.85861685661E+02  0.00000000000E+00 0.  1.
         14    1    5    5    0    0  0.10878277789E+03 -0.76713762442E+02 -0.22556995003E+03  0.26191696484E+03  0.00000000000E+00 0. -1.
        -13    1    3    3    0    0 -0.51350195290E+02  0.93764775632E+01  0.12648763912E+03  0.13683524304E+03  0.00000000000E+00 0.  1.
         14    1    3    3    0    0 -0.12707651419E+03  0.22974402898E+02  0.81914571107E+03  0.82926229844E+03  0.00000000000E+00 0. -1.
          5    1    4    4  501    0  0.11911573633E+02 -0.31100138840E+02 -0.79461939684E+01  0.34559169852E+02  0.47000000000E+01 0.  1.
         -5    1    4    4    0  501 -0.19411068649E+01  0.41854554334E+02  0.14732114253E+03  0.15323570292E+03  0.47000000000E+01 0.  1.
          1    1    1    2  502    0 -0.73737983372E+02 -0.94127542352E+01 -0.17165609382E+04  0.17181697660E+04  0.00000000000E+00 0. -1.
          1    1    1    2  503    0  0.14308939312E+03  0.74167624523E+02  0.25455803398E+04  0.25506772977E+04  0.00000000000E+00 0. -1.
<mgrwt>
<rscale>  0 0.10878301E+03</rscale>
<asrwt>0</asrwt>
<pdfrwt beam="1">  1        2 0.54261397E+00 0.15919192E+03</pdfrwt>
<pdfrwt beam="2">  1        2 0.30599164E+00 0.74336331E+02</pdfrwt>
<totfact> 0.14456280E+00</totfact>
</mgrwt>
</event>
<event>
13    1  0.1675423E-008  0.2822437E+03  0.7546771E-02  0.1190499E+00
          2   -1    0    0  502    0  0.00000000000E+00  0.00000000000E+00  0.30570345399E+04  0.30570345399E+04  0.00000000000E+00 0. -1.
          2   -1    0    0  503    0 -0.00000000000E+00 -0.00000000000E+00 -0.15213696685E+04  0.15213696685E+04  0.00000000000E+00 0. -1.
         24    2    1    2    0    0 -0.15673919392E+03 -0.74880249953E+02 -0.39922216696E+02  0.19352440893E+03  0.75390229625E+02 0.  0.
         25    2    1    2    0    0  0.54630710713E+03 -0.38224353614E+01 -0.40068958845E+03  0.68894285714E+03  0.12499619109E+03 0.  0.
         24    2    1    2    0    0 -0.60694698981E+02  0.20759239351E+02 -0.41946609389E+02  0.11104412425E+03  0.80352268099E+02 0.  0.
        -11    1    3    3    0    0 -0.13413973502E+03 -0.27787741796E+02 -0.32211705567E+02  0.14072391794E+03  0.00000000000E+00 0.  1.
         12    1    3    3    0    0 -0.22599458902E+02 -0.47092508156E+02 -0.77105111291E+01  0.52800490992E+02  0.00000000000E+00 0. -1.
        -13    1    5    5    0    0  0.54156338676E+01  0.16404068420E+02 -0.41321930479E+02  0.44787548374E+02  0.00000000000E+00 0.  1.
         14    1    5    5    0    0 -0.66110332848E+02  0.43551709312E+01 -0.62467890998E+00  0.66256575877E+02  0.00000000000E+00 0. -1.
          5    1    4    4  501    0  0.26813294108E+03 -0.63575435977E+02 -0.18641201270E+03  0.33272907692E+03  0.47000000000E+01 0.  1.
         -5    1    4    4    0  501  0.27817416606E+03  0.59753000616E+02 -0.21427757576E+03  0.35621378022E+03  0.47000000000E+01 0.  1.
          1    1    1    2  502    0 -0.83525236958E+02  0.30480430511E+02  0.27813779573E+04  0.27827987465E+04  0.00000000000E+00 0. -1.
          1    1    1    2  503    0 -0.24534797727E+03  0.27463015452E+02 -0.76315467143E+03  0.80209407160E+03  0.00000000000E+00 0. -1.
<mgrwt>
<rscale>  0 0.15841445E+03</rscale>
<asrwt>0</asrwt>
<pdfrwt beam="1">  1        2 0.44956390E+00 0.88913002E+02</pdfrwt>
<pdfrwt beam="2">  1        2 0.22373083E+00 0.28224374E+03</pdfrwt>
<totfact> 0.61898283E+00</totfact>
</mgrwt>
</event>
<event>
13    1  0.1675423E-008  0.7966931E+02  0.7546771E-02  0.1337398E+00
          2   -1    0    0  503    0  0.00000000000E+00  0.00000000000E+00  0.29490239907E+04  0.29490239907E+04  0.00000000000E+00 0. -1.
          2   -1    0    0  502    0 -0.00000000000E+00 -0.00000000000E+00 -0.26681107062E+04  0.26681107062E+04  0.00000000000E+00 0. -1.
         24    2    1    2    0    0 -0.11833114296E+04 -0.99705652089E+03  0.10752154949E+04  0.18864449215E+04  0.90765832191E+02 0.  0.
         25    2    1    2    0    0  0.17627174695E+03  0.65288257050E+03  0.59150215726E+03  0.90709928876E+03  0.12500775170E+03 0.  0.
         24    2    1    2    0    0  0.11142178901E+04  0.41947153942E+03 -0.67232411049E+03  0.13697191506E+04  0.81688205490E+02 0.  0.
        -13    1    5    5    0    0  0.40082844008E+03  0.11363963623E+03 -0.25481140461E+03  0.48837102414E+03  0.00000000000E+00 0.  1.
         14    1    5    5    0    0  0.71338945005E+03  0.30583190319E+03 -0.41751270588E+03  0.88134812647E+03  0.00000000000E+00 0. -1.
        -13    1    3    3    0    0 -0.71548021425E+03 -0.64872156024E+03  0.63790521362E+03  0.11574431568E+04  0.00000000000E+00 0.  1.
         14    1    3    3    0    0 -0.46783121532E+03 -0.34833496065E+03  0.43731028127E+03  0.72900176470E+03  0.00000000000E+00 0. -1.
          5    1    4    4  501    0  0.17212864621E+03  0.46573157963E+03  0.47117423614E+03  0.68451546799E+03  0.47000000000E+01 0. -1.
         -5    1    4    4    0  501  0.41431007420E+01  0.18715099087E+03  0.12032792111E+03  0.22258382077E+03  0.47000000000E+01 0. -1.
          1    1    1    2  502    0 -0.79426267549E+02 -0.59736934496E+01 -0.10784265274E+04  0.10813639498E+04  0.00000000000E+00 0. -1.
          1    1    1    2  503    0 -0.27751939965E+02 -0.69323895584E+02  0.36494627022E+03  0.37250738626E+03  0.00000000000E+00 0. -1.
<mgrwt>
<rscale>  0 0.77130420E+02</rscale>
<asrwt>0</asrwt>
<pdfrwt beam="1">  1        2 0.43368000E+00 0.74672436E+02</pdfrwt>
<pdfrwt beam="2">  1        2 0.39236922E+00 0.79669314E+02</pdfrwt>
<totfact> 0.22290393E+00</totfact>
</mgrwt>
</event>
<event>
13    1  0.1675423E-008  0.1150790E+03  0.7546771E-02  0.1259390E+00
          4   -1    0    0  503    0 -0.00000000000E+00  0.00000000000E+00  0.13165938107E+04  0.13165938107E+04  0.00000000000E+00 0. -1.
          2   -1    0    0  502    0  0.00000000000E+00 -0.00000000000E+00 -0.11503552649E+04  0.11503552649E+04  0.00000000000E+00 0. -1.
         24    2    1    2    0    0  0.20150815341E+02  0.17158427035E+03 -0.20187868862E+03  0.28543208724E+03  0.10425571600E+03 0.  0.
         25    2    1    2    0    0 -0.29397338730E+02 -0.56760607507E+02  0.33182203434E+03  0.36030341053E+03  0.12500686011E+03 0.  0.
         24    2    1    2    0    0  0.61906605919E+01 -0.10994038831E+02 -0.21425205615E+02  0.83018640257E+02  0.79207714436E+02 0.  0.
        -11    1    5    5    0    0 -0.28645487031E+02 -0.29128440344E+02 -0.12764869932E+02  0.42801540492E+02  0.00000000000E+00 0.  1.
         12    1    5    5    0    0  0.34836147622E+02  0.18134401513E+02 -0.86603356829E+01  0.40217099765E+02  0.00000000000E+00 0. -1.
        -11    1    3    3    0    0  0.12431513823E+02  0.49095998180E+02 -0.13815151943E+03  0.14714211462E+03  0.00000000000E+00 0.  1.
         12    1    3    3    0    0  0.77193015180E+01  0.12248827217E+03 -0.63727169187E+02  0.13828997262E+03  0.00000000000E+00 0. -1.
          5    1    4    4  501    0  0.15343681597E+02  0.31320972408E+02  0.14156771704E+03  0.14587645590E+03  0.47000000000E+01 0.  1.
         -5    1    4    4    0  501 -0.44741020326E+02 -0.88081579915E+02  0.19025431730E+03  0.21442695463E+03  0.47000000000E+01 0.  1.
          1    1    1    2  502    0  0.11470704962E+03 -0.75905054463E+02 -0.83087202738E+03  0.84218027192E+03  0.00000000000E+00 0. -1.
          3    1    1    2  503    0 -0.11165118682E+03 -0.27924569550E+02  0.88859243308E+03  0.89601466575E+03  0.00000000000E+00 0. -1.
<mgrwt>
<rscale>  0 0.11063949E+03</rscale>
<asrwt>0</asrwt>
<pdfrwt beam="2">  1        2 0.16916989E+00 0.10637126E+03</pdfrwt>
<pdfrwt beam="1">  1        4 0.19361674E+00 0.11507899E+03</pdfrwt>
<totfact> 0.20395047E+00</totfact>
</mgrwt>
</event>
<event>
13    1  0.1675423E-008  0.2539969E+03  0.7546771E-02  0.1195659E+00
          2   -1    0    0  502    0  0.00000000000E+00  0.00000000000E+00  0.14744657604E+04  0.14744657604E+04  0.00000000000E+00 0. -1.
          2   -1    0    0  503    0 -0.00000000000E+00 -0.00000000000E+00 -0.35044767471E+04  0.35044767471E+04  0.00000000000E+00 0. -1.
         24    2    1    2    0    0 -0.32573274574E+01  0.26188919205E+02 -0.39609920857E+02  0.94229387441E+02  0.81325038924E+02 0.  0.
         25    2    1    2    0    0 -0.24330576072E+02  0.43899694516E+03 -0.18657714231E+04  0.19209468763E+04  0.12499441322E+03 0.  0.
         24    2    1    2    0    0 -0.11278475243E+03 -0.99798576527E+02  0.87601006863E+02  0.19195881566E+03  0.80585943242E+02 0.  0.
        -11    1    5    5    0    0 -0.82851102103E+02 -0.93250880795E+02  0.99014768602E+02  0.15926065519E+03  0.00000000000E+00 0.  1.
         12    1    5    5    0    0 -0.29933650329E+02 -0.65476957319E+01 -0.11413761739E+02  0.32698160475E+02  0.00000000000E+00 0. -1.
        -11    1    3    3    0    0 -0.36091754321E+02  0.35700423078E+02 -0.18386562079E+02  0.53992597669E+02  0.00000000000E+00 0.  1.
         12    1    3    3    0    0  0.32834426864E+02 -0.95115038731E+01 -0.21223358778E+02  0.40236789773E+02  0.00000000000E+00 0. -1.
          5    1    4    4  501    0  0.32196537622E+02  0.31360989807E+03 -0.11727892102E+04  0.12144317217E+04  0.47000000000E+01 0. -1.
         -5    1    4    4    0  501 -0.56527113694E+02  0.12538704708E+03 -0.69298221298E+03  0.70651515459E+03  0.47000000000E+01 0. -1.
          1    1    1    2  502    0  0.70749954710E+02 -0.27841272328E+03  0.12615397006E+04  0.12938321440E+04  0.00000000000E+00 0. -1.
          1    1    1    2  503    0  0.69622701251E+02 -0.86974564553E+02 -0.14737703501E+04  0.14779752841E+04  0.00000000000E+00 0. -1.
<mgrwt>
<rscale>  0 0.15398587E+03</rscale>
<asrwt>0</asrwt>
<pdfrwt beam="1">  1        2 0.21683320E+00 0.25399692E+03</pdfrwt>
<pdfrwt beam="2">  1        2 0.51536423E+00 0.93354080E+02</pdfrwt>
<totfact> 0.36717629E+00</totfact>
</mgrwt>
</event>
<event>
13    1  0.1675423E-008  0.2033307E+03  0.7546771E-02  0.1319909E+00
          2   -1    0    0  502    0  0.00000000000E+00  0.00000000000E+00  0.57959660809E+03  0.57959660809E+03  0.00000000000E+00 0. -1.
          2   -1    0    0  503    0 -0.00000000000E+00 -0.00000000000E+00 -0.20448476200E+04  0.20448476200E+04  0.00000000000E+00 0. -1.
         24    2    1    2    0    0  0.20409810231E+02  0.63908958304E+02  0.96731157614E+02  0.14211714458E+03  0.79620667078E+02 0.  0.
         25    2    1    2    0    0 -0.39230915037E+03 -0.73726076863E+02 -0.12466180580E+04  0.13149231832E+04  0.12499756590E+03 0.  0.
         24    2    1    2    0    0  0.38051704843E+02 -0.57014230504E+02 -0.68095877820E+02  0.12302786875E+03  0.76159393331E+02 0.  0.
        -11    1    5    5    0    0 -0.23302452787E+02 -0.16330661784E+02 -0.14276633187E+02  0.31835782939E+02  0.00000000000E+00 0.  1.
         12    1    5    5    0    0  0.61354157630E+02 -0.40683568720E+02 -0.53819244633E+02  0.91192085814E+02  0.00000000000E+00 0. -1.
        -11    1    3    3    0    0 -0.21324012567E+02  0.53124045127E+01  0.54343640632E+02  0.58618823178E+02  0.00000000000E+00 0.  1.
         12    1    3    3    0    0  0.41733822798E+02  0.58596553791E+02  0.42387516983E+02  0.83498321405E+02  0.00000000000E+00 0. -1.
          5    1    4    4  501    0 -0.13566724932E+03 -0.16248705223E+02 -0.25892297302E+03  0.29280167164E+03  0.47000000000E+01 0.  1.
         -5    1    4    4    0  501 -0.25664190105E+03 -0.57477371640E+02 -0.98769508497E+03  0.10221215116E+04  0.47000000000E+01 0.  1.
          1    1    1    2  502    0  0.35475486540E+03  0.93814703069E+02  0.31346174612E+03  0.48260799757E+03  0.00000000000E+00 0. -1.
          1    1    1    2  503    0 -0.20907230108E+02 -0.26983354006E+02 -0.56072997980E+03  0.56176803389E+03  0.00000000000E+00 0. -1.
<mgrwt>
<rscale>  0 0.83311109E+02</rscale>
<asrwt>0</asrwt>
<pdfrwt beam="1">  1        2 0.85234793E-01 0.20333074E+03</pdfrwt>
<pdfrwt beam="2">  1        2 0.30071289E+00 0.34135226E+02</pdfrwt>
<totfact> 0.85292327E+01</totfact>
</mgrwt>
</event>
<event>
13    1  0.1675423E-008  0.1404965E+03  0.7546771E-02  0.1329767E+00
          2   -1    0    0  503    0  0.00000000000E+00  0.00000000000E+00  0.11640127261E+04  0.11640127261E+04  0.00000000000E+00 0. -1.
          2   -1    0    0  502    0 -0.00000000000E+00 -0.00000000000E+00 -0.10173346784E+04  0.10173346784E+04  0.00000000000E+00 0. -1.
         24    2    1    2    0    0  0.32397987607E+02 -0.64404490849E+02  0.29940306070E+03  0.31784943758E+03  0.78667046259E+02 0.  0.
         25    2    1    2    0    0 -0.11122412395E+03 -0.67913082105E+02 -0.53652854766E+03  0.56610267285E+03  0.12500544504E+03 0.  0.
         24    2    1    2    0    0 -0.30006111717E+02  0.31179147883E+02 -0.12534673664E+03  0.15520479866E+03  0.80648739213E+02 0.  0.
        -11    1    5    5    0    0 -0.20772953354E+02 -0.21334006292E+02 -0.79471833314E+02  0.84867117930E+02  0.00000000000E+00 0.  1.
         12    1    5    5    0    0 -0.92331583630E+01  0.52513154175E+02 -0.45874903325E+02  0.70337680725E+02  0.00000000000E+00 0. -1.
        -13    1    3    3    0    0 -0.18553334164E+02 -0.34984530131E+02  0.64464312755E+02  0.75655741197E+02  0.00000000000E+00 0.  1.
         14    1    3    3    0    0  0.50951321771E+02 -0.29419960718E+02  0.23493874795E+03  0.24219369638E+03  0.00000000000E+00 0. -1.
          5    1    4    4  501    0 -0.52417666141E+02 -0.62487427558E+02 -0.11871424890E+03  0.14410917118E+03  0.47000000000E+01 0. -1.
         -5    1    4    4    0  501 -0.58806457809E+02 -0.54256545472E+01 -0.41781429876E+03  0.42199350167E+03  0.47000000000E+01 0. -1.
          1    1    1    2  502    0 -0.35078225096E+02 -0.28611285006E+02 -0.30344997982E+03  0.30680772115E+03  0.00000000000E+00 0. -1.
          1    1    1    2  503    0  0.14391047316E+03  0.12974971008E+03  0.81260025103E+03  0.83538277426E+03  0.00000000000E+00 0. -1.
<mgrwt>
<rscale>  0 0.79748557E+02</rscale>
<asrwt>0</asrwt>
<pdfrwt beam="1">  1        2 0.17117834E+00 0.14049647E+03</pdfrwt>
<pdfrwt beam="2">  1        2 0.14960804E+00 0.45266848E+02</pdfrwt>
<totfact> 0.10863894E+02</totfact>
</mgrwt>
</event>
<event>
13    1  0.1675423E-008  0.1218801E+03  0.7546771E-02  0.1406749E+00
          2   -1    0    0  502    0  0.00000000000E+00  0.00000000000E+00  0.34483159601E+03  0.34483159601E+03  0.00000000000E+00 0. -1.
          2   -1    0    0  503    0 -0.00000000000E+00 -0.00000000000E+00 -0.52686431675E+04  0.52686431675E+04  0.00000000000E+00 0. -1.
         24    2    1    2    0    0  0.11037392809E+03  0.10484834646E+03 -0.28244243141E+03  0.33091517884E+03  0.80966343424E+02 0.  0.
         25    2    1    2    0    0  0.81194328980E+02 -0.23063426733E+03 -0.26334986175E+03  0.38047712626E+03  0.12500003841E+03 0.  0.
         24    2    1    2    0    0 -0.24934858157E+03  0.23880080451E+03 -0.36798250767E+03  0.51096687786E+03  0.80470398005E+02 0.  0.
        -11    1    5    5    0    0 -0.19692433528E+02 -0.99437150999E+00 -0.38220226728E+02  0.43006586055E+02  0.00000000000E+00 0.  1.
         12    1    5    5    0    0 -0.22965614804E+03  0.23979517602E+03 -0.32976228094E+03  0.46796029181E+03  0.00000000000E+00 0. -1.
        -13    1    3    3    0    0  0.17163863096E+02 -0.13145442048E+02 -0.28190457532E+02  0.35526085330E+02  0.00000000000E+00 0.  1.
         14    1    3    3    0    0  0.93210064994E+02  0.11799378851E+03 -0.25425197388E+03  0.29538909351E+03  0.00000000000E+00 0. -1.
          5    1    4    4  501    0  0.69454578140E+02 -0.23045483273E+03 -0.27342836296E+03  0.36430554213E+03  0.47000000000E+01 0. -1.
         -5    1    4    4    0  501  0.11739750840E+02 -0.17943459604E+00  0.10078501216E+02  0.16171584132E+02  0.47000000000E+01 0. -1.
          1    1    1    2  502    0 -0.19852409158E+02 -0.19073240660E+02  0.18865621759E+03  0.19065433406E+03  0.00000000000E+00 0. -1.
          1    1    1    2  503    0  0.77632733659E+02 -0.93941642977E+02 -0.41986929882E+04  0.42004612465E+04  0.00000000000E+00 0. -1.
<mgrwt>
<rscale>  0 0.57925567E+02</rscale>
<asrwt>0</asrwt>
<pdfrwt beam="1">  1        2 0.50710528E-01 0.27530105E+02</pdfrwt>
<pdfrwt beam="2">  1        2 0.77480047E+00 0.12188008E+03</pdfrwt>
<totfact> 0.86414157E-01</totfact>
</mgrwt>
</event>
<event>
13    1  0.1675423E-008  0.1674849E+03  0.7546771E-02  0.1311220E+00
          2   -1    0    0  502    0  0.00000000000E+00  0.00000000000E+00  0.17914020704E+04  0.17914020704E+04  0.00000000000E+00 0. -1.
          2   -1    0    0  503    0 -0.00000000000E+00 -0.00000000000E+00 -0.81499888102E+03  0.81499888102E+03  0.00000000000E+00 0. -1.
         24    2    1    2    0    0 -0.20332514875E+01  0.27705174883E+03  0.10809838233E+04  0.11174521030E+04  0.58406940405E+02 0.  0.
         25    2    1    2    0    0 -0.11568122220E+03 -0.41843277203E+03 -0.79242055035E+02  0.45867607503E+03  0.12504522639E+03 0.  0.
         24    2    1    2    0    0  0.15843898239E+02  0.11648482784E+02  0.14450156301E+03  0.16659332757E+03  0.80535202342E+02 0.  0.
        -13    1    5    5    0    0 -0.10923010820E+02  0.35505410493E+02  0.33776673866E+02  0.50207669107E+02  0.00000000000E+00 0.  1.
         14    1    5    5    0    0  0.26766909059E+02 -0.23856927709E+02  0.11072488915E+03  0.11638565847E+03  0.00000000000E+00 0. -1.
        -13    1    3    3    0    0  0.12273468392E+02  0.11802911716E+03  0.56511490875E+03  0.57743949520E+03  0.00000000000E+00 0.  1.
         14    1    3    3    0    0 -0.14306719880E+02  0.15902263167E+03  0.51586891455E+03  0.54001260783E+03  0.00000000000E+00 0. -1.
          5    1    4    4  501    0  0.64570906840E+00 -0.21196870324E+02 -0.36574036621E+02  0.42537917280E+02  0.47000000000E+01 0.  1.
         -5    1    4    4    0  501 -0.11632693127E+03 -0.39723590170E+03 -0.42668018414E+02  0.41613815775E+03  0.47000000000E+01 0.  1.
          1    1    1    2  502    0  0.37364655686E+02 -0.24735587539E+02  0.33181770387E+03  0.33482974090E+03  0.00000000000E+00 0. -1.
          1    1    1    2  503    0  0.64505919762E+02  0.15446812795E+03 -0.50165784573E+03  0.52884970494E+03  0.00000000000E+00 0. -1.
<mgrwt>
<rscale>  0 0.86631726E+02</rscale>
<asrwt>0</asrwt>
<pdfrwt beam="1">  1        2 0.26344148E+00 0.44810342E+02</pdfrwt>
<pdfrwt beam="2">  1        2 0.11985278E+00 0.16748491E+03</pdfrwt>
<totfact> 0.72640509E+01</totfact>
</mgrwt>
</event>
<event>
13    1  0.1675423E-008  0.1467847E+03  0.7546771E-02  0.1234764E+00
          2   -1    0    0  503    0  0.00000000000E+00  0.00000000000E+00  0.86357518354E+03  0.86357518354E+03  0.00000000000E+00 0. -1.
          2   -1    0    0  502    0 -0.00000000000E+00 -0.00000000000E+00 -0.15243708384E+04  0.15243708384E+04  0.00000000000E+00 0. -1.
         24    2    1    2    0    0 -0.28266609722E+01 -0.29801387765E+02 -0.23308380663E+02  0.98256490748E+02  0.90636331789E+02 0.  0.
         25    2    1    2    0    0  0.29899243628E+03  0.12704613420E+03  0.23961184919E+02  0.34891370913E+03  0.12501776223E+03 0.  0.
         24    2    1    2    0    0 -0.25767602398E+02 -0.64279446346E+01 -0.17641275162E+03  0.19595256694E+03  0.81059618499E+02 0.  0.
        -13    1    3    3    0    0  0.36860824694E+02 -0.40007681476E+02 -0.15196798359E+02  0.56482542919E+02  0.00000000000E+00 0.  1.
         14    1    3    3    0    0 -0.39687485666E+02  0.10206293711E+02 -0.81115823041E+01  0.41773947830E+02  0.00000000000E+00 0. -1.
        -13    1    5    5    0    0  0.13357274465E+02 -0.34501822265E+02 -0.70987353404E+02  0.80049964798E+02  0.00000000000E+00 0.  1.
         14    1    5    5    0    0 -0.39124876863E+02  0.28073877630E+02 -0.10542539822E+03  0.11590260215E+03  0.00000000000E+00 0. -1.
          5    1    4    4  501    0  0.47769262207E+01  0.20173051350E+02  0.28825375738E+02  0.35815685269E+02  0.47000000000E+01 0.  1.
         -5    1    4    4    0  501  0.29421551005E+03  0.10687308285E+03 -0.48641908184E+01  0.31309802386E+03  0.47000000000E+01 0.  1.
          1    1    1    2  502    0 -0.11065753711E+03 -0.15681462231E+02 -0.10996730899E+04  0.11053379137E+04  0.00000000000E+00 0. -1.
          1    1    1    2  503    0 -0.15974063579E+03 -0.75135339566E+02  0.61463738244E+03  0.63948534140E+03  0.00000000000E+00 0. -1.
<mgrwt>
<rscale>  0 0.12519534E+03</rscale>
<asrwt>0</asrwt>
<pdfrwt beam="1">  1        2 0.12699635E+00 0.14678471E+03</pdfrwt>
<pdfrwt beam="2">  1        2 0.22417218E+00 0.10678137E+03</pdfrwt>
<totfact> 0.84275988E+01</totfact>
</mgrwt>
</event>
<event>
13    1  0.1675423E-008  0.5065188E+02  0.7546771E-02  0.1547138E+00
          2   -1    0    0  503    0  0.00000000000E+00  0.00000000000E+00  0.71023475658E+03  0.71023475658E+03  0.00000000000E+00 0. -1.
          2   -1    0    0  502    0 -0.00000000000E+00 -0.00000000000E+00 -0.16309247125E+04  0.16309247125E+04  0.00000000000E+00 0. -1.
         24    2    1    2    0    0 -0.11048004277E+03 -0.23041471359E+00  0.32847036953E+03  0.35606315190E+03  0.81745284527E+02 0.  0.
         25    2    1    2    0    0  0.20695792475E+03  0.15385157009E+02 -0.54835014552E+03  0.59948662226E+03  0.12501216941E+03 0.  0.
         24    2    1    2    0    0 -0.77629442780E+02  0.42174171992E+02 -0.14928725581E+03  0.19091018609E+03  0.79718399602E+02 0.  0.
        -11    1    5    5    0    0  0.94455993799E+01  0.10228756123E+01  0.36474508952E+01  0.10176911132E+02  0.00000000000E+00 0.  1.
         12    1    5    5    0    0 -0.87075042160E+02  0.41151296380E+02 -0.15293470671E+03  0.18073327496E+03  0.00000000000E+00 0. -1.
        -11    1    3    3    0    0  0.59411005297E+01 -0.17421514516E+02  0.63934395995E+02  0.66531292147E+02  0.00000000000E+00 0.  1.
         12    1    3    3    0    0 -0.11642114330E+03  0.17191099802E+02  0.26453597354E+03  0.28953185976E+03  0.00000000000E+00 0. -1.
          5    1    4    4  501    0  0.97720347760E+02 -0.50997629260E+02 -0.30892896176E+03  0.32803843977E+03  0.47000000000E+01 0. -1.
         -5    1    4    4    0  501  0.10923757699E+03  0.66382786269E+02 -0.23942118376E+03  0.27144818248E+03  0.47000000000E+01 0. -1.
          1    1    1    2  502    0  0.14757932332E+02 -0.19448091452E+02 -0.87094560367E+03  0.87128770758E+03  0.00000000000E+00 0. -1.
          1    1    1    2  503    0 -0.33606371536E+02 -0.37880822836E+02  0.31942267957E+03  0.32341180122E+03  0.00000000000E+00 0. -1.
<mgrwt>
<rscale>  0 0.35165263E+02</rscale>
<asrwt>0</asrwt>
<pdfrwt beam="1">  1        2 0.10444629E+00 0.50651881E+02</pdfrwt>
<pdfrwt beam="2">  1        2 0.23984187E+00 0.24413620E+02</pdfrwt>
<totfact> 0.11171764E+02</totfact>
</mgrwt>
</event>
<event>
13    1  0.1675423E-008  0.1511047E+03  0.7546771E-02  0.1293237E+00
          2   -1    0    0  502    0  0.00000000000E+00  0.00000000000E+00  0.18392351544E+04  0.18392351544E+04  0.00000000000E+00 0. -1.
          2   -1    0    0  503    0 -0.00000000000E+00 -0.00000000000E+00 -0.14201565316E+04  0.14201565316E+04  0.00000000000E+00 0. -1.
         24    2    1    2    0    0 -0.11024037564E+03 -0.62079787659E+02  0.21214367682E+03  0.25936887822E+03  0.79122910180E+02 0.  0.
         25    2    1    2    0    0 -0.11509700535E+03  0.86642673763E+02 -0.57847703340E+03  0.60910701704E+03  0.12498562511E+03 0.  0.
         24    2    1    2    0    0 -0.46933494888E+02  0.45270625173E+02  0.13359452291E+02  0.10295882950E+03  0.78548476497E+02 0.  0.
        -11    1    3    3    0    0 -0.66214438429E+02  0.71379258923E+01  0.10661645714E+03  0.12570748098E+03  0.00000000000E+00 0.  1.
         12    1    3    3    0    0 -0.44025937215E+02 -0.69217713551E+02  0.10552721969E+03  0.13366139724E+03  0.00000000000E+00 0. -1.
        -11    1    5    5    0    0 -0.69158922334E+02  0.35718141276E+02  0.11679026929E+02  0.78709223250E+02  0.00000000000E+00 0.  1.
         12    1    5    5    0    0  0.22225427446E+02  0.95524838969E+01  0.16804253621E+01  0.24249606247E+02  0.00000000000E+00 0. -1.
          5    1    4    4  501    0 -0.40269204340E+02 -0.28155960849E+02 -0.10235631816E+03  0.11363658221E+03  0.47000000000E+01 0.  1.
         -5    1    4    4    0  501 -0.74827801008E+02  0.11479863461E+03 -0.47612071524E+03  0.49547043483E+03  0.47000000000E+01 0.  1.
          1    1    1    2  502    0  0.22017032658E+03 -0.43034228343E+02  0.15206306143E+04  0.15370895819E+04  0.00000000000E+00 0. -1.
          1    1    1    2  503    0  0.52100549300E+02 -0.26799282934E+02 -0.74857808716E+03  0.75086737936E+03  0.00000000000E+00 0. -1.
<mgrwt>
<rscale>  0 0.94090756E+02</rscale>
<asrwt>0</asrwt>
<pdfrwt beam="1">  1        2 0.27047576E+00 0.15110470E+03</pdfrwt>
<pdfrwt beam="2">  1        2 0.20884655E+00 0.58588982E+02</pdfrwt>
<totfact> 0.29973506E+01</totfact>
</mgrwt>
</event>
<event>
13    1  0.1675423E-008  0.1657907E+03  0.7546771E-02  0.1288781E+00
          2   -1    0    0  502    0  0.00000000000E+00  0.00000000000E+00  0.88705222721E+03  0.88705222721E+03  0.00000000000E+00 0. -1.
          2   -1    0    0  503    0 -0.00000000000E+00 -0.00000000000E+00 -0.19937894206E+04  0.19937894206E+04  0.00000000000E+00 0. -1.
         24    2    1    2    0    0 -0.39173451458E+03 -0.10267895275E+02  0.50436068334E+03  0.64208788753E+03  0.65846767780E+02 0.  0.
         25    2    1    2    0    0  0.16939656468E+02  0.61670697532E+02 -0.10374241979E+03  0.17457684001E+03  0.12499742601E+03 0.  0.
         24    2    1    2    0    0  0.42038103753E+03  0.99726793244E+02 -0.54394019919E+03  0.69942175572E+03  0.81573292661E+02 0.  0.
        -11    1    5    5    0    0  0.28228714671E+03  0.10575456964E+03 -0.37506882422E+03  0.48119298114E+03  0.00000000000E+00 0.  1.
         12    1    5    5    0    0  0.13809389082E+03 -0.60277763999E+01 -0.16887137497E+03  0.21822877458E+03  0.00000000000E+00 0. -1.
        -13    1    3    3    0    0 -0.94005827849E+02  0.42848895207E+01  0.16873427177E+03  0.19320121743E+03  0.00000000000E+00 0.  1.
         14    1    3    3    0    0 -0.29772868673E+03 -0.14552784795E+02  0.33562641157E+03  0.44888667010E+03  0.00000000000E+00 0. -1.
          5    1    4    4  501    0  0.11229964234E+02  0.77412468105E+02 -0.97258585821E+01  0.78965084942E+02  0.47000000000E+01 0.  1.
         -5    1    4    4    0  501  0.57096922341E+01 -0.15741770573E+02 -0.94016561208E+02  0.95611755069E+02  0.47000000000E+01 0.  1.
          1    1    1    2  502    0  0.68989908038E+01 -0.16969268592E+03  0.16392601672E+03  0.23604012940E+03  0.00000000000E+00 0. -1.
          1    1    1    2  503    0 -0.52485170221E+02  0.18563090423E+02 -0.11273412745E+04  0.11287150351E+04  0.00000000000E+00 0. -1.
<mgrwt>
<rscale>  0 0.96071666E+02</rscale>
<asrwt>0</asrwt>
<pdfrwt beam="1">  1        2 0.13044886E+00 0.16579069E+03</pdfrwt>
<pdfrwt beam="2">  1        2 0.29320433E+00 0.55671190E+02</pdfrwt>
<totfact> 0.51380528E+01</totfact>
</mgrwt>
</event>
<event>
13    1  0.1675423E-008  0.1305840E+03  0.7546771E-02  0.1254939E+00
          2   -1    0    0  502    0  0.00000000000E+00  0.00000000000E+00  0.69464621123E+03  0.69464621123E+03  0.00000000000E+00 0. -1.
          2   -1    0    0  503    0 -0.00000000000E+00 -0.00000000000E+00 -0.23992985036E+04  0.23992985036E+04  0.00000000000E+00 0. -1.
         24    2    1    2    0    0 -0.37840678215E+02 -0.72108221636E+02  0.98348032280E+02  0.15119573517E+03  0.80970996821E+02 0.  0.
         25    2    1    2    0    0 -0.17801892580E+03  0.13537731851E+03 -0.54437398060E+03  0.60165332244E+03  0.12500373331E+03 0.  0.
         24    2    1    2    0    0 -0.58561184599E+02 -0.23245646546E+02 -0.94811621282E+03  0.95340821022E+03  0.78058246705E+02 0.  0.
        -13    1    3    3    0    0  0.25615689834E+02 -0.17284632892E+02  0.24050940413E+02  0.39158266492E+02  0.00000000000E+00 0.  1.
         14    1    3    3    0    0 -0.63456368050E+02 -0.54823588743E+02  0.74297091867E+02  0.11203746868E+03  0.00000000000E+00 0. -1.
        -13    1    5    5    0    0 -0.68420712736E+02 -0.36752772536E+02 -0.61686395194E+03  0.62173410347E+03  0.00000000000E+00 0.  1.
         14    1    5    5    0    0  0.98595281365E+01  0.13507125989E+02 -0.33125226088E+03  0.33167410675E+03  0.00000000000E+00 0. -1.
          5    1    4    4  501    0 -0.16600050340E+03  0.14234755464E+03 -0.54470867946E+03  0.58698264788E+03  0.47000000000E+01 0. -1.
         -5    1    4    4    0  501 -0.12018422401E+02 -0.69702361232E+01  0.33469886023E+00  0.14670674557E+02  0.47000000000E+01 0. -1.
          1    1    1    2  502    0  0.15865474887E+03 -0.40820073361E+01  0.52241384759E+03  0.54598921260E+03  0.00000000000E+00 0. -1.
          1    1    1    2  503    0  0.11576603975E+03 -0.35941442994E+02 -0.83292397883E+03  0.84169823440E+03  0.00000000000E+00 0. -1.
<mgrwt>
<rscale>  0 0.11309748E+03</rscale>
<asrwt>0</asrwt>
<pdfrwt beam="1">  1        2 0.10215386E+00 0.13058395E+03</pdfrwt>
<pdfrwt beam="2">  1        2 0.35283801E+00 0.97952619E+02</pdfrwt>
<totfact> 0.41770313E+01</totfact>
</mgrwt>
</event>
<event>
13    1  0.1675423E-008  0.5873354E+02  0.7546771E-02  0.1463718E+00
          2   -1    0    0  503    0  0.00000000000E+00  0.00000000000E+00  0.23433517612E+04  0.23433517612E+04  0.00000000000E+00 0. -1.
          2   -1    0    0  502    0 -0.00000000000E+00 -0.00000000000E+00 -0.30432158484E+03  0.30432158484E+03  0.00000000000E+00 0. -1.
         24    2    1    2    0    0 -0.31592321774E+00  0.27430063293E+01  0.36210210037E+03  0.37078849633E+03  0.79740541923E+02 0.  0.
         25    2    1    2    0    0 -0.41179241300E+02  0.94328059315E+02  0.72266402341E+02  0.17731611385E+03  0.12500023455E+03 0.  0.
         24    2    1    2    0    0  0.22538067756E+02 -0.36251315871E+01 -0.97729597760E+00  0.82829892026E+02  0.79616140502E+02 0.  0.
        -11    1    3    3    0    0 -0.25100665999E+02  0.32128485164E+02  0.16408634762E+03  0.16907575955E+03  0.00000000000E+00 0.  1.
         12    1    3    3    0    0  0.24784742782E+02 -0.29385478835E+02  0.19801575275E+03  0.20171273678E+03  0.00000000000E+00 0. -1.
        -13    1    5    5    0    0  0.74541606761E+01  0.26222334710E+02  0.27634599658E+02  0.38818120089E+02  0.00000000000E+00 0.  1.
         14    1    5    5    0    0  0.15083907080E+02 -0.29847466297E+02 -0.28611895635E+02  0.44011771937E+02  0.00000000000E+00 0. -1.
          5    1    4    4  501    0 -0.71236696135E+02  0.23940151153E+02  0.52574999766E+01  0.75481978110E+02  0.47000000000E+01 0. -1.
         -5    1    4    4    0  501  0.30057454834E+02  0.70387908162E+02  0.67008902365E+02  0.10183413574E+03  0.47000000000E+01 0. -1.
          1    1    1    2  502    0  0.79382875965E+01 -0.57907299521E+02 -0.20119949222E+03  0.20951732009E+03  0.00000000000E+00 0. -1.
          1    1    1    2  503    0  0.11018809165E+02 -0.35538634536E+02  0.18068384619E+04  0.18072215238E+04  0.00000000000E+00 0. -1.
<mgrwt>
<rscale>  0 0.46747582E+02</rscale>
<asrwt>0</asrwt>
<pdfrwt beam="1">  1        2 0.34461054E+00 0.37207643E+02</pdfrwt>
<pdfrwt beam="2">  1        2 0.44753175E-01 0.58733537E+02</pdfrwt>
<totfact> 0.12306284E+02</totfact>
</mgrwt>
</event>
<event>
13    1  0.1675423E-008  0.7214868E+02  0.7546771E-02  0.1401003E+00
          4   -1    0    0  503    0  0.00000000000E+00  0.00000000000E+00  0.71751939372E+03  0.71751939372E+03  0.00000000000E+00 0. -1.
         -3   -1    0    0    0  501 -0.00000000000E+00 -0.00000000000E+00 -0.19411395195E+04  0.19411395195E+04  0.00000000000E+00 0.  1.
         24    2    1    2    0    0  0.25201328198E+02 -0.38661990738E+02  0.30996422421E+01  0.90593395071E+02  0.77895436180E+02 0.  0.
         25    2    1    2    0    0  0.13640004850E+03 -0.10968869440E+02 -0.13492734650E+04  0.13619403110E+04  0.12496894825E+03 0.  0.
         24    2    1    2    0    0 -0.84581643162E+02  0.40386593977E+02  0.11048552621E+03  0.16561656687E+03  0.80228825171E+02 0.  0.
        -11    1    5    5    0    0 -0.12297180178E+02  0.46321485892E+02  0.62046564316E+02  0.78400745143E+02  0.00000000000E+00 0.  1.
         12    1    5    5    0    0 -0.72284462984E+02 -0.59348919154E+01  0.48438961894E+02  0.87215821731E+02  0.00000000000E+00 0. -1.
        -13    1    3    3    0    0  0.49838621504E+02 -0.18692466322E+02 -0.13335473434E+02  0.54873776454E+02  0.00000000000E+00 0.  1.
         14    1    3    3    0    0 -0.24637293306E+02 -0.19969524416E+02  0.16435115676E+02  0.35719618617E+02  0.00000000000E+00 0. -1.
          5    1    4    4  502    0  0.72101558477E+02  0.56550386354E+02 -0.63650875026E+03  0.64308791008E+03  0.47000000000E+01 0.  1.
         -5    1    4    4    0  502  0.64298490018E+02 -0.67519255795E+02 -0.71276471478E+03  0.71885240096E+03  0.47000000000E+01 0.  1.
          3    1    1    2  503    0 -0.14952854572E+02  0.46304128862E+02  0.52261203520E+03  0.52487236500E+03  0.00000000000E+00 0. -1.
         -4    1    1    2    0  501 -0.62066878959E+02 -0.37059862660E+02 -0.51054386439E+03  0.51563627525E+03  0.00000000000E+00 0.  1.
<mgrwt>
<rscale>  0 0.59250777E+02</rscale>
<asrwt>0</asrwt>
<pdfrwt beam="1">  1        4 0.10551756E+00 0.48658609E+02</pdfrwt>
<pdfrwt beam="2">  1       -3 0.28546169E+00 0.72148684E+02</pdfrwt>
<totfact> 0.85237514E-02</totfact>
</mgrwt>
</event>
<event>
13    1  0.1675423E-008  0.1050231E+03  0.7546771E-02  0.1276436E+00
          2   -1    0    0  502    0  0.00000000000E+00  0.00000000000E+00  0.21068913512E+04  0.21068913512E+04  0.00000000000E+00 0. -1.
          2   -1    0    0  503    0 -0.00000000000E+00 -0.00000000000E+00 -0.19470287627E+04  0.19470287627E+04  0.00000000000E+00 0. -1.
         24    2    1    2    0    0  0.20603698112E+03 -0.19030075444E+03  0.85796395983E+03  0.90654927449E+03  0.84046510914E+02 0.  0.
         25    2    1    2    0    0 -0.26796653734E+03  0.22964072528E+03  0.20162373306E+03  0.42522545252E+03  0.12499451145E+03 0.  0.
         24    2    1    2    0    0 -0.67847929730E+02 -0.31279040913E+02  0.27491092922E+03  0.29597192550E+03  0.80259838696E+02 0.  0.
        -11    1    3    3    0    0  0.61069834867E+02 -0.10776175756E+03  0.42029544813E+03  0.43816707412E+03  0.00000000000E+00 0.  1.
         12    1    3    3    0    0  0.14496714625E+03 -0.82538996882E+02  0.43766851170E+03  0.46838220038E+03  0.00000000000E+00 0. -1.
        -11    1    5    5    0    0 -0.84242059266E+02 -0.13521477900E+02  0.20731232050E+03  0.22418285649E+03  0.00000000000E+00 0.  1.
         12    1    5    5    0    0  0.16394129536E+02 -0.17757563013E+02  0.67598608726E+02  0.71789069008E+02  0.00000000000E+00 0. -1.
          5    1    4    4  501    0 -0.77344293678E+02  0.66986848024E+01  0.20422728688E+02  0.80412623323E+02  0.47000000000E+01 0. -1.
         -5    1    4    4    0  501 -0.19062224366E+03  0.22294204048E+03  0.18120100438E+03  0.34481282920E+03  0.47000000000E+01 0. -1.
          1    1    1    2  502    0  0.65305835286E+02 -0.82911431765E+02  0.61995033849E+03  0.62887008184E+03  0.00000000000E+00 0. -1.
          1    1    1    2  503    0  0.64471650665E+02  0.74850501838E+02 -0.17945863721E+04  0.17973033796E+04  0.00000000000E+00 0. -1.
<mgrwt>
<rscale>  0 0.10185816E+03</rscale>
<asrwt>0</asrwt>
<pdfrwt beam="1">  1        2 0.30983696E+00 0.10502307E+03</pdfrwt>
<pdfrwt beam="2">  1        2 0.28632776E+00 0.98788620E+02</pdfrwt>
<totfact> 0.12263432E+01</totfact>
</mgrwt>
</event>
<event>
13    1  0.1675423E-008  0.4322934E+02  0.7546771E-02  0.1511194E+00
          2   -1    0    0  502    0  0.00000000000E+00  0.00000000000E+00  0.33799988901E+04  0.33799988901E+04  0.00000000000E+00 0. -1.
          2   -1    0    0  503    0 -0.00000000000E+00 -0.00000000000E+00 -0.19879049541E+04  0.19879049541E+04  0.00000000000E+00 0. -1.
         24    2    1    2    0    0  0.38653653702E+03  0.11583583188E+03  0.17045077196E+04  0.17534003759E+04  0.78980234792E+02 0.  0.
         25    2    1    2    0    0 -0.56255740146E+03 -0.52193465087E+03 -0.11275672367E+04  0.13696409036E+04  0.12498688724E+03 0.  0.
         24    2    1    2    0    0  0.16739518512E+03  0.41348648478E+03 -0.89108999134E+02  0.46039749466E+03  0.70945177861E+02 0.  0.
        -11    1    3    3    0    0  0.35049384334E+03  0.12571053956E+03  0.15867891018E+04  0.16298922442E+04  0.00000000000E+00 0.  1.
         12    1    3    3    0    0  0.36042693673E+02 -0.98747076823E+01  0.11771861779E+03  0.12350813169E+03  0.00000000000E+00 0. -1.
        -11    1    5    5    0    0  0.10400057740E+03  0.21517206865E+03 -0.15211201753E+02  0.23947133417E+03  0.00000000000E+00 0.  1.
         12    1    5    5    0    0  0.63394607726E+02  0.19831441612E+03 -0.73897797381E+02  0.22092616049E+03  0.00000000000E+00 0. -1.
          5    1    4    4  501    0 -0.54508395920E+03 -0.46690059594E+03 -0.10161747223E+04  0.12440843401E+04  0.47000000000E+01 0.  1.
         -5    1    4    4    0  501 -0.17473442255E+02 -0.55034054923E+02 -0.11139251435E+03  0.12555656351E+03  0.47000000000E+01 0.  1.
          1    1    1    2  502    0  0.59603508768E+01  0.35777916765E+02  0.13430558614E+04  0.13435455451E+04  0.00000000000E+00 0. -1.
          1    1    1    2  503    0  0.26653284444E+01 -0.43165582560E+02 -0.43879340921E+03  0.44091952492E+03  0.00000000000E+00 0. -1.
<mgrwt>
<rscale>  0 0.39597618E+02</rscale>
<asrwt>0</asrwt>
<pdfrwt beam="1">  1        2 0.49705866E+00 0.36270995E+02</pdfrwt>
<pdfrwt beam="2">  1        2 0.29233896E+00 0.43229345E+02</pdfrwt>
<totfact> 0.34154159E+00</totfact>
</mgrwt>
</event>
<event>
13    1  0.1675423E-008  0.1170017E+03  0.7546771E-02  0.1385468E+00
          2   -1    0    0  503    0  0.00000000000E+00  0.00000000000E+00  0.20029176879E+04  0.20029176879E+04  0.00000000000E+00 0. -1.
          2   -1    0    0  502    0 -0.00000000000E+00 -0.00000000000E+00 -0.52976807541E+03  0.52976807541E+03  0.00000000000E+00 0. -1.
         24    2    1    2    0    0 -0.57572823663E+02  0.25443868843E+03 -0.25570853627E+02  0.27419369403E+03  0.80465129701E+02 0.  0.
         25    2    1    2    0    0  0.23206281338E+03 -0.28325152527E+03  0.64691989572E+03  0.75380115330E+03  0.12500500512E+03 0.  0.
         24    2    1    2    0    0  0.29887334853E+02 -0.12966088150E+02 -0.12992712293E+03  0.15517454766E+03  0.78337160666E+02 0.  0.
        -13    1    3    3    0    0  0.25637971570E+01  0.11011266597E+02  0.16440888683E+02  0.19953041588E+02  0.00000000000E+00 0.  1.
         14    1    3    3    0    0 -0.60136620820E+02  0.24342742183E+03 -0.42011742310E+02  0.25424065244E+03  0.00000000000E+00 0. -1.
        -13    1    5    5    0    0 -0.26441090665E+02 -0.26683668383E+01 -0.52840739793E+02  0.59147233570E+02  0.00000000000E+00 0.  1.
         14    1    5    5    0    0  0.56328425518E+02 -0.10297721312E+02 -0.77086383138E+02  0.96027314087E+02  0.00000000000E+00 0. -1.
          5    1    4    4  501    0  0.13378805267E+03 -0.85775013796E+02  0.20095270529E+03  0.25624339171E+03  0.47000000000E+01 0.  1.
         -5    1    4    4    0  501  0.98274760711E+02 -0.19747651148E+03  0.44596719043E+03  0.49755776159E+03  0.47000000000E+01 0.  1.
          1    1    1    2  502    0 -0.17040775285E+03  0.41209902692E+02 -0.14179282402E+03  0.22548229033E+03  0.00000000000E+00 0. -1.
          1    1    1    2  503    0 -0.33969571724E+02  0.56902230395E+00  0.11235205173E+04  0.11240340780E+04  0.00000000000E+00 0. -1.
<mgrwt>
<rscale>  0 0.63048042E+02</rscale>
<asrwt>0</asrwt>
<pdfrwt beam="1">  1        2 0.29454672E+00 0.33974337E+02</pdfrwt>
<pdfrwt beam="2">  1        2 0.77907070E-01 0.11700171E+03</pdfrwt>
<totfact> 0.99523269E+01</totfact>
</mgrwt>
</event>
<event>
13    1  0.1675423E-008  0.2372581E+03  0.7546771E-02  0.1328228E+00
          2   -1    0    0  503    0  0.00000000000E+00  0.00000000000E+00  0.39564617048E+04  0.39564617048E+04  0.00000000000E+00 0. -1.
          2   -1    0    0  502    0 -0.00000000000E+00 -0.00000000000E+00 -0.22467997797E+04  0.22467997797E+04  0.00000000000E+00 0. -1.
         24    2    1    2    0    0  0.82169204554E+03 -0.68333105140E+03  0.51753760796E+03  0.11901242237E+04  0.80195690162E+02 0.  0.
         25    2    1    2    0    0 -0.52531660702E+03  0.65947256166E+03 -0.22543129578E+03  0.88164958693E+03  0.12500051124E+03 0.  0.
         24    2    1    2    0    0 -0.39646251028E+02  0.45660255073E+02  0.16885994647E+01  0.92114818035E+02  0.69466569078E+02 0.  0.
        -13    1    5    5    0    0 -0.16450937639E+02 -0.71048911775E+01 -0.23214924427E+02  0.29326533106E+02  0.00000000000E+00 0.  1.
         14    1    5    5    0    0 -0.23195313389E+02  0.52765146251E+02  0.24903523892E+02  0.62788284929E+02  0.00000000000E+00 0. -1.
        -13    1    3    3    0    0  0.53057955102E+03 -0.48148301750E+03  0.32218057297E+03  0.78558314500E+03  0.00000000000E+00 0.  1.
         14    1    3    3    0    0  0.29111249451E+03 -0.20184803390E+03  0.19535703500E+03  0.40454107872E+03  0.00000000000E+00 0. -1.
          5    1    4    4  501    0 -0.60076829590E+02  0.67409600748E+02  0.14011010326E+02  0.91496875012E+02  0.47000000000E+01 0. -1.
         -5    1    4    4    0  501 -0.46523977743E+03  0.59206296092E+03 -0.23944230611E+03  0.79015271192E+03  0.47000000000E+01 0. -1.
          1    1    1    2  502    0 -0.19832950270E+02 -0.18572553047E+02 -0.13064667763E+04  0.13067492963E+04  0.00000000000E+00 0. -1.
          1    1    1    2  503    0 -0.23689623722E+03 -0.32292122932E+01  0.27223337898E+04  0.27326235595E+04  0.00000000000E+00 0. -1.
<mgrwt>
<rscale>  0 0.80290951E+02</rscale>
<asrwt>0</asrwt>
<pdfrwt beam="1">  1        2 0.58183260E+00 0.23725807E+03</pdfrwt>
<pdfrwt beam="2">  1        2 0.33041173E+00 0.27171412E+02</pdfrwt>
<totfact> 0.85464029E-01</totfact>
</mgrwt>
</event>
<event>
13    1  0.1675423E-008  0.1058027E+03  0.7546771E-02  0.1307010E+00
         -1   -1    0    0    0  501 -0.00000000000E+00  0.00000000000E+00  0.94224162197E+03  0.94224162197E+03  0.00000000000E+00 0.  1.
          2   -1    0    0  503    0  0.00000000000E+00 -0.00000000000E+00 -0.26750872319E+04  0.26750872319E+04  0.00000000000E+00 0. -1.
         24    2    1    2    0    0  0.82346559314E+01  0.13612612989E+03 -0.13893307307E+04  0.13983456329E+04  0.80823865021E+02 0.  0.
         25    2    1    2    0    0  0.96518953796E+02 -0.28441093110E+03  0.49867843484E+03  0.59540863498E+03  0.12500310021E+03 0.  0.
         24    2    1    2    0    0 -0.47037593311E+02 -0.16266866955E+02  0.55084860266E+01  0.92193903346E+02  0.77409471326E+02 0.  0.
        -11    1    5    5    0    0 -0.98887930147E+01  0.30638329603E+02  0.18059574859E+01  0.32245262452E+02  0.00000000000E+00 0.  1.
         12    1    5    5    0    0 -0.37148800296E+02 -0.46905196557E+02  0.37025285407E+01  0.59948640895E+02  0.00000000000E+00 0. -1.
        -13    1    3    3    0    0 -0.24728087189E+02  0.12225096893E+02 -0.36116058738E+03  0.36221250830E+03  0.00000000000E+00 0.  1.
         14    1    3    3    0    0  0.32962743121E+02  0.12390103299E+03 -0.10281701433E+04  0.10361331246E+04  0.00000000000E+00 0. -1.
          5    1    4    4  502    0  0.92585044014E+02 -0.29010954643E+03  0.43406062917E+03  0.53025112833E+03  0.47000000000E+01 0. -1.
         -5    1    4    4    0  502  0.39339097821E+01  0.56986153261E+01  0.64617805671E+02  0.65157506648E+02  0.47000000000E+01 0. -1.
          1    1    1    2  503    0 -0.53381018459E+02  0.90978986376E+02 -0.11831950226E+04  0.11878876928E+04  0.00000000000E+00 0. -1.
         -2    1    1    2    0  501 -0.43349979583E+01  0.73572681791E+02  0.33549322250E+03  0.34349298982E+03  0.00000000000E+00 0.  1.
<mgrwt>
<rscale>  0 0.88304539E+02</rscale>
<asrwt>0</asrwt>
<pdfrwt beam="2">  1        2 0.39339518E+00 0.10580274E+03</pdfrwt>
<pdfrwt beam="1">  1       -1 0.13856494E+00 0.73700283E+02</pdfrwt>
<totfact> 0.24567308E+00</totfact>
</mgrwt>
</event>
<event>
13    1  0.1675423E-008  0.4161412E+02  0.7546771E-02  0.1530848E+00
          2   -1    0    0  503    0  0.00000000000E+00  0.00000000000E+00  0.37839579557E+04  0.37839579557E+04  0.00000000000E+00 0. -1.
          2   -1    0    0  502    0 -0.00000000000E+00 -0.00000000000E+00 -0.96491021141E+03  0.96491021141E+03  0.00000000000E+00 0. -1.
         24    2    1    2    0    0  0.17627467474E+02 -0.32982484745E+02  0.36930616040E+03  0.38002611957E+03  0.81450841233E+02 0.  0.
         25    2    1    2    0    0  0.15240884050E+02  0.30298439869E+02  0.95313182082E+03  0.96189186122E+03  0.12500161931E+03 0.  0.
         24    2    1    2    0    0 -0.17942255600E+02 -0.32963255600E+02 -0.29694049919E+02  0.93953356457E+02  0.80851690354E+02 0.  0.
        -11    1    5    5    0    0 -0.33769968110E+02 -0.43129066699E+02 -0.44048599886E+02  0.70290869196E+02  0.00000000000E+00 0.  1.
         12    1    5    5    0    0  0.15827712510E+02  0.10165811099E+02  0.14354549966E+02  0.23662487260E+02  0.00000000000E+00 0. -1.
        -13    1    3    3    0    0 -0.67299021539E+00 -0.20794045872E+02  0.35043061397E+03  0.35104766125E+03  0.00000000000E+00 0.  1.
         14    1    3    3    0    0  0.18300457689E+02 -0.12188438873E+02  0.18875546429E+02  0.28978458323E+02  0.00000000000E+00 0. -1.
          5    1    4    4  501    0  0.48289100828E+02  0.90178546084E+01  0.84987584968E+03  0.85130735274E+03  0.47000000000E+01 0. -1.
         -5    1    4    4    0  501 -0.33048216778E+02  0.21280585260E+02  0.10325597113E+03  0.11058450848E+03  0.47000000000E+01 0. -1.
          1    1    1    2  502    0 -0.39391634633E+02  0.13435276179E+02 -0.89274885250E+03  0.89371847981E+03  0.00000000000E+00 0. -1.
          1    1    1    2  503    0  0.24465538709E+02  0.22212024296E+02  0.24190526655E+04  0.24192783501E+04  0.00000000000E+00 0. -1.
<mgrwt>
<rscale>  0 0.37082561E+02</rscale>
<asrwt>0</asrwt>
<pdfrwt beam="1">  1        2 0.55646440E+00 0.33044464E+02</pdfrwt>
<pdfrwt beam="2">  1        2 0.14189856E+00 0.41614120E+02</pdfrwt>
<totfact> 0.64401908E+00</totfact>
</mgrwt>
</event>
<event>
13    1  0.1675423E-008  0.1958434E+03  0.7546771E-02  0.1309408E+00
          2   -1    0    0  503    0  0.00000000000E+00  0.00000000000E+00  0.63034238409E+03  0.63034238409E+03  0.00000000000E+00 0. -1.
          2   -1    0    0  502    0 -0.00000000000E+00 -0.00000000000E+00 -0.12162065770E+04  0.12162065770E+04  0.00000000000E+00 0. -1.
         24    2    1    2    0    0  0.14265579189E+03 -0.77308337840E+02  0.82319936430E+02  0.20056426440E+03  0.84393116802E+02 0.  0.
         25    2    1    2    0    0 -0.87678858767E+02  0.89373254424E+02 -0.19814759746E+03  0.26563978952E+03  0.12500746586E+03 0.  0.
         24    2    1    2    0    0 -0.19247595334E+03 -0.12648216547E+03  0.15173004575E+03  0.28843034588E+03  0.84411651140E+02 0.  0.
        -11    1    5    5    0    0 -0.41986156813E+02 -0.17594761583E+02  0.74405281484E+02  0.87227053784E+02  0.00000000000E+00 0.  1.
         12    1    5    5    0    0 -0.15048979652E+03 -0.10888740389E+03  0.77324764268E+02  0.20120329210E+03  0.00000000000E+00 0. -1.
        -13    1    3    3    0    0  0.10744646005E+03 -0.76018844229E+02  0.95851350559E+02  0.16282225849E+03  0.00000000000E+00 0.  1.
         14    1    3    3    0    0  0.35209331838E+02 -0.12894936107E+01 -0.13531414129E+02  0.37742005916E+02  0.00000000000E+00 0. -1.
          5    1    4    4  501    0  0.86178667366E+01  0.39106208765E+02 -0.80594490490E+00  0.40327443983E+02  0.47000000000E+01 0.  1.
         -5    1    4    4    0  501 -0.96296725503E+02  0.50267045659E+02 -0.19734165255E+03  0.22531234554E+03  0.47000000000E+01 0.  1.
          1    1    1    2  502    0  0.17025136237E+03  0.93324702185E+02 -0.84412717443E+03  0.86616725466E+03  0.00000000000E+00 0. -1.
          1    1    1    2  503    0 -0.32752342155E+02  0.21092546703E+02  0.22236059679E+03  0.22574730662E+03  0.00000000000E+00 0. -1.
<mgrwt>
<rscale>  0 0.87346313E+02</rscale>
<asrwt>0</asrwt>
<pdfrwt beam="1">  1        2 0.92697410E-01 0.38956533E+02</pdfrwt>
<pdfrwt beam="2">  1        2 0.17885391E+00 0.19584336E+03</pdfrwt>
<totfact> 0.17520700E+02</totfact>
</mgrwt>
</event>
<event>
13    1  0.1675423E-008  0.5149407E+02  0.7546771E-02  0.1503518E+00
         -1   -1    0    0    0  501 -0.00000000000E+00  0.00000000000E+00  0.60512545577E+03  0.60512545577E+03  0.00000000000E+00 0.  1.
          2   -1    0    0  503    0  0.00000000000E+00 -0.00000000000E+00 -0.37593526040E+04  0.37593526040E+04  0.00000000000E+00 0. -1.
         24    2    1    2    0    0 -0.11217601279E+03 -0.25579616755E+03 -0.12824962018E+04  0.13147049141E+04  0.75082397364E+02 0.  0.
         25    2    1    2    0    0  0.80059898240E+02  0.36103377971E+03 -0.54830169988E+03  0.67306425123E+03  0.12500301914E+03 0.  0.
         24    2    1    2    0    0  0.75488514351E+02 -0.61854035124E+02 -0.33209243629E+03  0.35458605188E+03  0.76950922565E+02 0.  0.
        -11    1    5    5    0    0  0.44182597954E+02 -0.69460856250E+02 -0.16477028359E+03  0.18419055043E+03  0.00000000000E+00 0.  1.
         12    1    5    5    0    0  0.31305916398E+02  0.76068211256E+01 -0.16732215270E+03  0.17039550145E+03  0.00000000000E+00 0. -1.
        -11    1    3    3    0    0 -0.12465418720E+02 -0.88150657578E+02 -0.29553053808E+03  0.30864903051E+03  0.00000000000E+00 0.  1.
         12    1    3    3    0    0 -0.99710594075E+02 -0.16764550997E+03 -0.98696566373E+03  0.10060558836E+04  0.00000000000E+00 0. -1.
          5    1    4    4  502    0 -0.15685659632E+02  0.12891830017E+03 -0.26038912351E+03  0.29101641480E+03  0.47000000000E+01 0.  1.
         -5    1    4    4    0  502  0.95745557872E+02  0.23211547954E+03 -0.28791257637E+03  0.38204783643E+03  0.47000000000E+01 0.  1.
          1    1    1    2  503    0 -0.31375676165E+02  0.66930667719E+01 -0.15052722827E+04  0.15056141190E+04  0.00000000000E+00 0. -1.
         -2    1    1    2    0  501 -0.11996723632E+02 -0.50076643810E+02  0.51393547246E+03  0.51650872354E+03  0.00000000000E+00 0.  1.
<mgrwt>
<rscale>  0 0.40644963E+02</rscale>
<asrwt>0</asrwt>
<pdfrwt beam="2">  1        2 0.55284597E+00 0.32081618E+02</pdfrwt>
<pdfrwt beam="1">  1       -1 0.88989038E-01 0.51494068E+02</pdfrwt>
<totfact> 0.21407268E+00</totfact>
</mgrwt>
</event>
<event>
13    1  0.1675423E-008  0.9711440E+02  0.7546771E-02  0.1314126E+00
          2   -1    0    0  502    0  0.00000000000E+00  0.00000000000E+00  0.46170310518E+03  0.46170310518E+03  0.00000000000E+00 0. -1.
          2   -1    0    0  503    0 -0.00000000000E+00 -0.00000000000E+00 -0.26121645630E+04  0.26121645630E+04  0.00000000000E+00 0. -1.
         24    2    1    2    0    0  0.17395123107E+02 -0.68591960827E+01 -0.80028167868E+01  0.82229934333E+02  0.79674827550E+02 0.  0.
         25    2    1    2    0    0 -0.33125894904E+02 -0.12476676810E+03 -0.64888314165E+02  0.19110383115E+03  0.12508441002E+03 0.  0.
         24    2    1    2    0    0  0.88587075688E+01  0.53369122989E+02 -0.57367121401E+03  0.58175617357E+03  0.80092719515E+02 0.  0.
        -13    1    5    5    0    0  0.50977943950E+01  0.26827861866E+02 -0.46659956593E+02  0.54063603554E+02  0.00000000000E+00 0.  1.
         14    1    5    5    0    0  0.37609131738E+01  0.26541261123E+02 -0.52701125742E+03  0.52769257002E+03  0.00000000000E+00 0. -1.
        -13    1    3    3    0    0  0.20740786588E+00 -0.37339319721E+02  0.15123297469E+02  0.40286250031E+02  0.00000000000E+00 0.  1.
         14    1    3    3    0    0  0.17187715241E+02  0.30480123639E+02 -0.23126114256E+02  0.41943684302E+02  0.00000000000E+00 0. -1.
          5    1    4    4  501    0 -0.71529841997E+02 -0.11137268558E+03 -0.26693859848E+02  0.13511123397E+03  0.47000000000E+01 0.  1.
         -5    1    4    4    0  501  0.38403947093E+02 -0.13394082519E+02 -0.38194454317E+02  0.55992597184E+02  0.47000000000E+01 0.  1.
          1    1    1    2  502    0  0.74922587959E+02  0.73000226623E+01  0.35216043489E+03  0.36011617072E+03  0.00000000000E+00 0. -1.
          1    1    1    2  503    0 -0.68050523730E+02  0.70956818533E+02 -0.18560595478E+04  0.18586615584E+04  0.00000000000E+00 0. -1.
<mgrwt>
<rscale>  0 0.85501566E+02</rscale>
<asrwt>0</asrwt>
<pdfrwt beam="1">  1        2 0.67897517E-01 0.75277384E+02</pdfrwt>
<pdfrwt beam="2">  1        2 0.38414184E+00 0.97114398E+02</pdfrwt>
<totfact> 0.51929034E+01</totfact>
</mgrwt>
</event>
<event>
13    1  0.1675423E-008  0.1178673E+03  0.7546771E-02  0.1264340E+00
          2   -1    0    0  502    0  0.00000000000E+00  0.00000000000E+00  0.12584651499E+04  0.12584651499E+04  0.00000000000E+00 0. -1.
          2   -1    0    0  503    0 -0.00000000000E+00 -0.00000000000E+00 -0.24260136905E+04  0.24260136905E+04  0.00000000000E+00 0. -1.
         24    2    1    2    0    0 -0.11551798931E+02  0.22490203936E+03  0.66880475292E+03  0.71034050615E+03  0.81052241115E+02 0.  0.
         25    2    1    2    0    0  0.56245153041E+02 -0.17475140620E+03  0.14964686972E+03  0.26780529507E+03  0.12499567689E+03 0.  0.
         24    2    1    2    0    0  0.44750354387E+02 -0.10796944808E+03 -0.16959995937E+04  0.17026694622E+04  0.94914065194E+02 0.  0.
        -11    1    5    5    0    0 -0.19010134537E+02 -0.38713306928E+02 -0.25697916802E+03  0.26057321072E+03  0.00000000000E+00 0.  1.
         12    1    5    5    0    0  0.63760488924E+02 -0.69256141148E+02 -0.14390204257E+04  0.14420962515E+04  0.00000000000E+00 0. -1.
        -13    1    3    3    0    0  0.20372559158E+01  0.15046333833E+03  0.32269078505E+03  0.35605155435E+03  0.00000000000E+00 0.  1.
         14    1    3    3    0    0 -0.13589054847E+02  0.74438701031E+02  0.34611396786E+03  0.35428895181E+03  0.00000000000E+00 0. -1.
          5    1    4    4  501    0  0.66668420483E+02 -0.10247052538E+03  0.15134240308E+03  0.19460601180E+03  0.47000000000E+01 0.  1.
         -5    1    4    4    0  501 -0.10423267443E+02 -0.72280880825E+02 -0.16955333612E+01  0.73199283264E+02  0.47000000000E+01 0.  1.
          1    1    1    2  502    0 -0.12118052930E+03 -0.35891728848E+02  0.34166786281E+03  0.36429365264E+03  0.00000000000E+00 0. -1.
          1    1    1    2  503    0  0.31736820799E+02  0.93710543763E+02 -0.63166843230E+03  0.63936992436E+03  0.00000000000E+00 0. -1.
<mgrwt>
<rscale>  0 0.10798912E+03</rscale>
<asrwt>0</asrwt>
<pdfrwt beam="1">  1        2 0.18506841E+00 0.11786728E+03</pdfrwt>
<pdfrwt beam="2">  1        2 0.35676671E+00 0.98938829E+02</pdfrwt>
<totfact> 0.18634713E+01</totfact>
</mgrwt>
</event>
<event>
13    1  0.1675423E-008  0.1454938E+03  0.7546771E-02  0.1296799E+00
          2   -1    0    0  503    0  0.00000000000E+00  0.00000000000E+00  0.32516657641E+04  0.32516657641E+04  0.00000000000E+00 0. -1.
          2   -1    0    0  502    0 -0.00000000000E+00 -0.00000000000E+00 -0.19374058013E+04  0.19374058013E+04  0.00000000000E+00 0. -1.
         24    2    1    2    0    0  0.21416539596E+02  0.11748306436E+03 -0.16047286744E+03  0.21536367567E+03  0.79806221778E+02 0.  0.
         25    2    1    2    0    0  0.15834515213E+03 -0.75900695203E+02  0.35402181677E+03  0.41447760410E+03  0.12500453917E+03 0.  0.
         24    2    1    2    0    0 -0.19801704326E+03 -0.24445910094E+03 -0.27466864880E+02  0.32578515729E+03  0.80065839092E+02 0.  0.
        -11    1    5    5    0    0 -0.13734879508E+03 -0.13524308114E+03  0.16204555396E+02  0.19343725112E+03  0.00000000000E+00 0.  1.
         12    1    5    5    0    0 -0.60668248185E+02 -0.10921601979E+03 -0.43671420276E+02  0.13234790616E+03  0.00000000000E+00 0. -1.
        -13    1    3    3    0    0 -0.23243902393E+02  0.51650454387E+02 -0.10186938874E+03  0.11655651333E+03  0.00000000000E+00 0.  1.
         14    1    3    3    0    0  0.44660441990E+02  0.65832609971E+02 -0.58603478697E+02  0.98807162340E+02  0.00000000000E+00 0. -1.
          5    1    4    4  501    0 -0.10227230034E+02 -0.26650601960E+02  0.14877936108E+02  0.32531427910E+02  0.47000000000E+01 0.  1.
         -5    1    4    4    0  501  0.16857238217E+03 -0.49250093243E+02  0.33914388066E+03  0.38194617619E+03  0.47000000000E+01 0.  1.
          1    1    1    2  502    0  0.79134119613E+01  0.14492435287E+03 -0.15388966165E+04  0.15457258769E+04  0.00000000000E+00 0. -1.
          1    1    1    2  503    0  0.10341939574E+02  0.57952378908E+02  0.26870744949E+04  0.26877192515E+04  0.00000000000E+00 0. -1.
<mgrwt>
<rscale>  0 0.92546863E+02</rscale>
<asrwt>0</asrwt>
<pdfrwt beam="1">  1        2 0.47818615E+00 0.58867936E+02</pdfrwt>
<pdfrwt beam="2">  1        2 0.28491262E+00 0.14549383E+03</pdfrwt>
<totfact> 0.34086258E+00</totfact>
</mgrwt>
</event>
<event>
13    1  0.1675423E-008  0.9908213E+02  0.7546771E-02  0.1457252E+00
          4   -1    0    0  503    0 -0.00000000000E+00  0.00000000000E+00  0.55219293345E+03  0.55219293345E+03  0.00000000000E+00 0. -1.
          2   -1    0    0  502    0  0.00000000000E+00 -0.00000000000E+00 -0.47009829692E+03  0.47009829692E+03  0.00000000000E+00 0. -1.
         24    2    1    2    0    0  0.37393001411E+02  0.45200812568E+01  0.15258988745E+02  0.92128132150E+02  0.82680640460E+02 0.  0.
         25    2    1    2    0    0 -0.46772556632E+02 -0.21064638860E+02 -0.72081364624E+02  0.15313793494E+03  0.12499645166E+03 0.  0.
         24    2    1    2    0    0  0.76920519427E+02 -0.26907654281E+02  0.58667115623E+02  0.12867808482E+03  0.80470062077E+02 0.  0.
        -13    1    5    5    0    0  0.65306199299E+02 -0.45485401509E+02  0.68176082722E+02  0.10479408224E+03  0.00000000000E+00 0.  1.
         14    1    5    5    0    0  0.11614320128E+02  0.18577747228E+02 -0.95089670991E+01  0.23884002584E+02  0.00000000000E+00 0. -1.
        -13    1    3    3    0    0 -0.12271351118E+02 -0.24624272553E+02  0.20493741612E+02  0.34306476098E+02  0.00000000000E+00 0.  1.
         14    1    3    3    0    0  0.49664352528E+02  0.29144353810E+02 -0.52347528671E+01  0.57821656052E+02  0.00000000000E+00 0. -1.
          5    1    4    4  501    0 -0.43253258780E+02 -0.38374701953E+02 -0.10242541908E+03  0.11771371466E+03  0.47000000000E+01 0.  1.
         -5    1    4    4    0  501 -0.35192978520E+01  0.17310063092E+02  0.30344054455E+02  0.35424220279E+02  0.47000000000E+01 0.  1.
          1    1    1    2  502    0  0.11162992846E+02 -0.20241482793E+02 -0.27652213605E+03  0.27748661546E+03  0.00000000000E+00 0. -1.
          3    1    1    2  503    0 -0.78703957051E+02  0.63693694677E+02  0.35677203284E+03  0.37086046300E+03  0.00000000000E+00 0. -1.
<mgrwt>
<rscale>  0 0.47857507E+02</rscale>
<asrwt>0</asrwt>
<pdfrwt beam="2">  1        2 0.69132102E-01 0.23115580E+02</pdfrwt>
<pdfrwt beam="1">  1        4 0.81204843E-01 0.99082134E+02</pdfrwt>
<totfact> 0.50012536E+01</totfact>
</mgrwt>
</event>
<event>
13    1  0.1675423E-008  0.9558832E+02  0.7546771E-02  0.1362586E+00
          2   -1    0    0  503    0  0.00000000000E+00  0.00000000000E+00  0.36649127140E+04  0.36649127140E+04  0.00000000000E+00 0. -1.
          2   -1    0    0  502    0 -0.00000000000E+00 -0.00000000000E+00 -0.48845486911E+04  0.48845486911E+04  0.00000000000E+00 0. -1.
         24    2    1    2    0    0 -0.13017286400E+03  0.72527691211E+03 -0.54646291398E+02  0.74241756961E+03  0.72291470698E+02 0.  0.
         25    2    1    2    0    0  0.41432297439E+02 -0.98258282348E+01 -0.88029161741E+02  0.15870175785E+03  0.12499572975E+03 0.  0.
         24    2    1    2    0    0  0.17811357194E+03 -0.82174005139E+03 -0.99952379133E+03  0.13088860417E+04  0.84579573438E+02 0.  0.
        -11    1    5    5    0    0  0.11147812026E+03 -0.65605587659E+03 -0.81366263767E+03  0.10511344217E+04  0.00000000000E+00 0.  1.
         12    1    5    5    0    0  0.66635451676E+02 -0.16568417479E+03 -0.18586115366E+03  0.25775162005E+03  0.00000000000E+00 0. -1.
        -11    1    3    3    0    0 -0.11655343206E+03  0.46486705340E+03 -0.46776283950E+02  0.48153307322E+03  0.00000000000E+00 0.  1.
         12    1    3    3    0    0 -0.13619431944E+02  0.26040985871E+03 -0.78700074485E+01  0.26088449639E+03  0.00000000000E+00 0. -1.
          5    1    4    4  501    0 -0.32731535475E+02  0.32060179466E+02 -0.23277432301E+02  0.51605594430E+02  0.47000000000E+01 0.  1.
         -5    1    4    4    0  501  0.74163832914E+02 -0.41886007701E+02 -0.64751729440E+02  0.10709616342E+03  0.47000000000E+01 0.  1.
          1    1    1    2  502    0 -0.13329982383E+02  0.48398847481E+02 -0.32075206244E+04  0.32079134484E+04  0.00000000000E+00 0. -1.
          1    1    1    2  503    0 -0.76043022996E+02  0.57890120027E+02  0.31300838918E+04  0.31315425875E+04  0.00000000000E+00 0. -1.
<mgrwt>
<rscale>  0 0.69272115E+02</rscale>
<asrwt>0</asrwt>
<pdfrwt beam="1">  1        2 0.53895775E+00 0.95588320E+02</pdfrwt>
<pdfrwt beam="2">  1        2 0.71831598E+00 0.50200965E+02</pdfrwt>
<totfact> 0.34420355E-02</totfact>
</mgrwt>
</event>
<event>
13    1  0.1675423E-008  0.1357850E+03  0.7546771E-02  0.1369021E+00
          2   -1    0    0  502    0  0.00000000000E+00  0.00000000000E+00  0.12025143329E+04  0.12025143329E+04  0.00000000000E+00 0. -1.
          2   -1    0    0  503    0 -0.00000000000E+00 -0.00000000000E+00 -0.46712862541E+03  0.46712862541E+03  0.00000000000E+00 0. -1.
         24    2    1    2    0    0 -0.20046080252E+02  0.23728916441E+02  0.14981849603E+03  0.17307534566E+03  0.80898619973E+02 0.  0.
         25    2    1    2    0    0 -0.46528056011E+02 -0.87762582756E+02 -0.38916007523E+02  0.16433444782E+03  0.12499689664E+03 0.  0.
         24    2    1    2    0    0 -0.46006316881E+02 -0.15040845197E+03  0.16135840653E+03  0.23926347686E+03  0.80443721859E+02 0.  0.
        -11    1    5    5    0    0 -0.73075174795E+01 -0.13350846785E+03  0.11299915341E+03  0.17506204463E+03  0.00000000000E+00 0.  1.
         12    1    5    5    0    0 -0.38698799402E+02 -0.16899984118E+02  0.48359253113E+02  0.64201432227E+02  0.00000000000E+00 0. -1.
        -11    1    3    3    0    0 -0.60162929944E+01  0.52977020800E+02  0.10484841075E+03  0.11762631402E+03  0.00000000000E+00 0.  1.
         12    1    3    3    0    0 -0.14029787258E+02 -0.29248104360E+02  0.44970085279E+02  0.55449031634E+02  0.00000000000E+00 0. -1.
          5    1    4    4  501    0  0.31884981550E+02 -0.66278412049E+02 -0.37936205734E+02  0.82889840497E+02  0.47000000000E+01 0.  1.
         -5    1    4    4    0  501 -0.78413037561E+02 -0.21484170707E+02 -0.97980178977E+00  0.81444607324E+02  0.47000000000E+01 0.  1.
          1    1    1    2  502    0  0.14123263790E+03  0.19709293642E+03  0.75818568174E+03  0.79601370063E+03  0.00000000000E+00 0. -1.
          1    1    1    2  503    0 -0.28652184751E+02  0.17349181861E+02 -0.29506086931E+03  0.29695598732E+03  0.00000000000E+00 0. -1.
<mgrwt>
<rscale>  0 0.67440150E+02</rscale>
<asrwt>0</asrwt>
<pdfrwt beam="1">  1        2 0.17684034E+00 0.13578503E+03</pdfrwt>
<pdfrwt beam="2">  1        2 0.68695386E-01 0.33495400E+02</pdfrwt>
<totfact> 0.24932259E+02</totfact>
</mgrwt>
</event>
<event>
13    1  0.1675423E-008  0.7976603E+02  0.7546771E-02  0.1340905E+00
          2   -1    0    0  503    0  0.00000000000E+00  0.00000000000E+00  0.13077703471E+04  0.13077703471E+04  0.00000000000E+00 0. -1.
          2   -1    0    0  502    0 -0.00000000000E+00 -0.00000000000E+00 -0.19028297172E+04  0.19028297172E+04  0.00000000000E+00 0. -1.
         24    2    1    2    0    0 -0.42076101871E+02 -0.70665605929E+02  0.15794588103E+03  0.19401650955E+03  0.77016092053E+02 0.  0.
         25    2    1    2    0    0  0.85260648411E+02  0.31859036519E+03 -0.30523582376E+03  0.46643509924E+03  0.12499437881E+03 0.  0.
         24    2    1    2    0    0 -0.72777387958E+01 -0.13099796906E+03  0.67568265540E+02  0.16792011819E+03  0.80114057464E+02 0.  0.
        -11    1    3    3    0    0  0.85172219182E+01 -0.21576863763E+02  0.10031805315E+03  0.10296511986E+03  0.00000000000E+00 0.  1.
         12    1    3    3    0    0 -0.50593323789E+02 -0.49088742167E+02  0.57627827873E+02  0.91051389692E+02  0.00000000000E+00 0. -1.
        -11    1    5    5    0    0 -0.34928799741E+02 -0.22069244588E+02  0.16804102543E+02  0.44603256275E+02  0.00000000000E+00 0.  1.
         12    1    5    5    0    0  0.27651060945E+02 -0.10892872447E+03  0.50764162997E+02  0.12331686191E+03  0.00000000000E+00 0. -1.
          5    1    4    4  501    0 -0.23959404503E+02  0.10808602988E+03 -0.13402570903E+03  0.17390118919E+03  0.47000000000E+01 0.  1.
         -5    1    4    4    0  501  0.10922005291E+03  0.21050433531E+03 -0.17121011472E+03  0.29253391004E+03  0.47000000000E+01 0.  1.
          1    1    1    2  502    0  0.26466051403E+02 -0.67332856827E+02 -0.14461764326E+04  0.14479849584E+04  0.00000000000E+00 0. -1.
          1    1    1    2  503    0 -0.62372859148E+02 -0.49593933375E+02  0.93083873969E+03  0.93424337894E+03  0.00000000000E+00 0. -1.
<mgrwt>
<rscale>  0 0.75966277E+02</rscale>
<asrwt>0</asrwt>
<pdfrwt beam="1">  1        2 0.19231917E+00 0.79766026E+02</pdfrwt>
<pdfrwt beam="2">  1        2 0.27982790E+00 0.72347533E+02</pdfrwt>
<totfact> 0.33365569E+01</totfact>
</mgrwt>
</event>
<event>
13    1  0.1675423E-008  0.8273773E+02  0.7546771E-02  0.1322871E+00
          2   -1    0    0  503    0  0.00000000000E+00  0.00000000000E+00  0.53636245723E+03  0.53636245723E+03  0.00000000000E+00 0. -1.
          2   -1    0    0  502    0 -0.00000000000E+00 -0.00000000000E+00 -0.12198045125E+04  0.12198045125E+04  0.00000000000E+00 0. -1.
         24    2    1    2    0    0 -0.32001859275E+02  0.92182329918E+01  0.10426839000E+03  0.13606009287E+03  0.80816810775E+02 0.  0.
         25    2    1    2    0    0  0.39288012057E+02  0.87992901905E+02 -0.72132584272E+02  0.17354923600E+03  0.12501971415E+03 0.  0.
         24    2    1    2    0    0 -0.16425071721E+02 -0.67318569644E+02  0.12209677614E+03  0.16059023680E+03  0.77974538240E+02 0.  0.
        -13    1    3    3    0    0 -0.56220600462E+02  0.11718525697E+02  0.92833587911E+02  0.10916114146E+03  0.00000000000E+00 0.  1.
         14    1    3    3    0    0  0.24218741187E+02 -0.25002927054E+01  0.11434802084E+02  0.26898951411E+02  0.00000000000E+00 0. -1.
        -13    1    5    5    0    0 -0.31675055305E+02 -0.30042652965E+02  0.14984307633E+02  0.46156252025E+02  0.00000000000E+00 0.  1.
         14    1    5    5    0    0  0.15249983583E+02 -0.37275916679E+02  0.10711246850E+03  0.11443398478E+03  0.00000000000E+00 0. -1.
          5    1    4    4  501    0 -0.34808751675E+02  0.62180810883E+02 -0.61465378189E+02  0.94224121917E+02  0.47000000000E+01 0.  1.
         -5    1    4    4    0  501  0.74096763733E+02  0.25812091022E+02 -0.10667206083E+02  0.79325114083E+02  0.47000000000E+01 0.  1.
          1    1    1    2  502    0 -0.77365087858E+02 -0.26267046753E+02 -0.10518165729E+04  0.10549850320E+04  0.00000000000E+00 0. -1.
          1    1    1    2  503    0  0.86504006797E+02 -0.36255184999E+01  0.21414193577E+03  0.23098237213E+03  0.00000000000E+00 0. -1.
<mgrwt>
<rscale>  0 0.82218535E+02</rscale>
<asrwt>0</asrwt>
<pdfrwt beam="1">  1        2 0.78876833E-01 0.82737730E+02</pdfrwt>
<pdfrwt beam="2">  1        2 0.17938301E+00 0.81702598E+02</pdfrwt>
<totfact> 0.21588974E+02</totfact>
</mgrwt>
</event>
<event>
13    1  0.1675423E-008  0.1949792E+03  0.7546771E-02  0.1209966E+00
         -1   -1    0    0    0  501 -0.00000000000E+00  0.00000000000E+00  0.17054385961E+04  0.17054385961E+04  0.00000000000E+00 0.  1.
          2   -1    0    0  503    0  0.00000000000E+00 -0.00000000000E+00 -0.22645574920E+04  0.22645574920E+04  0.00000000000E+00 0. -1.
         24    2    1    2    0    0 -0.20519859630E+03 -0.74498834885E+02 -0.63804524319E+03  0.67924958229E+03  0.81373966138E+02 0.  0.
         25    2    1    2    0    0  0.14425996281E+03  0.25013275486E+03  0.74055518452E+03  0.80462694937E+03  0.12500085768E+03 0.  0.
         24    2    1    2    0    0 -0.72360994515E+02  0.54176988215E+02  0.83823141617E+02  0.14652032805E+03  0.79187296226E+02 0.  0.
        -11    1    3    3    0    0 -0.11110077458E+03  0.18904426328E+01 -0.27975142522E+03  0.30101132171E+03  0.00000000000E+00 0.  1.
         12    1    3    3    0    0 -0.94097821715E+02 -0.76389277518E+02 -0.35829381796E+03  0.37823826057E+03  0.00000000000E+00 0. -1.
        -13    1    5    5    0    0 -0.81089631219E+02  0.23926922891E+02  0.42665900792E+02  0.94701663241E+02  0.00000000000E+00 0.  1.
         14    1    5    5    0    0  0.87286367039E+01  0.30250065324E+02  0.41157240825E+02  0.51818664814E+02  0.00000000000E+00 0. -1.
          5    1    4    4  502    0  0.64814048006E+02  0.13491239490E+03  0.53748195262E+03  0.55795264540E+03  0.47000000000E+01 0. -1.
         -5    1    4    4    0  502  0.79445914808E+02  0.11522035996E+03  0.20307323190E+03  0.24667430398E+03  0.47000000000E+01 0. -1.
          1    1    1    2  503    0  0.73299936213E+01 -0.19497509001E+03 -0.15309343833E+04  0.15433175630E+04  0.00000000000E+00 0. -1.
         -2    1    1    2    0  501  0.12596963438E+03 -0.34835818171E+02  0.78548240434E+03  0.79628166533E+03  0.00000000000E+00 0.  1.
<mgrwt>
<rscale>  0 0.14252884E+03</rscale>
<asrwt>0</asrwt>
<pdfrwt beam="2">  1        2 0.33302316E+00 0.19497918E+03</pdfrwt>
<pdfrwt beam="1">  1       -1 0.25079979E+00 0.10418789E+03</pdfrwt>
<totfact> 0.63313963E-01</totfact>
</mgrwt>
</event>
<event>
13    1  0.1675423E-008  0.9803178E+02  0.7546771E-02  0.1387905E+00
          2   -1    0    0  503    0  0.00000000000E+00  0.00000000000E+00  0.25303745094E+04  0.25303745094E+04  0.00000000000E+00 0. -1.
          2   -1    0    0  502    0 -0.00000000000E+00 -0.00000000000E+00 -0.62356849807E+03  0.62356849807E+03  0.00000000000E+00 0. -1.
         24    2    1    2    0    0 -0.18196789255E+03  0.17754824774E+03  0.44425961734E+03  0.51834295997E+03  0.81713660780E+02 0.  0.
         25    2    1    2    0    0  0.36537430584E+02 -0.79254114527E+02 -0.38184729571E+03  0.41115132312E+03  0.12498741842E+03 0.  0.
         24    2    1    2    0    0  0.23660004419E+02 -0.47108637565E+02 -0.27768944704E+02  0.10361493407E+03  0.84769810245E+02 0.  0.
        -13    1    5    5    0    0 -0.20160959730E+02 -0.50635370708E+02 -0.68538491580E+01  0.54930686435E+02  0.00000000000E+00 0.  1.
         14    1    5    5    0    0  0.43820964149E+02  0.35267331429E+01 -0.20915095546E+02  0.48684247630E+02  0.00000000000E+00 0. -1.
        -13    1    3    3    0    0 -0.90937338326E+01  0.53554812416E+01 -0.10102758923E+01  0.10601784365E+02  0.00000000000E+00 0.  1.
         14    1    3    3    0    0 -0.17287415871E+03  0.17219276650E+03  0.44526989323E+03  0.50774117561E+03  0.00000000000E+00 0. -1.
          5    1    4    4  501    0  0.80832577265E+02 -0.37162733024E+02 -0.19211764414E+03  0.21176934024E+03  0.47000000000E+01 0. -1.
         -5    1    4    4    0  501 -0.44295146681E+02 -0.42091381503E+02 -0.18972965156E+03  0.19938198289E+03  0.47000000000E+01 0. -1.
          1    1    1    2  502    0  0.39693239155E+02  0.22791416516E+01 -0.11992269382E+03  0.12634160128E+03  0.00000000000E+00 0. -1.
          1    1    1    2  503    0  0.82077218388E+02 -0.53464637302E+02  0.19920853283E+04  0.19944921891E+04  0.00000000000E+00 0. -1.
<mgrwt>
<rscale>  0 0.62430826E+02</rscale>
<asrwt>0</asrwt>
<pdfrwt beam="1">  1        2 0.37211389E+00 0.98031777E+02</pdfrwt>
<pdfrwt beam="2">  1        2 0.91701251E-01 0.39758618E+02</pdfrwt>
<totfact> 0.41777782E+01</totfact>
</mgrwt>
</event>
<event>
13    1  0.1675423E-008  0.1177826E+03  0.7546771E-02  0.1431699E+00
         -1   -1    0    0    0  501 -0.00000000000E+00  0.00000000000E+00  0.45582636090E+03  0.45582636090E+03  0.00000000000E+00 0.  1.
          2   -1    0    0  503    0  0.00000000000E+00 -0.00000000000E+00 -0.17056741398E+04  0.17056741398E+04  0.00000000000E+00 0. -1.
         24    2    1    2    0    0 -0.97961823912E+02  0.40198059350E+02 -0.65807603990E+03  0.67089029066E+03  0.76271258610E+02 0.  0.
         25    2    1    2    0    0  0.26523861522E+03 -0.93533436151E+02  0.13835752863E+03  0.33744156874E+03  0.12499591955E+03 0.  0.
         24    2    1    2    0    0 -0.42281702098E+02 -0.17488773012E+01 -0.51160018090E+03  0.51977221598E+03  0.81471531895E+02 0.  0.
        -11    1    3    3    0    0  0.96019335127E+01  0.97192644721E+01 -0.15198512747E+03  0.15259796919E+03  0.00000000000E+00 0.  1.
         12    1    3    3    0    0 -0.10756375742E+03  0.30478794878E+02 -0.50609091243E+03  0.51829232147E+03  0.00000000000E+00 0. -1.
        -11    1    5    5    0    0  0.11387141511E+02  0.24471092965E+02 -0.89948732523E+02  0.93910999702E+02  0.00000000000E+00 0.  1.
         12    1    5    5    0    0 -0.53668843609E+02 -0.26219970266E+02 -0.42165144837E+03  0.42586121628E+03  0.00000000000E+00 0. -1.
          5    1    4    4  502    0  0.21495671422E+03 -0.12323496870E+03  0.12403625074E+03  0.27712872099E+03  0.47000000000E+01 0.  1.
         -5    1    4    4    0  502  0.50281901001E+02  0.29701532545E+02  0.14321277885E+02  0.60312847753E+02  0.47000000000E+01 0.  1.
          1    1    1    2  503    0 -0.23407205081E+02 -0.21821705333E+01 -0.40920846602E+03  0.40988318797E+03  0.00000000000E+00 0. -1.
         -2    1    1    2    0  501 -0.10158788413E+03  0.57266424635E+02  0.19067937928E+03  0.22351323736E+03  0.00000000000E+00 0.  1.
<mgrwt>
<rscale>  0 0.52620485E+02</rscale>
<asrwt>0</asrwt>
<pdfrwt beam="2">  1        2 0.25083443E+00 0.23508703E+02</pdfrwt>
<pdfrwt beam="1">  1       -1 0.67033288E-01 0.11778257E+03</pdfrwt>
<totfact> 0.40063032E+01</totfact>
</mgrwt>
</event>
<event>
13    1  0.1675423E-008  0.8610024E+02  0.7546771E-02  0.1312781E+00
          2   -1    0    0  502    0  0.00000000000E+00  0.00000000000E+00  0.25516947998E+04  0.25516947998E+04  0.00000000000E+00 0. -1.
          2   -1    0    0  503    0 -0.00000000000E+00 -0.00000000000E+00 -0.36437510578E+04  0.36437510578E+04  0.00000000000E+00 0. -1.
         24    2    1    2    0    0  0.62077648789E+02  0.10460988193E+02  0.97287173295E+03  0.97866759354E+03  0.85719210850E+02 0.  0.
         25    2    1    2    0    0  0.62995532989E+02  0.13330456234E+03  0.23304348951E+03  0.30278810926E+03  0.12503130643E+03 0.  0.
         24    2    1    2    0    0 -0.14773661939E+03 -0.17513571732E+03 -0.28462719707E+04  0.28566948622E+04  0.83323323562E+02 0.  0.
        -13    1    5    5    0    0  0.15804983196E+00 -0.70465132748E+00 -0.34244554477E+03  0.34244630623E+03  0.00000000000E+00 0.  1.
         14    1    5    5    0    0 -0.14789466922E+03 -0.17443106599E+03 -0.25038264259E+04  0.25142485560E+04  0.00000000000E+00 0. -1.
        -13    1    3    3    0    0  0.21337882262E+02  0.41931344067E+02  0.65172547159E+03  0.65342148202E+03  0.00000000000E+00 0.  1.
         14    1    3    3    0    0  0.40739766528E+02 -0.31470355874E+02  0.32114626136E+03  0.32524611152E+03  0.00000000000E+00 0. -1.
          5    1    4    4  501    0 -0.31111725006E+02  0.32180515529E+02  0.20978519077E+02  0.49655949041E+02  0.47000000000E+01 0. -1.
         -5    1    4    4    0  501  0.94107257994E+02  0.10112404681E+03  0.21206497043E+03  0.25313216022E+03  0.47000000000E+01 0. -1.
          1    1    1    2  502    0  0.79541537128E+02 -0.33059953515E+02  0.12989193036E+04  0.13017723203E+04  0.00000000000E+00 0. -1.
          1    1    1    2  503    0 -0.56878099520E+02  0.64430120305E+02 -0.75061881338E+03  0.75552297225E+03  0.00000000000E+00 0. -1.
<mgrwt>
<rscale>  0 0.86022047E+02</rscale>
<asrwt>0</asrwt>
<pdfrwt beam="1">  1        2 0.37524924E+00 0.86100238E+02</pdfrwt>
<pdfrwt beam="2">  1        2 0.53584574E+00 0.85943927E+02</pdfrwt>
<totfact> 0.10041674E+00</totfact>
</mgrwt>
</event>
<event>
13    1  0.1675423E-008  0.1556507E+03  0.7546771E-02  0.1392948E+00
          2   -1    0    0  502    0  0.00000000000E+00  0.00000000000E+00  0.83009473608E+03  0.83009473608E+03  0.00000000000E+00 0. -1.
          2   -1    0    0  503    0 -0.00000000000E+00 -0.00000000000E+00 -0.75739994098E+03  0.75739994098E+03  0.00000000000E+00 0. -1.
         24    2    1    2    0    0 -0.80724771783E+02 -0.55759972099E+02  0.13368536847E+02  0.12710193455E+03  0.79690154475E+02 0.  0.
         25    2    1    2    0    0  0.20656684095E+02 -0.56168466141E+02 -0.51520856483E+02  0.14785196258E+03  0.12499683596E+03 0.  0.
         24    2    1    2    0    0 -0.59476171659E+02  0.34078687397E+02  0.29785943600E+03  0.31625277097E+03  0.81220684571E+02 0.  0.
        -11    1    5    5    0    0  0.31690132868E+01  0.41908726473E+02  0.97232069031E+02  0.10592666920E+03  0.00000000000E+00 0.  1.
         12    1    5    5    0    0 -0.62645184946E+02 -0.78300390758E+01  0.20062736697E+03  0.21032610177E+03  0.00000000000E+00 0. -1.
        -11    1    3    3    0    0 -0.34611859957E+02  0.18221639619E+02  0.65453386867E+01  0.39659178743E+02  0.00000000000E+00 0.  1.
         12    1    3    3    0    0 -0.46112911826E+02 -0.73981611718E+02  0.68231981601E+01  0.87442755804E+02  0.00000000000E+00 0. -1.
          5    1    4    4  501    0  0.18827536565E+02 -0.85446351861E+02  0.86693415849E+00  0.87626461496E+02  0.47000000000E+01 0.  1.
         -5    1    4    4    0  501  0.18291475303E+01  0.29277885720E+02 -0.52387790642E+02  0.60225501088E+02  0.47000000000E+01 0.  1.
          1    1    1    2  502    0 -0.13513298952E+02 -0.19890750564E+02  0.39274535927E+03  0.39348083617E+03  0.00000000000E+00 0. -1.
          1    1    1    2  503    0  0.13305755830E+03  0.97740501407E+02 -0.57975768053E+03  0.60280717280E+03  0.00000000000E+00 0. -1.
<mgrwt>
<rscale>  0 0.61179319E+02</rscale>
<asrwt>0</asrwt>
<pdfrwt beam="1">  1        2 0.12207276E+00 0.24046854E+02</pdfrwt>
<pdfrwt beam="2">  1        2 0.11138234E+00 0.15565067E+03</pdfrwt>
<totfact> 0.25041041E+02</totfact>
</mgrwt>
</event>
<event>
13    1  0.1675423E-008  0.1611334E+03  0.7546771E-02  0.1255420E+00
          2   -1    0    0  503    0  0.00000000000E+00  0.00000000000E+00  0.59569945777E+03  0.59569945777E+03  0.00000000000E+00 0. -1.
          2   -1    0    0  502    0 -0.00000000000E+00 -0.00000000000E+00 -0.11154131907E+04  0.11154131907E+04  0.00000000000E+00 0. -1.
         24    2    1    2    0    0  0.56056289335E+02 -0.25255761436E+02  0.65044480910E+02  0.11887939790E+03  0.78239156999E+02 0.  0.
         25    2    1    2    0    0 -0.33352622735E+03 -0.14393896645E+03 -0.44983839507E+03  0.59155603936E+03  0.12500318250E+03 0.  0.
         24    2    1    2    0    0  0.68000379492E+02  0.10741116336E+02  0.15425249097E+02  0.10686355712E+03  0.80264925960E+02 0.  0.
        -11    1    3    3    0    0  0.10958675140E+02  0.75298635729E+00  0.65903098212E+02  0.66812258629E+02  0.00000000000E+00 0.  1.
         12    1    3    3    0    0  0.45097614195E+02 -0.26008747793E+02 -0.85861730161E+00  0.52067139268E+02  0.00000000000E+00 0. -1.
        -11    1    5    5    0    0  0.22790447976E+02 -0.34093604356E+02 -0.13058771536E+01  0.41030277748E+02  0.00000000000E+00 0.  1.
         12    1    5    5    0    0  0.45209931516E+02  0.44834720692E+02  0.16731126251E+02  0.65833279372E+02  0.00000000000E+00 0. -1.
          5    1    4    4  501    0 -0.29630990876E+03 -0.14545880156E+03 -0.33328009006E+03  0.46910077106E+03  0.47000000000E+01 0. -1.
         -5    1    4    4    0  501 -0.37216318594E+02  0.15198351128E+01 -0.11655830501E+03  0.12245526830E+03  0.47000000000E+01 0. -1.
          1    1    1    2  502    0  0.73378477081E+02 -0.29279640732E+02 -0.48239280355E+03  0.48881951186E+03  0.00000000000E+00 0. -1.
          1    1    1    2  503    0  0.13609108144E+03  0.18773325228E+03  0.33204773568E+03  0.40499414222E+03  0.00000000000E+00 0. -1.
<mgrwt>
<rscale>  0 0.11282841E+03</rscale>
<asrwt>0</asrwt>
<pdfrwt beam="1">  1        2 0.87602863E-01 0.16113340E+03</pdfrwt>
<pdfrwt beam="2">  1        2 0.16403135E+00 0.79004419E+02</pdfrwt>
<totfact> 0.21624855E+02</totfact>
</mgrwt>
</event>
<event>
13    1  0.1675423E-008  0.4685592E+02  0.7546771E-02  0.1465516E+00
          2   -1    0    0  503    0  0.00000000000E+00  0.00000000000E+00  0.88575741210E+03  0.88575741210E+03  0.00000000000E+00 0. -1.
          2   -1    0    0  502    0 -0.00000000000E+00 -0.00000000000E+00 -0.24579351824E+04  0.24579351824E+04  0.00000000000E+00 0. -1.
         24    2    1    2    0    0 -0.59189863324E+02  0.53630456414E+02  0.21393220498E+03  0.23800529214E+03  0.67081032954E+02 0.  0.
         25    2    1    2    0    0  0.57626574877E+01 -0.42714538163E+01 -0.32755335734E+02  0.12937964973E+03  0.12495890607E+03 0.  0.
         24    2    1    2    0    0  0.20355220525E+02  0.30825754671E+02 -0.14331406649E+04  0.14359024572E+04  0.80988512187E+02 0.  0.
        -11    1    5    5    0    0 -0.22246169740E+02  0.39120698515E+02 -0.64547402456E+03  0.64704098595E+03  0.00000000000E+00 0.  1.
         12    1    5    5    0    0  0.42601390265E+02 -0.82949438444E+01 -0.78766664032E+03  0.78886147125E+03  0.00000000000E+00 0. -1.
        -11    1    3    3    0    0  0.77609974000E+01  0.33323920126E+02  0.64845306950E+02  0.73318691796E+02  0.00000000000E+00 0.  1.
         12    1    3    3    0    0 -0.66950860724E+02  0.20306536288E+02  0.14908689803E+03  0.16468660034E+03  0.00000000000E+00 0. -1.
          5    1    4    4  501    0 -0.15249457242E+02  0.11603633929E+02  0.43932694805E+02  0.48159754353E+02  0.47000000000E+01 0.  1.
         -5    1    4    4    0  501  0.21012114730E+02 -0.15875087745E+02 -0.76688030539E+02  0.81219895372E+02  0.47000000000E+01 0.  1.
          1    1    1    2  502    0  0.10279693403E+01 -0.46026772121E+02 -0.92883974878E+03  0.92997999945E+03  0.00000000000E+00 0. -1.
          1    1    1    2  503    0  0.32044015971E+02 -0.34157985147E+02  0.60862577414E+03  0.61042519595E+03  0.00000000000E+00 0. -1.
<mgrwt>
<rscale>  0 0.46445286E+02</rscale>
<asrwt>0</asrwt>
<pdfrwt beam="1">  1        2 0.13025845E+00 0.46855920E+02</pdfrwt>
<pdfrwt beam="2">  1        2 0.36146105E+00 0.46038250E+02</pdfrwt>
<totfact> 0.33565195E+01</totfact>
</mgrwt>
</event>
<event>
13    1  0.1675423E-008  0.1103428E+03  0.7546771E-02  0.1417188E+00
          2   -1    0    0  502    0  0.00000000000E+00  0.00000000000E+00  0.25333072632E+04  0.25333072632E+04  0.00000000000E+00 0. -1.
          2   -1    0    0  503    0 -0.00000000000E+00 -0.00000000000E+00 -0.24291043850E+03  0.24291043850E+03  0.00000000000E+00 0. -1.
         24    2    1    2    0    0  0.66183820600E+02  0.50163573648E+02  0.60265491750E+03  0.61389783144E+03  0.82346315196E+02 0.  0.
         25    2    1    2    0    0 -0.80674365510E+02 -0.22681388919E+03 -0.69502496751E+02  0.28001491063E+03  0.12499943817E+03 0.  0.
         24    2    1    2    0    0 -0.62546920223E+01  0.95764868042E+02  0.36720202811E+03  0.38790493035E+03  0.80142837568E+02 0.  0.
        -11    1    3    3    0    0  0.81063813223E+01 -0.93027637843E+01  0.11306137160E+02  0.16735697466E+02  0.00000000000E+00 0.  1.
         12    1    3    3    0    0  0.58077439278E+02  0.59466337432E+02  0.59134878034E+03  0.59716213398E+03  0.00000000000E+00 0. -1.
        -13    1    5    5    0    0 -0.43195614924E+02  0.49521176056E+02  0.18429435332E+03  0.19565944059E+03  0.00000000000E+00 0.  1.
         14    1    5    5    0    0  0.36940922901E+02  0.46243691986E+02  0.18290767480E+03  0.19224548976E+03  0.00000000000E+00 0. -1.
          5    1    4    4  501    0 -0.73561617964E+02 -0.21767192897E+03 -0.97279231071E+02  0.24955504222E+03  0.47000000000E+01 0.  1.
         -5    1    4    4    0  501 -0.71127475460E+01 -0.91419602176E+01  0.27776734319E+02  0.30459868413E+02  0.47000000000E+01 0.  1.
          1    1    1    2  502    0  0.35245356694E+02  0.10488099602E+03  0.14361670899E+04  0.14404229131E+04  0.00000000000E+00 0. -1.
          1    1    1    2  503    0 -0.14500119763E+02 -0.23995548518E+02 -0.46124714065E+02  0.53977116165E+02  0.00000000000E+00 0. -1.
<mgrwt>
<rscale>  0 0.55620284E+02</rscale>
<asrwt>0</asrwt>
<pdfrwt beam="1">  1        2 0.37254517E+00 0.11034283E+03</pdfrwt>
<pdfrwt beam="2">  1        2 0.35722125E-01 0.28036402E+02</pdfrwt>
<totfact> 0.10669750E+02</totfact>
</mgrwt>
</event>
<event>
13    1  0.1675423E-008  0.1188516E+03  0.7546771E-02  0.1344435E+00
          2   -1    0    0  503    0  0.00000000000E+00  0.00000000000E+00  0.13767331952E+04  0.13767331952E+04  0.00000000000E+00 0. -1.
          2   -1    0    0  502    0 -0.00000000000E+00 -0.00000000000E+00 -0.23794929462E+04  0.23794929462E+04  0.00000000000E+00 0. -1.
         24    2    1    2    0    0 -0.14886645005E+03 -0.11151423551E+03  0.50175366161E+03  0.54050879121E+03  0.76133906803E+02 0.  0.
         25    2    1    2    0    0  0.35062510817E+03  0.17882203930E+03 -0.95536505410E+03  0.10408018494E+04  0.12502325708E+03 0.  0.
         24    2    1    2    0    0 -0.46861699789E+02 -0.99887032024E+01 -0.77570850011E+03  0.78160482811E+03  0.82985764347E+02 0.  0.
        -13    1    3    3    0    0 -0.10574796804E+03 -0.11103065735E+03  0.33764807943E+03  0.37083239497E+03  0.00000000000E+00 0.  1.
         14    1    3    3    0    0 -0.43118482015E+02 -0.48357816003E+00  0.16410558218E+03  0.16967639624E+03  0.00000000000E+00 0. -1.
        -13    1    5    5    0    0  0.14625826050E+02 -0.24550432699E+02 -0.14874914138E+03  0.15146928928E+03  0.00000000000E+00 0.  1.
         14    1    5    5    0    0 -0.61487525839E+02  0.14561729497E+02 -0.62695935873E+03  0.63013553883E+03  0.00000000000E+00 0. -1.
          5    1    4    4  501    0  0.28458323159E+02 -0.19284879451E+02 -0.84517890054E+02  0.91362719266E+02  0.47000000000E+01 0.  1.
         -5    1    4    4    0  501  0.32216678502E+03  0.19810691875E+03 -0.87084716404E+03  0.94943913009E+03  0.47000000000E+01 0.  1.
          1    1    1    2  502    0 -0.45688439781E+02 -0.11439701614E+02 -0.57808135690E+03  0.57999685818E+03  0.00000000000E+00 0. -1.
          1    1    1    2  503    0 -0.10920851855E+03 -0.45879398969E+02  0.80464149847E+03  0.81331381449E+03  0.00000000000E+00 0. -1.
<mgrwt>
<rscale>  0 0.74818269E+02</rscale>
<asrwt>0</asrwt>
<pdfrwt beam="1">  1        2 0.20246077E+00 0.11885163E+03</pdfrwt>
<pdfrwt beam="2">  1        2 0.34992543E+00 0.47098835E+02</pdfrwt>
<totfact> 0.18772029E+01</totfact>
</mgrwt>
</event>
<event>
13    1  0.1675423E-008  0.8055119E+02  0.7546771E-02  0.1494486E+00
          2   -1    0    0  502    0  0.00000000000E+00  0.00000000000E+00  0.32277390190E+04  0.32277390190E+04  0.00000000000E+00 0. -1.
          2   -1    0    0  503    0 -0.00000000000E+00 -0.00000000000E+00 -0.71529311788E+03  0.71529311788E+03  0.00000000000E+00 0. -1.
         24    2    1    2    0    0  0.39443671983E+02 -0.39770546270E+03  0.18625333180E+04  0.19066126053E+04  0.80098862405E+02 0.  0.
         25    2    1    2    0    0 -0.14231382448E+03  0.16197072071E+03 -0.79723423292E+02  0.26166273199E+03  0.12499528826E+03 0.  0.
         24    2    1    2    0    0  0.16368165458E+03  0.16490454797E+03  0.49015836928E+03  0.54824618249E+03  0.79583011126E+02 0.  0.
        -13    1    3    3    0    0 -0.10462764146E+02 -0.14041947075E+02  0.43560082487E+02  0.46948125601E+02  0.00000000000E+00 0.  1.
         14    1    3    3    0    0  0.49906436129E+02 -0.38366351563E+03  0.18189732355E+04  0.18596644797E+04  0.00000000000E+00 0. -1.
        -13    1    5    5    0    0  0.31645658495E+02  0.39054598020E+00  0.39137405755E+02  0.50332263579E+02  0.00000000000E+00 0.  1.
         14    1    5    5    0    0  0.13203599608E+03  0.16451400199E+03  0.45102096352E+03  0.49791391892E+03  0.00000000000E+00 0. -1.
          5    1    4    4  501    0 -0.11753715506E+03  0.59612319529E+02 -0.83656525044E+02  0.15617014965E+03  0.47000000000E+01 0. -1.
         -5    1    4    4    0  501 -0.24776669415E+02  0.10235840118E+03  0.39331017529E+01  0.10549258234E+03  0.47000000000E+01 0. -1.
          1    1    1    2  502    0 -0.63649184089E+02  0.49191529232E+02  0.73054399005E+03  0.73495955438E+03  0.00000000000E+00 0. -1.
          1    1    1    2  503    0  0.28376820048E+01  0.21638664795E+02 -0.49106635293E+03  0.49155106269E+03  0.00000000000E+00 0. -1.
<mgrwt>
<rscale>  0 0.41927846E+02</rscale>
<asrwt>0</asrwt>
<pdfrwt beam="1">  1        2 0.47466749E+00 0.80551194E+02</pdfrwt>
<pdfrwt beam="2">  1        2 0.10519017E+00 0.21823938E+02</pdfrwt>
<totfact> 0.16297863E+01</totfact>
</mgrwt>
</event>
<event>
13    1  0.1675423E-008  0.2168822E+03  0.7546771E-02  0.1305363E+00
          2   -1    0    0  502    0  0.00000000000E+00  0.00000000000E+00  0.13207278829E+04  0.13207278829E+04  0.00000000000E+00 0. -1.
          2   -1    0    0  503    0 -0.00000000000E+00 -0.00000000000E+00 -0.19293145816E+04  0.19293145816E+04  0.00000000000E+00 0. -1.
         24    2    1    2    0    0 -0.35494975327E+02 -0.50605302823E+02  0.14983002698E+03  0.17998078564E+03  0.78251238129E+02 0.  0.
         25    2    1    2    0    0 -0.27615131401E+03 -0.79794515166E+02 -0.12833292193E+04  0.13210547358E+04  0.12500006808E+03 0.  0.
         24    2    1    2    0    0 -0.15350374424E+03 -0.55727286373E+02  0.10847429832E+03  0.21230585655E+03  0.81474986256E+02 0.  0.
        -11    1    3    3    0    0 -0.21766768539E+02 -0.70541148459E+02  0.12587425366E+03  0.14592523282E+03  0.00000000000E+00 0.  1.
         12    1    3    3    0    0 -0.13728206788E+02  0.19935845636E+02  0.23955773316E+02  0.34055552822E+02  0.00000000000E+00 0. -1.
        -13    1    5    5    0    0 -0.47749638711E+02 -0.30603197435E+02 -0.27576191352E+01  0.56781935099E+02  0.00000000000E+00 0.  1.
         14    1    5    5    0    0 -0.10575410553E+03 -0.25124088938E+02  0.11123191746E+03  0.15552392145E+03  0.00000000000E+00 0. -1.
          5    1    4    4  501    0 -0.22847025317E+03 -0.16971791736E+02 -0.10499513219E+04  0.10746657930E+04  0.47000000000E+01 0. -1.
         -5    1    4    4    0  501 -0.47681060835E+02 -0.62822723431E+02 -0.23337789744E+03  0.24638894284E+03  0.47000000000E+01 0. -1.
          1    1    1    2  502    0  0.49570539929E+03  0.16616460142E+03  0.90586828703E+03  0.10459119806E+04  0.00000000000E+00 0. -1.
          1    1    1    2  503    0 -0.30555365716E+02  0.19962502943E+02 -0.48943009168E+03  0.49078910597E+03  0.00000000000E+00 0. -1.
<mgrwt>
<rscale>  0 0.88971055E+02</rscale>
<asrwt>0</asrwt>
<pdfrwt beam="1">  1        2 0.19422469E+00 0.21688218E+03</pdfrwt>
<pdfrwt beam="2">  1        2 0.28372273E+00 0.36498382E+02</pdfrwt>
<totfact> 0.32204664E+01</totfact>
</mgrwt>
</event>
<event>
13    1  0.1675423E-008  0.1245680E+03  0.7546771E-02  0.1376915E+00
         -3   -1    0    0    0  501 -0.00000000000E+00  0.00000000000E+00  0.94610783461E+03  0.94610783461E+03  0.00000000000E+00 0.  1.
          2   -1    0    0  503    0  0.00000000000E+00 -0.00000000000E+00 -0.86080774879E+03  0.86080774879E+03  0.00000000000E+00 0. -1.
         24    2    1    2    0    0  0.99780105008E+02  0.10499646532E+03 -0.11039737128E+03  0.19759268731E+03  0.76648309879E+02 0.  0.
         25    2    1    2    0    0 -0.15223101018E+03 -0.15812017731E+03 -0.96619671328E+02  0.27043695913E+03  0.12499806815E+03 0.  0.
         24    2    1    2    0    0 -0.10459473759E+03 -0.97006632870E+01  0.21757548390E+03  0.25586319760E+03  0.84218303783E+02 0.  0.
        -11    1    5    5    0    0 -0.42608928467E+02  0.37147377562E+02  0.10158454016E+03  0.11625346121E+03  0.00000000000E+00 0.  1.
         12    1    5    5    0    0 -0.61985809124E+02 -0.46848040849E+02  0.11599094374E+03  0.13960973639E+03  0.00000000000E+00 0. -1.
        -13    1    3    3    0    0  0.89493285821E+02  0.11197968937E+03 -0.11556360381E+03  0.18412888303E+03  0.00000000000E+00 0.  1.
         14    1    3    3    0    0  0.10286819188E+02 -0.69832240541E+01  0.51662325298E+01  0.13463804282E+02  0.00000000000E+00 0. -1.
          5    1    4    4  502    0 -0.23904949560E+02 -0.89892871392E+02 -0.82359252578E+02  0.12432743634E+03  0.47000000000E+01 0.  1.
         -5    1    4    4    0  502 -0.12832606062E+03 -0.68227305923E+02 -0.14260418750E+02  0.14610952279E+03  0.47000000000E+01 0.  1.
          1    1    1    2  503    0 -0.41148971483E+01 -0.33963506237E+02 -0.48826375292E+03  0.48946087132E+03  0.00000000000E+00 0. -1.
         -4    1    1    2    0  501  0.16116053991E+03  0.96787881521E+02  0.56300539745E+03  0.59356186804E+03  0.00000000000E+00 0.  1.
<mgrwt>
<rscale>  0 0.65281731E+02</rscale>
<asrwt>0</asrwt>
<pdfrwt beam="2">  1        2 0.12658937E+00 0.34211871E+02</pdfrwt>
<pdfrwt beam="1">  1       -3 0.13913351E+00 0.12456800E+03</pdfrwt>
<totfact> 0.95128259E+00</totfact>
</mgrwt>
</event>
<event>
13    1  0.1675423E-008  0.4815846E+02  0.7546771E-02  0.1513657E+00
          2   -1    0    0  502    0  0.00000000000E+00  0.00000000000E+00  0.12623904322E+04  0.12623904322E+04  0.00000000000E+00 0. -1.
          2   -1    0    0  503    0 -0.00000000000E+00 -0.00000000000E+00 -0.15062495149E+04  0.15062495149E+04  0.00000000000E+00 0. -1.
         24    2    1    2    0    0  0.48794630312E+02 -0.36369858118E+02  0.58147660798E+03  0.59034687106E+03  0.81796699243E+02 0.  0.
         25    2    1    2    0    0 -0.13076971374E+03  0.84228082894E+02 -0.13237745937E+03  0.23946328075E+03  0.12499513230E+03 0.  0.
         24    2    1    2    0    0  0.24480326533E+01 -0.56874004375E+02  0.23021430983E+02  0.10117716625E+03  0.80412607527E+02 0.  0.
        -11    1    3    3    0    0  0.13181256194E+02  0.12633223295E+02  0.27137039490E+02  0.32707227916E+02  0.00000000000E+00 0.  1.
         12    1    3    3    0    0  0.35613374118E+02 -0.49003081412E+02  0.55433956849E+03  0.55763964314E+03  0.00000000000E+00 0. -1.
        -13    1    5    5    0    0 -0.22813479801E+02 -0.60482039089E+02  0.34414136001E+02  0.73231582460E+02  0.00000000000E+00 0.  1.
         14    1    5    5    0    0  0.25261512454E+02  0.36080347139E+01 -0.11392705018E+02  0.27945583794E+02  0.00000000000E+00 0. -1.
          5    1    4    4  501    0 -0.11772429804E+02 -0.30547904362E+02 -0.31832455730E+02  0.45903810324E+02  0.47000000000E+01 0.  1.
         -5    1    4    4    0  501 -0.11899728393E+03  0.11477598726E+03 -0.10054500364E+03  0.19355947042E+03  0.47000000000E+01 0.  1.
          1    1    1    2  502    0  0.47696706717E+02  0.55248498151E+01  0.55960748292E+03  0.56166363131E+03  0.00000000000E+00 0. -1.
          1    1    1    2  503    0  0.31830344056E+02  0.34909297834E+01 -0.12755871452E+04  0.12759889978E+04  0.00000000000E+00 0. -1.
<mgrwt>
<rscale>  0 0.39269477E+02</rscale>
<asrwt>0</asrwt>
<pdfrwt beam="1">  1        2 0.18564565E+00 0.48158462E+02</pdfrwt>
<pdfrwt beam="2">  1        2 0.22150728E+00 0.32021202E+02</pdfrwt>
<totfact> 0.60289887E+01</totfact>
</mgrwt>
</event>
<event>
13    1  0.1675423E-008  0.2438281E+03  0.7546771E-02  0.1199393E+00
          2   -1    0    0  503    0  0.00000000000E+00  0.00000000000E+00  0.23718880700E+04  0.23718880700E+04  0.00000000000E+00 0. -1.
         -1   -1    0    0    0  501 -0.00000000000E+00 -0.00000000000E+00 -0.77109934431E+03  0.77109934431E+03  0.00000000000E+00 0.  1.
         24    2    1    2    0    0 -0.30574448272E+02 -0.42383003756E+02 -0.38203113491E+02  0.10392134419E+03  0.81296076181E+02 0.  0.
         25    2    1    2    0    0 -0.10748881621E+03 -0.25459237659E+03  0.22462528560E+02  0.30413939935E+03  0.12500034086E+03 0.  0.
         24    2    1    2    0    0 -0.38048322507E+02 -0.90289845671E+01 -0.11052915085E+03  0.14187625285E+03  0.79893557482E+02 0.  0.
        -13    1    3    3    0    0 -0.41665311342E+02  0.99071415971E+01 -0.12529989540E+02  0.44622306773E+02  0.00000000000E+00 0.  1.
         14    1    3    3    0    0  0.11090863070E+02 -0.52290145353E+02 -0.25673123951E+02  0.59299037413E+02  0.00000000000E+00 0. -1.
        -13    1    5    5    0    0  0.19439906756E+02 -0.21828384201E+02 -0.27918759576E+02  0.40420854367E+02  0.00000000000E+00 0.  1.
         14    1    5    5    0    0 -0.57488229263E+02  0.12799399634E+02 -0.82610391271E+02  0.10145539848E+03  0.00000000000E+00 0. -1.
          5    1    4    4  502    0 -0.10965997774E+03 -0.14711259293E+03  0.55195430553E+02  0.19166651056E+03  0.47000000000E+01 0. -1.
         -5    1    4    4    0  502  0.21711615299E+01 -0.10747978367E+03 -0.32732901993E+02  0.11247288879E+03  0.47000000000E+01 0. -1.
          1    1    1    2  503    0  0.13077930070E+03  0.20413653661E+03  0.21459360119E+04  0.21595870712E+04  0.00000000000E+00 0. -1.
         -2    1    1    2    0  501  0.45332286294E+02  0.10186782831E+03 -0.41887755046E+03  0.43346334667E+03  0.00000000000E+00 0.  1.
<mgrwt>
<rscale>  0 0.15088250E+03</rscale>
<asrwt>0</asrwt>
<pdfrwt beam="1">  1        2 0.34880707E+00 0.24382813E+03</pdfrwt>
<pdfrwt beam="2">  1       -1 0.11339696E+00 0.93367121E+02</pdfrwt>
<totfact> 0.50111930E+00</totfact>
</mgrwt>
</event>
<event>
13    1  0.1675423E-008  0.1142474E+03  0.7546771E-02  0.1334434E+00
          2   -1    0    0  503    0  0.00000000000E+00  0.00000000000E+00  0.92492179501E+03  0.92492179501E+03  0.00000000000E+00 0. -1.
          2   -1    0    0  502    0 -0.00000000000E+00 -0.00000000000E+00 -0.86981661802E+03  0.86981661802E+03  0.00000000000E+00 0. -1.
         24    2    1    2    0    0 -0.31677358639E+02  0.35633498264E+02  0.18549446625E+03  0.20732929484E+03  0.79397973777E+02 0.  0.
         25    2    1    2    0    0  0.12644162560E+03 -0.63973625827E+02 -0.21507581182E+03  0.28629104520E+03  0.12499939297E+03 0.  0.
         24    2    1    2    0    0 -0.10518240012E+03 -0.33275004918E+02 -0.29983340778E+02  0.14316988886E+03  0.86186153779E+02 0.  0.
        -11    1    3    3    0    0 -0.11051216899E+02  0.39844816630E+02  0.31703611890E+02  0.52104297463E+02  0.00000000000E+00 0.  1.
         12    1    3    3    0    0 -0.20626141739E+02 -0.42113183660E+01  0.15379085436E+03  0.15522499738E+03  0.00000000000E+00 0. -1.
        -13    1    5    5    0    0 -0.77193950810E+02  0.19063724046E+02 -0.81521741830E+01  0.79929904042E+02  0.00000000000E+00 0.  1.
         14    1    5    5    0    0 -0.27988449312E+02 -0.52338728964E+02 -0.21831166595E+02  0.63239984815E+02  0.00000000000E+00 0. -1.
          5    1    4    4  501    0  0.93168196645E+02  0.20951155326E+02 -0.89099797269E+02  0.13069096238E+03  0.47000000000E+01 0.  1.
         -5    1    4    4    0  501  0.33273428959E+02 -0.84924781153E+02 -0.12597601455E+03  0.15560008281E+03  0.47000000000E+01 0.  1.
          1    1    1    2  502    0  0.23307703480E+02  0.11347208511E+03 -0.51406061524E+03  0.52695111659E+03  0.00000000000E+00 0. -1.
          1    1    1    2  503    0 -0.12889570323E+02 -0.51856952633E+02  0.62873047857E+03  0.63099706754E+03  0.00000000000E+00 0. -1.
<mgrwt>
<rscale>  0 0.78133182E+02</rscale>
<asrwt>0</asrwt>
<pdfrwt beam="1">  1        2 0.13601791E+00 0.53434863E+02</pdfrwt>
<pdfrwt beam="2">  1        2 0.12791421E+00 0.11424740E+03</pdfrwt>
<totfact> 0.18180317E+02</totfact>
</mgrwt>
</event>
<event>
13    1  0.2785153E-008  0.6593296E+02  0.7546771E-02  0.1407190E+00
          2   -1    0    0  502    0  0.00000000000E+00  0.00000000000E+00  0.20860884590E+04  0.20860884590E+04  0.00000000000E+00 0. -1.
          2   -1    0    0  503    0 -0.00000000000E+00 -0.00000000000E+00 -0.11167426901E+04  0.11167426901E+04  0.00000000000E+00 0. -1.
         24    2    1    2    0    0  0.75092086072E+02 -0.98687467636E+02  0.88147656483E+03  0.89383905217E+03  0.81051089976E+02 0.  0.
         25    2    1    2    0    0 -0.82487688140E+02  0.10766423690E+03  0.58126998630E+03  0.60983195208E+03  0.12499762479E+03 0.  0.
         24    2    1    2    0    0 -0.35586250968E+02 -0.41160365376E-01 -0.91751091169E+03  0.92117668278E+03  0.73985301747E+02 0.  0.
        -11    1    3    3    0    0 -0.13877932485E+02 -0.24464209375E+02  0.27171779381E+03  0.27316964331E+03  0.00000000000E+00 0.  1.
         12    1    3    3    0    0  0.88970018557E+02 -0.74223258261E+02  0.60975877102E+03  0.62066940887E+03  0.00000000000E+00 0. -1.
        -13    1    5    5    0    0 -0.18963779419E+02 -0.22063757242E+02 -0.13142586719E+03  0.13460755135E+03  0.00000000000E+00 0.  1.
         14    1    5    5    0    0 -0.16622471550E+02  0.22022596876E+02 -0.78608504450E+03  0.78656913143E+03  0.00000000000E+00 0. -1.
          5    1    4    4  501    0 -0.96974884783E+02  0.26444258802E+02  0.28446528863E+03  0.30173832626E+03  0.47000000000E+01 0. -1.
         -5    1    4    4    0  501  0.14487196643E+02  0.81219978095E+02  0.29680469768E+03  0.30809362582E+03  0.47000000000E+01 0. -1.
          1    1    1    2  502    0 -0.88536805936E+01 -0.49936363186E+02  0.59375620092E+03  0.59591816062E+03  0.00000000000E+00 0. -1.
          1    1    1    2  503    0  0.51835533630E+02  0.41000754291E+02 -0.16964607155E+03  0.18206530144E+03  0.00000000000E+00 0. -1.
<mgrwt>
<rscale>  0 0.57825611E+02</rscale>
<asrwt>0</asrwt>
<pdfrwt beam="1">  1        2 0.30677771E+00 0.50715166E+02</pdfrwt>
<pdfrwt beam="2">  1        2 0.16422687E+00 0.65932965E+02</pdfrwt>
<totfact> 0.36201078E+01</totfact>
</mgrwt>
</event>
<event>
13    1  0.1675423E-008  0.1052071E+03  0.7546771E-02  0.1377211E+00
          2   -1    0    0  503    0  0.00000000000E+00  0.00000000000E+00  0.59793238453E+03  0.59793238453E+03  0.00000000000E+00 0. -1.
          2   -1    0    0  502    0 -0.00000000000E+00 -0.00000000000E+00 -0.72261779695E+03  0.72261779695E+03  0.00000000000E+00 0. -1.
         24    2    1    2    0    0  0.31959778904E+02  0.28588529084E+02  0.24677748300E+03  0.26309282893E+03  0.80498317083E+02 0.  0.
         25    2    1    2    0    0  0.16022718125E+03  0.71334363347E+02 -0.36954627393E+03  0.42772536901E+03  0.12499280663E+03 0.  0.
         24    2    1    2    0    0 -0.29441934379E+02 -0.13284375563E+02 -0.15394614367E+03  0.17394302629E+03  0.74252670729E+02 0.  0.
        -11    1    3    3    0    0  0.45389808907E+01  0.45395749647E+02  0.20685859331E+03  0.21182977614E+03  0.00000000000E+00 0.  1.
         12    1    3    3    0    0  0.27420798013E+02 -0.16807220563E+02  0.39918889690E+02  0.51263052785E+02  0.00000000000E+00 0. -1.
        -13    1    5    5    0    0  0.65598562692E+01 -0.13906614541E+02  0.47100096240E+00  0.15383350876E+02  0.00000000000E+00 0.  1.
         14    1    5    5    0    0 -0.36001790649E+02  0.62223897873E+00 -0.15441714463E+03  0.15855967542E+03  0.00000000000E+00 0. -1.
          5    1    4    4  501    0  0.17080249178E+03  0.63812114894E+02 -0.37142807135E+03  0.41379509348E+03  0.47000000000E+01 0. -1.
         -5    1    4    4    0  501 -0.10575310529E+02  0.75222484528E+01  0.18817974201E+01  0.13930275521E+02  0.47000000000E+01 0. -1.
          1    1    1    2  502    0 -0.17902286744E+02 -0.36227562413E+02 -0.12924797178E+03  0.13541774758E+03  0.00000000000E+00 0. -1.
          1    1    1    2  503    0 -0.14484273903E+03 -0.50410954455E+02  0.28127749396E+03  0.32037120968E+03  0.00000000000E+00 0. -1.
<mgrwt>
<rscale>  0 0.65202494E+02</rscale>
<asrwt>0</asrwt>
<pdfrwt beam="1">  1        2 0.87931233E-01 0.10520706E+03</pdfrwt>
<pdfrwt beam="2">  1        2 0.10626732E+00 0.40409506E+02</pdfrwt>
<totfact> 0.38205572E+02</totfact>
</mgrwt>
</event>
<event>
13    1  0.1675423E-008  0.3021781E+03  0.7546771E-02  0.1186871E+00
          2   -1    0    0  502    0  0.00000000000E+00  0.00000000000E+00  0.15709700250E+04  0.15709700250E+04  0.00000000000E+00 0. -1.
          2   -1    0    0  503    0 -0.00000000000E+00 -0.00000000000E+00 -0.25986236249E+04  0.25986236249E+04  0.00000000000E+00 0. -1.
         24    2    1    2    0    0  0.11953742628E+03  0.41618135879E+03  0.11991210302E+03  0.45643084911E+03  0.80337338054E+02 0.  0.
         25    2    1    2    0    0  0.13231146854E+03 -0.20704545207E+02  0.10199974795E+03  0.20967797958E+03  0.12500361449E+03 0.  0.
         24    2    1    2    0    0 -0.11755322345E+03 -0.19473497774E+03  0.33424958626E+03  0.41235664247E+03  0.81084787564E+02 0.  0.
        -11    1    5    5    0    0 -0.12648245964E+03 -0.17106421789E+03  0.31686720973E+03  0.38166164052E+03  0.00000000000E+00 0.  1.
         12    1    5    5    0    0  0.89292361911E+01 -0.23670759857E+02  0.17382376523E+02  0.30695001951E+02  0.00000000000E+00 0. -1.
        -11    1    3    3    0    0  0.37917366472E+02  0.12291007494E+03  0.74504449733E+02  0.14864563980E+03  0.00000000000E+00 0.  1.
         12    1    3    3    0    0  0.81620059808E+02  0.29327128385E+03  0.45407653289E+02  0.30778520931E+03  0.00000000000E+00 0. -1.
          5    1    4    4  501    0  0.13840726796E+03  0.13322421456E+02  0.51610944499E+02  0.14839082966E+03  0.47000000000E+01 0.  1.
         -5    1    4    4    0  501 -0.60957994124E+01 -0.34026966663E+02  0.50388803456E+02  0.61287149913E+02  0.47000000000E+01 0.  1.
          1    1    1    2  502    0 -0.21882638195E+03 -0.18261975212E+03  0.72587199859E+03  0.77982377345E+03  0.00000000000E+00 0. -1.
          1    1    1    2  503    0  0.84530710570E+02 -0.18122083713E+02 -0.23096870357E+04  0.23113044053E+04  0.00000000000E+00 0. -1.
<mgrwt>
<rscale>  0 0.16162837E+03</rscale>
<asrwt>0</asrwt>
<pdfrwt beam="1">  1        2 0.23102500E+00 0.30217809E+03</pdfrwt>
<pdfrwt beam="2">  1        2 0.38215053E+00 0.86451437E+02</pdfrwt>
<totfact> 0.10058414E+01</totfact>
</mgrwt>
</event>
<event>
13    1  0.1675423E-008  0.1169876E+03  0.7546771E-02  0.1271283E+00
          2   -1    0    0  503    0  0.00000000000E+00  0.00000000000E+00  0.14093142181E+04  0.14093142181E+04  0.00000000000E+00 0. -1.
         -3   -1    0    0    0  501 -0.00000000000E+00 -0.00000000000E+00 -0.42953145888E+03  0.42953145888E+03  0.00000000000E+00 0.  1.
         24    2    1    2    0    0 -0.92160029073E+02  0.95562619235E+00 -0.20005163809E+03  0.23492036990E+03  0.81685605288E+02 0.  0.
         25    2    1    2    0    0 -0.30660859132E+02 -0.17675925907E+02  0.36832432493E+03  0.39056328642E+03  0.12499738286E+03 0.  0.
         24    2    1    2    0    0  0.36657042053E+02  0.60212140835E+00 -0.91086397979E+00  0.91196012976E+02  0.83497196523E+02 0.  0.
        -11    1    5    5    0    0 -0.20473220456E+02 -0.13469438390E+02 -0.17442212210E+02  0.30080048091E+02  0.00000000000E+00 0.  1.
         12    1    5    5    0    0  0.57130262509E+02  0.14071559798E+02  0.16531348231E+02  0.61115964885E+02  0.00000000000E+00 0. -1.
        -13    1    3    3    0    0 -0.82620957394E+02 -0.20193942016E+02 -0.19261286836E+03  0.21055577635E+03  0.00000000000E+00 0.  1.
         14    1    3    3    0    0 -0.95390716795E+01  0.21149568209E+02 -0.74387697286E+01  0.24364593553E+02  0.00000000000E+00 0. -1.
          5    1    4    4  502    0 -0.18793039575E+02 -0.23111163712E+02  0.97102639632E+01  0.31680963540E+02  0.47000000000E+01 0.  1.
         -5    1    4    4    0  502 -0.11867819556E+02  0.54352378045E+01  0.35861406097E+03  0.35888232288E+03  0.47000000000E+01 0.  1.
          1    1    1    2  503    0 -0.61791304555E+02  0.69949322050E+02  0.92431240829E+03  0.92901264851E+03  0.00000000000E+00 0. -1.
         -4    1    1    2    0  501  0.14795515071E+03 -0.53831143743E+02 -0.11189147195E+03  0.19315335916E+03  0.00000000000E+00 0.  1.
<mgrwt>
<rscale>  0 0.10441150E+03</rscale>
<asrwt>0</asrwt>
<pdfrwt beam="1">  1        2 0.20725209E+00 0.93187321E+02</pdfrwt>
<pdfrwt beam="2">  1       -3 0.63166391E-01 0.11698760E+03</pdfrwt>
<totfact> 0.26809942E+01</totfact>
</mgrwt>
</event>
<event>
13    1  0.1675423E-008  0.1350064E+03  0.7546771E-02  0.1279252E+00
          2   -1    0    0  502    0  0.00000000000E+00  0.00000000000E+00  0.14722208189E+04  0.14722208189E+04  0.00000000000E+00 0. -1.
          2   -1    0    0  503    0 -0.00000000000E+00 -0.00000000000E+00 -0.12802608923E+04  0.12802608923E+04  0.00000000000E+00 0. -1.
         24    2    1    2    0    0 -0.23518632764E+02 -0.28374902478E+01  0.83182358799E+02  0.11779419869E+03  0.79968687572E+02 0.  0.
         25    2    1    2    0    0  0.40810206156E+02  0.20422755967E+03 -0.20740217555E+03  0.31939522129E+03  0.12499310343E+03 0.  0.
         24    2    1    2    0    0 -0.18087338884E+02  0.13270007406E+00 -0.77012604932E+02  0.11349632111E+03  0.81383684795E+02 0.  0.
        -11    1    5    5    0    0 -0.10803635011E+02  0.31745378415E+02 -0.42147009813E+01  0.33797208235E+02  0.00000000000E+00 0.  1.
         12    1    5    5    0    0 -0.72837038733E+01 -0.31612678341E+02 -0.72797903951E+02  0.79699112879E+02  0.00000000000E+00 0. -1.
        -13    1    3    3    0    0 -0.37569610671E+02  0.55587499268E+01  0.91763910214E+02  0.99312590161E+02  0.00000000000E+00 0.  1.
         14    1    3    3    0    0  0.14050977907E+02 -0.83962401746E+01 -0.85815514145E+01  0.18481608531E+02  0.00000000000E+00 0. -1.
          5    1    4    4  501    0  0.64397942686E+02  0.13448061297E+03 -0.73015665290E+02  0.16608885473E+03  0.47000000000E+01 0.  1.
         -5    1    4    4    0  501 -0.23587736529E+02  0.69746946701E+02 -0.13438651026E+03  0.15330636656E+03  0.47000000000E+01 0.  1.
          1    1    1    2  502    0  0.15057039512E+02 -0.73279484446E+02  0.12918035308E+04  0.12939679129E+04  0.00000000000E+00 0. -1.
          1    1    1    2  503    0 -0.14261274020E+02 -0.12824328505E+03 -0.89861118254E+03  0.90782805722E+03  0.00000000000E+00 0. -1.
<mgrwt>
<rscale>  0 0.10049816E+03</rscale>
<asrwt>0</asrwt>
<pdfrwt beam="1">  1        2 0.21650306E+00 0.74810409E+02</pdfrwt>
<pdfrwt beam="2">  1        2 0.18827366E+00 0.13500636E+03</pdfrwt>
<totfact> 0.53412631E+01</totfact>
</mgrwt>
</event>
<event>
13    1  0.1675423E-008  0.1438844E+03  0.7546771E-02  0.1297710E+00
          2   -1    0    0  503    0  0.00000000000E+00  0.00000000000E+00  0.16758022031E+04  0.16758022031E+04  0.00000000000E+00 0. -1.
          2   -1    0    0  502    0 -0.00000000000E+00 -0.00000000000E+00 -0.16299977751E+04  0.16299977751E+04  0.00000000000E+00 0. -1.
         24    2    1    2    0    0  0.17807785263E+02 -0.10687067352E+01  0.91105406793E+02  0.12337175297E+03  0.81253522599E+02 0.  0.
         25    2    1    2    0    0  0.16719239163E+03  0.10645541702E+03 -0.41199907787E+03  0.47397756839E+03  0.12500177413E+03 0.  0.
         24    2    1    2    0    0 -0.94668718045E+02  0.13421298636E+02 -0.49714970949E+03  0.51260170624E+03  0.80376477677E+02 0.  0.
        -13    1    5    5    0    0 -0.77591747237E+02  0.22116598513E+02 -0.48046692996E+03  0.48719410296E+03  0.00000000000E+00 0.  1.
         14    1    5    5    0    0 -0.17076970809E+02 -0.86952998765E+01 -0.16682779527E+02  0.25407603285E+02  0.00000000000E+00 0. -1.
        -13    1    3    3    0    0 -0.23494611084E+02  0.20650365061E+02  0.58842606107E+02  0.66639977646E+02  0.00000000000E+00 0.  1.
         14    1    3    3    0    0  0.41302396348E+02 -0.21719071796E+02  0.32262800686E+02  0.56731775328E+02  0.00000000000E+00 0. -1.
          5    1    4    4  501    0  0.15181630715E+03  0.11680785621E+03 -0.27220288354E+03  0.33287950702E+03  0.47000000000E+01 0.  1.
         -5    1    4    4    0  501  0.15376084474E+02 -0.10352439183E+02 -0.13979619433E+03  0.14109806136E+03  0.47000000000E+01 0.  1.
          1    1    1    2  502    0 -0.33212340301E+02 -0.13369221178E+03 -0.65829905508E+03  0.67255803687E+03  0.00000000000E+00 0. -1.
          1    1    1    2  503    0 -0.57119118546E+02  0.14884202851E+02  0.15221468636E+04  0.15232909137E+04  0.00000000000E+00 0. -1.
<mgrwt>
<rscale>  0 0.92157459E+02</rscale>
<asrwt>0</asrwt>
<pdfrwt beam="1">  1        2 0.24644150E+00 0.59026547E+02</pdfrwt>
<pdfrwt beam="2">  1        2 0.23970555E+00 0.14388437E+03</pdfrwt>
<totfact> 0.28766397E+01</totfact>
</mgrwt>
</event>
<event>
13    1  0.1675423E-008  0.1916048E+03  0.7546771E-02  0.1243808E+00
          2   -1    0    0  503    0  0.00000000000E+00  0.00000000000E+00  0.19209114469E+04  0.19209114469E+04  0.00000000000E+00 0. -1.
          2   -1    0    0  502    0 -0.00000000000E+00 -0.00000000000E+00 -0.34152975992E+04  0.34152975992E+04  0.00000000000E+00 0. -1.
         24    2    1    2    0    0 -0.37390665979E+02 -0.77760609943E+02  0.28471295714E+03  0.30876212557E+03  0.82630550404E+02 0.  0.
         25    2    1    2    0    0  0.34610163344E+03 -0.15125299318E+03 -0.64648858374E+03  0.75910261702E+03  0.12500194258E+03 0.  0.
         24    2    1    2    0    0 -0.51149615832E+02 -0.34088342979E+02 -0.56828119325E+03  0.57721384054E+03  0.80336820884E+02 0.  0.
        -11    1    3    3    0    0 -0.47175702665E+02 -0.10290825991E+02  0.15319154856E+03  0.16062097799E+03  0.00000000000E+00 0.  1.
         12    1    3    3    0    0  0.97850366860E+01 -0.67469783952E+02  0.13152140858E+03  0.14814114758E+03  0.00000000000E+00 0. -1.
        -13    1    5    5    0    0 -0.13770637598E+02  0.16628799092E+02 -0.33123308098E+03  0.33193598985E+03  0.00000000000E+00 0.  1.
         14    1    5    5    0    0 -0.37378978234E+02 -0.50717142071E+02 -0.23704811226E+03  0.24527785070E+03  0.00000000000E+00 0. -1.
          5    1    4    4  501    0  0.21818435574E+03 -0.15695406416E+03 -0.46129744634E+03  0.53390674780E+03  0.47000000000E+01 0. -1.
         -5    1    4    4    0  501  0.12791727769E+03  0.57010709794E+01 -0.18519113740E+03  0.22519586922E+03  0.47000000000E+01 0. -1.
          1    1    1    2  502    0 -0.11050954840E+02  0.73794590525E+02 -0.21116165659E+04  0.21129345202E+04  0.00000000000E+00 0. -1.
          1    1    1    2  503    0 -0.24651039679E+03  0.18930735558E+03  0.15472872335E+04  0.15781959427E+04  0.00000000000E+00 0. -1.
<mgrwt>
<rscale>  0 0.11957034E+03</rscale>
<asrwt>0</asrwt>
<pdfrwt beam="1">  1        2 0.28248698E+00 0.19160483E+03</pdfrwt>
<pdfrwt beam="2">  1        2 0.50224964E+00 0.74617459E+02</pdfrwt>
<totfact> 0.26257411E+00</totfact>
</mgrwt>
</event>
<event>
13    1  0.1675423E-008  0.1055970E+03  0.7546771E-02  0.1366903E+00
          2   -1    0    0  503    0  0.00000000000E+00  0.00000000000E+00  0.17491124758E+04  0.17491124758E+04  0.00000000000E+00 0. -1.
          2   -1    0    0  502    0 -0.00000000000E+00 -0.00000000000E+00 -0.12081584541E+04  0.12081584541E+04  0.00000000000E+00 0. -1.
         24    2    1    2    0    0  0.74310049729E+02 -0.33623342376E+03  0.95651149173E+03  0.10197532677E+04  0.80047450956E+02 0.  0.
         25    2    1    2    0    0 -0.29540036756E+03  0.14702271406E+03 -0.50774857080E+02  0.35648288556E+03  0.12499962395E+03 0.  0.
         24    2    1    2    0    0  0.74265805636E+02  0.18043830232E+03  0.44950819247E+03  0.49685967033E+03  0.82088525804E+02 0.  0.
        -11    1    3    3    0    0  0.16685950689E+02 -0.17221144231E+02  0.12510302479E+03  0.12738035787E+03  0.00000000000E+00 0.  1.
         12    1    3    3    0    0  0.57624099041E+02 -0.31901227953E+03  0.83140846694E+03  0.89237290982E+03  0.00000000000E+00 0. -1.
        -13    1    5    5    0    0  0.44154097350E+01  0.11760581004E+03  0.25517784068E+03  0.28100952434E+03  0.00000000000E+00 0.  1.
         14    1    5    5    0    0  0.69850395901E+02  0.62832492279E+02  0.19433035179E+03  0.21585014598E+03  0.00000000000E+00 0. -1.
          5    1    4    4  501    0 -0.16254261396E+03  0.59021452468E+02 -0.86031558514E+02  0.19320236092E+03  0.47000000000E+01 0.  1.
         -5    1    4    4    0  501 -0.13285775359E+03  0.88001261591E+02  0.35256701434E+02  0.16328052464E+03  0.47000000000E+01 0.  1.
          1    1    1    2  502    0  0.10397430593E+03  0.18012543314E+02 -0.94264971704E+03  0.94853760972E+03  0.00000000000E+00 0. -1.
          1    1    1    2  503    0  0.42850206259E+02 -0.92401359364E+01  0.12835891161E+03  0.13563749658E+03  0.00000000000E+00 0. -1.
<mgrwt>
<rscale>  0 0.68035733E+02</rscale>
<asrwt>0</asrwt>
<pdfrwt beam="1">  1        2 0.25722242E+00 0.43835149E+02</pdfrwt>
<pdfrwt beam="2">  1        2 0.17767036E+00 0.10559702E+03</pdfrwt>
<totfact> 0.45832954E+01</totfact>
</mgrwt>
</event>
<event>
13    1  0.1675423E-008  0.6604499E+02  0.7546771E-02  0.1461004E+00
          2   -1    0    0  503    0  0.00000000000E+00  0.00000000000E+00  0.21824877710E+04  0.21824877710E+04  0.00000000000E+00 0. -1.
          2   -1    0    0  502    0 -0.00000000000E+00 -0.00000000000E+00 -0.28705500723E+04  0.28705500723E+04  0.00000000000E+00 0. -1.
         24    2    1    2    0    0 -0.77155979732E+01 -0.32631927458E+03  0.49202094228E+03  0.59543925740E+03  0.76938301258E+02 0.  0.
         25    2    1    2    0    0  0.51996925788E+03 -0.52824527314E+03 -0.44462912691E+02  0.75299444019E+03  0.12495030457E+03 0.  0.
         24    2    1    2    0    0 -0.58994548890E+03  0.91133356618E+03 -0.14766317164E+04  0.18348545791E+04  0.87667278907E+02 0.  0.
        -11    1    3    3    0    0  0.30058576745E+02 -0.11762056005E+03  0.14966491684E+03  0.19271144625E+03  0.00000000000E+00 0.  1.
         12    1    3    3    0    0 -0.37774174718E+02 -0.20869871453E+03  0.34235602544E+03  0.40272781115E+03  0.00000000000E+00 0. -1.
        -13    1    5    5    0    0 -0.25704168403E+03  0.31895084808E+03 -0.55425718207E+03  0.68920323178E+03  0.00000000000E+00 0.  1.
         14    1    5    5    0    0 -0.33290380486E+03  0.59238271810E+03 -0.92237453433E+03  0.11456513473E+04  0.00000000000E+00 0. -1.
          5    1    4    4  501    0  0.35213296200E+03 -0.30487429794E+03 -0.75353579763E+02  0.47185401604E+03  0.47000000000E+01 0. -1.
         -5    1    4    4    0  501  0.16783629588E+03 -0.22337097520E+03  0.30890667072E+02  0.28114042415E+03  0.47000000000E+01 0. -1.
          1    1    1    2  502    0  0.17995295598E+02 -0.28546623179E+02 -0.76300970554E+03  0.76375555717E+03  0.00000000000E+00 0. -1.
          1    1    1    2  503    0  0.59696533393E+02 -0.28222395281E+02  0.11040210910E+04  0.11059940095E+04  0.00000000000E+00 0. -1.
<mgrwt>
<rscale>  0 0.47209141E+02</rscale>
<asrwt>0</asrwt>
<pdfrwt beam="1">  1        2 0.32095409E+00 0.66044985E+02</pdfrwt>
<pdfrwt beam="2">  1        2 0.42213971E+00 0.33745227E+02</pdfrwt>
<totfact> 0.49218118E+00</totfact>
</mgrwt>
</event>
<event>
13    1  0.1675423E-008  0.8317818E+02  0.7546771E-02  0.1496722E+00
          2   -1    0    0  503    0  0.00000000000E+00  0.00000000000E+00  0.11860326492E+04  0.11860326492E+04  0.00000000000E+00 0. -1.
         -1   -1    0    0    0  501 -0.00000000000E+00 -0.00000000000E+00 -0.69265783407E+03  0.69265783407E+03  0.00000000000E+00 0.  1.
         24    2    1    2    0    0 -0.23692452720E+02 -0.62735749168E+02  0.27630670464E+03  0.29537422657E+03  0.80021448098E+02 0.  0.
         25    2    1    2    0    0  0.75179821665E+02  0.21843209271E+03 -0.10972861412E+03  0.28465768214E+03  0.12500017014E+03 0.  0.
         24    2    1    2    0    0  0.28596238913E+02 -0.94343766021E+02  0.11510001515E+03  0.17163256294E+03  0.80568182965E+02 0.  0.
        -11    1    3    3    0    0 -0.10150111860E+02  0.18557409033E+02  0.42599675070E+02  0.47561901948E+02  0.00000000000E+00 0.  1.
         12    1    3    3    0    0 -0.13542340859E+02 -0.81293158202E+02  0.23370702957E+03  0.24781232462E+03  0.00000000000E+00 0. -1.
        -13    1    5    5    0    0 -0.21024378984E+02 -0.67885998817E+02  0.65634359483E+02  0.96738836523E+02  0.00000000000E+00 0.  1.
         14    1    5    5    0    0  0.49620617897E+02 -0.26457767204E+02  0.49465655667E+02  0.74893726416E+02  0.00000000000E+00 0. -1.
          5    1    4    4  502    0  0.99686553381E+02  0.16836834317E+03 -0.48336248365E+02  0.20160305259E+03  0.47000000000E+01 0.  1.
         -5    1    4    4    0  502 -0.24506731717E+02  0.50063749541E+02 -0.61392365756E+02  0.83054629556E+02  0.47000000000E+01 0.  1.
          1    1    1    2  503    0 -0.71288420436E+02 -0.42492050545E+02  0.66655008348E+03  0.67169682673E+03  0.00000000000E+00 0. -1.
         -2    1    1    2    0  501 -0.87951874216E+01 -0.18860526976E+02 -0.45485337399E+03  0.45532918491E+03  0.00000000000E+00 0.  1.
<mgrwt>
<rscale>  0 0.41604992E+02</rscale>
<asrwt>0</asrwt>
<pdfrwt beam="1">  1        2 0.17441657E+00 0.83178182E+02</pdfrwt>
<pdfrwt beam="2">  1       -1 0.10186145E+00 0.20810449E+02</pdfrwt>
<totfact> 0.29169548E+01</totfact>
</mgrwt>
</event>
<event>
13    1  0.1675423E-008  0.2652087E+03  0.7546771E-02  0.1253983E+00
          2   -1    0    0  502    0  0.00000000000E+00  0.00000000000E+00  0.84933209419E+03  0.84933209419E+03  0.00000000000E+00 0. -1.
          2   -1    0    0  503    0 -0.00000000000E+00 -0.00000000000E+00 -0.17686456381E+04  0.17686456381E+04  0.00000000000E+00 0. -1.
         24    2    1    2    0    0 -0.51126014107E+02 -0.19166910368E+03 -0.11880862256E+03  0.24544443354E+03  0.82319903655E+02 0.  0.
         25    2    1    2    0    0 -0.61126182326E+02  0.45219435357E+03  0.29514774756E+03  0.55763217297E+03  0.12500121552E+03 0.  0.
         24    2    1    2    0    0 -0.11054687672E+03  0.13112481116E+03 -0.40794047749E+03  0.44988073018E+03  0.81011790239E+02 0.  0.
        -11    1    5    5    0    0 -0.78514635972E+01 -0.92728597232E+01 -0.55958003049E+02  0.57261937736E+02  0.00000000000E+00 0.  1.
         12    1    5    5    0    0 -0.10269541312E+03  0.14039767089E+03 -0.35198247444E+03  0.39261879244E+03  0.00000000000E+00 0. -1.
        -11    1    3    3    0    0 -0.51765342676E+02 -0.19567405237E+03 -0.12511007461E+03  0.23795065926E+03  0.00000000000E+00 0.  1.
         12    1    3    3    0    0  0.63932856878E+00  0.40049486909E+01  0.63014520499E+01  0.74937742809E+01  0.00000000000E+00 0. -1.
          5    1    4    4  501    0 -0.45396258256E+02  0.20322393920E+03  0.20524589530E+03  0.29241880457E+03  0.47000000000E+01 0. -1.
         -5    1    4    4    0  501 -0.15729924069E+02  0.24897041436E+03  0.89901852259E+02  0.26521336840E+03  0.47000000000E+01 0. -1.
          1    1    1    2  502    0  0.16680466966E+02  0.45743337208E+02  0.27948437789E+03  0.28369386381E+03  0.00000000000E+00 0. -1.
          1    1    1    2  503    0  0.20611860618E+03 -0.43739339826E+03 -0.96719656929E+03  0.10813265318E+04  0.00000000000E+00 0. -1.
<mgrwt>
<rscale>  0 0.11363513E+03</rscale>
<asrwt>0</asrwt>
<pdfrwt beam="1">  1        2 0.12490178E+00 0.48689741E+02</pdfrwt>
<pdfrwt beam="2">  1        2 0.26009494E+00 0.26520868E+03</pdfrwt>
<totfact> 0.63007955E+01</totfact>
</mgrwt>
</event>
<event>
13    1  0.1675423E-008  0.9513867E+02  0.7546771E-02  0.1399954E+00
          2   -1    0    0  502    0  0.00000000000E+00  0.00000000000E+00  0.67567093270E+03  0.67567093270E+03  0.00000000000E+00 0. -1.
          2   -1    0    0  503    0 -0.00000000000E+00 -0.00000000000E+00 -0.54508347783E+03  0.54508347783E+03  0.00000000000E+00 0. -1.
         24    2    1    2    0    0 -0.13115439955E+03 -0.83219627855E+02  0.15206620263E+03  0.23146309883E+03  0.79523915609E+02 0.  0.
         25    2    1    2    0    0  0.15629286954E+03 -0.44564296605E+02 -0.22111917010E+03  0.30154781506E+03  0.12499583906E+03 0.  0.
         24    2    1    2    0    0  0.26514818242E+02  0.25578469729E+02  0.13783413321E+03  0.15976776543E+03  0.71904081212E+02 0.  0.
        -13    1    3    3    0    0  0.76431210841E+01 -0.16874181751E+02  0.63912242254E+01  0.19595995937E+02  0.00000000000E+00 0.  1.
         14    1    3    3    0    0 -0.13879752064E+03 -0.66345446104E+02  0.14567497840E+03  0.21186710289E+03  0.00000000000E+00 0. -1.
        -13    1    5    5    0    0  0.23968729378E+01 -0.20488574238E+02  0.12611283252E+02  0.24177906019E+02  0.00000000000E+00 0.  1.
         14    1    5    5    0    0  0.24117945305E+02  0.46067043967E+02  0.12522284995E+03  0.13558985942E+03  0.00000000000E+00 0. -1.
          5    1    4    4  501    0  0.66673030765E+02 -0.36486736164E+02 -0.19248716862E+03  0.20700235513E+03  0.47000000000E+01 0.  1.
         -5    1    4    4    0  501  0.89619838773E+02 -0.80775604412E+01 -0.28632001481E+02  0.94545459929E+02  0.47000000000E+01 0.  1.
          1    1    1    2  502    0 -0.14678023110E+02  0.98050264181E+02  0.28497400320E+03  0.30172749488E+03  0.00000000000E+00 0. -1.
          1    1    1    2  503    0 -0.36975265117E+02  0.41551905506E+01 -0.22316771406E+03  0.22624823632E+03  0.00000000000E+00 0. -1.
<mgrwt>
<rscale>  0 0.59497230E+02</rscale>
<asrwt>0</asrwt>
<pdfrwt beam="1">  1        2 0.99363373E-01 0.95138669E+02</pdfrwt>
<pdfrwt beam="2">  1        2 0.80159335E-01 0.37208008E+02</pdfrwt>
<totfact> 0.45267016E+02</totfact>
</mgrwt>
</event>
<event>
13    1  0.1675423E-008  0.1134958E+03  0.7546771E-02  0.1292419E+00
          2   -1    0    0  502    0  0.00000000000E+00  0.00000000000E+00  0.23855365652E+04  0.23855365652E+04  0.00000000000E+00 0. -1.
          2   -1    0    0  503    0 -0.00000000000E+00 -0.00000000000E+00 -0.15859965364E+04  0.15859965364E+04  0.00000000000E+00 0. -1.
         24    2    1    2    0    0 -0.20667798403E+03  0.15651301328E+03  0.15396294010E+02  0.27192986849E+03  0.80602078760E+02 0.  0.
         25    2    1    2    0    0  0.49054658271E+02 -0.16958592784E+03 -0.82306952942E+03  0.85101943445E+03  0.12499952449E+03 0.  0.
         24    2    1    2    0    0  0.42278601270E+02 -0.65007243502E+02 -0.68098229872E+02  0.13061817066E+03  0.80064447547E+02 0.  0.
        -11    1    5    5    0    0  0.65316165112E+01  0.12024548087E+02  0.86212180763E+01  0.16173347584E+02  0.00000000000E+00 0.  1.
         12    1    5    5    0    0  0.35746984759E+02 -0.77031791589E+02 -0.76719447949E+02  0.11444482307E+03  0.00000000000E+00 0. -1.
        -11    1    3    3    0    0 -0.14858687045E+03  0.76891288610E+02  0.36254787609E+02  0.17118626685E+03  0.00000000000E+00 0.  1.
         12    1    3    3    0    0 -0.58091113583E+02  0.79621724669E+02 -0.20858493599E+02  0.10074360164E+03  0.00000000000E+00 0. -1.
          5    1    4    4  501    0  0.59649471784E+02 -0.27868399630E+02 -0.16397380549E+03  0.17676030682E+03  0.47000000000E+01 0.  1.
         -5    1    4    4    0  501 -0.10594813512E+02 -0.14171752821E+03 -0.65909572394E+03  0.67425912763E+03  0.47000000000E+01 0.  1.
          1    1    1    2  502    0  0.11342775385E+03 -0.49746428685E+00  0.21922012392E+04  0.21951337945E+04  0.00000000000E+00 0. -1.
          1    1    1    2  503    0  0.19169706443E+01  0.78577622353E+02 -0.51688974513E+03  0.52283183351E+03  0.00000000000E+00 0. -1.
<mgrwt>
<rscale>  0 0.94450423E+02</rscale>
<asrwt>0</asrwt>
<pdfrwt beam="1">  1        2 0.35081420E+00 0.11349579E+03</pdfrwt>
<pdfrwt beam="2">  1        2 0.23323479E+00 0.78601002E+02</pdfrwt>
<totfact> 0.13532187E+01</totfact>
</mgrwt>
</event>
<event>
13    1  0.1675423E-008  0.1120752E+03  0.7546771E-02  0.1258293E+00
          2   -1    0    0  502    0  0.00000000000E+00  0.00000000000E+00  0.21193944632E+04  0.21193944632E+04  0.00000000000E+00 0. -1.
          2   -1    0    0  503    0 -0.00000000000E+00 -0.00000000000E+00 -0.74175471986E+03  0.74175471986E+03  0.00000000000E+00 0. -1.
         24    2    1    2    0    0 -0.14779832911E+02  0.29797224136E+02  0.46421995864E+03  0.47206811825E+03  0.79005191284E+02 0.  0.
         25    2    1    2    0    0 -0.28212747590E+02  0.23287239784E+02 -0.14258330409E+03  0.19311469067E+03  0.12500012193E+03 0.  0.
         24    2    1    2    0    0 -0.90477932005E+02  0.56910521640E+00  0.67274433941E+02  0.13952430304E+03  0.82186383407E+02 0.  0.
        -13    1    5    5    0    0 -0.20552382574E+02  0.17805552009E+02  0.61537231635E+02  0.67277551897E+02  0.00000000000E+00 0.  1.
         14    1    5    5    0    0 -0.69925549430E+02 -0.17236446793E+02  0.57372023051E+01  0.72246751148E+02  0.00000000000E+00 0. -1.
        -13    1    3    3    0    0 -0.20145601794E+02  0.51393747781E+02  0.40608363927E+03  0.40981835569E+03  0.00000000000E+00 0.  1.
         14    1    3    3    0    0  0.53657688829E+01 -0.21596523645E+02  0.58136319370E+02  0.62249762563E+02  0.00000000000E+00 0. -1.
          5    1    4    4  501    0 -0.48788052736E+02  0.29678279254E+02 -0.15675685660E+03  0.16690079820E+03  0.47000000000E+01 0. -1.
         -5    1    4    4    0  501  0.20575305145E+02 -0.63910394698E+01  0.14173552511E+02  0.26213892464E+02  0.47000000000E+01 0. -1.
          1    1    1    2  502    0  0.14091062268E+03  0.56604235432E+02  0.15130248542E+04  0.15206262041E+04  0.00000000000E+00 0. -1.
          1    1    1    2  503    0 -0.74401101707E+01 -0.11025780457E+03 -0.52429619935E+03  0.53581586703E+03  0.00000000000E+00 0. -1.
<mgrwt>
<rscale>  0 0.11123866E+03</rscale>
<asrwt>0</asrwt>
<pdfrwt beam="1">  1        2 0.31167566E+00 0.11207522E+03</pdfrwt>
<pdfrwt beam="2">  1        2 0.10908158E+00 0.11040833E+03</pdfrwt>
<totfact> 0.52401726E+01</totfact>
</mgrwt>
</event>
<event>
13    1  0.1675423E-008  0.7692472E+02  0.7546771E-02  0.1411560E+00
          2   -1    0    0  503    0  0.00000000000E+00  0.00000000000E+00  0.27392685086E+04  0.27392685086E+04  0.00000000000E+00 0. -1.
          2   -1    0    0  502    0 -0.00000000000E+00 -0.00000000000E+00 -0.25204148964E+04  0.25204148964E+04  0.00000000000E+00 0. -1.
         24    2    1    2    0    0 -0.32049269641E+03  0.16647986104E+03  0.84226905216E+03  0.92298500910E+03  0.10978642089E+03 0.  0.
         25    2    1    2    0    0  0.20659277958E+03 -0.18942575973E+03 -0.30922722233E+03  0.43567029301E+03  0.12499773664E+03 0.  0.
         24    2    1    2    0    0  0.19284361949E+03  0.42074154347E+02  0.37921448460E+03  0.43535538220E+03  0.82290870918E+02 0.  0.
        -11    1    5    5    0    0  0.22467091153E+02 -0.21710255336E+02  0.44122949096E+02  0.54064221150E+02  0.00000000000E+00 0.  1.
         12    1    5    5    0    0  0.17037652834E+03  0.63784409684E+02  0.33509153551E+03  0.38129116105E+03  0.00000000000E+00 0. -1.
        -13    1    3    3    0    0 -0.19954935364E+03  0.83964233630E+02  0.37155557183E+03  0.43002730149E+03  0.00000000000E+00 0.  1.
         14    1    3    3    0    0 -0.12094334276E+03  0.82515627410E+02  0.47071348033E+03  0.49295770761E+03  0.00000000000E+00 0. -1.
          5    1    4    4  501    0  0.20666509852E+02  0.11262053571E+02 -0.17302366834E+01  0.24062880108E+02  0.47000000000E+01 0. -1.
         -5    1    4    4    0  501  0.18592626972E+03 -0.20068781330E+03 -0.30749698564E+03  0.41160741290E+03  0.47000000000E+01 0. -1.
          1    1    1    2  502    0 -0.73553942897E+02  0.22534407913E+02 -0.20785076850E+04  0.20799308110E+04  0.00000000000E+00 0. -1.
          1    1    1    2  503    0 -0.53897597599E+01 -0.41662663574E+02  0.13851049827E+04  0.13857419097E+04  0.00000000000E+00 0. -1.
<mgrwt>
<rscale>  0 0.56847124E+02</rscale>
<asrwt>0</asrwt>
<pdfrwt beam="1">  1        2 0.40283361E+00 0.42009845E+02</pdfrwt>
<pdfrwt beam="2">  1        2 0.37064925E+00 0.76924719E+02</pdfrwt>
<totfact> 0.37110799E+00</totfact>
</mgrwt>
</event>
<event>
13    1  0.1675423E-008  0.1036526E+03  0.7546771E-02  0.1353667E+00
          2   -1    0    0  503    0  0.00000000000E+00  0.00000000000E+00  0.23277416094E+04  0.23277416094E+04  0.00000000000E+00 0. -1.
          2   -1    0    0  502    0 -0.00000000000E+00 -0.00000000000E+00 -0.52402875793E+03  0.52402875793E+03  0.00000000000E+00 0. -1.
         24    2    1    2    0    0 -0.55009604375E+02 -0.35436762202E+02  0.11739813883E+04  0.11785827056E+04  0.80889265759E+02 0.  0.
         25    2    1    2    0    0 -0.74358153960E+02  0.11319247699E+03  0.83520479991E+02  0.20234453279E+03  0.12500386980E+03 0.  0.
         24    2    1    2    0    0 -0.97832799384E+01 -0.94698778074E+02  0.44757888510E+02  0.11769953936E+03  0.52785811046E+02 0.  0.
        -11    1    5    5    0    0  0.10107895135E+02 -0.28922515021E+01  0.16571521781E+02  0.19625238774E+02  0.00000000000E+00 0.  1.
         12    1    5    5    0    0 -0.19891175073E+02 -0.91806526572E+02  0.28186366729E+02  0.98074300591E+02  0.00000000000E+00 0. -1.
        -11    1    3    3    0    0 -0.15969416161E+02  0.25367549677E+02  0.45254240963E+03  0.45353408619E+03  0.00000000000E+00 0.  1.
         12    1    3    3    0    0 -0.39040188215E+02 -0.60804311879E+02  0.72143897865E+03  0.72504861944E+03  0.00000000000E+00 0. -1.
          5    1    4    4  501    0  0.16051604188E+02  0.23390574299E+02 -0.22499400913E+02  0.36511450320E+02  0.47000000000E+01 0. -1.
         -5    1    4    4    0  501 -0.90409758148E+02  0.89801902690E+02  0.10601988090E+03  0.16583308247E+03  0.47000000000E+01 0. -1.
          1    1    1    2  502    0  0.10272744835E+03 -0.17177786044E+02 -0.41879040335E+03  0.43154768788E+03  0.00000000000E+00 0. -1.
          1    1    1    2  503    0  0.36423589927E+02  0.34120849331E+02  0.92024349805E+03  0.92159590166E+03  0.00000000000E+00 0. -1.
<mgrwt>
<rscale>  0 0.71924969E+02</rscale>
<asrwt>0</asrwt>
<pdfrwt beam="1">  1        2 0.34231494E+00 0.49909020E+02</pdfrwt>
<pdfrwt beam="2">  1        2 0.77063053E-01 0.10365263E+03</pdfrwt>
<totfact> 0.67982557E+01</totfact>
</mgrwt>
</event>
<event>
13    1  0.1675423E-008  0.1416480E+03  0.7546771E-02  0.1212618E+00
          2   -1    0    0  502    0  0.00000000000E+00  0.00000000000E+00  0.12203900046E+04  0.12203900046E+04  0.00000000000E+00 0. -1.
          2   -1    0    0  503    0 -0.00000000000E+00 -0.00000000000E+00 -0.27988570676E+04  0.27988570676E+04  0.00000000000E+00 0. -1.
         24    2    1    2    0    0  0.23616541781E+02  0.86641686846E+02  0.37247483960E+03  0.39155268244E+03  0.80693705095E+02 0.  0.
         25    2    1    2    0    0 -0.33571192781E+03 -0.20429495222E+03 -0.40968820156E+03  0.58130334201E+03  0.12502090610E+03 0.  0.
         24    2    1    2    0    0  0.62040168013E+02  0.27545930905E+02 -0.32434265690E+03  0.33547687591E+03  0.52333683499E+02 0.  0.
        -13    1    5    5    0    0  0.18941737722E+02  0.35165361073E+02 -0.11908929672E+03  0.12560912642E+03  0.00000000000E+00 0.  1.
         14    1    5    5    0    0  0.43098430291E+02 -0.76194301680E+01 -0.20525336018E+03  0.20986774949E+03  0.00000000000E+00 0. -1.
        -13    1    3    3    0    0 -0.17060864127E+02  0.15920072044E+02  0.23310322400E+02  0.32983221629E+02  0.00000000000E+00 0.  1.
         14    1    3    3    0    0  0.40677405908E+02  0.70721614802E+02  0.34916451720E+03  0.35856946081E+03  0.00000000000E+00 0. -1.
          5    1    4    4  501    0 -0.11287282650E+03 -0.63220851853E+02 -0.58444484943E+02  0.14203872321E+03  0.47000000000E+01 0. -1.
         -5    1    4    4    0  501 -0.22283910130E+03 -0.14107410037E+03 -0.35124371661E+03  0.43926461879E+03  0.47000000000E+01 0. -1.
          1    1    1    2  502    0  0.12503571448E+03  0.10008710811E+01  0.73873942678E+03  0.74924687007E+03  0.00000000000E+00 0. -1.
          1    1    1    2  503    0  0.12501950353E+03  0.89106463386E+02 -0.19556504710E+04  0.19616673017E+04  0.00000000000E+00 0. -1.
<mgrwt>
<rscale>  0 0.14052940E+03</rscale>
<asrwt>0</asrwt>
<pdfrwt beam="1">  1        2 0.17946912E+00 0.14164798E+03</pdfrwt>
<pdfrwt beam="2">  1        2 0.41159662E+00 0.13941965E+03</pdfrwt>
<totfact> 0.11931676E+01</totfact>
</mgrwt>
</event>
<event>
13    1  0.1675423E-008  0.1841997E+03  0.7546771E-02  0.1299083E+00
          2   -1    0    0  503    0  0.00000000000E+00  0.00000000000E+00  0.31035790561E+04  0.31035790561E+04  0.00000000000E+00 0. -1.
          2   -1    0    0  502    0 -0.00000000000E+00 -0.00000000000E+00 -0.88326843120E+03  0.88326843120E+03  0.00000000000E+00 0. -1.
         24    2    1    2    0    0  0.52175199617E+01 -0.39490915841E+02  0.71917803678E+03  0.72493884818E+03  0.82051996167E+02 0.  0.
         25    2    1    2    0    0  0.22086900140E+03  0.16497527782E+03 -0.23554822837E+03  0.38354599698E+03  0.12499842335E+03 0.  0.
         24    2    1    2    0    0  0.13289902184E+03 -0.68627231139E+02  0.79457932247E+02  0.18503719620E+03  0.74520830114E+02 0.  0.
        -11    1    3    3    0    0  0.12611154885E+02  0.21768403784E+02  0.32369852812E+03  0.32467467062E+03  0.00000000000E+00 0.  1.
         12    1    3    3    0    0 -0.73936349237E+01 -0.61259319626E+02  0.39547950865E+03  0.40026417756E+03  0.00000000000E+00 0. -1.
        -13    1    5    5    0    0  0.22758553072E+02 -0.50543764186E+02  0.28749465630E+02  0.62443219088E+02  0.00000000000E+00 0.  1.
         14    1    5    5    0    0  0.11014046877E+03 -0.18083466953E+02  0.50708466617E+02  0.12259397711E+03  0.00000000000E+00 0. -1.
          5    1    4    4  501    0  0.52127077495E+02  0.17137716679E+02  0.41214629957E+01  0.55226895606E+02  0.47000000000E+01 0. -1.
         -5    1    4    4    0  501  0.16874192391E+03  0.14783756114E+03 -0.23966969137E+03  0.32831910138E+03  0.47000000000E+01 0. -1.
          1    1    1    2  502    0 -0.11366923667E+01  0.45511870786E+02 -0.50109021210E+03  0.50315407492E+03  0.00000000000E+00 0. -1.
          1    1    1    2  503    0 -0.35784885084E+03 -0.10236900163E+03  0.21583130964E+04  0.21901713711E+04  0.00000000000E+00 0. -1.
<mgrwt>
<rscale>  0 0.91574499E+02</rscale>
<asrwt>0</asrwt>
<pdfrwt beam="1">  1        2 0.45640868E+00 0.18419974E+03</pdfrwt>
<pdfrwt beam="2">  1        2 0.12989242E+00 0.45526063E+02</pdfrwt>
<totfact> 0.12844984E+01</totfact>
</mgrwt>
</event>
<event>
13    1  0.1675423E-008  0.1073077E+03  0.7546771E-02  0.1278180E+00
          2   -1    0    0  503    0  0.00000000000E+00  0.00000000000E+00  0.27816485875E+03  0.27816485875E+03  0.00000000000E+00 0. -1.
          2   -1    0    0  502    0 -0.00000000000E+00 -0.00000000000E+00 -0.30416760481E+04  0.30416760481E+04  0.00000000000E+00 0. -1.
         24    2    1    2    0    0 -0.36772970025E+02  0.48859265611E+02 -0.57975263005E+02  0.11637063892E+03  0.80259051335E+02 0.  0.
         25    2    1    2    0    0  0.54518206402E+02 -0.22103452702E+01 -0.15575148045E+04  0.15634749673E+04  0.12499794619E+03 0.  0.
         24    2    1    2    0    0 -0.11328923646E+01 -0.70321589233E+02 -0.13516808418E+03  0.17271930158E+03  0.81333491256E+02 0.  0.
        -11    1    3    3    0    0 -0.35886624267E+02  0.67774953512E+02 -0.59936616218E+02  0.97332893148E+02  0.00000000000E+00 0.  1.
         12    1    3    3    0    0 -0.88634575826E+00 -0.18915687901E+02  0.19613532134E+01  0.19037745770E+02  0.00000000000E+00 0. -1.
        -13    1    5    5    0    0  0.31675656997E+02 -0.63035323536E+02 -0.11022064010E+03  0.13086400866E+03  0.00000000000E+00 0.  1.
         14    1    5    5    0    0 -0.32808549361E+02 -0.72862656975E+01 -0.24947444080E+02  0.41855292917E+02  0.00000000000E+00 0. -1.
          5    1    4    4  501    0  0.65955736821E+02  0.32182870051E+02 -0.50505841339E+03  0.51038415657E+03  0.47000000000E+01 0.  1.
         -5    1    4    4    0  501 -0.11437530419E+02 -0.34393215321E+02 -0.10524563911E+04  0.10530908107E+04  0.47000000000E+01 0.  1.
          1    1    1    2  502    0  0.66911262634E+02  0.84302828559E+02 -0.12258631244E+04  0.12305789222E+04  0.00000000000E+00 0. -1.
          1    1    1    2  503    0 -0.83523606646E+02 -0.60630159666E+02  0.21301008678E+03  0.23669707687E+03  0.00000000000E+00 0. -1.
<mgrwt>
<rscale>  0 0.10101306E+03</rscale>
<asrwt>0</asrwt>
<pdfrwt beam="1">  1        2 0.40906596E-01 0.10730768E+03</pdfrwt>
<pdfrwt beam="2">  1        2 0.44730532E+00 0.95087679E+02</pdfrwt>
<totfact> 0.53098606E+01</totfact>
</mgrwt>
</event>
<event>
13    1  0.1675423E-008  0.8772313E+02  0.7546771E-02  0.1422369E+00
          2   -1    0    0  502    0  0.00000000000E+00  0.00000000000E+00  0.24943757693E+04  0.24943757693E+04  0.00000000000E+00 0. -1.
          2   -1    0    0  503    0 -0.00000000000E+00 -0.00000000000E+00 -0.15754678322E+04  0.15754678322E+04  0.00000000000E+00 0. -1.
         24    2    1    2    0    0  0.21514100676E+03  0.24372915667E+03  0.11578634751E+03  0.35589353083E+03  0.86972250838E+02 0.  0.
         25    2    1    2    0    0 -0.10768931126E+03 -0.28106692274E+03 -0.36626743053E+03  0.49027608149E+03  0.12499281018E+03 0.  0.
         24    2    1    2    0    0 -0.11127153808E+03  0.15859776940E+03  0.55255300205E+02  0.22318498134E+03  0.96040512544E+02 0.  0.
        -11    1    5    5    0    0 -0.30888141635E+02  0.89981518290E+02  0.67704610131E+02  0.11676756896E+03  0.00000000000E+00 0.  1.
         12    1    5    5    0    0 -0.80383396445E+02  0.68616251106E+02 -0.12449309926E+02  0.10641741238E+03  0.00000000000E+00 0. -1.
        -11    1    3    3    0    0  0.28646554578E+02  0.64341102106E+02  0.56821656082E+02  0.90493663365E+02  0.00000000000E+00 0.  1.
         12    1    3    3    0    0  0.18649445218E+03  0.17938805457E+03  0.58964691430E+02  0.26539986747E+03  0.00000000000E+00 0. -1.
          5    1    4    4  501    0 -0.97628042465E+02 -0.27370350793E+03 -0.37493009224E+03  0.47438329334E+03  0.47000000000E+01 0.  1.
         -5    1    4    4    0  501 -0.10061268800E+02 -0.73634148109E+01  0.86626617086E+01  0.15892788157E+02  0.47000000000E+01 0.  1.
          1    1    1    2  502    0  0.36263032149E+01 -0.33693108477E+02  0.20551388861E+04  0.20554182584E+04  0.00000000000E+00 0. -1.
          1    1    1    2  503    0  0.19353937083E+00 -0.87566894852E+02 -0.94100516619E+03  0.94507074938E+03  0.00000000000E+00 0. -1.
<mgrwt>
<rscale>  0 0.54522787E+02</rscale>
<asrwt>0</asrwt>
<pdfrwt beam="1">  1        2 0.36681997E+00 0.33887691E+02</pdfrwt>
<pdfrwt beam="2">  1        2 0.23168645E+00 0.87723129E+02</pdfrwt>
<totfact> 0.14144674E+01</totfact>
</mgrwt>
</event>
<event>
13    1  0.1675423E-008  0.1379885E+03  0.7546771E-02  0.1325185E+00
          2   -1    0    0  503    0  0.00000000000E+00  0.00000000000E+00  0.35850024234E+04  0.35850024234E+04  0.00000000000E+00 0. -1.
          2   -1    0    0  502    0 -0.00000000000E+00 -0.00000000000E+00 -0.18531235337E+04  0.18531235337E+04  0.00000000000E+00 0. -1.
         24    2    1    2    0    0 -0.13903454178E+04  0.28232640998E+03  0.75566488413E+03  0.16094848095E+04  0.81506762996E+02 0.  0.
         25    2    1    2    0    0  0.95984684425E+03 -0.14324292260E+03  0.96943755991E+03  0.13774100935E+04  0.12499953510E+03 0.  0.
         24    2    1    2    0    0  0.36954437640E+03 -0.22526794431E+03  0.32875039524E+03  0.55075917541E+03  0.89163636478E+02 0.  0.
        -11    1    3    3    0    0 -0.92062018471E+03  0.21684464800E+03  0.53129771090E+03  0.10848227429E+04  0.00000000000E+00 0.  1.
         12    1    3    3    0    0 -0.46972523307E+03  0.65481761979E+02  0.22436717323E+03  0.52466206663E+03  0.00000000000E+00 0. -1.
        -13    1    5    5    0    0  0.16325697320E+03 -0.64290917593E+02  0.93128774710E+02  0.19864322305E+03  0.00000000000E+00 0.  1.
         14    1    5    5    0    0  0.20628740319E+03 -0.16097702672E+03  0.23562162053E+03  0.35211595236E+03  0.00000000000E+00 0. -1.
          5    1    4    4  501    0  0.36375373073E+03 -0.22786424525E+02  0.29199292260E+03  0.46703099962E+03  0.47000000000E+01 0.  1.
         -5    1    4    4    0  501  0.59609311352E+03 -0.12045649808E+03  0.67744463731E+03  0.91037909386E+03  0.47000000000E+01 0.  1.
          1    1    1    2  502    0 -0.47982134491E+02  0.99707367316E+00 -0.11046402224E+04  0.11056822782E+04  0.00000000000E+00 0. -1.
          1    1    1    2  503    0  0.10893633163E+03  0.85187383259E+02  0.78266627276E+03  0.79478960055E+03  0.00000000000E+00 0. -1.
<mgrwt>
<rscale>  0 0.81378199E+02</rscale>
<asrwt>0</asrwt>
<pdfrwt beam="1">  1        2 0.52720624E+00 0.13798848E+03</pdfrwt>
<pdfrwt beam="2">  1        2 0.27251817E+00 0.47992493E+02</pdfrwt>
<totfact> 0.23080457E+00</totfact>
</mgrwt>
</event>
<event>
13    1  0.1675423E-008  0.2646046E+03  0.7546771E-02  0.1106301E+00
          4   -1    0    0  503    0 -0.00000000000E+00  0.00000000000E+00  0.12841891002E+04  0.12841891002E+04  0.00000000000E+00 0. -1.
          2   -1    0    0  502    0  0.00000000000E+00 -0.00000000000E+00 -0.58412374843E+03  0.58412374843E+03  0.00000000000E+00 0. -1.
         24    2    1    2    0    0 -0.26699652709E+03  0.41113681058E+02  0.52507000292E+01  0.28707515212E+03  0.96990168907E+02 0.  0.
         25    2    1    2    0    0 -0.73843302050E+02 -0.49789888575E+02  0.91495927590E+02  0.17868627827E+03  0.12500166005E+03 0.  0.
         24    2    1    2    0    0  0.19433811326E+03 -0.95233695423E+02  0.82480157609E+02  0.24516506228E+03  0.80412513654E+02 0.  0.
        -11    1    5    5    0    0  0.14343765902E+03 -0.10625606559E+03  0.58680896905E+02  0.18790465976E+03  0.00000000000E+00 0.  1.
         12    1    5    5    0    0  0.50900454249E+02  0.11022370162E+02  0.23799260704E+02  0.57260402520E+02  0.00000000000E+00 0. -1.
        -13    1    3    3    0    0 -0.49714156548E+02  0.47262945070E+02 -0.92834865083E+01  0.69220419384E+02  0.00000000000E+00 0.  1.
         14    1    3    3    0    0 -0.21728237054E+03 -0.61492640116E+01  0.14534186537E+02  0.21785473273E+03  0.00000000000E+00 0. -1.
          5    1    4    4  501    0 -0.14114258973E+02 -0.45305847941E+02 -0.20254326626E+02  0.51808878690E+02  0.47000000000E+01 0.  1.
         -5    1    4    4    0  501 -0.59729043077E+02 -0.44840406338E+01  0.11175025422E+03  0.12687739958E+03  0.47000000000E+01 0.  1.
          1    1    1    2  502    0  0.63615553207E+02  0.34785563560E+03 -0.18990199199E+03  0.40138914832E+03  0.00000000000E+00 0. -1.
          3    1    1    2  503    0  0.82886162669E+02 -0.24394573266E+03  0.71074055855E+03  0.75599720767E+03  0.00000000000E+00 0. -1.
<mgrwt>
<rscale>  0 0.26140606E+03</rscale>
<asrwt>0</asrwt>
<pdfrwt beam="2">  1        2 0.85900551E-01 0.25824620E+03</pdfrwt>
<pdfrwt beam="1">  1        4 0.18885134E+00 0.26460458E+03</pdfrwt>
<totfact> 0.48875836E+00</totfact>
</mgrwt>
</event>
<event>
13    1  0.1675423E-008  0.1417628E+03  0.7546771E-02  0.1290443E+00
          2   -1    0    0  502    0  0.00000000000E+00  0.00000000000E+00  0.16485324608E+04  0.16485324608E+04  0.00000000000E+00 0. -1.
          2   -1    0    0  503    0 -0.00000000000E+00 -0.00000000000E+00 -0.32202210375E+04  0.32202210375E+04  0.00000000000E+00 0. -1.
         24    2    1    2    0    0 -0.20526832934E+03 -0.24170400304E+03  0.61115650641E+03  0.69363826968E+03  0.84058680220E+02 0.  0.
         25    2    1    2    0    0  0.25209335074E+03  0.19463119647E+03 -0.10966215232E+04  0.11487521308E+04  0.12498133012E+03 0.  0.
         24    2    1    2    0    0  0.88730407808E+00  0.16560293280E+03 -0.31806827959E+03  0.36691864170E+03  0.77696463765E+02 0.  0.
        -11    1    3    3    0    0 -0.71769729842E+02 -0.32360810878E+02  0.12448976277E+03  0.14729500072E+03  0.00000000000E+00 0.  1.
         12    1    3    3    0    0 -0.13349859950E+03 -0.20934319216E+03  0.48666674365E+03  0.54634326897E+03  0.00000000000E+00 0. -1.
        -13    1    5    5    0    0 -0.11038730544E+01 -0.30682907194E+01 -0.50577808821E+02  0.50682814531E+02  0.00000000000E+00 0.  1.
         14    1    5    5    0    0  0.19911771325E+01  0.16867122352E+03 -0.26749047077E+03  0.31623582717E+03  0.00000000000E+00 0. -1.
          5    1    4    4  501    0  0.26333415476E+03  0.19791974218E+03 -0.10520411708E+04  0.11024199819E+04  0.47000000000E+01 0.  1.
         -5    1    4    4    0  501 -0.11240804022E+02 -0.32885457157E+01 -0.44580352352E+02  0.46332148923E+02  0.47000000000E+01 0.  1.
          1    1    1    2  502    0  0.35124806455E+02  0.53620502311E+02  0.93922465617E+03  0.94140950975E+03  0.00000000000E+00 0. -1.
          1    1    1    2  503    0 -0.82837131933E+02 -0.17215062853E+03 -0.17073799365E+04  0.17180349464E+04  0.00000000000E+00 0. -1.
<mgrwt>
<rscale>  0 0.95326319E+02</rscale>
<asrwt>0</asrwt>
<pdfrwt beam="1">  1        2 0.24243125E+00 0.64100782E+02</pdfrwt>
<pdfrwt beam="2">  1        2 0.47356191E+00 0.14176281E+03</pdfrwt>
<totfact> 0.45514681E+00</totfact>
</mgrwt>
</event>
<event>
13    1  0.1675423E-008  0.1325748E+03  0.7546771E-02  0.1389433E+00
          2   -1    0    0  502    0  0.00000000000E+00  0.00000000000E+00  0.18750349754E+04  0.18750349754E+04  0.00000000000E+00 0. -1.
          2   -1    0    0  503    0 -0.00000000000E+00 -0.00000000000E+00 -0.92430653369E+03  0.92430653369E+03  0.00000000000E+00 0. -1.
         24    2    1    2    0    0 -0.17912692843E+01 -0.32347581097E+02  0.69079698188E+03  0.69610560913E+03  0.79454227324E+02 0.  0.
         25    2    1    2    0    0 -0.23336955625E+02  0.17097611439E+03 -0.25987590142E+03  0.33606713965E+03  0.12501277146E+03 0.  0.
         24    2    1    2    0    0 -0.45030092801E+01  0.10650833111E+02  0.54571058256E+01  0.82029727047E+02  0.81027024979E+02 0.  0.
        -11    1    3    3    0    0  0.18749958185E+02  0.19616607757E+02  0.31645295756E+03  0.31761430475E+03  0.00000000000E+00 0.  1.
         12    1    3    3    0    0 -0.20541227469E+02 -0.51964188854E+02  0.37434402432E+03  0.37849130438E+03  0.00000000000E+00 0. -1.
        -13    1    5    5    0    0  0.75595263250E+01  0.43765939276E+02 -0.63396233529E+01  0.44864180626E+02  0.00000000000E+00 0.  1.
         14    1    5    5    0    0 -0.12062535605E+02 -0.33115106165E+02  0.11796729178E+02  0.37165546422E+02  0.00000000000E+00 0. -1.
          5    1    4    4  501    0 -0.66598863118E+02  0.50556386231E+02 -0.84975687492E+02  0.11930764528E+03  0.47000000000E+01 0.  1.
         -5    1    4    4    0  501  0.43261907494E+02  0.12041972816E+03 -0.17490021393E+03  0.21675949437E+03  0.47000000000E+01 0.  1.
          1    1    1    2  502    0  0.49007077991E+02 -0.17090996212E+03  0.10921914461E+04  0.11065685987E+04  0.00000000000E+00 0. -1.
          1    1    1    2  503    0 -0.19375843802E+02  0.21630595721E+02 -0.57784119069E+03  0.57857043448E+03  0.00000000000E+00 0. -1.
<mgrwt>
<rscale>  0 0.62047866E+02</rscale>
<asrwt>0</asrwt>
<pdfrwt beam="1">  1        2 0.27574044E+00 0.13257484E+03</pdfrwt>
<pdfrwt beam="2">  1        2 0.13592743E+00 0.29039731E+02</pdfrwt>
<totfact> 0.54814652E+01</totfact>
</mgrwt>
</event>
<event>
13    1  0.1675423E-008  0.5791477E+02  0.7546771E-02  0.1464762E+00
          2   -1    0    0  503    0  0.00000000000E+00  0.00000000000E+00  0.20188730010E+04  0.20188730010E+04  0.00000000000E+00 0. -1.
          2   -1    0    0  502    0 -0.00000000000E+00 -0.00000000000E+00 -0.21134995845E+03  0.21134995845E+03  0.00000000000E+00 0. -1.
         24    2    1    2    0    0  0.27157276432E+02  0.16258358632E+01  0.14136855078E+03  0.16492502504E+03  0.80467606706E+02 0.  0.
         25    2    1    2    0    0 -0.14239600065E+02 -0.22410580885E+02  0.64681332849E+02  0.14321308013E+03  0.12498524375E+03 0.  0.
         24    2    1    2    0    0 -0.19720985223E+01  0.31447085653E+01 -0.46667722339E+02  0.94288183400E+02  0.81845017295E+02 0.  0.
        -11    1    5    5    0    0 -0.28770288433E+02  0.31289604307E+02 -0.29865413966E+02  0.51949126899E+02  0.00000000000E+00 0.  1.
         12    1    5    5    0    0  0.26798189910E+02 -0.28144895742E+02 -0.16802308372E+02  0.42339056501E+02  0.00000000000E+00 0. -1.
        -11    1    3    3    0    0 -0.14775374270E+02  0.30077228136E+02  0.67295290191E+02  0.75177173524E+02  0.00000000000E+00 0.  1.
         12    1    3    3    0    0  0.41932650703E+02 -0.28451392273E+02  0.74073260594E+02  0.89747851519E+02  0.00000000000E+00 0. -1.
          5    1    4    4  501    0 -0.31143760269E+02  0.18535163235E+02  0.86284333281E+02  0.93704654365E+02  0.47000000000E+01 0.  1.
         -5    1    4    4    0  501  0.16904160204E+02 -0.40945744120E+02 -0.21603000432E+02  0.49508425762E+02  0.47000000000E+01 0.  1.
          1    1    1    2  502    0  0.14830903494E+02 -0.34388538333E+02 -0.85417225039E+02  0.93266444129E+02  0.00000000000E+00 0. -1.
          1    1    1    2  503    0 -0.25776481339E+02  0.52028574790E+02  0.17335581063E+04  0.17345302268E+04  0.00000000000E+00 0. -1.
<mgrwt>
<rscale>  0 0.46571742E+02</rscale>
<asrwt>0</asrwt>
<pdfrwt beam="1">  1        2 0.29689308E+00 0.57914767E+02</pdfrwt>
<pdfrwt beam="2">  1        2 0.31080877E-01 0.37450331E+02</pdfrwt>
<totfact> 0.23778568E+02</totfact>
</mgrwt>
</event>
<event>
13    1  0.1675423E-008  0.1501377E+03  0.7546771E-02  0.1324509E+00
         -1   -1    0    0    0  501 -0.00000000000E+00  0.00000000000E+00  0.12966033272E+04  0.12966033272E+04  0.00000000000E+00 0.  1.
          2   -1    0    0  503    0  0.00000000000E+00 -0.00000000000E+00 -0.17421306055E+04  0.17421306055E+04  0.00000000000E+00 0. -1.
         24    2    1    2    0    0 -0.14981595688E+03 -0.71945069622E+02 -0.73959197296E+03  0.76228554292E+03  0.80386867658E+02 0.  0.
         25    2    1    2    0    0  0.98736004662E+02  0.38372603350E+03  0.58662901125E+03  0.71885435469E+03  0.12499407586E+03 0.  0.
         24    2    1    2    0    0  0.18214488915E+02 -0.12803553426E+03 -0.25861939300E+03  0.29974219197E+03  0.78971675728E+02 0.  0.
        -13    1    3    3    0    0 -0.12223917783E+02 -0.41640037865E+02 -0.19416305065E+03  0.19895378146E+03  0.00000000000E+00 0.  1.
         14    1    3    3    0    0 -0.13759203909E+03 -0.30305031758E+02 -0.54542892231E+03  0.56333176146E+03  0.00000000000E+00 0. -1.
        -13    1    5    5    0    0  0.47949585051E+02 -0.85663776603E+02 -0.14784561995E+03  0.17747048393E+03  0.00000000000E+00 0.  1.
         14    1    5    5    0    0 -0.29735096136E+02 -0.42371757660E+02 -0.11077377306E+03  0.12227170804E+03  0.00000000000E+00 0. -1.
          5    1    4    4  502    0  0.12064402991E+03  0.28715862227E+03  0.48848239216E+03  0.57935498077E+03  0.47000000000E+01 0. -1.
         -5    1    4    4    0  502 -0.21908025243E+02  0.96567411236E+02  0.98146619095E+02  0.13949937391E+03  0.47000000000E+01 0. -1.
          1    1    1    2  503    0  0.47659640990E+02 -0.14191023902E+03 -0.63639747011E+03  0.65376731126E+03  0.00000000000E+00 0. -1.
         -2    1    1    2    0  501 -0.14794177690E+02 -0.41835190599E+02  0.60245254654E+03  0.60408453191E+03  0.00000000000E+00 0.  1.
<mgrwt>
<rscale>  0 0.81622359E+02</rscale>
<asrwt>0</asrwt>
<pdfrwt beam="2">  1        2 0.25619567E+00 0.15013772E+03</pdfrwt>
<pdfrwt beam="1">  1       -1 0.19067696E+00 0.44373989E+02</pdfrwt>
<totfact> 0.30490340E+00</totfact>
</mgrwt>
</event>
<event>
13    1  0.1675423E-008  0.6001452E+02  0.7546771E-02  0.1398418E+00
          2   -1    0    0  503    0  0.00000000000E+00  0.00000000000E+00  0.17444037891E+04  0.17444037891E+04  0.00000000000E+00 0. -1.
          2   -1    0    0  502    0 -0.00000000000E+00 -0.00000000000E+00 -0.24356063237E+04  0.24356063237E+04  0.00000000000E+00 0. -1.
         24    2    1    2    0    0  0.48808362304E+03 -0.16718357727E+03  0.82579589620E+03  0.97693896814E+03  0.79340492228E+02 0.  0.
         25    2    1    2    0    0 -0.57312080386E+03  0.30847371286E+02 -0.96660609504E+03  0.11310924650E+04  0.12499522080E+03 0.  0.
         24    2    1    2    0    0 -0.24598998637E+02  0.93465217903E+02  0.15063357021E+03  0.19434115666E+03  0.75744009691E+02 0.  0.
        -11    1    5    5    0    0  0.20257714334E+02  0.68114804753E+02  0.81743604971E+02  0.10831444304E+03  0.00000000000E+00 0.  1.
         12    1    5    5    0    0 -0.44856712970E+02  0.25350413150E+02  0.68889965243E+02  0.86026713622E+02  0.00000000000E+00 0. -1.
        -13    1    3    3    0    0  0.32809312964E+03 -0.72443081720E+02  0.53833415430E+03  0.63458392943E+03  0.00000000000E+00 0.  1.
         14    1    3    3    0    0  0.15999049339E+03 -0.94740495547E+02  0.28746174190E+03  0.34235503871E+03  0.00000000000E+00 0. -1.
          5    1    4    4  501    0 -0.41139252262E+03  0.78151178384E+02 -0.69630409317E+03  0.81253485742E+03  0.47000000000E+01 0.  1.
         -5    1    4    4    0  501 -0.16172828124E+03 -0.47303807099E+02 -0.27030200187E+03  0.31855760756E+03  0.47000000000E+01 0.  1.
          1    1    1    2  502    0  0.58601726499E+02  0.11433777298E+02 -0.12871111042E+04  0.12884952030E+04  0.00000000000E+00 0. -1.
          1    1    1    2  503    0  0.51034452964E+02  0.31437210780E+02  0.58608519821E+03  0.58914231996E+03  0.00000000000E+00 0. -1.
<mgrwt>
<rscale>  0 0.59860428E+02</rscale>
<asrwt>0</asrwt>
<pdfrwt beam="1">  1        2 0.25652997E+00 0.60014523E+02</pdfrwt>
<pdfrwt beam="2">  1        2 0.35817740E+00 0.59706730E+02</pdfrwt>
<totfact> 0.11954120E+01</totfact>
</mgrwt>
</event>
<event>
13    1  0.1675423E-008  0.2341402E+03  0.7546771E-02  0.1171249E+00
          2   -1    0    0  502    0  0.00000000000E+00  0.00000000000E+00  0.18691163519E+04  0.18691163519E+04  0.00000000000E+00 0. -1.
          2   -1    0    0  503    0 -0.00000000000E+00 -0.00000000000E+00 -0.37734925366E+04  0.37734925366E+04  0.00000000000E+00 0. -1.
         24    2    1    2    0    0  0.27505624183E+02  0.44411381544E+02  0.10353851850E+03  0.14107634431E+03  0.80332931842E+02 0.  0.
         25    2    1    2    0    0 -0.32121830167E+03  0.48474970024E+03 -0.43725788958E+03  0.73822687695E+03  0.12498396153E+03 0.  0.
         24    2    1    2    0    0 -0.19664757992E+02  0.57909788029E+02  0.34133049138E+03  0.35587636046E+03  0.80007707948E+02 0.  0.
        -11    1    3    3    0    0  0.53899835795E+02  0.14276111024E+02  0.59461544304E+02  0.81514875303E+02  0.00000000000E+00 0.  1.
         12    1    3    3    0    0 -0.26394211612E+02  0.30135270520E+02  0.44076974198E+02  0.59561469008E+02  0.00000000000E+00 0. -1.
        -13    1    5    5    0    0 -0.46407721211E+02  0.50722828825E+02  0.28407649662E+03  0.29227715936E+03  0.00000000000E+00 0.  1.
         14    1    5    5    0    0  0.26742963219E+02  0.71869592034E+01  0.57253994762E+02  0.63599201100E+02  0.00000000000E+00 0. -1.
          5    1    4    4  501    0 -0.38068776810E+02  0.13560927009E+03 -0.68059267671E+02  0.15650322622E+03  0.47000000000E+01 0.  1.
         -5    1    4    4    0  501 -0.28314952486E+03  0.34914043015E+03 -0.36919862191E+03  0.58172365072E+03  0.47000000000E+01 0.  1.
          1    1    1    2  502    0  0.74713880677E+02 -0.19060200477E+03  0.12222180929E+04  0.12392450745E+04  0.00000000000E+00 0. -1.
          1    1    1    2  503    0  0.23866355480E+03 -0.39646886504E+03 -0.31342053979E+04  0.31681842323E+04  0.00000000000E+00 0. -1.
<mgrwt>
<rscale>  0 0.17648479E+03</rscale>
<asrwt>0</asrwt>
<pdfrwt beam="1">  1        2 0.27487005E+00 0.13302663E+03</pdfrwt>
<pdfrwt beam="2">  1        2 0.55492537E+00 0.23414020E+03</pdfrwt>
<totfact> 0.14225406E+00</totfact>
</mgrwt>
</event>
<event>
13    1  0.1675423E-008  0.8293680E+02  0.7546771E-02  0.1464133E+00
          2   -1    0    0  503    0  0.00000000000E+00  0.00000000000E+00  0.23889136650E+04  0.23889136650E+04  0.00000000000E+00 0. -1.
          2   -1    0    0  502    0 -0.00000000000E+00 -0.00000000000E+00 -0.21882734208E+03  0.21882734208E+03  0.00000000000E+00 0. -1.
         24    2    1    2    0    0 -0.22958360927E+02 -0.11034419956E+02  0.17008740677E+03  0.18881561368E+03  0.77927949209E+02 0.  0.
         25    2    1    2    0    0 -0.45461944469E+02  0.36414738850E+02  0.42773718715E+03  0.44941854489E+03  0.12500042246E+03 0.  0.
         24    2    1    2    0    0 -0.19989740750E+02  0.12705852784E+02  0.10939834542E+04  0.10971495683E+04  0.79852043212E+02 0.  0.
        -11    1    3    3    0    0 -0.29462423748E+02  0.28904216915E+02  0.93207078579E+02  0.10193648839E+03  0.00000000000E+00 0.  1.
         12    1    3    3    0    0  0.65040628215E+01 -0.39938636870E+02  0.76880328194E+02  0.86879125291E+02  0.00000000000E+00 0. -1.
        -13    1    5    5    0    0 -0.42219812712E+02  0.19247407986E+02  0.96404889733E+03  0.96516488319E+03  0.00000000000E+00 0.  1.
         14    1    5    5    0    0  0.22230071963E+02 -0.65415552024E+01  0.12993455686E+03  0.13198468513E+03  0.00000000000E+00 0. -1.
          5    1    4    4  501    0  0.39894608521E+02 -0.87631259800E+01  0.11988669395E+03  0.12674100186E+03  0.47000000000E+01 0.  1.
         -5    1    4    4    0  501 -0.85356552990E+02  0.45177864830E+02  0.30785049320E+03  0.32267754302E+03  0.47000000000E+01 0.  1.
          1    1    1    2  502    0  0.77308906622E+01 -0.25107180468E+02 -0.19367746534E+03  0.19545101116E+03  0.00000000000E+00 0. -1.
          1    1    1    2  503    0  0.80679155483E+02 -0.12978991211E+02  0.67195574012E+03  0.67690626901E+03  0.00000000000E+00 0. -1.
<mgrwt>
<rscale>  0 0.46677489E+02</rscale>
<asrwt>0</asrwt>
<pdfrwt beam="1">  1        2 0.35131082E+00 0.82936797E+02</pdfrwt>
<pdfrwt beam="2">  1        2 0.32180493E-01 0.26270462E+02</pdfrwt>
<totfact> 0.14465148E+02</totfact>
</mgrwt>
</event>
<event>
13    1  0.1675423E-008  0.4624551E+02  0.7546771E-02  0.1466946E+00
          2   -1    0    0  502    0  0.00000000000E+00  0.00000000000E+00  0.33808557592E+04  0.33808557592E+04  0.00000000000E+00 0. -1.
          2   -1    0    0  503    0 -0.00000000000E+00 -0.00000000000E+00 -0.73565465374E+03  0.73565465374E+03  0.00000000000E+00 0. -1.
         24    2    1    2    0    0  0.17325805294E+01  0.40558933806E+01 -0.15894872910E+03  0.17859978632E+03  0.81324861416E+02 0.  0.
         25    2    1    2    0    0  0.26868510456E+02  0.58756593651E+02  0.29587310268E+02  0.14378813591E+03  0.12500145978E+03 0.  0.
         24    2    1    2    0    0  0.17863328405E+02 -0.74037825839E+02 -0.22070235030E+03  0.24015736941E+03  0.56261323297E+02 0.  0.
        -13    1    5    5    0    0  0.65909193175E+01 -0.80635039508E+02 -0.19915116555E+03  0.21495729007E+03  0.00000000000E+00 0.  1.
         14    1    5    5    0    0  0.11272409087E+02  0.65972136694E+01 -0.21551184745E+02  0.25200079340E+02  0.00000000000E+00 0. -1.
        -13    1    3    3    0    0 -0.92271186929E+01 -0.36299260906E+02 -0.54865618324E+02  0.66430506063E+02  0.00000000000E+00 0.  1.
         14    1    3    3    0    0  0.10959699222E+02  0.40355154286E+02 -0.10408311077E+03  0.11216928025E+03  0.00000000000E+00 0. -1.
          5    1    4    4  501    0  0.54012184223E+02  0.29250285615E+02  0.65385408813E+02  0.89834497487E+02  0.47000000000E+01 0.  1.
         -5    1    4    4    0  501 -0.27143673767E+02  0.29506308036E+02 -0.35798098545E+02  0.53953638422E+02  0.47000000000E+01 0.  1.
          1    1    1    2  502    0 -0.13457860270E+02  0.44163045141E+02  0.32725051598E+04  0.32728308098E+04  0.00000000000E+00 0. -1.
          1    1    1    2  503    0 -0.33006559120E+02 -0.32937706334E+02 -0.27724028514E+03  0.28113431158E+03  0.00000000000E+00 0. -1.
<mgrwt>
<rscale>  0 0.46206762E+02</rscale>
<asrwt>0</asrwt>
<pdfrwt beam="1">  1        2 0.49718466E+00 0.46168047E+02</pdfrwt>
<pdfrwt beam="2">  1        2 0.10818451E+00 0.46245509E+02</pdfrwt>
<totfact> 0.14081795E+01</totfact>
</mgrwt>
</event>
<event>
13    1  0.1675423E-008  0.1056905E+03  0.7546771E-02  0.1309853E+00
          4   -1    0    0  503    0 -0.00000000000E+00  0.00000000000E+00  0.67682486397E+03  0.67682486397E+03  0.00000000000E+00 0. -1.
          2   -1    0    0  502    0  0.00000000000E+00 -0.00000000000E+00 -0.19469869803E+04  0.19469869803E+04  0.00000000000E+00 0. -1.
         24    2    1    2    0    0 -0.43115401121E+02  0.57911099412E+02 -0.77138695713E+03  0.77898432454E+03  0.81031518546E+02 0.  0.
         25    2    1    2    0    0  0.47131268500E+02  0.51594462613E+02  0.12238811032E+03  0.18838374945E+03  0.12500496976E+03 0.  0.
         24    2    1    2    0    0 -0.20198998391E+02  0.39550883088E+02 -0.95604274314E+02  0.13284909111E+03  0.80848202540E+02 0.  0.
        -13    1    5    5    0    0 -0.41424658974E+02  0.43744509289E+02 -0.37785800197E+02  0.71115055794E+02  0.00000000000E+00 0.  1.
         14    1    5    5    0    0  0.21225660583E+02 -0.41936262005E+01 -0.57818474116E+02  0.61734035321E+02  0.00000000000E+00 0. -1.
        -13    1    3    3    0    0 -0.51701230992E+02  0.66910298320E+02 -0.74532813445E+03  0.75010934757E+03  0.00000000000E+00 0.  1.
         14    1    3    3    0    0  0.85858298708E+01 -0.89991989078E+01 -0.26058822681E+02  0.28874976971E+02  0.00000000000E+00 0. -1.
          5    1    4    4  501    0  0.58816738836E+02 -0.97841162902E+01  0.11335948467E+02  0.60874719108E+02  0.47000000000E+01 0. -1.
         -5    1    4    4    0  501 -0.11685470336E+02  0.61378578903E+02  0.11105216185E+03  0.12750903034E+03  0.47000000000E+01 0. -1.
          1    1    1    2  502    0 -0.35852445391E+02 -0.99446063241E+02 -0.10192393786E+04  0.10247067035E+04  0.00000000000E+00 0. -1.
          3    1    1    2  503    0  0.52035576403E+02 -0.49610381872E+02  0.49368038345E+03  0.49888797561E+03  0.00000000000E+00 0. -1.
<mgrwt>
<rscale>  0 0.87170038E+02</rscale>
<asrwt>0</asrwt>
<pdfrwt beam="2">  1        2 0.28632161E+00 0.10569046E+03</pdfrwt>
<pdfrwt beam="1">  1        4 0.99533069E-01 0.71895001E+02</pdfrwt>
<totfact> 0.42240971E+00</totfact>
</mgrwt>
</event>
<event>
13    1  0.1675423E-008  0.3846507E+02  0.7546771E-02  0.1575066E+00
          2   -1    0    0  503    0  0.00000000000E+00  0.00000000000E+00  0.19103048131E+04  0.19103048131E+04  0.00000000000E+00 0. -1.
          2   -1    0    0  502    0 -0.00000000000E+00 -0.00000000000E+00 -0.99275187803E+03  0.99275187803E+03  0.00000000000E+00 0. -1.
         24    2    1    2    0    0  0.59950258164E+02  0.12647747140E+03  0.63816438327E+03  0.65818954829E+03  0.79806748919E+02 0.  0.
         25    2    1    2    0    0 -0.62361950711E+01 -0.60510508518E+02 -0.77795534342E+03  0.79027828511E+03  0.12499935921E+03 0.  0.
         24    2    1    2    0    0 -0.60900651167E+02 -0.55393454442E+02  0.42306545371E+03  0.43857451011E+03  0.81153550033E+02 0.  0.
        -11    1    5    5    0    0 -0.76776268767E+02 -0.35021574857E+02  0.37073335664E+03  0.38021615941E+03  0.00000000000E+00 0.  1.
         12    1    5    5    0    0  0.15875617600E+02 -0.20371879585E+02  0.52332097073E+02  0.58358350697E+02  0.00000000000E+00 0. -1.
        -11    1    3    3    0    0  0.74767756636E+02  0.10453542897E+03  0.58302810077E+03  0.59702566078E+03  0.00000000000E+00 0.  1.
         12    1    3    3    0    0 -0.14817498472E+02  0.21942042429E+02  0.55136282499E+02  0.61163887505E+02  0.00000000000E+00 0. -1.
          5    1    4    4  501    0  0.47345122211E+02 -0.85422913519E+01 -0.14334560991E+03  0.15127651906E+03  0.47000000000E+01 0.  1.
         -5    1    4    4    0  501 -0.53581317283E+02 -0.51968217166E+02 -0.63460973350E+03  0.63900176605E+03  0.47000000000E+01 0.  1.
          1    1    1    2  502    0  0.89681022295E+01 -0.37453867633E+02 -0.18870257996E+03  0.19259253033E+03  0.00000000000E+00 0. -1.
          1    1    1    2  503    0 -0.17815141553E+01  0.26880359191E+02  0.82298102142E+03  0.82342181725E+03  0.00000000000E+00 0. -1.
<mgrwt>
<rscale>  0 0.32190422E+02</rscale>
<asrwt>0</asrwt>
<pdfrwt beam="1">  1        2 0.28092718E+00 0.26939330E+02</pdfrwt>
<pdfrwt beam="2">  1        2 0.14599292E+00 0.38465071E+02</pdfrwt>
<totfact> 0.56363222E+01</totfact>
</mgrwt>
</event>
<event>
13    1  0.1675423E-008  0.6428158E+02  0.7546771E-02  0.1427637E+00
          2   -1    0    0  502    0  0.00000000000E+00  0.00000000000E+00  0.34218564684E+04  0.34218564684E+04  0.00000000000E+00 0. -1.
          2   -1    0    0  503    0 -0.00000000000E+00 -0.00000000000E+00 -0.17539657430E+04  0.17539657430E+04  0.00000000000E+00 0. -1.
         24    2    1    2    0    0 -0.61511260589E+03  0.19104002768E+02  0.83032313295E+03  0.10368372598E+04  0.82864451975E+02 0.  0.
         25    2    1    2    0    0  0.27691677461E+03  0.32525942204E+03 -0.77483337933E+03  0.89357054267E+03  0.12499982933E+03 0.  0.
         24    2    1    2    0    0  0.32725895668E+03 -0.25920010236E+03 -0.81391980145E+02  0.42969129758E+03  0.61047841834E+02 0.  0.
        -11    1    3    3    0    0 -0.42378719304E+03  0.25372506141E+01  0.63050358512E+03  0.75969519774E+03  0.00000000000E+00 0.  1.
         12    1    3    3    0    0 -0.19132541285E+03  0.16566752154E+02  0.19981954783E+03  0.27714206208E+03  0.00000000000E+00 0. -1.
        -13    1    5    5    0    0  0.12653261369E+03 -0.11750489463E+03 -0.61039982490E+02  0.18314961658E+03  0.00000000000E+00 0.  1.
         14    1    5    5    0    0  0.20072634299E+03 -0.14169520773E+03 -0.20351997656E+02  0.24654168100E+03  0.00000000000E+00 0. -1.
          5    1    4    4  501    0  0.44748777102E+02  0.13624880305E+03 -0.21094134222E+03  0.25511669730E+03  0.47000000000E+01 0. -1.
         -5    1    4    4    0  501  0.23216799751E+03  0.18901061898E+03 -0.56389203711E+03  0.63845384537E+03  0.47000000000E+01 0. -1.
          1    1    1    2  502    0  0.39230953492E+02 -0.50917260502E+02  0.22534195887E+04  0.22543361502E+04  0.00000000000E+00 0. -1.
          1    1    1    2  503    0 -0.28294078898E+02 -0.34246061943E+02 -0.55962663671E+03  0.56138696117E+03  0.00000000000E+00 0. -1.
<mgrwt>
<rscale>  0 0.53437261E+02</rscale>
<asrwt>0</asrwt>
<pdfrwt beam="1">  1        2 0.50321419E+00 0.64281584E+02</pdfrwt>
<pdfrwt beam="2">  1        2 0.25793614E+00 0.44422378E+02</pdfrwt>
<totfact> 0.37041814E+00</totfact>
</mgrwt>
</event>
<event>
13    1  0.1675423E-008  0.9558875E+02  0.7546771E-02  0.1309923E+00
          2   -1    0    0  502    0  0.00000000000E+00  0.00000000000E+00  0.13533557183E+04  0.13533557183E+04  0.00000000000E+00 0. -1.
          2   -1    0    0  503    0 -0.00000000000E+00 -0.00000000000E+00 -0.33970071658E+04  0.33970071658E+04  0.00000000000E+00 0. -1.
         24    2    1    2    0    0 -0.11975986923E+03 -0.11532433551E+02  0.41159803219E+03  0.43617233346E+03  0.79736698409E+02 0.  0.
         25    2    1    2    0    0  0.74156337214E+02 -0.28082390905E+03 -0.57138652991E+03  0.65304677359E+03  0.12500516665E+03 0.  0.
         24    2    1    2    0    0  0.18811875374E+02  0.16459518343E+03 -0.16619352497E+03  0.24821185620E+03  0.80891141395E+02 0.  0.
        -11    1    3    3    0    0 -0.13061848272E+02  0.19627989852E+02  0.27055345579E+02  0.35886788520E+02  0.00000000000E+00 0.  1.
         12    1    3    3    0    0 -0.10669802095E+03 -0.31160423403E+02  0.38454268661E+03  0.40028554494E+03  0.00000000000E+00 0. -1.
        -13    1    5    5    0    0 -0.11501756574E+01  0.60938273650E+01 -0.50711819023E+02  0.51089590179E+02  0.00000000000E+00 0.  1.
         14    1    5    5    0    0  0.19962051031E+02  0.15850135606E+03 -0.11548170595E+03  0.19712226602E+03  0.00000000000E+00 0. -1.
          5    1    4    4  501    0  0.75895751552E+02 -0.89054986413E+02 -0.28737251870E+03  0.31031598446E+03  0.47000000000E+01 0.  1.
         -5    1    4    4    0  501 -0.17394143378E+01 -0.19176892264E+03 -0.28401401122E+03  0.34273078913E+03  0.47000000000E+01 0.  1.
          1    1    1    2  502    0 -0.40988561792E+02  0.86324512271E+02  0.84432020985E+03  0.84971089223E+03  0.00000000000E+00 0. -1.
          1    1    1    2  503    0  0.67780218429E+02  0.41436646909E+02 -0.25619896346E+04  0.25632210286E+04  0.00000000000E+00 0. -1.
<mgrwt>
<rscale>  0 0.87142616E+02</rscale>
<asrwt>0</asrwt>
<pdfrwt beam="1">  1        2 0.19902290E+00 0.95588755E+02</pdfrwt>
<pdfrwt beam="2">  1        2 0.49955987E+00 0.79442770E+02</pdfrwt>
<totfact> 0.53874958E+00</totfact>
</mgrwt>
</event>
<event>
13    1  0.1675423E-008  0.7293149E+02  0.7546771E-02  0.1392626E+00
          2   -1    0    0  503    0  0.00000000000E+00  0.00000000000E+00  0.43162091830E+03  0.43162091830E+03  0.00000000000E+00 0. -1.
          2   -1    0    0  502    0 -0.00000000000E+00 -0.00000000000E+00 -0.15968609846E+04  0.15968609846E+04  0.00000000000E+00 0. -1.
         24    2    1    2    0    0 -0.14895182886E+03 -0.78197432063E+01  0.11476671014E+03  0.20510602874E+03  0.81543176074E+02 0.  0.
         25    2    1    2    0    0  0.97921751714E+02 -0.12187661956E+03 -0.58971966671E+03  0.62276700391E+03  0.12500750374E+03 0.  0.
         24    2    1    2    0    0  0.14284558630E+02  0.12525205449E+02 -0.13754105593E+03  0.15671623964E+03  0.72673986496E+02 0.  0.
        -11    1    5    5    0    0  0.29009447454E+02 -0.16395175966E+02 -0.10730782485E+03  0.11236244528E+03  0.00000000000E+00 0.  1.
         12    1    5    5    0    0 -0.14724888824E+02  0.28920381414E+02 -0.30233231084E+02  0.44353794356E+02  0.00000000000E+00 0. -1.
        -11    1    3    3    0    0 -0.45500747240E+02 -0.93169946763E+00 -0.60391269332E+01  0.45909226932E+02  0.00000000000E+00 0.  1.
         12    1    3    3    0    0 -0.10345108162E+03 -0.68880437387E+01  0.12080583707E+03  0.15919680181E+03  0.00000000000E+00 0. -1.
          5    1    4    4  501    0  0.11977538454E+03 -0.62179136409E+02 -0.36487124919E+03  0.38905720175E+03  0.47000000000E+01 0.  1.
         -5    1    4    4    0  501 -0.21853632827E+02 -0.59697483150E+02 -0.22484841752E+03  0.23370980215E+03  0.47000000000E+01 0.  1.
          1    1    1    2  502    0  0.68985734377E+01  0.50988955570E+02 -0.79210039957E+03  0.79376980726E+03  0.00000000000E+00 0. -1.
          1    1    1    2  503    0  0.29846945077E+02  0.66182201748E+02  0.23935434575E+03  0.25012282340E+03  0.00000000000E+00 0. -1.
<mgrwt>
<rscale>  0 0.61258317E+02</rscale>
<asrwt>0</asrwt>
<pdfrwt beam="1">  1        2 0.63473666E-01 0.72931492E+02</pdfrwt>
<pdfrwt beam="2">  1        2 0.23483249E+00 0.51453512E+02</pdfrwt>
<totfact> 0.18360165E+02</totfact>
</mgrwt>
</event>
<event>
13    1  0.1675423E-008  0.1271696E+03  0.7546771E-02  0.1319047E+00
          2   -1    0    0  503    0  0.00000000000E+00  0.00000000000E+00  0.16812641551E+04  0.16812641551E+04  0.00000000000E+00 0. -1.
          2   -1    0    0  502    0 -0.00000000000E+00 -0.00000000000E+00 -0.13895350807E+04  0.13895350807E+04  0.00000000000E+00 0. -1.
         24    2    1    2    0    0  0.51058183742E+03 -0.26471988718E+01  0.32637663755E+03  0.61143069542E+03  0.81393890392E+02 0.  0.
         25    2    1    2    0    0 -0.48889592749E+03 -0.50661681993E+02 -0.60492857986E+03  0.78939724812E+03  0.12499437851E+03 0.  0.
         24    2    1    2    0    0 -0.39323266614E+02 -0.76328691646E+02  0.25376496331E+03  0.28004041899E+03  0.81569548224E+02 0.  0.
        -11    1    5    5    0    0  0.10128543412E+02  0.11934329677E+02  0.52400994717E+02  0.54688937307E+02  0.00000000000E+00 0.  1.
         12    1    5    5    0    0 -0.49451810026E+02 -0.88263021323E+02  0.20136396860E+03  0.22535148168E+03  0.00000000000E+00 0. -1.
        -13    1    3    3    0    0  0.18086469883E+02 -0.13124910240E+02  0.39697845168E+01  0.22696758596E+02  0.00000000000E+00 0.  1.
         14    1    3    3    0    0  0.49249536754E+03  0.10477711368E+02  0.32240685303E+03  0.58873393682E+03  0.00000000000E+00 0. -1.
          5    1    4    4  501    0 -0.46951889825E+03 -0.69001631743E+02 -0.59369640834E+03  0.76007021799E+03  0.47000000000E+01 0. -1.
         -5    1    4    4    0  501 -0.19377029245E+02  0.18339949750E+02 -0.11232171525E+02  0.29327030131E+02  0.47000000000E+01 0. -1.
          1    1    1    2  502    0 -0.15581749567E+02 -0.52747579449E+02 -0.52518433847E+03  0.52805651916E+03  0.00000000000E+00 0. -1.
          1    1    1    2  503    0  0.33219106250E+02  0.18238515196E+03  0.84170039184E+03  0.86187435413E+03  0.00000000000E+00 0. -1.
<mgrwt>
<rscale>  0 0.83632769E+02</rscale>
<asrwt>0</asrwt>
<pdfrwt beam="1">  1        2 0.24724473E+00 0.12716958E+03</pdfrwt>
<pdfrwt beam="2">  1        2 0.20434339E+00 0.55000891E+02</pdfrwt>
<totfact> 0.37835278E+01</totfact>
</mgrwt>
</event>
<event>
13    1  0.1675423E-008  0.1158616E+03  0.7546771E-02  0.1444057E+00
          2   -1    0    0  502    0  0.00000000000E+00  0.00000000000E+00  0.57585916824E+03  0.57585916824E+03  0.00000000000E+00 0. -1.
          2   -1    0    0  503    0 -0.00000000000E+00 -0.00000000000E+00 -0.24827625231E+04  0.24827625231E+04  0.00000000000E+00 0. -1.
         24    2    1    2    0    0 -0.73017681284E+02  0.81502305954E+00  0.43045282735E+02  0.11663788532E+03  0.80120246398E+02 0.  0.
         25    2    1    2    0    0  0.47066818064E+02  0.14338249368E+03 -0.19136488251E+04  0.19236556777E+04  0.12500206291E+03 0.  0.
         24    2    1    2    0    0 -0.21902026033E+02 -0.26145461732E+02 -0.22202248947E+02  0.85558379655E+02  0.75259634316E+02 0.  0.
        -11    1    3    3    0    0 -0.46059418582E+02 -0.38154349358E+02  0.15332830750E+02  0.61743988484E+02  0.00000000000E+00 0.  1.
         12    1    3    3    0    0 -0.26958262702E+02  0.38969372418E+02  0.27712451985E+02  0.54893896834E+02  0.00000000000E+00 0. -1.
        -11    1    5    5    0    0  0.26481777110E+02 -0.91026204948E+01 -0.19627351335E+02  0.34196127546E+02  0.00000000000E+00 0.  1.
         12    1    5    5    0    0 -0.48383803142E+02 -0.17042841237E+02 -0.25748976125E+01  0.51362252109E+02  0.00000000000E+00 0. -1.
          5    1    4    4  501    0  0.26508325615E+02  0.29743416208E+02 -0.12507819832E+03  0.13135451203E+03  0.47000000000E+01 0.  1.
         -5    1    4    4    0  501  0.20558492449E+02  0.11363907747E+03 -0.17885706268E+04  0.17923011657E+04  0.47000000000E+01 0.  1.
          1    1    1    2  502    0  0.44660012072E+02 -0.13960106861E+03  0.44738020208E+03  0.47077810086E+03  0.00000000000E+00 0. -1.
          1    1    1    2  503    0  0.31928771815E+01  0.21549013606E+02 -0.46147776559E+03  0.46199164774E+03  0.00000000000E+00 0. -1.
<mgrwt>
<rscale>  0 0.50239031E+02</rscale>
<asrwt>0</asrwt>
<pdfrwt beam="1">  1        2 0.84685171E-01 0.11586159E+03</pdfrwt>
<pdfrwt beam="2">  1        2 0.36511214E+00 0.21784271E+02</pdfrwt>
<totfact> 0.58416538E+01</totfact>
</mgrwt>
</event>
<event>
13    1  0.1675423E-008  0.9958931E+02  0.7546771E-02  0.1392879E+00
          2   -1    0    0  503    0  0.00000000000E+00  0.00000000000E+00  0.14841157378E+04  0.14841157378E+04  0.00000000000E+00 0. -1.
          2   -1    0    0  502    0 -0.00000000000E+00 -0.00000000000E+00 -0.45425653291E+03  0.45425653291E+03  0.00000000000E+00 0. -1.
         24    2    1    2    0    0  0.41849713033E+02 -0.79785827234E+01  0.11527959078E+03  0.15113114746E+03  0.87955576401E+02 0.  0.
         25    2    1    2    0    0 -0.11308749200E+03  0.45374367977E+01  0.46633705730E+03  0.49588584057E+03  0.12499258652E+03 0.  0.
         24    2    1    2    0    0 -0.22487978748E+02 -0.74825167229E+02 -0.79828782086E+01  0.11253862453E+03  0.80602114292E+02 0.  0.
        -11    1    3    3    0    0  0.40116326349E+02 -0.23647868960E+02  0.13992296649E+02  0.48624332505E+02  0.00000000000E+00 0.  1.
         12    1    3    3    0    0  0.17333866841E+01  0.15669286236E+02  0.10128729413E+03  0.10250681496E+03  0.00000000000E+00 0. -1.
        -13    1    5    5    0    0  0.11243741880E+02 -0.71578846271E+02 -0.22212259690E+02  0.75784810124E+02  0.00000000000E+00 0.  1.
         14    1    5    5    0    0 -0.33731720628E+02 -0.32463209579E+01  0.14229381482E+02  0.36753814409E+02  0.00000000000E+00 0. -1.
          5    1    4    4  501    0  0.25512184590E+02 -0.11960817707E+02  0.92688385801E+02  0.96990512862E+02  0.47000000000E+01 0.  1.
         -5    1    4    4    0  501 -0.13859967659E+03  0.16498254505E+02  0.37364867150E+03  0.39889532771E+03  0.47000000000E+01 0.  1.
          1    1    1    2  502    0  0.10451909729E+03  0.42244408053E+02 -0.35205389467E+03  0.36966305801E+03  0.00000000000E+00 0. -1.
          1    1    1    2  503    0 -0.10793339572E+02  0.36021905102E+02  0.80827932972E+03  0.80915360018E+03  0.00000000000E+00 0. -1.
<mgrwt>
<rscale>  0 0.61196191E+02</rscale>
<asrwt>0</asrwt>
<pdfrwt beam="1">  1        2 0.21825231E+00 0.37604173E+02</pdfrwt>
<pdfrwt beam="2">  1        2 0.66802432E-01 0.99589314E+02</pdfrwt>
<totfact> 0.20162730E+02</totfact>
</mgrwt>
</event>
<event>
13    1  0.1675423E-008  0.1701807E+03  0.7546771E-02  0.1257873E+00
          2   -1    0    0  503    0  0.00000000000E+00  0.00000000000E+00  0.31733240809E+04  0.31733240809E+04  0.00000000000E+00 0. -1.
          2   -1    0    0  502    0 -0.00000000000E+00 -0.00000000000E+00 -0.27271983814E+04  0.27271983814E+04  0.00000000000E+00 0. -1.
         24    2    1    2    0    0  0.26212669164E+02  0.61682778519E+01  0.26282788761E+03  0.27621276821E+03  0.80559562689E+02 0.  0.
         25    2    1    2    0    0  0.35831115501E+02  0.26262230855E+03  0.40482556588E+03  0.49976211919E+03  0.12499636477E+03 0.  0.
         24    2    1    2    0    0  0.38231946296E+02 -0.53870883148E+02 -0.82237930922E+02  0.13295393109E+03  0.80931555901E+02 0.  0.
        -11    1    3    3    0    0  0.33805704521E+02  0.15198656344E+02  0.46048331076E+02  0.59112381171E+02  0.00000000000E+00 0.  1.
         12    1    3    3    0    0 -0.75930353571E+01 -0.90303784922E+01  0.21677955653E+03  0.21710038704E+03  0.00000000000E+00 0. -1.
        -13    1    5    5    0    0  0.37291397300E+02  0.10551264529E+02 -0.21065550799E+02  0.44110485445E+02  0.00000000000E+00 0.  1.
         14    1    5    5    0    0  0.94054899583E+00 -0.64422147677E+02 -0.61172380123E+02  0.88843445642E+02  0.00000000000E+00 0. -1.
          5    1    4    4  501    0  0.45051248129E+02  0.40549555904E+02  0.40786534151E+02  0.73208693541E+02  0.47000000000E+01 0.  1.
         -5    1    4    4    0  501 -0.92201326282E+01  0.22207275265E+03  0.36403903173E+03  0.42655342565E+03  0.47000000000E+01 0.  1.
          1    1    1    2  502    0 -0.49840297069E+02 -0.16212600074E+03 -0.25620876764E+04  0.25676958848E+04  0.00000000000E+00 0. -1.
          1    1    1    2  503    0 -0.50435433892E+02 -0.52793702515E+02  0.24227978533E+04  0.24238977590E+04  0.00000000000E+00 0. -1.
<mgrwt>
<rscale>  0 0.11146934E+03</rscale>
<asrwt>0</asrwt>
<pdfrwt beam="1">  1        2 0.46666531E+00 0.73013067E+02</pdfrwt>
<pdfrwt beam="2">  1        2 0.40105858E+00 0.17018068E+03</pdfrwt>
<totfact> 0.14291947E+00</totfact>
</mgrwt>
</event>
<event>
13    1  0.1675423E-008  0.9730086E+02  0.7546771E-02  0.1297060E+00
          2   -1    0    0  502    0  0.00000000000E+00  0.00000000000E+00  0.52165253700E+03  0.52165253700E+03  0.00000000000E+00 0. -1.
          2   -1    0    0  503    0 -0.00000000000E+00 -0.00000000000E+00 -0.84408339955E+03  0.84408339955E+03  0.00000000000E+00 0. -1.
         24    2    1    2    0    0  0.41694366773E+02 -0.77825448819E+02  0.17948891216E+03  0.21545890274E+03  0.80069023213E+02 0.  0.
         25    2    1    2    0    0 -0.13741648525E+03  0.16213560452E+03 -0.66203987552E+02  0.25530238843E+03  0.12500038761E+03 0.  0.
         24    2    1    2    0    0  0.66067092725E+01  0.64788235057E+01 -0.18361883639E+03  0.20062423219E+03  0.80303061608E+02 0.  0.
        -11    1    5    5    0    0 -0.24933977118E+02  0.30130807766E+02 -0.11522645799E+03  0.12168280656E+03  0.00000000000E+00 0.  1.
         12    1    5    5    0    0  0.31540686390E+02 -0.23651984260E+02 -0.68392378404E+02  0.78941425634E+02  0.00000000000E+00 0. -1.
        -13    1    3    3    0    0  0.44238152114E+01 -0.76615722188E+02  0.88588189071E+02  0.11720668185E+03  0.00000000000E+00 0.  1.
         14    1    3    3    0    0  0.37270551562E+02 -0.12097266308E+01  0.90900723091E+02  0.98252220894E+02  0.00000000000E+00 0. -1.
          5    1    4    4  501    0 -0.52946980984E+02  0.32105997485E+01  0.18444565851E+02  0.56355858218E+02  0.47000000000E+01 0.  1.
         -5    1    4    4    0  501 -0.84469504263E+02  0.15892500477E+03 -0.84648553403E+02  0.19894653022E+03  0.47000000000E+01 0.  1.
          1    1    1    2  502    0 -0.24240528303E+02 -0.84515833000E+02  0.20516208866E+03  0.22320844936E+03  0.00000000000E+00 0. -1.
          1    1    1    2  503    0  0.11335593750E+03 -0.62731462053E+01 -0.45725903944E+03  0.47114196382E+03  0.00000000000E+00 0. -1.
<mgrwt>
<rscale>  0 0.92434778E+02</rscale>
<asrwt>0</asrwt>
<pdfrwt beam="1">  1        2 0.76713609E-01 0.87812050E+02</pdfrwt>
<pdfrwt beam="2">  1        2 0.12412991E+00 0.97300863E+02</pdfrwt>
<totfact> 0.36019208E+02</totfact>
</mgrwt>
</event>
<event>
13    1  0.1675423E-008  0.4556814E+02  0.7546771E-02  0.1552653E+00
          2   -1    0    0  502    0  0.00000000000E+00  0.00000000000E+00  0.28937085982E+04  0.28937085982E+04  0.00000000000E+00 0. -1.
          2   -1    0    0  503    0 -0.00000000000E+00 -0.00000000000E+00 -0.23497035657E+04  0.23497035657E+04  0.00000000000E+00 0. -1.
         24    2    1    2    0    0 -0.54628559975E+03  0.61523350971E+01  0.18283556468E+04  0.19102890589E+04  0.88623415690E+02 0.  0.
         25    2    1    2    0    0  0.21830612152E+03  0.10913521693E+03 -0.22124493533E+03  0.35233779716E+03  0.12499817451E+03 0.  0.
         24    2    1    2    0    0  0.33938417944E+03 -0.48433593007E+02  0.12199023625E+03  0.37301590023E+03  0.82047607525E+02 0.  0.
        -11    1    3    3    0    0 -0.25086811258E+03 -0.36964081827E+02  0.77392922765E+03  0.81441242786E+03  0.00000000000E+00 0.  1.
         12    1    3    3    0    0 -0.29541748717E+03  0.43116416924E+02  0.10544264191E+04  0.10958766310E+04  0.00000000000E+00 0. -1.
        -11    1    5    5    0    0  0.27018574661E+02 -0.23056244730E+02 -0.29347298157E+01  0.35639955624E+02  0.00000000000E+00 0.  1.
         12    1    5    5    0    0  0.31236560478E+03 -0.25377348277E+02  0.12492496607E+03  0.33737594461E+03  0.00000000000E+00 0. -1.
          5    1    4    4  501    0  0.23194665470E+03  0.99023288538E+02 -0.18759512540E+03  0.31435470948E+03  0.47000000000E+01 0. -1.
         -5    1    4    4    0  501 -0.13640533179E+02  0.10111928395E+02 -0.33649809932E+02  0.37983087680E+02  0.47000000000E+01 0. -1.
          1    1    1    2  502    0 -0.18455404423E+02 -0.41628086685E+02  0.71051744484E+03  0.71197509716E+03  0.00000000000E+00 0. -1.
          1    1    1    2  503    0  0.70507032054E+01 -0.25225872338E+02 -0.18956133600E+04  0.18957943105E+04  0.00000000000E+00 0. -1.
<mgrwt>
<rscale>  0 0.34547824E+02</rscale>
<asrwt>0</asrwt>
<pdfrwt beam="1">  1        2 0.42554538E+00 0.45568137E+02</pdfrwt>
<pdfrwt beam="2">  1        2 0.34554464E+00 0.26192691E+02</pdfrwt>
<totfact> 0.42999947E+00</totfact>
</mgrwt>
</event>
<event>
13    1  0.1675423E-008  0.1279660E+03  0.7546771E-02  0.1321471E+00
          2   -1    0    0  503    0  0.00000000000E+00  0.00000000000E+00  0.15451465341E+04  0.15451465341E+04  0.00000000000E+00 0. -1.
          2   -1    0    0  502    0 -0.00000000000E+00 -0.00000000000E+00 -0.89455466740E+03  0.89455466740E+03  0.00000000000E+00 0. -1.
         24    2    1    2    0    0  0.59945756304E+02 -0.12810423812E+03  0.26593966222E+03  0.31143626636E+03  0.79148307250E+02 0.  0.
         25    2    1    2    0    0 -0.98643287181E+02  0.14960903896E+03 -0.42095289358E+03  0.47427703092E+03  0.12499600314E+03 0.  0.
         24    2    1    2    0    0  0.18507244048E+02  0.40983702620E+02  0.23876024414E+02  0.10229004194E+03  0.88718691236E+02 0.  0.
        -11    1    3    3    0    0  0.51188759378E+02 -0.95506907316E+02  0.12017347984E+03  0.16181323706E+03  0.00000000000E+00 0.  1.
         12    1    3    3    0    0  0.87569969261E+01 -0.32597330800E+02  0.14576618238E+03  0.14962302930E+03  0.00000000000E+00 0. -1.
        -13    1    5    5    0    0  0.10931692499E+02 -0.22688577649E+02  0.28462217339E+02  0.38004884850E+02  0.00000000000E+00 0.  1.
         14    1    5    5    0    0  0.75755515489E+01  0.63672280269E+02 -0.45861929252E+01  0.64285157085E+02  0.00000000000E+00 0. -1.
          5    1    4    4  501    0 -0.30728934603E+02  0.39718522957E+02 -0.27380868464E+03  0.27841536286E+03  0.47000000000E+01 0. -1.
         -5    1    4    4    0  501 -0.67914352578E+02  0.10989051600E+03 -0.14714420894E+03  0.19586166806E+03  0.47000000000E+01 0. -1.
          1    1    1    2  502    0  0.65224849983E+02 -0.91348241994E+02 -0.37617251173E+03  0.39256151232E+03  0.00000000000E+00 0. -1.
          1    1    1    2  503    0 -0.45034563154E+02  0.28859738532E+02  0.11579015854E+04  0.11591363500E+04  0.00000000000E+00 0. -1.
<mgrwt>
<rscale>  0 0.82732593E+02</rscale>
<asrwt>0</asrwt>
<pdfrwt beam="1">  1        2 0.22722743E+00 0.53488283E+02</pdfrwt>
<pdfrwt beam="2">  1        2 0.13155216E+00 0.12796601E+03</pdfrwt>
<totfact> 0.83748214E+01</totfact>
</mgrwt>
</event>
<event>
13    1  0.1675423E-008  0.2832552E+03  0.7546771E-02  0.1179706E+00
          2   -1    0    0  502    0  0.00000000000E+00  0.00000000000E+00  0.29630900729E+04  0.29630900729E+04  0.00000000000E+00 0. -1.
          2   -1    0    0  503    0 -0.00000000000E+00 -0.00000000000E+00 -0.27094161274E+04  0.27094161274E+04  0.00000000000E+00 0. -1.
         24    2    1    2    0    0  0.27004276270E+03 -0.28653803317E+03  0.63397119589E+03  0.75020918912E+03  0.76597728938E+02 0.  0.
         25    2    1    2    0    0 -0.61376808322E+03 -0.12506815097E+03  0.60943830059E+03  0.88283365985E+03  0.12500770523E+03 0.  0.
         24    2    1    2    0    0  0.93116534117E+02  0.40522247665E+03  0.13083419532E+03  0.44299369094E+03  0.79056176479E+02 0.  0.
        -11    1    5    5    0    0  0.24665889011E+02  0.26572808788E+03  0.68090076379E+02  0.27541982730E+03  0.00000000000E+00 0.  1.
         12    1    5    5    0    0  0.68450645106E+02  0.13949438878E+03  0.62744118937E+02  0.16757386365E+03  0.00000000000E+00 0. -1.
        -13    1    3    3    0    0  0.13824337746E+03 -0.20110095205E+03  0.38273602360E+03  0.45391594826E+03  0.00000000000E+00 0.  1.
         14    1    3    3    0    0  0.13179938524E+03 -0.85437081119E+02  0.25123517229E+03  0.29629324086E+03  0.00000000000E+00 0. -1.
          5    1    4    4  501    0 -0.22242943681E+02  0.29961034705E+01 -0.13333611633E+01  0.22969393366E+02  0.47000000000E+01 0. -1.
         -5    1    4    4    0  501 -0.59152513954E+03 -0.12806425444E+03  0.61077166175E+03  0.85986426648E+03  0.47000000000E+01 0. -1.
          1    1    1    2  502    0 -0.17548983600E+02  0.98361718914E+02  0.12273936427E+04  0.12314536730E+04  0.00000000000E+00 0. -1.
          1    1    1    2  503    0  0.26815777000E+03 -0.91978011429E+02 -0.23479633890E+04  0.23650159873E+04  0.00000000000E+00 0. -1.
<mgrwt>
<rscale>  0 0.16823028E+03</rscale>
<asrwt>0</asrwt>
<pdfrwt beam="1">  1        2 0.43574854E+00 0.99914937E+02</pdfrwt>
<pdfrwt beam="2">  1        2 0.39844355E+00 0.28325520E+03</pdfrwt>
<totfact> 0.16861779E+00</totfact>
</mgrwt>
</event>
<event>
13    1  0.1675423E-008  0.1316481E+03  0.7546771E-02  0.1273980E+00
          2   -1    0    0  502    0  0.00000000000E+00  0.00000000000E+00  0.66390825409E+03  0.66390825409E+03  0.00000000000E+00 0. -1.
          2   -1    0    0  503    0 -0.00000000000E+00 -0.00000000000E+00 -0.31439276395E+04  0.31439276395E+04  0.00000000000E+00 0. -1.
         24    2    1    2    0    0 -0.12287210604E+03 -0.34461702416E+00  0.18469449139E+03  0.23572897064E+03  0.79739696806E+02 0.  0.
         25    2    1    2    0    0  0.10940158399E+03  0.17460882438E+03 -0.78513251006E+03  0.82128903060E+03  0.12500266115E+03 0.  0.
         24    2    1    2    0    0  0.12093760960E+03 -0.11801141694E+03 -0.16160804240E+03  0.24748535289E+03  0.81112518038E+02 0.  0.
        -11    1    3    3    0    0 -0.65717054430E+02  0.37637706433E+02  0.76795661463E+02  0.10785593080E+03  0.00000000000E+00 0.  1.
         12    1    3    3    0    0 -0.57155051609E+02 -0.37982323457E+02  0.10789882992E+03  0.12787303984E+03  0.00000000000E+00 0. -1.
        -11    1    5    5    0    0  0.90759030810E+02 -0.11887117127E+03 -0.10311287440E+03  0.18165853104E+03  0.00000000000E+00 0.  1.
         12    1    5    5    0    0  0.30178578786E+02  0.85975433093E+00 -0.58495168000E+02  0.65826821846E+02  0.00000000000E+00 0. -1.
          5    1    4    4  501    0 -0.10060486358E+02  0.22894035073E+01 -0.18898056477E+03  0.18932035975E+03  0.47000000000E+01 0.  1.
         -5    1    4    4    0  501  0.11946207035E+03  0.17231942087E+03 -0.59615194529E+03  0.63196867085E+03  0.47000000000E+01 0.  1.
          1    1    1    2  502    0 -0.13031548952E+03  0.21132380734E+02  0.38078641744E+03  0.40302233192E+03  0.00000000000E+00 0. -1.
          1    1    1    2  503    0  0.22848401974E+02 -0.77385171145E+02 -0.20987597418E+04  0.21003102075E+04  0.00000000000E+00 0. -1.
<mgrwt>
<rscale>  0 0.10306499E+03</rscale>
<asrwt>0</asrwt>
<pdfrwt beam="1">  1        2 0.97633569E-01 0.13164813E+03</pdfrwt>
<pdfrwt beam="2">  1        2 0.46234229E+00 0.80687757E+02</pdfrwt>
<totfact> 0.18767021E+01</totfact>
</mgrwt>
</event>
<event>
13    1  0.1675423E-008  0.1644421E+03  0.7546771E-02  0.1408073E+00
          2   -1    0    0  503    0  0.00000000000E+00  0.00000000000E+00  0.98198838331E+03  0.98198838331E+03  0.00000000000E+00 0. -1.
         -3   -1    0    0    0  501 -0.00000000000E+00 -0.00000000000E+00 -0.15650427695E+04  0.15650427695E+04  0.00000000000E+00 0.  1.
         24    2    1    2    0    0 -0.54274484920E+02 -0.80533095264E+02  0.76215278821E+02  0.14809585367E+03  0.81806564539E+02 0.  0.
         25    2    1    2    0    0 -0.71322907269E+02  0.18727883150E+03 -0.41604739142E+03  0.47841258226E+03  0.12499139624E+03 0.  0.
         24    2    1    2    0    0  0.33256999667E+02  0.36210320012E+02 -0.34672262433E+02  0.10060491400E+03  0.80634779321E+02 0.  0.
        -11    1    3    3    0    0 -0.42781863842E+02 -0.99624063887E+01  0.46276120030E+00  0.43928937646E+02  0.00000000000E+00 0.  1.
         12    1    3    3    0    0 -0.11492621079E+02 -0.70570688875E+02  0.75752517620E+02  0.10416691602E+03  0.00000000000E+00 0. -1.
        -13    1    5    5    0    0  0.55758970501E+02  0.40953501743E+02 -0.16065256494E+02  0.71023549352E+02  0.00000000000E+00 0.  1.
         14    1    5    5    0    0 -0.22501970833E+02 -0.47431817310E+01 -0.18607005940E+02  0.29581364647E+02  0.00000000000E+00 0. -1.
          5    1    4    4  502    0 -0.56905493300E+02  0.80639512362E+02 -0.85185459632E+02  0.13045926052E+03  0.47000000000E+01 0.  1.
         -5    1    4    4    0  502 -0.14417413969E+02  0.10663931914E+03 -0.33086193178E+03  0.34795332175E+03  0.47000000000E+01 0.  1.
          1    1    1    2  503    0  0.11084008568E+03 -0.13485896813E+03  0.79612577354E+03  0.81503908689E+03  0.00000000000E+00 0. -1.
         -4    1    1    2    0  501 -0.18499693155E+02 -0.80970881192E+01 -0.10046757847E+04  0.10048787159E+04  0.00000000000E+00 0.  1.
<mgrwt>
<rscale>  0 0.57626022E+02</rscale>
<asrwt>0</asrwt>
<pdfrwt beam="1">  1        2 0.14441006E+00 0.16444205E+03</pdfrwt>
<pdfrwt beam="2">  1       -3 0.23015335E+00 0.20194095E+02</pdfrwt>
<totfact> 0.21246008E+00</totfact>
</mgrwt>
</event>
<event>
13    1  0.1675423E-008  0.1050991E+03  0.7546771E-02  0.1449957E+00
          2   -1    0    0  503    0  0.00000000000E+00  0.00000000000E+00  0.15033756123E+04  0.15033756123E+04  0.00000000000E+00 0. -1.
          2   -1    0    0  502    0 -0.00000000000E+00 -0.00000000000E+00 -0.18902200789E+04  0.18902200789E+04  0.00000000000E+00 0. -1.
         24    2    1    2    0    0  0.12645013803E+01 -0.34159767697E+02  0.85963608585E+02  0.12321604956E+03  0.81387739715E+02 0.  0.
         25    2    1    2    0    0  0.24146883364E+02 -0.65642754728E+02 -0.41954336229E+03  0.44331792629E+03  0.12498843029E+03 0.  0.
         24    2    1    2    0    0  0.77753053991E+02 -0.32260213879E+02 -0.16343030895E+02  0.11271064858E+03  0.73145996754E+02 0.  0.
        -11    1    5    5    0    0  0.66930514790E+02  0.67212519451E+01 -0.24220783231E+02  0.71494862599E+02  0.00000000000E+00 0.  1.
         12    1    5    5    0    0  0.10822539201E+02 -0.38981465824E+02  0.78777523353E+01  0.41215785986E+02  0.00000000000E+00 0. -1.
        -13    1    3    3    0    0 -0.27518519012E+01 -0.60551385596E+02  0.50926895726E+02  0.79168122971E+02  0.00000000000E+00 0.  1.
         14    1    3    3    0    0  0.40163532814E+01  0.26391617899E+02  0.35036712859E+02  0.44047926591E+02  0.00000000000E+00 0. -1.
          5    1    4    4  501    0  0.54098019173E+02  0.35708668574E+01 -0.27374889437E+03  0.27910552473E+03  0.47000000000E+01 0. -1.
         -5    1    4    4    0  501 -0.29951135809E+02 -0.69213621586E+02 -0.14579446792E+03  0.16421240156E+03  0.47000000000E+01 0. -1.
          1    1    1    2  502    0  0.17240488250E+01  0.22924453393E+02 -0.13712608469E+04  0.13714535403E+04  0.00000000000E+00 0. -1.
          1    1    1    2  503    0 -0.10488848756E+03  0.10913828291E+03  0.13343391650E+04  0.13428975265E+04  0.00000000000E+00 0. -1.
<mgrwt>
<rscale>  0 0.49154281E+02</rscale>
<asrwt>0</asrwt>
<pdfrwt beam="1">  1        2 0.22108465E+00 0.10509910E+03</pdfrwt>
<pdfrwt beam="2">  1        2 0.27797354E+00 0.22989191E+02</pdfrwt>
<totfact> 0.29988413E+01</totfact>
</mgrwt>
</event>
<event>
13    1  0.1675423E-008  0.1868323E+03  0.7546771E-02  0.1343908E+00
          2   -1    0    0  502    0  0.00000000000E+00  0.00000000000E+00  0.15851277077E+03  0.15851277077E+03  0.00000000000E+00 0. -1.
          2   -1    0    0  503    0 -0.00000000000E+00 -0.00000000000E+00 -0.22818093663E+04  0.22818093663E+04  0.00000000000E+00 0. -1.
         24    2    1    2    0    0  0.81701498867E+02  0.14266500612E+03 -0.20337967664E+03  0.27391795751E+03  0.81481996074E+02 0.  0.
         25    2    1    2    0    0  0.11841492296E+03  0.96192203832E+01 -0.33762163949E+03  0.37911739014E+03  0.12500800244E+03 0.  0.
         24    2    1    2    0    0  0.20114418915E+02 -0.57493676011E+02 -0.41567148224E+03  0.42772661712E+03  0.80356488344E+02 0.  0.
        -13    1    3    3    0    0  0.26073784092E+02  0.40820033015E+01 -0.71745288046E+01  0.27349201659E+02  0.00000000000E+00 0.  1.
         14    1    3    3    0    0  0.55627714775E+02  0.13858300282E+03 -0.19620514784E+03  0.24656875585E+03  0.00000000000E+00 0. -1.
        -13    1    5    5    0    0  0.68975095035E+01  0.17573820416E+00  0.91465152890E+00  0.69601083818E+01  0.00000000000E+00 0.  1.
         14    1    5    5    0    0  0.13216909412E+02 -0.57669414216E+02 -0.41658613377E+03  0.42076650874E+03  0.00000000000E+00 0. -1.
          5    1    4    4  501    0  0.14135031040E+03 -0.75766815330E+00 -0.31355062913E+03  0.34397175951E+03  0.47000000000E+01 0.  1.
         -5    1    4    4    0  501 -0.22935387440E+02  0.10376888536E+02 -0.24071010357E+02  0.35145630630E+02  0.47000000000E+01 0.  1.
          1    1    1    2  502    0 -0.19469910924E+03 -0.78853038221E+02 -0.18315798997E+02  0.21085780343E+03  0.00000000000E+00 0. -1.
          1    1    1    2  503    0 -0.25531731503E+02 -0.15937512274E+02 -0.11483079982E+04  0.11487023689E+04  0.00000000000E+00 0. -1.
<mgrwt>
<rscale>  0 0.74988194E+02</rscale>
<asrwt>0</asrwt>
<pdfrwt beam="1">  1        2 0.23310704E-01 0.18683231E+03</pdfrwt>
<pdfrwt beam="2">  1        2 0.33556016E+00 0.30097734E+02</pdfrwt>
<totfact> 0.27787974E+02</totfact>
</mgrwt>
</event>
<event>
13    1  0.1675423E-008  0.1425418E+03  0.7546771E-02  0.1367677E+00
         -1   -1    0    0    0  501 -0.00000000000E+00  0.00000000000E+00  0.33212544991E+03  0.33212544991E+03  0.00000000000E+00 0.  1.
          2   -1    0    0  503    0  0.00000000000E+00 -0.00000000000E+00 -0.40742800718E+04  0.40742800718E+04  0.00000000000E+00 0. -1.
         24    2    1    2    0    0 -0.59094788554E+02 -0.84484747539E+02 -0.86475105459E+03  0.87465570341E+03  0.81230206703E+02 0.  0.
         25    2    1    2    0    0  0.29120068559E+02 -0.40994661097E+02  0.15539511809E+03  0.20567167948E+03  0.12499862552E+03 0.  0.
         24    2    1    2    0    0  0.97835922744E+02  0.15144479501E+02  0.15808397294E+02  0.12772557744E+03  0.79137188907E+02 0.  0.
        -13    1    3    3    0    0 -0.21793783593E+02  0.48911287648E+01 -0.36032829743E+03  0.36101990814E+03  0.00000000000E+00 0.  1.
         14    1    3    3    0    0 -0.37301004961E+02 -0.89375876304E+02 -0.50442275716E+03  0.51363579527E+03  0.00000000000E+00 0. -1.
        -13    1    5    5    0    0 -0.83048843610E+01  0.80447095685E+01 -0.13116593950E+02  0.17485236434E+02  0.00000000000E+00 0.  1.
         14    1    5    5    0    0  0.10614080711E+03  0.70997699325E+01  0.28924991245E+02  0.11024034100E+03  0.00000000000E+00 0. -1.
          5    1    4    4  502    0 -0.14558516242E+02 -0.32120043000E+01  0.14616405065E+03  0.14699757504E+03  0.47000000000E+01 0.  1.
         -5    1    4    4    0  502  0.43678584801E+02 -0.37782656797E+02  0.92310674431E+01  0.58674104433E+02  0.47000000000E+01 0.  1.
          1    1    1    2  503    0 -0.10012669584E+03  0.11030286466E+03 -0.31181408886E+04  0.31216974034E+04  0.00000000000E+00 0. -1.
         -2    1    1    2    0  501  0.32265493091E+02  0.32064477018E-01  0.69533805949E+02  0.76655157962E+02  0.00000000000E+00 0.  1.
<mgrwt>
<rscale>  0 0.67817280E+02</rscale>
<asrwt>0</asrwt>
<pdfrwt beam="2">  1        2 0.59915883E+00 0.14254179E+03</pdfrwt>
<pdfrwt beam="1">  1       -1 0.48841979E-01 0.32265509E+02</pdfrwt>
<totfact> 0.30420918E+00</totfact>
</mgrwt>
</event>
<event>
13    1  0.1675423E-008  0.1698291E+03  0.7546771E-02  0.1355247E+00
          2   -1    0    0  502    0  0.00000000000E+00  0.00000000000E+00  0.17626804776E+04  0.17626804776E+04  0.00000000000E+00 0. -1.
          2   -1    0    0  503    0 -0.00000000000E+00 -0.00000000000E+00 -0.77225998472E+03  0.77225998472E+03  0.00000000000E+00 0. -1.
         24    2    1    2    0    0  0.27820546895E+02 -0.16762969227E+03  0.71688077265E+03  0.74074275785E+03  0.76864130516E+02 0.  0.
         25    2    1    2    0    0  0.81113322241E+02  0.25745595189E+03 -0.28110803020E+03  0.40928024453E+03  0.12500262282E+03 0.  0.
         24    2    1    2    0    0 -0.54409809656E+01  0.59711480271E+02 -0.27638782964E+02  0.10481215386E+03  0.81404054707E+02 0.  0.
        -13    1    5    5    0    0  0.94905038043E+00  0.70269269731E+02  0.44657040176E+01  0.70417423110E+02  0.00000000000E+00 0.  1.
         14    1    5    5    0    0 -0.63900313460E+01 -0.10557789459E+02 -0.32104486982E+02  0.34394730748E+02  0.00000000000E+00 0. -1.
        -13    1    3    3    0    0  0.40172238798E+02 -0.37641915127E+02  0.18123542821E+03  0.18941225669E+03  0.00000000000E+00 0.  1.
         14    1    3    3    0    0 -0.12351691903E+02 -0.12998777714E+03  0.53564534444E+03  0.55133050117E+03  0.00000000000E+00 0. -1.
          5    1    4    4  501    0  0.72689364084E+02  0.79652934792E+02 -0.54007783496E+02  0.12069492264E+03  0.47000000000E+01 0.  1.
         -5    1    4    4    0  501  0.84239581568E+01  0.17780301710E+03 -0.22710024670E+03  0.28858532190E+03  0.47000000000E+01 0.  1.
          1    1    1    2  502    0 -0.11788212316E+03 -0.12315005881E+03  0.92272591022E+03  0.93834174869E+03  0.00000000000E+00 0. -1.
          1    1    1    2  503    0  0.14389234987E+02 -0.26387681082E+02 -0.34043937688E+03  0.34176355734E+03  0.00000000000E+00 0. -1.
<mgrwt>
<rscale>  0 0.71444908E+02</rscale>
<asrwt>0</asrwt>
<pdfrwt beam="1">  1        2 0.25921772E+00 0.16982913E+03</pdfrwt>
<pdfrwt beam="2">  1        2 0.11356764E+00 0.30055944E+02</pdfrwt>
<totfact> 0.74823571E+01</totfact>
</mgrwt>
</event>
<event>
13    1  0.1675423E-008  0.1830166E+03  0.7546771E-02  0.1195839E+00
          2   -1    0    0  503    0  0.00000000000E+00  0.00000000000E+00  0.21811449431E+04  0.21811449431E+04  0.00000000000E+00 0. -1.
          2   -1    0    0  502    0 -0.00000000000E+00 -0.00000000000E+00 -0.14016225171E+04  0.14016225171E+04  0.00000000000E+00 0. -1.
         24    2    1    2    0    0 -0.10349794407E+03 -0.13717193792E+03  0.16710178686E+03  0.25320543400E+03  0.81621196132E+02 0.  0.
         25    2    1    2    0    0  0.20756813298E+03  0.24452469155E+03 -0.80309065878E+02  0.35348903752E+03  0.12501239531E+03 0.  0.
         24    2    1    2    0    0  0.42122753395E+02  0.13639358899E+02  0.11238550184E+02  0.92910175779E+02  0.80905112869E+02 0.  0.
        -11    1    5    5    0    0  0.46933933812E+02  0.18332366846E+02  0.39396912876E+02  0.63960820518E+02  0.00000000000E+00 0.  1.
         12    1    5    5    0    0 -0.48111804169E+01 -0.46930079466E+01 -0.28158362691E+02  0.28949355261E+02  0.00000000000E+00 0. -1.
        -11    1    3    3    0    0 -0.10503373990E+03 -0.14240845113E+03  0.17132759183E+03  0.24630346565E+03  0.00000000000E+00 0.  1.
         12    1    3    3    0    0  0.15357958296E+01  0.52365132125E+01 -0.42258049701E+01  0.69019683497E+01  0.00000000000E+00 0. -1.
          5    1    4    4  501    0  0.28048863276E+02 -0.32053330790E+01 -0.33328154908E+02  0.43930272032E+02  0.47000000000E+01 0. -1.
         -5    1    4    4    0  501  0.17951926971E+03  0.24773002463E+03 -0.46980910970E+02  0.30955876549E+03  0.47000000000E+01 0. -1.
          1    1    1    2  502    0 -0.20267414361E+03  0.55272457950E+02 -0.10859365693E+04  0.11060696568E+04  0.00000000000E+00 0. -1.
          1    1    1    2  503    0  0.56481201297E+02 -0.17626457048E+03  0.17674277242E+04  0.17770931560E+04  0.00000000000E+00 0. -1.
<mgrwt>
<rscale>  0 0.15383462E+03</rscale>
<asrwt>0</asrwt>
<pdfrwt beam="1">  1        2 0.32075661E+00 0.18301663E+03</pdfrwt>
<pdfrwt beam="2">  1        2 0.20612096E+00 0.12930569E+03</pdfrwt>
<totfact> 0.19232193E+01</totfact>
</mgrwt>
</event>
<event>
13    1  0.1675423E-008  0.1049750E+03  0.7546771E-02  0.1395658E+00
          2   -1    0    0  502    0  0.00000000000E+00  0.00000000000E+00  0.37046950134E+04  0.37046950134E+04  0.00000000000E+00 0. -1.
          2   -1    0    0  503    0 -0.00000000000E+00 -0.00000000000E+00 -0.18092345440E+03  0.18092345440E+03  0.00000000000E+00 0. -1.
         24    2    1    2    0    0 -0.27899280614E+02 -0.47916491453E+02  0.51705711692E+03  0.52611842970E+03  0.79863507952E+02 0.  0.
         25    2    1    2    0    0  0.15742320782E+03 -0.29618409873E+02 -0.12729152076E+02  0.20357938814E+03  0.12499287739E+03 0.  0.
         24    2    1    2    0    0 -0.65814227016E+02 -0.77979339427E+02  0.11582610304E+03  0.17335698740E+03  0.78896572040E+02 0.  0.
        -11    1    5    5    0    0 -0.41664459877E+02 -0.90589678745E+02  0.10260633731E+03  0.14307507669E+03  0.00000000000E+00 0.  1.
         12    1    5    5    0    0 -0.24149767139E+02  0.12610339318E+02  0.13219765728E+02  0.30281910714E+02  0.00000000000E+00 0. -1.
        -13    1    3    3    0    0 -0.46669746588E+02 -0.52852415615E+02  0.46931607003E+03  0.47458299239E+03  0.00000000000E+00 0.  1.
         14    1    3    3    0    0  0.18770465974E+02  0.49359241614E+01  0.47741046891E+02  0.51535437307E+02  0.00000000000E+00 0. -1.
          5    1    4    4  501    0  0.17276310884E+03 -0.25608464634E+02 -0.32597759225E+02  0.17772897666E+03  0.47000000000E+01 0.  1.
         -5    1    4    4    0  501 -0.15339901015E+02 -0.40099452383E+01  0.19868607149E+02  0.25850411487E+02  0.47000000000E+01 0.  1.
          1    1    1    2  502    0 -0.32407220312E+02  0.14009934474E+03  0.29332584032E+04  0.29367810464E+04  0.00000000000E+00 0. -1.
          1    1    1    2  503    0 -0.31302479882E+02  0.15414896008E+02 -0.29640912155E+02  0.45782616123E+02  0.00000000000E+00 0. -1.
<mgrwt>
<rscale>  0 0.60521136E+02</rscale>
<asrwt>0</asrwt>
<pdfrwt beam="1">  1        2 0.54480804E+00 0.10497503E+03</pdfrwt>
<pdfrwt beam="2">  1        2 0.26606393E-01 0.34892181E+02</pdfrwt>
<totfact> 0.33182349E+01</totfact>
</mgrwt>
</event>
<event>
13    1  0.1675423E-008  0.5713673E+02  0.7546771E-02  0.1412943E+00
          2   -1    0    0  503    0  0.00000000000E+00  0.00000000000E+00  0.18033991396E+04  0.18033991396E+04  0.00000000000E+00 0. -1.
          2   -1    0    0  502    0 -0.00000000000E+00 -0.00000000000E+00 -0.60165670414E+03  0.60165670414E+03  0.00000000000E+00 0. -1.
         24    2    1    2    0    0  0.14951566439E+03  0.82331846186E+02  0.53592749157E+03  0.56837023325E+03  0.81810629021E+02 0.  0.
         25    2    1    2    0    0 -0.31107198903E+03 -0.21612918603E+01 -0.86380290186E+02  0.34620547517E+03  0.12500489176E+03 0.  0.
         24    2    1    2    0    0  0.12883192867E+03 -0.68370303015E+02 -0.15515776978E+03  0.22403559348E+03  0.69612135757E+02 0.  0.
        -11    1    3    3    0    0  0.14600057134E+03  0.67517019906E+02  0.52635367166E+03  0.55038432252E+03  0.00000000000E+00 0.  1.
         12    1    3    3    0    0  0.35150930494E+01  0.14814826280E+02  0.95738199176E+01  0.17985910727E+02  0.00000000000E+00 0. -1.
        -13    1    5    5    0    0 -0.10079305637E+01 -0.24546262157E+02 -0.24366114804E+02  0.34601191605E+02  0.00000000000E+00 0.  1.
         14    1    5    5    0    0  0.12983985923E+03 -0.43824040858E+02 -0.13079165498E+03  0.18943440188E+03  0.00000000000E+00 0. -1.
          5    1    4    4  501    0 -0.29843280025E+03 -0.33166437594E+02 -0.86054186073E+02  0.31239328064E+03  0.47000000000E+01 0. -1.
         -5    1    4    4    0  501 -0.12639188778E+02  0.31005145734E+02 -0.32610411366E+00  0.33812194529E+02  0.47000000000E+01 0. -1.
          1    1    1    2  502    0  0.33415109363E+00 -0.57425882207E+02 -0.17421207620E+03  0.18343306981E+03  0.00000000000E+00 0. -1.
          1    1    1    2  503    0  0.32390244874E+02  0.45625630896E+02  0.10815650801E+04  0.10830114720E+04  0.00000000000E+00 0. -1.
<mgrwt>
<rscale>  0 0.56542166E+02</rscale>
<asrwt>0</asrwt>
<pdfrwt beam="1">  1        2 0.26520575E+00 0.55953786E+02</pdfrwt>
<pdfrwt beam="2">  1        2 0.88478927E-01 0.57136734E+02</pdfrwt>
<totfact> 0.10266013E+02</totfact>
</mgrwt>
</event>
<event>
13    1  0.1675423E-008  0.3321132E+03  0.7546771E-02  0.1135933E+00
          2   -1    0    0  503    0  0.00000000000E+00  0.00000000000E+00  0.17110442798E+04  0.17110442798E+04  0.00000000000E+00 0. -1.
          2   -1    0    0  502    0 -0.00000000000E+00 -0.00000000000E+00 -0.10562056537E+04  0.10562056537E+04  0.00000000000E+00 0. -1.
         24    2    1    2    0    0 -0.26165515892E+03 -0.91625755994E+02  0.45910507248E+03  0.54225045164E+03  0.79996146028E+02 0.  0.
         25    2    1    2    0    0  0.41314754283E+03 -0.16482729234E+03  0.38106644109E+03  0.59891171401E+03  0.12499872083E+03 0.  0.
         24    2    1    2    0    0  0.55944355050E+02 -0.42565905670E+02 -0.35244541405E+03  0.36641113831E+03  0.71398355744E+02 0.  0.
        -11    1    5    5    0    0  0.39383700398E+02  0.10382640612E+02 -0.10069230948E+03  0.10861775302E+03  0.00000000000E+00 0.  1.
         12    1    5    5    0    0  0.16560654652E+02 -0.52948546282E+02 -0.25175310457E+03  0.25779338529E+03  0.00000000000E+00 0. -1.
        -13    1    3    3    0    0 -0.57022224346E+02 -0.21923320347E+02  0.17428199058E+03  0.18467912249E+03  0.00000000000E+00 0.  1.
         14    1    3    3    0    0 -0.20463293457E+03 -0.69702435647E+02  0.28482308190E+03  0.35757132915E+03  0.00000000000E+00 0. -1.
          5    1    4    4  501    0  0.19544396440E+03 -0.18599763522E+02  0.19924669338E+03  0.27975994933E+03  0.47000000000E+01 0.  1.
         -5    1    4    4    0  501  0.21770357843E+03 -0.14622752882E+03  0.18181974771E+03  0.31915176468E+03  0.47000000000E+01 0.  1.
          1    1    1    2  502    0  0.15666254057E+03  0.79530942929E+02 -0.46545956612E+03  0.49751475374E+03  0.00000000000E+00 0. -1.
          1    1    1    2  503    0 -0.36409927954E+03  0.21948801107E+03  0.63257209270E+03  0.76216187574E+03  0.00000000000E+00 0. -1.
<mgrwt>
<rscale>  0 0.21727261E+03</rscale>
<asrwt>0</asrwt>
<pdfrwt beam="1">  1        2 0.25162416E+00 0.33211317E+03</pdfrwt>
<pdfrwt beam="2">  1        2 0.15532436E+00 0.14214247E+03</pdfrwt>
<totfact> 0.47676886E+01</totfact>
</mgrwt>
</event>
<event>
13    1  0.1675423E-008  0.5586129E+02  0.7546771E-02  0.1422361E+00
          2   -1    0    0  502    0  0.00000000000E+00  0.00000000000E+00  0.25317792442E+04  0.25317792442E+04  0.00000000000E+00 0. -1.
          2   -1    0    0  503    0 -0.00000000000E+00 -0.00000000000E+00 -0.36646119293E+04  0.36646119293E+04  0.00000000000E+00 0. -1.
         24    2    1    2    0    0 -0.47481973533E+03 -0.44509721713E+03  0.46922439955E+03  0.80719687304E+03  0.88486953545E+02 0.  0.
         25    2    1    2    0    0  0.72960198248E+02 -0.89761765429E+01  0.20856292476E+03  0.25402422010E+03  0.12500419408E+03 0.  0.
         24    2    1    2    0    0  0.40041574119E+03  0.41999430365E+03 -0.24755662164E+04  0.25439673723E+04  0.81326000637E+02 0.  0.
        -11    1    3    3    0    0 -0.26401024515E+03 -0.19740067573E+03  0.20551811841E+03  0.38846638634E+03  0.00000000000E+00 0.  1.
         12    1    3    3    0    0 -0.21080949017E+03 -0.24769654141E+03  0.26370628114E+03  0.41873048669E+03  0.00000000000E+00 0. -1.
        -13    1    5    5    0    0  0.20737579984E+03  0.16715651847E+03 -0.12190740692E+04  0.12478331660E+04  0.00000000000E+00 0.  1.
         14    1    5    5    0    0  0.19303994135E+03  0.25283778517E+03 -0.12564921472E+04  0.12961342062E+04  0.00000000000E+00 0. -1.
          5    1    4    4  501    0  0.38179634393E+02  0.45684043560E+02  0.36223861463E+02  0.69849656103E+02  0.47000000000E+01 0.  1.
         -5    1    4    4    0  501  0.34780563855E+02 -0.54660220103E+02  0.17233906330E+03  0.18417456400E+03  0.47000000000E+01 0.  1.
          1    1    1    2  502    0  0.52507758871E+02  0.19085842453E+02  0.16268593871E+04  0.16278184172E+04  0.00000000000E+00 0. -1.
          1    1    1    2  503    0 -0.51063962988E+02  0.14993247579E+02 -0.96191318013E+03  0.96338429087E+03  0.00000000000E+00 0. -1.
<mgrwt>
<rscale>  0 0.54524450E+02</rscale>
<asrwt>0</asrwt>
<pdfrwt beam="1">  1        2 0.37232048E+00 0.55861293E+02</pdfrwt>
<pdfrwt beam="2">  1        2 0.53891352E+00 0.53219600E+02</pdfrwt>
<totfact> 0.11645795E+00</totfact>
</mgrwt>
</event>
<event>
13    1  0.1675423E-008  0.1331125E+03  0.7546771E-02  0.1263880E+00
          2   -1    0    0  503    0  0.00000000000E+00  0.00000000000E+00  0.20037540233E+04  0.20037540233E+04  0.00000000000E+00 0. -1.
          2   -1    0    0  502    0 -0.00000000000E+00 -0.00000000000E+00 -0.10105273146E+04  0.10105273146E+04  0.00000000000E+00 0. -1.
         24    2    1    2    0    0 -0.16653310083E+03 -0.42552438605E+02  0.80992457630E+03  0.83216142447E+03  0.83491516829E+02 0.  0.
         25    2    1    2    0    0  0.16352433365E+03  0.63250732616E+02 -0.21211031675E+03  0.30225575165E+03  0.12500756002E+03 0.  0.
         24    2    1    2    0    0  0.50935696079E+02 -0.10816156347E+03  0.26309899230E+03  0.29991623703E+03  0.80220324969E+02 0.  0.
        -11    1    5    5    0    0  0.42981671046E+02 -0.25607932247E+02  0.15976688146E+03  0.16741758167E+03  0.00000000000E+00 0.  1.
         12    1    5    5    0    0  0.79540250327E+01 -0.82553631226E+02  0.10333211084E+03  0.13249865537E+03  0.00000000000E+00 0. -1.
        -13    1    3    3    0    0 -0.14957040517E+03 -0.28009799152E+02  0.53185968623E+03  0.55320030801E+03  0.00000000000E+00 0.  1.
         14    1    3    3    0    0 -0.16962695668E+02 -0.14542639453E+02  0.27806489007E+03  0.27896111646E+03  0.00000000000E+00 0. -1.
          5    1    4    4  501    0  0.16338807271E+03  0.45680682337E+02 -0.11874389820E+03  0.20713423281E+03  0.47000000000E+01 0.  1.
         -5    1    4    4    0  501  0.13626094075E+00  0.17570050279E+02 -0.93366418544E+02  0.95121518836E+02  0.47000000000E+01 0.  1.
          1    1    1    2  502    0 -0.12536754644E+03  0.45662658241E+02 -0.71537128941E+03  0.72770748366E+03  0.00000000000E+00 0. -1.
          1    1    1    2  503    0  0.77440617542E+02  0.41800611221E+02  0.84768474631E+03  0.85224044111E+03  0.00000000000E+00 0. -1.
<mgrwt>
<rscale>  0 0.10823194E+03</rscale>
<asrwt>0</asrwt>
<pdfrwt beam="1">  1        2 0.29466971E+00 0.88001934E+02</pdfrwt>
<pdfrwt beam="2">  1        2 0.14860696E+00 0.13311246E+03</pdfrwt>
<totfact> 0.41136627E+01</totfact>
</mgrwt>
</event>
<event>
13    1  0.1675423E-008  0.2160691E+03  0.7546771E-02  0.1319923E+00
          2   -1    0    0  502    0  0.00000000000E+00  0.00000000000E+00  0.19140176229E+04  0.19140176229E+04  0.00000000000E+00 0. -1.
          2   -1    0    0  503    0 -0.00000000000E+00 -0.00000000000E+00 -0.20214674799E+04  0.20214674799E+04  0.00000000000E+00 0. -1.
         24    2    1    2    0    0  0.48309617425E+02  0.13332940183E+03  0.34219012502E+03  0.37983811594E+03  0.84097349126E+02 0.  0.
         25    2    1    2    0    0  0.35217411241E+03 -0.93109753609E+02 -0.77414803433E+03  0.86465366370E+03  0.12499898966E+03 0.  0.
         24    2    1    2    0    0 -0.70683617944E+02  0.30368787746E+02  0.11851673615E+03  0.16442309783E+03  0.84085083313E+02 0.  0.
        -11    1    3    3    0    0  0.64703181573E+02  0.12820661518E+03  0.27206966891E+03  0.30764483194E+03  0.00000000000E+00 0.  1.
         12    1    3    3    0    0 -0.16393564149E+02  0.51227866482E+01  0.70120456109E+02  0.72193283991E+02  0.00000000000E+00 0. -1.
        -11    1    5    5    0    0  0.71235024676E+01 -0.16968556316E+02  0.53608745532E+01  0.19168076764E+02  0.00000000000E+00 0.  1.
         12    1    5    5    0    0 -0.77807120411E+02  0.47337344062E+02  0.11315586160E+03  0.14525502106E+03  0.00000000000E+00 0. -1.
          5    1    4    4  501    0  0.47018557603E+02  0.30037597399E+02 -0.10868988363E+03  0.12226439719E+03  0.47000000000E+01 0.  1.
         -5    1    4    4    0  501  0.30515555480E+03 -0.12314735101E+03 -0.66545815071E+03  0.74238926651E+03  0.47000000000E+01 0.  1.
          1    1    1    2  502    0 -0.35561853296E+03 -0.89694237744E+02  0.13414372204E+04  0.13906701311E+04  0.00000000000E+00 0. -1.
          1    1    1    2  503    0  0.25818421068E+02  0.19105801778E+02 -0.11354459042E+04  0.11359000942E+04  0.00000000000E+00 0. -1.
<mgrwt>
<rscale>  0 0.83306041E+02</rscale>
<asrwt>0</asrwt>
<pdfrwt beam="1">  1        2 0.28147318E+00 0.21606906E+03</pdfrwt>
<pdfrwt beam="2">  1        2 0.29727463E+00 0.32118881E+02</pdfrwt>
<totfact> 0.14828372E+01</totfact>
</mgrwt>
</event>
<event>
13    1  0.1675423E-008  0.1502063E+03  0.7546771E-02  0.1298144E+00
          2   -1    0    0  503    0  0.00000000000E+00  0.00000000000E+00  0.30539454451E+04  0.30539454451E+04  0.00000000000E+00 0. -1.
          2   -1    0    0  502    0 -0.00000000000E+00 -0.00000000000E+00 -0.15156222273E+04  0.15156222273E+04  0.00000000000E+00 0. -1.
         24    2    1    2    0    0  0.51052114752E+01  0.28904937813E+03  0.16493014947E+03  0.34208105067E+03  0.79005600094E+02 0.  0.
         25    2    1    2    0    0  0.29156162022E+02 -0.28684700133E+03 -0.63812986366E+03  0.71131316693E+03  0.12500165837E+03 0.  0.
         24    2    1    2    0    0 -0.37497972808E+02  0.10681108482E+03  0.17107817915E+02  0.14050922042E+03  0.81458319313E+02 0.  0.
        -11    1    3    3    0    0 -0.19660177163E+02  0.12910016518E+03  0.36875044994E+02  0.13569504102E+03  0.00000000000E+00 0.  1.
         12    1    3    3    0    0  0.24765388638E+02  0.15994921295E+03  0.12805510447E+03  0.20638600965E+03  0.00000000000E+00 0. -1.
        -13    1    5    5    0    0 -0.48883529919E+02  0.26425735054E+02  0.20553867076E+02  0.59248463459E+02  0.00000000000E+00 0.  1.
         14    1    5    5    0    0  0.11385557110E+02  0.80385349767E+02 -0.34460491615E+01  0.81260756966E+02  0.00000000000E+00 0. -1.
          5    1    4    4  501    0 -0.75785759473E+01 -0.26865033624E+03 -0.58694484091E+03  0.64556701763E+03  0.47000000000E+01 0.  1.
         -5    1    4    4    0  501  0.36734737969E+02 -0.18196665086E+02 -0.51185022752E+02  0.65746149302E+02  0.47000000000E+01 0.  1.
          1    1    1    2  502    0  0.43144997832E+02  0.36193138439E+02 -0.68736062019E+03  0.68966372697E+03  0.00000000000E+00 0. -1.
          1    1    1    2  503    0 -0.39908398521E+02 -0.14520660006E+03  0.26817757343E+04  0.26860005074E+04  0.00000000000E+00 0. -1.
<mgrwt>
<rscale>  0 0.91972502E+02</rscale>
<asrwt>0</asrwt>
<pdfrwt beam="1">  1        2 0.44910962E+00 0.15020630E+03</pdfrwt>
<pdfrwt beam="2">  1        2 0.22288562E+00 0.56315487E+02</pdfrwt>
<totfact> 0.65282205E+00</totfact>
</mgrwt>
</event>
<event>
13    1  0.1675423E-008  0.1679941E+03  0.7546771E-02  0.1186809E+00
          2   -1    0    0  502    0  0.00000000000E+00  0.00000000000E+00  0.28165407882E+04  0.28165407882E+04  0.00000000000E+00 0. -1.
          2   -1    0    0  503    0 -0.00000000000E+00 -0.00000000000E+00 -0.10784505703E+04  0.10784505703E+04  0.00000000000E+00 0. -1.
         24    2    1    2    0    0 -0.87122429637E+02 -0.18947191938E+02  0.19257775688E+03  0.22680278972E+03  0.80024990799E+02 0.  0.
         25    2    1    2    0    0  0.28009217811E+02 -0.10409881244E+03 -0.54389884993E+02  0.17379433922E+03  0.12500053489E+03 0.  0.
         24    2    1    2    0    0 -0.15279702858E+03  0.80404242961E+02  0.34790065206E+03  0.39655205045E+03  0.80043055797E+02 0.  0.
        -13    1    3    3    0    0 -0.93612385000E+02  0.56734782360E+01  0.15993614745E+03  0.18540506531E+03  0.00000000000E+00 0.  1.
         14    1    3    3    0    0  0.64899553626E+01 -0.24620670174E+02  0.32641609424E+02  0.41397724409E+02  0.00000000000E+00 0. -1.
        -13    1    5    5    0    0 -0.11139519729E+03  0.21099955630E+02  0.16820763443E+03  0.20284946731E+03  0.00000000000E+00 0.  1.
         14    1    5    5    0    0 -0.41401831293E+02  0.59304287331E+02  0.17969301762E+03  0.19370258313E+03  0.00000000000E+00 0. -1.
          5    1    4    4  501    0  0.16715775124E+01 -0.84723476432E+02 -0.91033867322E+02  0.12445929708E+03  0.47000000000E+01 0.  1.
         -5    1    4    4    0  501  0.26337640298E+02 -0.19375336004E+02  0.36643982329E+02  0.49335042137E+02  0.47000000000E+01 0.  1.
          1    1    1    2  502    0  0.35965444671E+03  0.90762856152E+02  0.21524034876E+04  0.21841314042E+04  0.00000000000E+00 0. -1.
          1    1    1    2  503    0 -0.14774420630E+03 -0.48121094740E+02 -0.90040179366E+03  0.91371077496E+03  0.00000000000E+00 0. -1.
<mgrwt>
<rscale>  0 0.16168344E+03</rscale>
<asrwt>0</asrwt>
<pdfrwt beam="1">  1        2 0.41419717E+00 0.16799413E+03</pdfrwt>
<pdfrwt beam="2">  1        2 0.15859567E+00 0.15560981E+03</pdfrwt>
<totfact> 0.13554761E+01</totfact>
</mgrwt>
</event>
<event>
13    1  0.1675423E-008  0.7428457E+02  0.7546771E-02  0.1412747E+00
          2   -1    0    0  503    0  0.00000000000E+00  0.00000000000E+00  0.24017333195E+04  0.24017333195E+04  0.00000000000E+00 0. -1.
         -1   -1    0    0    0  501 -0.00000000000E+00 -0.00000000000E+00 -0.14190281581E+04  0.14190281581E+04  0.00000000000E+00 0.  1.
         24    2    1    2    0    0 -0.53928874110E+02  0.94567854004E+02  0.10801118020E+03  0.17329319327E+03  0.80701383577E+02 0.  0.
         25    2    1    2    0    0  0.20674133125E+03 -0.16006502990E+03 -0.80066945682E+03  0.85150347405E+03  0.12499518151E+03 0.  0.
         24    2    1    2    0    0 -0.72716133069E+02  0.12236279673E+03  0.25381190423E+01  0.16248782946E+03  0.78329832391E+02 0.  0.
        -11    1    3    3    0    0 -0.30452661905E+02 -0.71776488772E+00  0.52091704274E+02  0.60344224726E+02  0.00000000000E+00 0.  1.
         12    1    3    3    0    0 -0.23476212204E+02  0.95285618892E+02  0.55919475927E+02  0.11294896854E+03  0.00000000000E+00 0. -1.
        -13    1    5    5    0    0 -0.41608217021E+02  0.15771593013E+02  0.22192208066E+02  0.49724048193E+02  0.00000000000E+00 0.  1.
         14    1    5    5    0    0 -0.31107916048E+02  0.10659120371E+03 -0.19654089024E+02  0.11276378126E+03  0.00000000000E+00 0. -1.
          5    1    4    4  502    0  0.11598823867E+03 -0.12840014739E+02 -0.32320761870E+03  0.34366174107E+03  0.47000000000E+01 0. -1.
         -5    1    4    4    0  502  0.90753092580E+02 -0.14722501516E+03 -0.47746183812E+03  0.50784173299E+03  0.47000000000E+01 0. -1.
          1    1    1    2  503    0 -0.37597153800E+02 -0.64055432262E+02  0.21515420527E+04  0.21528236920E+04  0.00000000000E+00 0. -1.
         -2    1    1    2    0  501 -0.42499170277E+02  0.71898114298E+01 -0.47871673376E+03  0.48065328881E+03  0.00000000000E+00 0.  1.
<mgrwt>
<rscale>  0 0.56585258E+02</rscale>
<asrwt>0</asrwt>
<pdfrwt beam="1">  1        2 0.35319608E+00 0.74284568E+02</pdfrwt>
<pdfrwt beam="2">  1       -1 0.20868061E+00 0.43103049E+02</pdfrwt>
<totfact> 0.12103390E+00</totfact>
</mgrwt>
</event>
<event>
13    1  0.1675423E-008  0.1301113E+03  0.7546771E-02  0.1282212E+00
         -1   -1    0    0    0  501 -0.00000000000E+00  0.00000000000E+00  0.44173500977E+03  0.44173500977E+03  0.00000000000E+00 0.  1.
          2   -1    0    0  503    0  0.00000000000E+00 -0.00000000000E+00 -0.22418238797E+04  0.22418238797E+04  0.00000000000E+00 0. -1.
         24    2    1    2    0    0  0.47662163248E+02  0.73660435923E+02 -0.10806514725E+02  0.13349298774E+03  0.10003027237E+03 0.  0.
         25    2    1    2    0    0 -0.12367330151E+03 -0.82312604256E+01 -0.39154501783E+03  0.42929611719E+03  0.12499926438E+03 0.  0.
         24    2    1    2    0    0  0.90076243827E+01 -0.15789093445E+02 -0.14722243585E+03  0.16808282379E+03  0.79037695224E+02 0.  0.
        -13    1    3    3    0    0  0.58359930075E+00  0.46970976916E+02 -0.48517645791E+02  0.67532031021E+02  0.00000000000E+00 0.  1.
         14    1    3    3    0    0  0.47078563948E+02  0.26689459007E+02  0.37711131067E+02  0.65960956723E+02  0.00000000000E+00 0. -1.
        -13    1    5    5    0    0 -0.56356594957E+00 -0.37814143430E+02 -0.29575177943E+02  0.48009563634E+02  0.00000000000E+00 0.  1.
         14    1    5    5    0    0  0.95711903323E+01  0.22025049985E+02 -0.11764725791E+03  0.12007326015E+03  0.00000000000E+00 0. -1.
          5    1    4    4  502    0 -0.11930086246E+03  0.99682773923E+01 -0.39209375521E+03  0.40998983550E+03  0.47000000000E+01 0.  1.
         -5    1    4    4    0  502 -0.43724390421E+01 -0.18199537818E+02  0.54873738292E+00  0.19306281690E+02  0.47000000000E+01 0.  1.
          1    1    1    2  503    0  0.31842656447E+01  0.81529225254E+02 -0.15853546656E+04  0.15874528560E+04  0.00000000000E+00 0. -1.
         -2    1    1    2    0  501  0.63819248231E+02 -0.13116930731E+03  0.33483976413E+03  0.36523410474E+03  0.00000000000E+00 0.  1.
<mgrwt>
<rscale>  0 0.99094300E+02</rscale>
<asrwt>0</asrwt>
<pdfrwt beam="2">  1        2 0.32967998E+00 0.75471406E+02</pdfrwt>
<pdfrwt beam="1">  1       -1 0.64961032E-01 0.13011127E+03</pdfrwt>
<totfact> 0.21065563E+01</totfact>
</mgrwt>
</event>
<event>
13    1  0.1675423E-008  0.2460736E+03  0.7546771E-02  0.1278633E+00
          2   -1    0    0  503    0  0.00000000000E+00  0.00000000000E+00  0.22868262997E+04  0.22868262997E+04  0.00000000000E+00 0. -1.
         -1   -1    0    0    0  501 -0.00000000000E+00 -0.00000000000E+00 -0.98152264645E+03  0.98152264645E+03  0.00000000000E+00 0.  1.
         24    2    1    2    0    0  0.11484375740E+02 -0.23531534240E+03  0.65139062497E+03  0.69755486833E+03  0.82266923944E+02 0.  0.
         25    2    1    2    0    0  0.27885483239E+03  0.52670968226E+03 -0.59854998280E+02  0.61187432046E+03  0.12499782512E+03 0.  0.
         24    2    1    2    0    0 -0.68811442388E+02 -0.10571306462E+03 -0.62768222380E+02  0.16270998130E+03  0.81390550053E+02 0.  0.
        -11    1    5    5    0    0 -0.30998818979E+02 -0.10070815797E+03 -0.23486297279E+02  0.10795677848E+03  0.00000000000E+00 0.  1.
         12    1    5    5    0    0 -0.37812623409E+02 -0.50049066570E+01 -0.39281925101E+02  0.54753202823E+02  0.00000000000E+00 0. -1.
        -11    1    3    3    0    0 -0.28839276859E+02 -0.68156645658E+02  0.14551556409E+03  0.16325382577E+03  0.00000000000E+00 0.  1.
         12    1    3    3    0    0  0.40323652599E+02 -0.16715869674E+03  0.50587506088E+03  0.53430104256E+03  0.00000000000E+00 0. -1.
          5    1    4    4  502    0  0.28428956564E+03  0.50034465756E+03 -0.75445485858E+02  0.58041316734E+03  0.47000000000E+01 0. -1.
         -5    1    4    4    0  502 -0.54347332496E+01  0.26365024698E+02  0.15590487579E+02  0.31461153122E+02  0.47000000000E+01 0. -1.
          1    1    1    2  503    0  0.23440642126E+02 -0.33987602601E+02  0.12452942092E+04  0.12459784461E+04  0.00000000000E+00 0. -1.
         -2    1    1    2    0  501 -0.24496840787E+03 -0.15169367264E+03 -0.46875796022E+03  0.55023132993E+03  0.00000000000E+00 0.  1.
<mgrwt>
<rscale>  0 0.10079510E+03</rscale>
<asrwt>0</asrwt>
<pdfrwt beam="1">  1        2 0.33629798E+00 0.41287054E+02</pdfrwt>
<pdfrwt beam="2">  1       -1 0.14434157E+00 0.24607358E+03</pdfrwt>
<totfact> 0.36144227E+00</totfact>
</mgrwt>
</event>
<event>
13    1  0.1675423E-008  0.1767910E+03  0.7546771E-02  0.1225798E+00
          2   -1    0    0  502    0  0.00000000000E+00  0.00000000000E+00  0.19601523172E+04  0.19601523172E+04  0.00000000000E+00 0. -1.
          2   -1    0    0  503    0 -0.00000000000E+00 -0.00000000000E+00 -0.25888074312E+04  0.25888074312E+04  0.00000000000E+00 0. -1.
         24    2    1    2    0    0 -0.12214251853E+03 -0.10571308400E+01  0.26096234964E+03  0.29966925949E+03  0.82343213389E+02 0.  0.
         25    2    1    2    0    0  0.12231852994E+03 -0.19138949292E+03 -0.48010740388E+03  0.54563611341E+03  0.12499555283E+03 0.  0.
         24    2    1    2    0    0  0.16264524039E+01 -0.84542580046E+02  0.42879265165E+02  0.12470207341E+03  0.81005447618E+02 0.  0.
        -13    1    3    3    0    0  0.10497452633E+02  0.15091549721E+01  0.58199019610E+01  0.12097326950E+02  0.00000000000E+00 0.  1.
         14    1    3    3    0    0 -0.13263997116E+03 -0.25662858121E+01  0.25514244768E+03  0.28757193254E+03  0.00000000000E+00 0. -1.
        -13    1    5    5    0    0 -0.18790183240E+02 -0.78721441109E+02  0.47640338622E+01  0.81073005959E+02  0.00000000000E+00 0.  1.
         14    1    5    5    0    0  0.20416635644E+02 -0.58211389372E+01  0.38115231303E+02  0.43629067454E+02  0.00000000000E+00 0. -1.
          5    1    4    4  501    0  0.63920928003E+02 -0.59801710002E+01 -0.13360591027E+03  0.14830467539E+03  0.47000000000E+01 0. -1.
         -5    1    4    4    0  501  0.58397601934E+02 -0.18540932192E+03 -0.34650149361E+03  0.39733143802E+03  0.47000000000E+01 0. -1.
          1    1    1    2  502    0  0.78112774254E+00  0.17977085867E+03  0.15569331883E+04  0.15672776157E+04  0.00000000000E+00 0. -1.
          1    1    1    2  503    0 -0.25835915511E+01  0.97218345138E+02 -0.20093225132E+04  0.20116746864E+04  0.00000000000E+00 0. -1.
<mgrwt>
<rscale>  0 0.13112360E+03</rscale>
<asrwt>0</asrwt>
<pdfrwt beam="1">  1        2 0.28825770E+00 0.17679102E+03</pdfrwt>
<pdfrwt beam="2">  1        2 0.38070697E+00 0.97252669E+02</pdfrwt>
<totfact> 0.66788861E+00</totfact>
</mgrwt>
</event>
<event>
13    1  0.1675423E-008  0.7585928E+02  0.7546771E-02  0.1464523E+00
          2   -1    0    0  503    0  0.00000000000E+00  0.00000000000E+00  0.38157247296E+04  0.38157247296E+04  0.00000000000E+00 0. -1.
          2   -1    0    0  502    0 -0.00000000000E+00 -0.00000000000E+00 -0.11094426439E+04  0.11094426439E+04  0.00000000000E+00 0. -1.
         24    2    1    2    0    0  0.24248421638E+02 -0.47203140752E+02  0.27478371664E+04  0.27491546759E+04  0.66529818176E+02 0.  0.
         25    2    1    2    0    0  0.36897919083E+02  0.13289148200E+03 -0.23734712279E+03  0.30162933151E+03  0.12499997806E+03 0.  0.
         24    2    1    2    0    0 -0.18927432493E+02  0.62223072053E+01  0.21819843090E+03  0.23318164405E+03  0.79788213825E+02 0.  0.
        -11    1    3    3    0    0 -0.60218684436E+01  0.11844033049E+02  0.95090067720E+03  0.95099350257E+03  0.00000000000E+00 0.  1.
         12    1    3    3    0    0  0.30270290082E+02 -0.59047173801E+02  0.17969364891E+04  0.17981611733E+04  0.00000000000E+00 0. -1.
        -11    1    5    5    0    0  0.23338180913E+02  0.23577341262E+02  0.60511436106E+02  0.69008663289E+02  0.00000000000E+00 0.  1.
         12    1    5    5    0    0 -0.42265613406E+02 -0.17355034057E+02  0.15768699479E+03  0.16417298076E+03  0.00000000000E+00 0. -1.
          5    1    4    4  501    0  0.81636402519E+02  0.70078321933E+02 -0.15470696495E+03  0.18849882871E+03  0.47000000000E+01 0. -1.
         -5    1    4    4    0  501 -0.44738483436E+02  0.62813160064E+02 -0.82640157838E+02  0.11313050280E+03  0.47000000000E+01 0. -1.
          1    1    1    2  502    0 -0.41822223868E+02 -0.63272655370E+02 -0.82982068898E+03  0.83327960685E+03  0.00000000000E+00 0. -1.
          1    1    1    2  503    0 -0.39668436074E+00 -0.28637993080E+02  0.80741430020E+03  0.80792211517E+03  0.00000000000E+00 0. -1.
<mgrwt>
<rscale>  0 0.46611865E+02</rscale>
<asrwt>0</asrwt>
<pdfrwt beam="1">  1        2 0.56113599E+00 0.28640740E+02</pdfrwt>
<pdfrwt beam="2">  1        2 0.16315333E+00 0.75859279E+02</pdfrwt>
<totfact> 0.51424102E+00</totfact>
</mgrwt>
</event>
<event>
13    1  0.1675423E-008  0.1349029E+03  0.7546771E-02  0.1227056E+00
          2   -1    0    0  503    0  0.00000000000E+00  0.00000000000E+00  0.14094998347E+04  0.14094998347E+04  0.00000000000E+00 0. -1.
          2   -1    0    0  502    0 -0.00000000000E+00 -0.00000000000E+00 -0.60355034552E+03  0.60355034552E+03  0.00000000000E+00 0. -1.
         24    2    1    2    0    0  0.46716285896E+02 -0.15024199329E+02  0.40963831619E+03  0.42022321587E+03  0.79849002087E+02 0.  0.
         25    2    1    2    0    0 -0.23427796039E+03 -0.50447962389E+02 -0.38011876525E+02  0.27295271027E+03  0.12500847833E+03 0.  0.
         24    2    1    2    0    0  0.45323132638E+02  0.47626901091E+02 -0.16210465451E+03  0.19113171109E+03  0.77012362052E+02 0.  0.
        -11    1    3    3    0    0  0.18551168831E+01 -0.16619894327E+02  0.31536455010E+03  0.31580763418E+03  0.00000000000E+00 0.  1.
         12    1    3    3    0    0  0.44861169012E+02  0.15956949978E+01  0.94273766091E+02  0.10441558169E+03  0.00000000000E+00 0. -1.
        -11    1    5    5    0    0 -0.49094106289E+01  0.36136681282E+02 -0.11732932389E+03  0.12286631878E+03  0.00000000000E+00 0.  1.
         12    1    5    5    0    0  0.50232543267E+02  0.11490219809E+02 -0.44775330627E+02  0.68265392309E+02  0.00000000000E+00 0. -1.
          5    1    4    4  501    0 -0.20539168682E+02 -0.47855164285E+02 -0.27037605368E+02  0.58865068614E+02  0.47000000000E+01 0.  1.
         -5    1    4    4    0  501 -0.21373879171E+03 -0.25927981034E+01 -0.10974271156E+02  0.21408764166E+03  0.47000000000E+01 0.  1.
          1    1    1    2  502    0  0.67907822935E+02  0.12993765181E+03 -0.24018000259E+03  0.28139242957E+03  0.00000000000E+00 0. -1.
          1    1    1    2  503    0  0.74330718924E+02 -0.11209239119E+03  0.83660770662E+03  0.84735011342E+03  0.00000000000E+00 0. -1.
<mgrwt>
<rscale>  0 0.13026958E+03</rscale>
<asrwt>0</asrwt>
<pdfrwt beam="1">  1        2 0.20727939E+00 0.12579540E+03</pdfrwt>
<pdfrwt beam="2">  1        2 0.88757404E-01 0.13490288E+03</pdfrwt>
<totfact> 0.14584146E+02</totfact>
</mgrwt>
</event>
<event>
13    1  0.1675423E-008  0.9863545E+02  0.7546771E-02  0.1448721E+00
         -3   -1    0    0    0  501 -0.00000000000E+00  0.00000000000E+00  0.30595058740E+03  0.30595058740E+03  0.00000000000E+00 0.  1.
          2   -1    0    0  503    0  0.00000000000E+00 -0.00000000000E+00 -0.26349224231E+04  0.26349224231E+04  0.00000000000E+00 0. -1.
         24    2    1    2    0    0 -0.23812953394E+02 -0.45735209663E+02 -0.92991992137E+03  0.93454763712E+03  0.77262278848E+02 0.  0.
         25    2    1    2    0    0  0.10257343817E+03 -0.46393933297E+02  0.19606881448E+03  0.25835067861E+03  0.12501354271E+03 0.  0.
         24    2    1    2    0    0 -0.16319485890E+03  0.53322874932E+01 -0.72384811683E+03  0.74976333750E+03  0.10736838808E+03 0.  0.
        -11    1    3    3    0    0 -0.34783015613E+02 -0.59560933712E+02 -0.56392543183E+03  0.56812785151E+03  0.00000000000E+00 0.  1.
         12    1    3    3    0    0  0.10970062219E+02  0.13825724049E+02 -0.36599448954E+03  0.36641978561E+03  0.00000000000E+00 0. -1.
        -13    1    5    5    0    0  0.14387615401E+02 -0.51819447198E+01 -0.95577777790E+02  0.96793427645E+02  0.00000000000E+00 0.  1.
         14    1    5    5    0    0 -0.17758247430E+03  0.10514232213E+02 -0.62827033904E+03  0.65296990986E+03  0.00000000000E+00 0. -1.
          5    1    4    4  502    0 -0.80112973765E+01 -0.35405647953E+02  0.45634208981E+01  0.36887065523E+02  0.47000000000E+01 0.  1.
         -5    1    4    4    0  502  0.11058473554E+03 -0.10988285344E+02  0.19150539358E+03  0.22146361309E+03  0.47000000000E+01 0.  1.
          1    1    1    2  503    0  0.10575030316E+03  0.74278412196E+02 -0.92767324746E+03  0.93663123116E+03  0.00000000000E+00 0. -1.
         -4    1    1    2    0  501 -0.21315929040E+02  0.12518443270E+02  0.56400635462E+02  0.61580126123E+02  0.00000000000E+00 0.  1.
<mgrwt>
<rscale>  0 0.49378863E+02</rscale>
<asrwt>0</asrwt>
<pdfrwt beam="2">  1        2 0.38748859E+00 0.98635453E+02</pdfrwt>
<pdfrwt beam="1">  1       -3 0.44992734E-01 0.24720037E+02</pdfrwt>
<totfact> 0.11801611E+01</totfact>
</mgrwt>
</event>
<event>
13    1  0.1675423E-008  0.1287988E+03  0.7546771E-02  0.1291916E+00
         -3   -1    0    0    0  501 -0.00000000000E+00  0.00000000000E+00  0.22759642891E+04  0.22759642891E+04  0.00000000000E+00 0.  1.
          2   -1    0    0  503    0  0.00000000000E+00 -0.00000000000E+00 -0.36546504613E+04  0.36546504613E+04  0.00000000000E+00 0. -1.
         24    2    1    2    0    0 -0.10962681996E+03 -0.50604972590E+02 -0.12709621496E+04  0.12791573218E+04  0.79496951662E+02 0.  0.
         25    2    1    2    0    0  0.35803612629E+03  0.12992186962E+03 -0.30984276562E+03  0.50665347757E+03  0.12500258794E+03 0.  0.
         24    2    1    2    0    0  0.17396410609E+02 -0.14705431231E+02  0.47241340877E+03  0.47993864465E+03  0.81533974719E+02 0.  0.
        -11    1    5    5    0    0  0.45845138477E+01 -0.47640955608E+02  0.31436249800E+03  0.31798499740E+03  0.00000000000E+00 0.  1.
         12    1    5    5    0    0  0.12811896761E+02  0.32935524378E+02  0.15805091077E+03  0.16195364725E+03  0.00000000000E+00 0. -1.
        -13    1    3    3    0    0 -0.83854418725E+02 -0.58243116496E+02 -0.11771719834E+04  0.11815911741E+04  0.00000000000E+00 0.  1.
         14    1    3    3    0    0 -0.25772401234E+02  0.76381439060E+01 -0.93790166209E+02  0.97566147742E+02  0.00000000000E+00 0. -1.
          5    1    4    4  502    0  0.11717556646E+03  0.96242701378E+02 -0.77862647160E+02  0.17052112117E+03  0.47000000000E+01 0.  1.
         -5    1    4    4    0  502  0.24086055983E+03  0.33679168239E+02 -0.23198011846E+03  0.33613235639E+03  0.47000000000E+01 0.  1.
          1    1    1    2  503    0 -0.66623248897E+02 -0.20094707326E+02 -0.19608249567E+04  0.19620593685E+04  0.00000000000E+00 0. -1.
         -4    1    1    2    0  501 -0.19918246804E+03 -0.44516758470E+02  0.16905302909E+04  0.17028059378E+04  0.00000000000E+00 0.  1.
<mgrwt>
<rscale>  0 0.94672177E+02</rscale>
<asrwt>0</asrwt>
<pdfrwt beam="2">  1        2 0.53744859E+00 0.69587747E+02</pdfrwt>
<pdfrwt beam="1">  1       -3 0.33470064E+00 0.12879884E+03</pdfrwt>
<totfact> 0.24740605E-02</totfact>
</mgrwt>
</event>
<event>
13    1  0.1675423E-008  0.1509426E+03  0.7546771E-02  0.1240868E+00
          2   -1    0    0  502    0  0.00000000000E+00  0.00000000000E+00  0.15819921455E+04  0.15819921455E+04  0.00000000000E+00 0. -1.
          2   -1    0    0  503    0 -0.00000000000E+00 -0.00000000000E+00 -0.25515986129E+04  0.25515986129E+04  0.00000000000E+00 0. -1.
         24    2    1    2    0    0  0.14146586941E+03  0.37513778821E+02  0.13800166985E+03  0.21708202855E+03  0.81610479901E+02 0.  0.
         25    2    1    2    0    0  0.64631894897E+02 -0.55637333281E+02 -0.78551241156E+03  0.79995456591E+03  0.12499905649E+03 0.  0.
         24    2    1    2    0    0 -0.22134893951E+02 -0.14852635802E+03  0.48636051028E+03  0.51683183964E+03  0.89546479279E+02 0.  0.
        -11    1    5    5    0    0  0.10148943729E+02  0.82885593019E+01  0.21559539778E+02  0.25229249484E+02  0.00000000000E+00 0.  1.
         12    1    5    5    0    0 -0.32283837680E+02 -0.15681491733E+03  0.46480097050E+03  0.49160259016E+03  0.00000000000E+00 0. -1.
        -11    1    3    3    0    0  0.36977451439E+02 -0.21042967875E+01  0.86384470602E+02  0.93989556553E+02  0.00000000000E+00 0.  1.
         12    1    3    3    0    0  0.10448841797E+03  0.39618075609E+02  0.51617199252E+02  0.12309247200E+03  0.00000000000E+00 0. -1.
          5    1    4    4  501    0  0.45663026558E+02 -0.68294198399E+01 -0.80008068095E+02  0.92493966993E+02  0.47000000000E+01 0.  1.
         -5    1    4    4    0  501  0.18968868338E+02 -0.48807913441E+02 -0.70550434346E+03  0.70746059892E+03  0.47000000000E+01 0.  1.
          1    1    1    2  502    0 -0.90803272652E+02  0.13762137738E+03  0.88662986516E+03  0.90183002591E+03  0.00000000000E+00 0. -1.
          1    1    1    2  503    0 -0.93159597701E+02  0.29028535106E+02 -0.16950861011E+04  0.16978922983E+04  0.00000000000E+00 0. -1.
<mgrwt>
<rscale>  0 0.12136146E+03</rscale>
<asrwt>0</asrwt>
<pdfrwt beam="1">  1        2 0.23264590E+00 0.15094264E+03</pdfrwt>
<pdfrwt beam="2">  1        2 0.37523509E+00 0.97577490E+02</pdfrwt>
<totfact> 0.10869450E+01</totfact>
</mgrwt>
</event>
<event>
13    1  0.1675423E-008  0.1242266E+03  0.7546771E-02  0.1282976E+00
          2   -1    0    0  502    0  0.00000000000E+00  0.00000000000E+00  0.17790817731E+04  0.17790817731E+04  0.00000000000E+00 0. -1.
          2   -1    0    0  503    0 -0.00000000000E+00 -0.00000000000E+00 -0.20787238957E+04  0.20787238957E+04  0.00000000000E+00 0. -1.
         24    2    1    2    0    0  0.30422366925E+02 -0.39409356332E+02 -0.21681500749E+02  0.10836361245E+03  0.93776155033E+02 0.  0.
         25    2    1    2    0    0 -0.14316981575E+03  0.14851738193E+02 -0.36645690866E+03  0.41308118579E+03  0.12500891921E+03 0.  0.
         24    2    1    2    0    0 -0.33308644642E+02  0.17165655057E+02  0.72950123294E+01  0.10168099806E+03  0.94242679509E+02 0.  0.
        -11    1    5    5    0    0 -0.28393556044E+02  0.55318867390E+02  0.10574716049E+02  0.63072939789E+02  0.00000000000E+00 0.  1.
         12    1    5    5    0    0 -0.49150885975E+01 -0.38153212333E+02 -0.32797037194E+01  0.38608058275E+02  0.00000000000E+00 0. -1.
        -11    1    3    3    0    0  0.62507023018E+02 -0.12679152457E+02 -0.18850586445E+02  0.66507393897E+02  0.00000000000E+00 0.  1.
         12    1    3    3    0    0 -0.32084656093E+02 -0.26730203875E+02 -0.28309143041E+01  0.41856218554E+02  0.00000000000E+00 0. -1.
          5    1    4    4  501    0 -0.13043354963E+03 -0.84551404077E+01 -0.16854562483E+03  0.21334038042E+03  0.47000000000E+01 0. -1.
         -5    1    4    4    0  501 -0.12736266125E+02  0.23306878601E+02 -0.19791128383E+03  0.19974080537E+03  0.47000000000E+01 0. -1.
          1    1    1    2  502    0  0.10140249351E+03  0.71925829230E+02  0.16546307096E+04  0.16592946018E+04  0.00000000000E+00 0. -1.
          1    1    1    2  503    0  0.44653599960E+02 -0.64533866148E+02 -0.15734294351E+04  0.15753852706E+04  0.00000000000E+00 0. -1.
<mgrwt>
<rscale>  0 0.98736383E+02</rscale>
<asrwt>0</asrwt>
<pdfrwt beam="1">  1        2 0.26162967E+00 0.12422663E+03</pdfrwt>
<pdfrwt beam="2">  1        2 0.30569469E+00 0.78476518E+02</pdfrwt>
<totfact> 0.15410501E+01</totfact>
</mgrwt>
</event>
<event>
13    1  0.1675423E-008  0.2725933E+02  0.7546771E-02  0.1658489E+00
          2   -1    0    0  502    0  0.00000000000E+00  0.00000000000E+00  0.30247671678E+04  0.30247671678E+04  0.00000000000E+00 0. -1.
          4   -1    0    0  503    0 -0.00000000000E+00 -0.00000000000E+00 -0.14447724652E+04  0.14447724652E+04  0.00000000000E+00 0. -1.
         24    2    1    2    0    0  0.11003920716E+02  0.30937004111E+02  0.66598744410E+03  0.67146111868E+03  0.79009959589E+02 0.  0.
         25    2    1    2    0    0  0.24951757930E+02 -0.83087965115E+02  0.64242449945E+03  0.66019720620E+03  0.12499965365E+03 0.  0.
         24    2    1    2    0    0  0.57178490683E+01  0.62677894889E+02 -0.51983771084E+03  0.52990390039E+03  0.81275369786E+02 0.  0.
        -11    1    3    3    0    0  0.37144455671E+02  0.41729759504E+02  0.38104464830E+03  0.38511830314E+03  0.00000000000E+00 0.  1.
         12    1    3    3    0    0 -0.26140534955E+02 -0.10792755393E+02  0.28494279580E+03  0.28634281555E+03  0.00000000000E+00 0. -1.
        -11    1    5    5    0    0  0.79496930493E+01 -0.19050102780E+02 -0.87329328149E+02  0.89735809967E+02  0.00000000000E+00 0.  1.
         12    1    5    5    0    0 -0.22318439810E+01  0.81727997668E+02 -0.43250838269E+03  0.44016809042E+03  0.00000000000E+00 0. -1.
          5    1    4    4  501    0  0.12295964453E+02  0.31982416616E+02  0.19328115858E+03  0.19635111911E+03  0.47000000000E+01 0.  1.
         -5    1    4    4    0  501  0.12655793477E+02 -0.11507038173E+03  0.44914334087E+03  0.46384608709E+03  0.47000000000E+01 0.  1.
          1    1    1    2  502    0 -0.19884401432E+02 -0.18643138487E+02  0.16994408250E+04  0.16996593994E+04  0.00000000000E+00 0. -1.
          3    1    1    2  503    0 -0.21789126282E+02  0.81162046035E+01 -0.90802035518E+03  0.90831800832E+03  0.00000000000E+00 0. -1.
<mgrwt>
<rscale>  0 0.25175863E+02</rscale>
<asrwt>0</asrwt>
<pdfrwt beam="1">  1        2 0.44481870E+00 0.27259327E+02</pdfrwt>
<pdfrwt beam="2">  1        4 0.21246654E+00 0.23251641E+02</pdfrwt>
<totfact> 0.22721732E-01</totfact>
</mgrwt>
</event>
<event>
13    1  0.1675423E-008  0.2317813E+03  0.7546771E-02  0.1199344E+00
          2   -1    0    0  502    0  0.00000000000E+00  0.00000000000E+00  0.46553908467E+03  0.46553908467E+03  0.00000000000E+00 0. -1.
          2   -1    0    0  503    0 -0.00000000000E+00 -0.00000000000E+00 -0.26691471512E+04  0.26691471512E+04  0.00000000000E+00 0. -1.
         24    2    1    2    0    0  0.10645779870E+03  0.14270020712E+03  0.53675607508E+02  0.20129180159E+03  0.77075978953E+02 0.  0.
         25    2    1    2    0    0 -0.45087968520E+03  0.13386396103E+03 -0.99109688056E+03  0.11041337502E+04  0.12500504396E+03 0.  0.
         24    2    1    2    0    0  0.13552525753E+03 -0.17120086598E+02 -0.73716560773E+03  0.75357163233E+03  0.76137238145E+02 0.  0.
        -11    1    3    3    0    0  0.11316647897E+03  0.10226025113E+03  0.48053375155E+02  0.15991540822E+03  0.00000000000E+00 0.  1.
         12    1    3    3    0    0 -0.67086802723E+01  0.40439955993E+02  0.56222323537E+01  0.41376393371E+02  0.00000000000E+00 0. -1.
        -13    1    5    5    0    0  0.84001591969E+01  0.13262376830E+02 -0.25068530057E+02  0.29578446763E+02  0.00000000000E+00 0.  1.
         14    1    5    5    0    0  0.12712509834E+03 -0.30382463428E+02 -0.71209707768E+03  0.72399318557E+03  0.00000000000E+00 0. -1.
          5    1    4    4  501    0 -0.13417461630E+03 -0.29897479640E+00 -0.19341619140E+03  0.23544602384E+03  0.47000000000E+01 0. -1.
         -5    1    4    4    0  501 -0.31670506890E+03  0.13416293582E+03 -0.79768068916E+03  0.86868772633E+03  0.47000000000E+01 0. -1.
          1    1    1    2  502    0  0.15413586527E+03 -0.17784323046E+03  0.21885875301E+03  0.32138020062E+03  0.00000000000E+00 0. -1.
          1    1    1    2  503    0  0.54760763689E+02 -0.81600851084E+02 -0.74787993875E+03  0.75430885115E+03  0.00000000000E+00 0. -1.
<mgrwt>
<rscale>  0 0.15092274E+03</rscale>
<asrwt>0</asrwt>
<pdfrwt beam="1">  1        2 0.68461631E-01 0.23178128E+03</pdfrwt>
<pdfrwt beam="2">  1        2 0.39252163E+00 0.98272276E+02</pdfrwt>
<totfact> 0.47569220E+01</totfact>
</mgrwt>
</event>
<event>
13    1  0.1675423E-008  0.1809751E+03  0.7546771E-02  0.1221823E+00
          2   -1    0    0  502    0  0.00000000000E+00  0.00000000000E+00  0.19230782393E+04  0.19230782393E+04  0.00000000000E+00 0. -1.
          2   -1    0    0  503    0 -0.00000000000E+00 -0.00000000000E+00 -0.59951794422E+03  0.59951794422E+03  0.00000000000E+00 0. -1.
         24    2    1    2    0    0  0.23461354572E+02  0.59763843736E+02  0.70563552993E+03  0.71264559047E+03  0.76289477244E+02 0.  0.
         25    2    1    2    0    0 -0.12167108329E+03  0.29786989416E+03  0.42359829705E+01  0.34521621483E+03  0.12500386024E+03 0.  0.
         24    2    1    2    0    0 -0.11315221150E+02 -0.11535056376E+03  0.27457189943E+03  0.30860529675E+03  0.80085669351E+02 0.  0.
        -11    1    3    3    0    0 -0.27399357231E+02  0.16466009485E+02  0.18478271951E+03  0.18752735180E+03  0.00000000000E+00 0.  1.
         12    1    3    3    0    0  0.50860711803E+02  0.43297834251E+02  0.52085281042E+03  0.52511823867E+03  0.00000000000E+00 0. -1.
        -13    1    5    5    0    0  0.30987313433E+02 -0.50340092083E+02  0.15694543505E+03  0.16770869997E+03  0.00000000000E+00 0.  1.
         14    1    5    5    0    0 -0.42302534583E+02 -0.65010471672E+02  0.11762646439E+03  0.14089659678E+03  0.00000000000E+00 0. -1.
          5    1    4    4  501    0  0.25363094313E+02  0.60768401481E+02  0.47182854208E+01  0.66184872811E+02  0.47000000000E+01 0.  1.
         -5    1    4    4    0  501 -0.14703417760E+03  0.23710149268E+03 -0.48230245031E+00  0.27903134202E+03  0.47000000000E+01 0.  1.
          1    1    1    2  502    0  0.45618105685E+02 -0.87893443156E+02  0.72703811225E+03  0.73375110601E+03  0.00000000000E+00 0. -1.
          1    1    1    2  503    0  0.63906844184E+02 -0.15438973099E+03 -0.38792122955E+03  0.42237797540E+03  0.00000000000E+00 0. -1.
<mgrwt>
<rscale>  0 0.13387066E+03</rscale>
<asrwt>0</asrwt>
<pdfrwt beam="1">  1        2 0.28280562E+00 0.99026607E+02</pdfrwt>
<pdfrwt beam="2">  1        2 0.88164404E-01 0.18097514E+03</pdfrwt>
<totfact> 0.83441603E+01</totfact>
</mgrwt>
</event>
<event>
13    1  0.1675423E-008  0.1110623E+03  0.7546771E-02  0.1304611E+00
          2   -1    0    0  503    0  0.00000000000E+00  0.00000000000E+00  0.20592608231E+04  0.20592608231E+04  0.00000000000E+00 0. -1.
          2   -1    0    0  502    0 -0.00000000000E+00 -0.00000000000E+00 -0.10677413994E+04  0.10677413994E+04  0.00000000000E+00 0. -1.
         24    2    1    2    0    0  0.13246816016E+03  0.11125704575E+03  0.27771338724E+03  0.33686780494E+03  0.80182597062E+02 0.  0.
         25    2    1    2    0    0  0.43917367168E+01  0.51747479588E+01 -0.46345141892E+03  0.48006096651E+03  0.12500099399E+03 0.  0.
         24    2    1    2    0    0 -0.48824415801E+02  0.37128141578E+02 -0.10593859224E+03  0.14676630822E+03  0.80963210338E+02 0.  0.
        -13    1    3    3    0    0  0.45984550750E+02  0.27602180089E+02  0.29938729415E+02  0.61423015005E+02  0.00000000000E+00 0.  1.
         14    1    3    3    0    0  0.86483609407E+02  0.83654865665E+02  0.24777465782E+03  0.27544478994E+03  0.00000000000E+00 0. -1.
        -13    1    5    5    0    0  0.86178190077E+00 -0.22918763801E+02 -0.31721461102E+02  0.39144137449E+02  0.00000000000E+00 0.  1.
         14    1    5    5    0    0 -0.49686197702E+02  0.60046905379E+02 -0.74217131139E+02  0.10762217077E+03  0.00000000000E+00 0. -1.
          5    1    4    4  501    0 -0.19089340470E+02 -0.33117659650E+02 -0.40177462194E+03  0.40361630187E+03  0.47000000000E+01 0. -1.
         -5    1    4    4    0  501  0.23481077187E+02  0.38292407608E+02 -0.61676796985E+02  0.76444664644E+02  0.47000000000E+01 0. -1.
          1    1    1    2  502    0 -0.53075456693E+02 -0.48303990242E+02 -0.43533007500E+03  0.44120579527E+03  0.00000000000E+00 0. -1.
          1    1    1    2  503    0 -0.34960024379E+02 -0.10525594505E+03  0.17185261226E+04  0.17221013476E+04  0.00000000000E+00 0. -1.
<mgrwt>
<rscale>  0 0.89277278E+02</rscale>
<asrwt>0</asrwt>
<pdfrwt beam="1">  1        2 0.30283247E+00 0.11106225E+03</pdfrwt>
<pdfrwt beam="2">  1        2 0.15702079E+00 0.71765448E+02</pdfrwt>
<totfact> 0.36146225E+01</totfact>
</mgrwt>
</event>
<event>
13    1  0.1675423E-008  0.2015112E+03  0.7546771E-02  0.1259312E+00
          2   -1    0    0  503    0  0.00000000000E+00  0.00000000000E+00  0.35451856526E+04  0.35451856526E+04  0.00000000000E+00 0. -1.
          2   -1    0    0  502    0 -0.00000000000E+00 -0.00000000000E+00 -0.96139438373E+03  0.96139438373E+03  0.00000000000E+00 0. -1.
         24    2    1    2    0    0  0.15201903954E+03  0.21584532339E+02  0.46224536716E+03  0.49341500534E+03  0.78815655866E+02 0.  0.
         25    2    1    2    0    0 -0.24411990922E+03 -0.36615820686E+03 -0.43832137743E+03  0.63357424629E+03  0.12499733247E+03 0.  0.
         24    2    1    2    0    0  0.89926737976E+02  0.89309576072E+02  0.14969121103E+02  0.15039044820E+03  0.79562514676E+02 0.  0.
        -11    1    5    5    0    0  0.14036526445E+02  0.69635058698E+02  0.31496881633E+01  0.71105456964E+02  0.00000000000E+00 0.  1.
         12    1    5    5    0    0  0.75890211530E+02  0.19674517374E+02  0.11819432940E+02  0.79284991234E+02  0.00000000000E+00 0. -1.
        -13    1    3    3    0    0  0.16990017395E+01  0.13472715883E+02  0.10260446338E+02  0.17019913021E+02  0.00000000000E+00 0.  1.
         14    1    3    3    0    0  0.15032003780E+03  0.81118164561E+01  0.45198492083E+03  0.47639509232E+03  0.00000000000E+00 0. -1.
          5    1    4    4  501    0 -0.88626065285E+02 -0.43287558932E+02 -0.10499507567E+03  0.14413343859E+03  0.47000000000E+01 0. -1.
         -5    1    4    4    0  501 -0.15549384394E+03 -0.32287064793E+03 -0.33332630176E+03  0.48944080770E+03  0.47000000000E+01 0. -1.
          1    1    1    2  502    0  0.34555234354E+01  0.19448456890E+03 -0.31415600761E+03  0.36949991245E+03  0.00000000000E+00 0. -1.
          1    1    1    2  503    0 -0.12813917249E+01  0.60779529545E+02  0.28590541656E+04  0.28597004240E+04  0.00000000000E+00 0. -1.
<mgrwt>
<rscale>  0 0.11068188E+03</rscale>
<asrwt>0</asrwt>
<pdfrwt beam="1">  1        2 0.52135083E+00 0.60793036E+02</pdfrwt>
<pdfrwt beam="2">  1        2 0.14138153E+00 0.20151122E+03</pdfrwt>
<totfact> 0.73279707E+00</totfact>
</mgrwt>
</event>
<event>
13    1  0.1675423E-008  0.1115000E+03  0.7546771E-02  0.1276723E+00
         -1   -1    0    0    0  501 -0.00000000000E+00  0.00000000000E+00  0.91127457966E+03  0.91127457966E+03  0.00000000000E+00 0.  1.
          2   -1    0    0  503    0  0.00000000000E+00 -0.00000000000E+00 -0.27867479538E+04  0.27867479538E+04  0.00000000000E+00 0. -1.
         24    2    1    2    0    0 -0.65524733673E+02 -0.24737024064E+03 -0.11796513044E+04  0.12093975352E+04  0.74697199254E+02 0.  0.
         25    2    1    2    0    0 -0.22144894539E+02  0.25213195056E+03  0.14403093727E+03  0.31690815277E+03  0.12499979822E+03 0.  0.
         24    2    1    2    0    0  0.47716252451E+02 -0.45488936325E+02 -0.99771649971E+02  0.14430740651E+03  0.80772280881E+02 0.  0.
        -11    1    5    5    0    0 -0.21763714793E+02 -0.20192827865E+02 -0.21666830683E+02  0.36754062777E+02  0.00000000000E+00 0.  1.
         12    1    5    5    0    0  0.69479967244E+02 -0.25296108460E+02 -0.78104819288E+02  0.10755334373E+03  0.00000000000E+00 0. -1.
        -13    1    3    3    0    0  0.14542990286E+02 -0.39663314584E+02 -0.24400778344E+03  0.24763779087E+03  0.00000000000E+00 0.  1.
         14    1    3    3    0    0 -0.80067723959E+02 -0.20770692605E+03 -0.93564352092E+03  0.96175974432E+03  0.00000000000E+00 0. -1.
          5    1    4    4  502    0 -0.64645479274E+01  0.20922520142E+03  0.54607014414E+02  0.21638158727E+03  0.47000000000E+01 0.  1.
         -5    1    4    4    0  502 -0.15680346612E+02  0.42906749146E+02  0.89423922858E+02  0.10052656550E+03  0.47000000000E+01 0.  1.
          1    1    1    2  503    0 -0.54219944065E+02  0.10067064143E+03 -0.13765168577E+04  0.13812577746E+04  0.00000000000E+00 0. -1.
         -2    1    1    2    0  501  0.94173319826E+02 -0.59943415034E+02  0.63643550052E+03  0.64615166447E+03  0.00000000000E+00 0.  1.
<mgrwt>
<rscale>  0 0.10171859E+03</rscale>
<asrwt>0</asrwt>
<pdfrwt beam="2">  1        2 0.40981588E+00 0.92795276E+02</pdfrwt>
<pdfrwt beam="1">  1       -1 0.13401097E+00 0.11149999E+03</pdfrwt>
<totfact> 0.23231003E+00</totfact>
</mgrwt>
</event>
<event>
13    1  0.1675423E-008  0.9572123E+02  0.7546771E-02  0.1291571E+00
          2   -1    0    0  502    0  0.00000000000E+00  0.00000000000E+00  0.34134341775E+04  0.34134341775E+04  0.00000000000E+00 0. -1.
          2   -1    0    0  503    0 -0.00000000000E+00 -0.00000000000E+00 -0.74631951640E+03  0.74631951640E+03  0.00000000000E+00 0. -1.
         24    2    1    2    0    0  0.33178590680E+02  0.34932123123E+01  0.17775235051E+03  0.19787278211E+03  0.80279003341E+02 0.  0.
         25    2    1    2    0    0  0.10517758053E+03  0.10911197354E+03  0.67791354908E+02  0.20781830579E+03  0.12500013682E+03 0.  0.
         24    2    1    2    0    0  0.92911033089E+02  0.76369190609E+01 -0.38196081336E+03  0.40117308456E+03  0.79718242755E+02 0.  0.
        -13    1    3    3    0    0  0.49944393457E+02 -0.23443480394E+02  0.11550948075E+03  0.12800968461E+03  0.00000000000E+00 0.  1.
         14    1    3    3    0    0 -0.16765802777E+02  0.26936692706E+02  0.62242869757E+02  0.69863097500E+02  0.00000000000E+00 0. -1.
        -13    1    5    5    0    0  0.98767196394E+02 -0.13345391437E+02 -0.28930628059E+03  0.30599212824E+03  0.00000000000E+00 0.  1.
         14    1    5    5    0    0 -0.58561633054E+01  0.20982310498E+02 -0.92654532775E+02  0.95180956322E+02  0.00000000000E+00 0. -1.
          5    1    4    4  501    0  0.55606270027E+02  0.15417384746E+02  0.82408088846E+02  0.10071214488E+03  0.47000000000E+01 0.  1.
         -5    1    4    4    0  501  0.49571310501E+02  0.93694588792E+02 -0.14616733938E+02  0.10710616091E+03  0.47000000000E+01 0.  1.
          1    1    1    2  502    0 -0.11041795146E+03 -0.73179139041E+02  0.30613898222E+04  0.30642543880E+04  0.00000000000E+00 0. -1.
          1    1    1    2  503    0 -0.12084925284E+03 -0.47062965870E+02 -0.25785805320E+03  0.28863513347E+03  0.00000000000E+00 0. -1.
<mgrwt>
<rscale>  0 0.94824950E+02</rscale>
<asrwt>0</asrwt>
<pdfrwt beam="1">  1        2 0.50197561E+00 0.95721233E+02</pdfrwt>
<pdfrwt beam="2">  1        2 0.10975287E+00 0.93937059E+02</pdfrwt>
<totfact> 0.11352062E+01</totfact>
</mgrwt>
</event>
<event>
13    1  0.1675423E-008  0.9871101E+02  0.7546771E-02  0.1424738E+00
          2   -1    0    0  502    0  0.00000000000E+00  0.00000000000E+00  0.20622017298E+04  0.20622017298E+04  0.00000000000E+00 0. -1.
          2   -1    0    0  503    0 -0.00000000000E+00 -0.00000000000E+00 -0.18790898608E+04  0.18790898608E+04  0.00000000000E+00 0. -1.
         24    2    1    2    0    0  0.63832436947E+02  0.19297578838E+02  0.71662839772E+03  0.72441950547E+03  0.82343080699E+02 0.  0.
         25    2    1    2    0    0 -0.82153162451E+02 -0.37086516638E+02  0.33473851542E+03  0.36850879931E+03  0.12499723856E+03 0.  0.
         24    2    1    2    0    0  0.33428472744E+02  0.86214778753E+02 -0.22643633469E+03  0.25769131452E+03  0.81123048788E+02 0.  0.
        -13    1    5    5    0    0 -0.26575936361E+02  0.21167048246E+02 -0.74038994601E+02  0.81462243072E+02  0.00000000000E+00 0.  1.
         14    1    5    5    0    0  0.60004409105E+02  0.65047730507E+02 -0.15239734009E+03  0.17622907145E+03  0.00000000000E+00 0. -1.
        -13    1    3    3    0    0  0.18642620072E+02 -0.31550784657E+02  0.19976437978E+03  0.20309802246E+03  0.00000000000E+00 0.  1.
         14    1    3    3    0    0  0.45189816875E+02  0.50848363494E+02  0.51686401793E+03  0.52132148302E+03  0.00000000000E+00 0. -1.
          5    1    4    4  501    0 -0.18161660528E+02  0.26542992429E+02  0.14188460532E+02  0.35465176899E+02  0.47000000000E+01 0. -1.
         -5    1    4    4    0  501 -0.63991501923E+02 -0.63629509067E+02  0.32055005488E+03  0.33304362241E+03  0.47000000000E+01 0. -1.
          1    1    1    2  502    0  0.14475638215E+02  0.25789880713E+02  0.97269326874E+03  0.97314277324E+03  0.00000000000E+00 0. -1.
          1    1    1    2  503    0 -0.29583385455E+02 -0.94215721666E+02 -0.16145119782E+04  0.16175291981E+04  0.00000000000E+00 0. -1.
<mgrwt>
<rscale>  0 0.54030984E+02</rscale>
<asrwt>0</asrwt>
<pdfrwt beam="1">  1        2 0.30326496E+00 0.29574686E+02</pdfrwt>
<pdfrwt beam="2">  1        2 0.27633674E+00 0.98711013E+02</pdfrwt>
<totfact> 0.16079231E+01</totfact>
</mgrwt>
</event>
<event>
13    1  0.1675423E-008  0.1019981E+03  0.7546771E-02  0.1283385E+00
          2   -1    0    0  502    0  0.00000000000E+00  0.00000000000E+00  0.16035865253E+04  0.16035865253E+04  0.00000000000E+00 0. -1.
          4   -1    0    0  503    0 -0.00000000000E+00 -0.00000000000E+00 -0.35991357715E+03  0.35991357715E+03  0.00000000000E+00 0. -1.
         24    2    1    2    0    0  0.53382448215E+02  0.31482752679E+02  0.41155637444E+03  0.42451481933E+03  0.83626150177E+02 0.  0.
         25    2    1    2    0    0  0.12491317001E+03 -0.56815581879E+02  0.66151825628E+02  0.19705692873E+03  0.12499623490E+03 0.  0.
         24    2    1    2    0    0  0.14142904898E+02  0.23039190131E+02  0.68010248833E+02  0.10783936118E+03  0.79202953440E+02 0.  0.
        -11    1    3    3    0    0 -0.10664852749E+02 -0.19226661600E+02  0.72800758643E+02  0.76048366580E+02  0.00000000000E+00 0.  1.
         12    1    3    3    0    0  0.64047300963E+02  0.50709414279E+02  0.33875561580E+03  0.34846645275E+03  0.00000000000E+00 0. -1.
        -13    1    5    5    0    0  0.39860718059E+02 -0.68209514823E+01  0.50551093614E+02  0.64736506617E+02  0.00000000000E+00 0.  1.
         14    1    5    5    0    0 -0.25717813161E+02  0.29860141613E+02  0.17459155219E+02  0.43102854568E+02  0.00000000000E+00 0. -1.
          5    1    4    4  501    0  0.73570671102E+02  0.22383353371E+02  0.67670368564E+02  0.10254280538E+03  0.47000000000E+01 0.  1.
         -5    1    4    4    0  501  0.51342498909E+02 -0.79198935250E+02 -0.15185429359E+01  0.94514123344E+02  0.47000000000E+01 0.  1.
          1    1    1    2  502    0 -0.83875937948E+02 -0.45398850385E+02  0.95040445381E+03  0.95517791767E+03  0.00000000000E+00 0. -1.
          3    1    1    2  503    0 -0.10856258518E+03  0.47692489455E+02 -0.25244995461E+03  0.27891107549E+03  0.00000000000E+00 0. -1.
<mgrwt>
<rscale>  0 0.98545549E+02</rscale>
<asrwt>0</asrwt>
<pdfrwt beam="1">  1        2 0.23582154E+00 0.95209901E+02</pdfrwt>
<pdfrwt beam="2">  1        4 0.52928468E-01 0.10199806E+03</pdfrwt>
<totfact> 0.24868732E+01</totfact>
</mgrwt>
</event>
<event>
13    1  0.1675423E-008  0.6673104E+02  0.7546771E-02  0.1432634E+00
          2   -1    0    0  502    0  0.00000000000E+00  0.00000000000E+00  0.92152374358E+03  0.92152374358E+03  0.00000000000E+00 0. -1.
          2   -1    0    0  503    0 -0.00000000000E+00 -0.00000000000E+00 -0.15961350278E+04  0.15961350278E+04  0.00000000000E+00 0. -1.
         24    2    1    2    0    0  0.50431815016E+00  0.42557134275E+02  0.15537239332E+03  0.18041059120E+03  0.81215988540E+02 0.  0.
         25    2    1    2    0    0  0.99363057128E+01 -0.35310637576E+02 -0.12099693523E+03  0.17779987675E+03  0.12500786590E+03 0.  0.
         24    2    1    2    0    0  0.92073407057E+02 -0.25556643664E+01  0.83287498481E+02  0.14814849254E+03  0.80790622787E+02 0.  0.
        -11    1    5    5    0    0  0.69943458160E+02 -0.38684278641E+02  0.58648939675E+02  0.99137575512E+02  0.00000000000E+00 0.  1.
         12    1    5    5    0    0  0.22129948897E+02  0.36128614275E+02  0.24638558806E+02  0.49010917025E+02  0.00000000000E+00 0. -1.
        -11    1    3    3    0    0  0.16849246188E+02 -0.16645724250E+02  0.17411520176E+02  0.29396228802E+02  0.00000000000E+00 0.  1.
         12    1    3    3    0    0 -0.16344928038E+02  0.59202858524E+02  0.13796087315E+03  0.15101436239E+03  0.00000000000E+00 0. -1.
          5    1    4    4  501    0  0.46400336571E+02 -0.43565758916E+02 -0.12455258006E+03  0.13995142651E+03  0.47000000000E+01 0.  1.
         -5    1    4    4    0  501 -0.36464030858E+02  0.82551213393E+01  0.35556448249E+01  0.37848450231E+02  0.47000000000E+01 0.  1.
          1    1    1    2  502    0 -0.63750455592E+02 -0.18653553636E+02  0.60739906841E+03  0.61102021567E+03  0.00000000000E+00 0. -1.
          1    1    1    2  503    0 -0.38763575328E+02  0.13962721304E+02 -0.13996733092E+04  0.14002795952E+04  0.00000000000E+00 0. -1.
<mgrwt>
<rscale>  0 0.52434968E+02</rscale>
<asrwt>0</asrwt>
<pdfrwt beam="1">  1        2 0.13551820E+00 0.66731037E+02</pdfrwt>
<pdfrwt beam="2">  1        2 0.23472574E+00 0.41201606E+02</pdfrwt>
<totfact> 0.80263904E+01</totfact>
</mgrwt>
</event>
<event>
13    1  0.1675423E-008  0.1373937E+03  0.7546771E-02  0.1338943E+00
          2   -1    0    0  503    0  0.00000000000E+00  0.00000000000E+00  0.15234839351E+04  0.15234839351E+04  0.00000000000E+00 0. -1.
          2   -1    0    0  502    0 -0.00000000000E+00 -0.00000000000E+00 -0.32277297840E+04  0.32277297840E+04  0.00000000000E+00 0. -1.
         24    2    1    2    0    0 -0.13026774923E+03 -0.24696772580E+03  0.15764564604E+03  0.33056649402E+03  0.80369852431E+02 0.  0.
         25    2    1    2    0    0 -0.42193421653E+02  0.27525475465E+03 -0.88587857470E+02  0.31783372783E+03  0.12500002107E+03 0.  0.
         24    2    1    2    0    0  0.31990439844E+02 -0.35140084187E+02  0.83386000531E+02  0.12523885527E+03  0.80457019741E+02 0.  0.
        -13    1    3    3    0    0 -0.44978173853E+02 -0.12885783598E+03  0.11580407499E+03  0.17899151321E+03  0.00000000000E+00 0.  1.
         14    1    3    3    0    0 -0.85289575373E+02 -0.11810988981E+03  0.41841571048E+02  0.15157498081E+03  0.00000000000E+00 0. -1.
        -13    1    5    5    0    0 -0.21043833123E+02 -0.10035682788E+02  0.44920803147E-01  0.23314370234E+02  0.00000000000E+00 0.  1.
         14    1    5    5    0    0  0.53034272967E+02 -0.25104401399E+02  0.83341079727E+02  0.10192448503E+03  0.00000000000E+00 0. -1.
          5    1    4    4  501    0 -0.77976061585E+02  0.20854923642E+03 -0.94157876788E+02  0.24178677787E+03  0.47000000000E+01 0.  1.
         -5    1    4    4    0  501  0.35782639932E+02  0.66705518231E+02  0.55700193181E+01  0.76046949959E+02  0.47000000000E+01 0.  1.
          1    1    1    2  502    0 -0.41513294152E+02  0.10091901777E+02 -0.29091640375E+04  0.29094777189E+04  0.00000000000E+00 0. -1.
          1    1    1    2  503    0  0.18198402519E+03 -0.32388464463E+01  0.10524743994E+04  0.10680969230E+04  0.00000000000E+00 0. -1.
<mgrwt>
<rscale>  0 0.76614513E+02</rscale>
<asrwt>0</asrwt>
<pdfrwt beam="1">  1        2 0.22404176E+00 0.13739371E+03</pdfrwt>
<pdfrwt beam="2">  1        2 0.47466614E+00 0.42722360E+02</pdfrwt>
<totfact> 0.59857520E+00</totfact>
</mgrwt>
</event>
<event>
13    1  0.1675423E-008  0.1087836E+03  0.7546771E-02  0.1279062E+00
          2   -1    0    0  502    0  0.00000000000E+00  0.00000000000E+00  0.17892053251E+04  0.17892053251E+04  0.00000000000E+00 0. -1.
          4   -1    0    0  503    0 -0.00000000000E+00 -0.00000000000E+00 -0.15368436957E+04  0.15368436957E+04  0.00000000000E+00 0. -1.
         24    2    1    2    0    0 -0.98279266884E+02 -0.45660986416E+02  0.17696524827E+03  0.22621810609E+03  0.90078812442E+02 0.  0.
         25    2    1    2    0    0 -0.25531160663E+03  0.33284411655E+03  0.78414003335E+02  0.44468473255E+03  0.12500613204E+03 0.  0.
         24    2    1    2    0    0  0.39816904318E+03 -0.13033676712E+03 -0.50761048314E+03  0.66330956407E+03  0.82370597825E+02 0.  0.
        -11    1    5    5    0    0  0.30798646812E+03 -0.74629260833E+02 -0.33820592189E+03  0.46347431074E+03  0.00000000000E+00 0.  1.
         12    1    5    5    0    0  0.90182575068E+02 -0.55707506285E+02 -0.16940456125E+03  0.19983525334E+03  0.00000000000E+00 0. -1.
        -13    1    3    3    0    0 -0.49196627332E+02 -0.66480261630E+02  0.77380142876E+02  0.11325908281E+03  0.00000000000E+00 0.  1.
         14    1    3    3    0    0 -0.49082639551E+02  0.20819275214E+02  0.99585105391E+02  0.11295902328E+03  0.00000000000E+00 0. -1.
          5    1    4    4  501    0 -0.17322393897E+03  0.30452034895E+03  0.55386298010E+02  0.35472370652E+03  0.47000000000E+01 0.  1.
         -5    1    4    4    0  501 -0.82087667663E+02  0.28323767592E+02  0.23027705325E+02  0.89961026036E+02  0.47000000000E+01 0.  1.
          1    1    1    2  502    0 -0.81785495538E+02 -0.71600787298E+02  0.12429249345E+04  0.12476689997E+04  0.00000000000E+00 0. -1.
          3    1    1    2  503    0  0.37207325868E+02 -0.85245575712E+02 -0.73833207361E+03  0.74416761834E+03  0.00000000000E+00 0. -1.
<mgrwt>
<rscale>  0 0.10058904E+03</rscale>
<asrwt>0</asrwt>
<pdfrwt beam="1">  1        2 0.26311843E+00 0.10878358E+03</pdfrwt>
<pdfrwt beam="2">  1        4 0.22600643E+00 0.93011791E+02</pdfrwt>
<totfact> 0.62242293E-01</totfact>
</mgrwt>
</event>
<event>
13    1  0.1675423E-008  0.2523298E+03  0.7546771E-02  0.1257433E+00
          2   -1    0    0  502    0  0.00000000000E+00  0.00000000000E+00  0.10374533023E+04  0.10374533023E+04  0.00000000000E+00 0. -1.
          2   -1    0    0  503    0 -0.00000000000E+00 -0.00000000000E+00 -0.88065636170E+03  0.88065636170E+03  0.00000000000E+00 0. -1.
         24    2    1    2    0    0  0.13585404763E+03 -0.15689442947E+03 -0.11125019754E+03  0.24901235937E+03  0.80983729310E+02 0.  0.
         25    2    1    2    0    0  0.26022717149E+03 -0.51432288812E+02  0.29874314510E+03  0.41861222002E+03  0.12500105158E+03 0.  0.
         24    2    1    2    0    0 -0.88973517364E+02  0.11588496590E+03 -0.19442214756E+03  0.25635030881E+03  0.81054902677E+02 0.  0.
        -11    1    3    3    0    0  0.42465422028E+02 -0.16412903816E+02  0.24311848304E+01  0.45591733235E+02  0.00000000000E+00 0.  1.
         12    1    3    3    0    0  0.93388625602E+02 -0.14048152565E+03 -0.11368138237E+03  0.20342062614E+03  0.00000000000E+00 0. -1.
        -13    1    5    5    0    0 -0.33575767497E+02 -0.47108042991E+01 -0.32188230636E+02  0.46750465577E+02  0.00000000000E+00 0.  1.
         14    1    5    5    0    0 -0.55397749868E+02  0.12059577020E+03 -0.16223391693E+03  0.20959984323E+03  0.00000000000E+00 0. -1.
          5    1    4    4  501    0  0.26811881967E+03 -0.63161466238E+02  0.26750119757E+03  0.38400006898E+03  0.47000000000E+01 0.  1.
         -5    1    4    4    0  501 -0.78916481819E+01  0.11729177426E+02  0.31241947532E+02  0.34612151042E+02  0.47000000000E+01 0.  1.
          1    1    1    2  502    0  0.30758305152E+02 -0.38728593398E+02  0.49837960862E+03  0.50082752677E+03  0.00000000000E+00 0. -1.
          1    1    1    2  503    0 -0.33786600691E+03  0.13117034578E+03 -0.33465346805E+03  0.49330724900E+03  0.00000000000E+00 0. -1.
<mgrwt>
<rscale>  0 0.11171137E+03</rscale>
<asrwt>0</asrwt>
<pdfrwt beam="1">  1        2 0.15256666E+00 0.49456822E+02</pdfrwt>
<pdfrwt beam="2">  1        2 0.12950829E+00 0.25232979E+03</pdfrwt>
<totfact> 0.15053013E+02</totfact>
</mgrwt>
</event>
<event>
13    1  0.1675423E-008  0.1375597E+03  0.7546771E-02  0.1262005E+00
          2   -1    0    0  503    0  0.00000000000E+00  0.00000000000E+00  0.21619881863E+04  0.21619881863E+04  0.00000000000E+00 0. -1.
          2   -1    0    0  502    0 -0.00000000000E+00 -0.00000000000E+00 -0.25245306778E+04  0.25245306778E+04  0.00000000000E+00 0. -1.
         24    2    1    2    0    0 -0.75986029964E+02 -0.83484884344E+02  0.35045724729E+03  0.37748300953E+03  0.83243844477E+02 0.  0.
         25    2    1    2    0    0 -0.35002855539E+02  0.27866805419E+02 -0.94199274800E+03  0.95130238809E+03  0.12499655021E+03 0.  0.
         24    2    1    2    0    0  0.55727461243E+02  0.39162702473E+02  0.11695154304E+03  0.15700409281E+03  0.79582375801E+02 0.  0.
        -11    1    5    5    0    0  0.47820092958E+02  0.63282097088E+02  0.86501514403E+02  0.11736224732E+03  0.00000000000E+00 0.  1.
         12    1    5    5    0    0  0.79073682853E+01 -0.24119394614E+02  0.30450028635E+02  0.39641845488E+02  0.00000000000E+00 0. -1.
        -11    1    3    3    0    0 -0.53558900915E+02 -0.50698819261E+02  0.10199032985E+03  0.12586084984E+03  0.00000000000E+00 0.  1.
         12    1    3    3    0    0 -0.22427129049E+02 -0.32786065083E+02  0.24846691744E+03  0.25162215968E+03  0.00000000000E+00 0. -1.
          5    1    4    4  501    0 -0.61902959403E+02 -0.27723022595E+02 -0.39430298523E+03  0.40012182711E+03  0.47000000000E+01 0. -1.
         -5    1    4    4    0  501  0.26900103864E+02  0.55589828014E+02 -0.54768976277E+03  0.55118056099E+03  0.47000000000E+01 0. -1.
          1    1    1    2  502    0 -0.83040803449E+02  0.25035088471E+02 -0.15402237264E+04  0.15426638188E+04  0.00000000000E+00 0. -1.
          1    1    1    2  503    0  0.13830222771E+03 -0.85797120195E+01  0.16522651925E+04  0.16580655548E+04  0.00000000000E+00 0. -1.
<mgrwt>
<rscale>  0 0.10922867E+03</rscale>
<asrwt>0</asrwt>
<pdfrwt beam="1">  1        2 0.31793944E+00 0.13755972E+03</pdfrwt>
<pdfrwt beam="2">  1        2 0.37125451E+00 0.86732524E+02</pdfrwt>
<totfact> 0.59588735E+00</totfact>
</mgrwt>
</event>
<event>
13    1  0.1675423E-008  0.1276942E+03  0.7546771E-02  0.1325466E+00
          2   -1    0    0  502    0  0.00000000000E+00  0.00000000000E+00  0.19898159386E+04  0.19898159386E+04  0.00000000000E+00 0. -1.
          2   -1    0    0  503    0 -0.00000000000E+00 -0.00000000000E+00 -0.65979077210E+03  0.65979077210E+03  0.00000000000E+00 0. -1.
         24    2    1    2    0    0 -0.22431711107E+02  0.17458513235E+02  0.91923708004E+03  0.92311041353E+03  0.79549009404E+02 0.  0.
         25    2    1    2    0    0 -0.80603978218E+02 -0.93795088882E+02 -0.17453266965E+03  0.24775315442E+03  0.12500181098E+03 0.  0.
         24    2    1    2    0    0  0.50765286136E+02 -0.30083531872E+02  0.52871676179E+02  0.11286908102E+03  0.80385832974E+02 0.  0.
        -11    1    3    3    0    0  0.27427834400E+02 -0.41940925007E+01  0.42193036719E+03  0.42284170947E+03  0.00000000000E+00 0.  1.
         12    1    3    3    0    0 -0.49859545507E+02  0.21652605736E+02  0.49730671285E+03  0.50026870406E+03  0.00000000000E+00 0. -1.
        -11    1    5    5    0    0  0.62770564097E+02 -0.40832092319E+02  0.22004090074E+02  0.78048596786E+02  0.00000000000E+00 0.  1.
         12    1    5    5    0    0 -0.12005277961E+02  0.10748560447E+02  0.30867586106E+02  0.34820484238E+02  0.00000000000E+00 0. -1.
          5    1    4    4  501    0 -0.84081877492E+02 -0.18503783846E+02 -0.43637901477E+02  0.96635959065E+02  0.47000000000E+01 0. -1.
         -5    1    4    4    0  501  0.34778992742E+01 -0.75291305036E+02 -0.13089476817E+03  0.15111719536E+03  0.47000000000E+01 0. -1.
          1    1    1    2  502    0 -0.46324974242E+02  0.23027033831E+02  0.93842784700E+03  0.93985268609E+03  0.00000000000E+00 0. -1.
          1    1    1    2  503    0  0.98595377429E+02  0.83393073688E+02 -0.40597876707E+03  0.42602137564E+03  0.00000000000E+00 0. -1.
<mgrwt>
<rscale>  0 0.81276914E+02</rscale>
<asrwt>0</asrwt>
<pdfrwt beam="1">  1        2 0.29261999E+00 0.51732461E+02</pdfrwt>
<pdfrwt beam="2">  1        2 0.97028055E-01 0.12769423E+03</pdfrwt>
<totfact> 0.75064458E+01</totfact>
</mgrwt>
</event>
<event>
13    1  0.1675423E-008  0.1813465E+03  0.7546771E-02  0.1262291E+00
          2   -1    0    0  503    0  0.00000000000E+00  0.00000000000E+00  0.70715038046E+03  0.70715038046E+03  0.00000000000E+00 0. -1.
          2   -1    0    0  502    0 -0.00000000000E+00 -0.00000000000E+00 -0.14652394618E+04  0.14652394618E+04  0.00000000000E+00 0. -1.
         24    2    1    2    0    0  0.13744307331E+02 -0.55107088729E+02  0.91687304206E+02  0.13501279465E+03  0.81216967167E+02 0.  0.
         25    2    1    2    0    0 -0.19297482649E+03 -0.32211238848E+02 -0.59953332347E+03  0.64292013993E+03  0.12501701007E+03 0.  0.
         24    2    1    2    0    0 -0.16326624605E+03  0.16397326446E+03 -0.32057256666E+02  0.24724959445E+03  0.81003677042E+02 0.  0.
        -11    1    3    3    0    0  0.39408311802E+02 -0.15871838374E+02  0.14856574996E+02  0.45007200680E+02  0.00000000000E+00 0.  1.
         12    1    3    3    0    0 -0.25664004471E+02 -0.39235250355E+02  0.76830729210E+02  0.90005593975E+02  0.00000000000E+00 0. -1.
        -13    1    5    5    0    0 -0.49787134588E+02  0.10614705430E+03 -0.70524655209E+01  0.11745506876E+03  0.00000000000E+00 0.  1.
         14    1    5    5    0    0 -0.11347911147E+03  0.57826210162E+02 -0.25004791146E+02  0.12979452570E+03  0.00000000000E+00 0. -1.
          5    1    4    4  501    0 -0.20980172400E+03 -0.23855989686E+02 -0.56699466319E+03  0.60505446839E+03  0.47000000000E+01 0. -1.
         -5    1    4    4    0  501  0.16826897503E+02 -0.83552491617E+01 -0.32538660283E+02  0.37865671540E+02  0.47000000000E+01 0. -1.
          1    1    1    2  502    0  0.10167506898E+02 -0.64814106087E+02 -0.62123126259E+03  0.62468594363E+03  0.00000000000E+00 0. -1.
          1    1    1    2  503    0  0.33232925832E+03 -0.11840830796E+02  0.40304545714E+03  0.52252136964E+03  0.00000000000E+00 0. -1.
<mgrwt>
<rscale>  0 0.10907591E+03</rscale>
<asrwt>0</asrwt>
<pdfrwt beam="1">  1        2 0.10399270E+00 0.18134647E+03</pdfrwt>
<pdfrwt beam="2">  1        2 0.21547639E+00 0.65606757E+02</pdfrwt>
<totfact> 0.11869163E+02</totfact>
</mgrwt>
</event>
<event>
13    1  0.1675423E-008  0.1543224E+03  0.7546771E-02  0.1411492E+00
          2   -1    0    0  502    0  0.00000000000E+00  0.00000000000E+00  0.17896505630E+04  0.17896505630E+04  0.00000000000E+00 0. -1.
          2   -1    0    0  503    0 -0.00000000000E+00 -0.00000000000E+00 -0.49496969852E+04  0.49496969852E+04  0.00000000000E+00 0. -1.
         24    2    1    2    0    0  0.13717404608E+03 -0.26388436306E+03  0.50624856542E+02  0.31608377504E+03  0.94310130733E+02 0.  0.
         25    2    1    2    0    0 -0.26457660422E+03  0.11171303803E+03 -0.30513474695E+04  0.30673818751E+04  0.12501842189E+03 0.  0.
         24    2    1    2    0    0 -0.28777865692E+02  0.93974538894E+02 -0.23860397546E+03  0.27024546350E+03  0.80258170468E+02 0.  0.
        -13    1    3    3    0    0  0.53889529042E+01 -0.54000343309E+01  0.23466053754E+02  0.24675025085E+02  0.00000000000E+00 0.  1.
         14    1    3    3    0    0  0.13178509317E+03 -0.25848432873E+03  0.27158802788E+02  0.29140874996E+03  0.00000000000E+00 0. -1.
        -13    1    5    5    0    0 -0.11107188791E+02  0.10332328920E+03 -0.17452832801E+03  0.20312362987E+03  0.00000000000E+00 0.  1.
         14    1    5    5    0    0 -0.17670676901E+02 -0.93487503087E+01 -0.64075647444E+02  0.67121833630E+02  0.00000000000E+00 0. -1.
          5    1    4    4  501    0 -0.13639089322E+03 -0.68643914593E+01 -0.15088375193E+04  0.15150123251E+04  0.47000000000E+01 0.  1.
         -5    1    4    4    0  501 -0.12818571100E+03  0.11857742949E+03 -0.15425099502E+04  0.15523695500E+04  0.47000000000E+01 0.  1.
          1    1    1    2  502    0  0.13810515817E+03  0.68792042350E+02  0.15786241129E+04  0.15861461061E+04  0.00000000000E+00 0. -1.
          1    1    1    2  503    0  0.18075265659E+02 -0.10595256214E+02 -0.14993439467E+04  0.14994903284E+04  0.00000000000E+00 0. -1.
<mgrwt>
<rscale>  0 0.56862296E+02</rscale>
<asrwt>0</asrwt>
<pdfrwt beam="1">  1        2 0.26318390E+00 0.15432243E+03</pdfrwt>
<pdfrwt beam="2">  1        2 0.72789663E+00 0.20951723E+02</pdfrwt>
<totfact> 0.36048859E-01</totfact>
</mgrwt>
</event>
<event>
13    1  0.1675423E-008  0.7250516E+02  0.7546771E-02  0.1402098E+00
          2   -1    0    0  502    0  0.00000000000E+00  0.00000000000E+00  0.33448291870E+03  0.33448291870E+03  0.00000000000E+00 0. -1.
          2   -1    0    0  503    0 -0.00000000000E+00 -0.00000000000E+00 -0.51562084300E+04  0.51562084300E+04  0.00000000000E+00 0. -1.
         24    2    1    2    0    0  0.11749926120E+02 -0.19711011685E+03 -0.33783647280E+03  0.39936412030E+03  0.79798241252E+02 0.  0.
         25    2    1    2    0    0 -0.21996832413E+02  0.41165808778E+03 -0.27495365779E+04  0.27830779300E+04  0.12500051833E+03 0.  0.
         24    2    1    2    0    0 -0.57304485876E+02 -0.16729753931E+03 -0.31787867072E+03  0.37264095650E+03  0.80883634923E+02 0.  0.
        -11    1    5    5    0    0 -0.56342684592E+02 -0.10246451407E+03 -0.13496578140E+03  0.17857557756E+03  0.00000000000E+00 0.  1.
         12    1    5    5    0    0 -0.96180128408E+00 -0.64833025241E+02 -0.18291288932E+03  0.19406537894E+03  0.00000000000E+00 0. -1.
        -11    1    3    3    0    0  0.12485297572E+02 -0.20102370923E+03 -0.30012833155E+03  0.36144630269E+03  0.00000000000E+00 0.  1.
         12    1    3    3    0    0 -0.73537145174E+00  0.39135923811E+01 -0.37708141248E+02  0.37917817618E+02  0.00000000000E+00 0. -1.
          5    1    4    4  501    0 -0.17851201114E+02  0.35298372984E+03 -0.25674945005E+04  0.25917110716E+04  0.47000000000E+01 0.  1.
         -5    1    4    4    0  501 -0.41456312984E+01  0.58674357942E+02 -0.18204207745E+03  0.19136685842E+03  0.47000000000E+01 0.  1.
          1    1    1    2  502    0  0.72511123813E+02  0.49502782110E+00  0.25415149502E+03  0.26429356888E+03  0.00000000000E+00 0. -1.
          1    1    1    2  503    0 -0.49597316442E+01 -0.47745459443E+02 -0.16706252849E+04  0.16713147729E+04  0.00000000000E+00 0. -1.
<mgrwt>
<rscale>  0 0.58995081E+02</rscale>
<asrwt>0</asrwt>
<pdfrwt beam="1">  1        2 0.49188667E-01 0.72505156E+02</pdfrwt>
<pdfrwt beam="2">  1        2 0.75826591E+00 0.48002373E+02</pdfrwt>
<totfact> 0.15753796E+00</totfact>
</mgrwt>
</event>
<event>
13    1  0.1675423E-008  0.3382795E+02  0.7546771E-02  0.1590692E+00
          2   -1    0    0  502    0  0.00000000000E+00  0.00000000000E+00  0.53419336306E+03  0.53419336306E+03  0.00000000000E+00 0. -1.
          2   -1    0    0  503    0 -0.00000000000E+00 -0.00000000000E+00 -0.59602397053E+03  0.59602397053E+03  0.00000000000E+00 0. -1.
         24    2    1    2    0    0  0.16842711925E+02  0.13246033257E-01  0.14374264272E+03  0.16500956067E+03  0.79262416413E+02 0.  0.
         25    2    1    2    0    0  0.33608364562E+00  0.48779804007E+02  0.15005988769E+03  0.20126418471E+03  0.12493886474E+03 0.  0.
         24    2    1    2    0    0  0.81083516095E+01 -0.47662066251E+02 -0.19679627844E+03  0.21750302447E+03  0.79002357700E+02 0.  0.
        -11    1    3    3    0    0 -0.36123589706E+01 -0.37829302581E+02  0.65910129352E+02  0.76080552195E+02  0.00000000000E+00 0.  1.
         12    1    3    3    0    0  0.20455070895E+02  0.37842548615E+02  0.77832513370E+02  0.88929008476E+02  0.00000000000E+00 0. -1.
        -11    1    5    5    0    0  0.16426649406E+02  0.17499688435E+02 -0.79741684182E+02  0.83275507217E+02  0.00000000000E+00 0.  1.
         12    1    5    5    0    0 -0.83182977968E+01 -0.65161754686E+02 -0.11705459426E+03  0.13422751726E+03  0.00000000000E+00 0. -1.
          5    1    4    4  501    0  0.48624504272E+02 -0.39525099119E+01  0.20329465581E+02  0.53059795713E+02  0.47000000000E+01 0.  1.
         -5    1    4    4    0  501 -0.48288420626E+02  0.52732313919E+02  0.12973042211E+03  0.14820438900E+03  0.47000000000E+01 0.  1.
          1    1    1    2  502    0 -0.21322286249E+02  0.26409975488E+02  0.19176018649E+03  0.19474109946E+03  0.00000000000E+00 0. -1.
          1    1    1    2  503    0 -0.39648609303E+01 -0.27540959278E+02 -0.35059704593E+03  0.35169946428E+03  0.00000000000E+00 0. -1.
<mgrwt>
<rscale>  0 0.30679945E+02</rscale>
<asrwt>0</asrwt>
<pdfrwt beam="1">  1        2 0.78557848E-01 0.33827951E+02</pdfrwt>
<pdfrwt beam="2">  1        2 0.87650584E-01 0.27824891E+02</pdfrwt>
<totfact> 0.54503136E+02</totfact>
</mgrwt>
</event>
<event>
13    1  0.1675423E-008  0.7454425E+02  0.7546771E-02  0.1441054E+00
          2   -1    0    0  502    0  0.00000000000E+00  0.00000000000E+00  0.81259190728E+03  0.81259190728E+03  0.00000000000E+00 0. -1.
          2   -1    0    0  503    0 -0.00000000000E+00 -0.00000000000E+00 -0.17704300820E+04  0.17704300820E+04  0.00000000000E+00 0. -1.
         24    2    1    2    0    0 -0.98824888530E+02 -0.27450360765E+02  0.32721780057E+03  0.35214553430E+03  0.80094365693E+02 0.  0.
         25    2    1    2    0    0  0.48898775156E+01  0.60114147485E+02 -0.81010402007E+03  0.82190706308E+03  0.12500030152E+03 0.  0.
         24    2    1    2    0    0  0.30875611152E+02  0.36973032130E+02 -0.37873937734E+03  0.39009397327E+03  0.80059250350E+02 0.  0.
        -11    1    3    3    0    0  0.86184293643E+01  0.22802884685E+01  0.31767507959E+01  0.94640787098E+01  0.00000000000E+00 0.  1.
         12    1    3    3    0    0 -0.10744331789E+03 -0.29730649233E+02  0.32404104978E+03  0.34268145559E+03  0.00000000000E+00 0. -1.
        -11    1    5    5    0    0  0.40084839040E+02  0.57946509523E+02 -0.27931315769E+03  0.28806324366E+03  0.00000000000E+00 0.  1.
         12    1    5    5    0    0 -0.92092278876E+01 -0.20973477392E+02 -0.99426219644E+02  0.10203072961E+03  0.00000000000E+00 0. -1.
          5    1    4    4  501    0 -0.34097529958E+02 -0.10246333553E+02 -0.50716687783E+03  0.50843678159E+03  0.47000000000E+01 0.  1.
         -5    1    4    4    0  501  0.38987407474E+02  0.70360481038E+02 -0.30293714223E+03  0.31347028149E+03  0.47000000000E+01 0.  1.
          1    1    1    2  502    0  0.65716303909E+02 -0.35115006677E+02  0.45777891087E+03  0.46380300509E+03  0.00000000000E+00 0. -1.
          1    1    1    2  503    0 -0.26569040466E+01 -0.34521812174E+02 -0.55399148873E+03  0.55507241351E+03  0.00000000000E+00 0. -1.
<mgrwt>
<rscale>  0 0.50803668E+02</rscale>
<asrwt>0</asrwt>
<pdfrwt beam="1">  1        2 0.11949881E+00 0.74544245E+02</pdfrwt>
<pdfrwt beam="2">  1        2 0.26035737E+00 0.34623903E+02</pdfrwt>
<totfact> 0.78780819E+01</totfact>
</mgrwt>
</event>
<event>
13    1  0.1675423E-008  0.6750345E+02  0.7546771E-02  0.1394185E+00
          2   -1    0    0  502    0  0.00000000000E+00  0.00000000000E+00  0.44823641724E+03  0.44823641724E+03  0.00000000000E+00 0. -1.
          2   -1    0    0  503    0 -0.00000000000E+00 -0.00000000000E+00 -0.22288757882E+04  0.22288757882E+04  0.00000000000E+00 0. -1.
         24    2    1    2    0    0 -0.78768763933E+02 -0.19047087443E+03  0.31361575397E+03  0.38400088135E+03  0.81352096192E+02 0.  0.
         25    2    1    2    0    0  0.10659419725E+03  0.13347267584E+03 -0.74057687899E+03  0.77023374255E+03  0.12501450468E+03 0.  0.
         24    2    1    2    0    0 -0.42635688975E+02  0.34187418932E+02 -0.29295519681E+02  0.10147330763E+03  0.80324486305E+02 0.  0.
        -13    1    5    5    0    0  0.73748615687E+01 -0.11317890054E+02 -0.31022711462E+02  0.33836250456E+02  0.00000000000E+00 0.  1.
         14    1    5    5    0    0 -0.50010550544E+02  0.45505308986E+02  0.17271917817E+01  0.67637057173E+02  0.00000000000E+00 0. -1.
        -13    1    3    3    0    0 -0.98025005649E+01 -0.11681930697E+02 -0.13616781788E+01  0.15310476466E+02  0.00000000000E+00 0.  1.
         14    1    3    3    0    0 -0.68966263368E+02 -0.17878894374E+03  0.31497743215E+03  0.36869040488E+03  0.00000000000E+00 0. -1.
          5    1    4    4  501    0  0.10300055104E+03  0.87572738880E+02 -0.32418390756E+03  0.35127680542E+03  0.47000000000E+01 0. -1.
         -5    1    4    4    0  501  0.35936462137E+01  0.45899936962E+02 -0.41639297143E+03  0.41895693713E+03  0.47000000000E+01 0. -1.
          1    1    1    2  502    0 -0.52471296988E+02  0.16155963736E+02  0.31860352015E+02  0.63477036812E+02  0.00000000000E+00 0. -1.
          1    1    1    2  503    0  0.67281552646E+02  0.66548159221E+01 -0.13562430783E+04  0.13579272371E+04  0.00000000000E+00 0. -1.
<mgrwt>
<rscale>  0 0.60877651E+02</rscale>
<asrwt>0</asrwt>
<pdfrwt beam="1">  1        2 0.65917121E-01 0.54902206E+02</pdfrwt>
<pdfrwt beam="2">  1        2 0.32777585E+00 0.67503453E+02</pdfrwt>
<totfact> 0.86589890E+01</totfact>
</mgrwt>
</event>
<event>
13    1  0.2638827E-008  0.1384966E+03  0.7546771E-02  0.1274114E+00
          2   -1    0    0  502    0  0.00000000000E+00  0.00000000000E+00  0.18741317284E+04  0.18741317284E+04  0.00000000000E+00 0. -1.
          2   -1    0    0  503    0 -0.00000000000E+00 -0.00000000000E+00 -0.24592262823E+04  0.24592262823E+04  0.00000000000E+00 0. -1.
         24    2    1    2    0    0  0.67668756771E+02  0.74761778100E+02  0.17982800306E+04  0.18028735551E+04  0.79834850791E+02 0.  0.
         25    2    1    2    0    0 -0.15940817817E+03  0.59599303162E+02 -0.50258530807E+03  0.54514217307E+03  0.12499981106E+03 0.  0.
         24    2    1    2    0    0  0.32726415971E+02 -0.27009108571E+02 -0.58971769319E+02  0.10772214209E+03  0.79535401378E+02 0.  0.
        -13    1    3    3    0    0 -0.77449732638E+01  0.78489651686E+01  0.67190097595E+03  0.67199145258E+03  0.00000000000E+00 0.  1.
         14    1    3    3    0    0  0.75413730034E+02  0.66912812931E+02  0.11263790546E+04  0.11308821026E+04  0.00000000000E+00 0. -1.
        -13    1    5    5    0    0 -0.25510222446E+02 -0.12895298554E+02 -0.98334910089E+01  0.30228425686E+02  0.00000000000E+00 0.  1.
         14    1    5    5    0    0  0.58236638417E+02 -0.14113810017E+02 -0.49138278310E+02  0.77493716407E+02  0.00000000000E+00 0. -1.
          5    1    4    4  501    0 -0.91632785089E+02  0.90554563466E+02 -0.38351719949E+03  0.40460379209E+03  0.47000000000E+01 0. -1.
         -5    1    4    4    0  501 -0.67775393080E+02 -0.30955260304E+02 -0.11906810858E+03  0.14053838098E+03  0.47000000000E+01 0. -1.
          1    1    1    2  502    0  0.49840294758E+02  0.58166122125E+02 -0.36903713481E+02  0.85024918778E+02  0.00000000000E+00 0. -1.
          1    1    1    2  503    0  0.91727106694E+01 -0.16551809482E+03 -0.17849137935E+04  0.17925952216E+04  0.00000000000E+00 0. -1.
<mgrwt>
<rscale>  0 0.10299830E+03</rscale>
<asrwt>0</asrwt>
<pdfrwt beam="1">  1        2 0.27560761E+00 0.13849658E+03</pdfrwt>
<pdfrwt beam="2">  1        2 0.36165092E+00 0.76598647E+02</pdfrwt>
<totfact> 0.90138951E+00</totfact>
</mgrwt>
</event>
<event>
13    1  0.1675423E-008  0.3495415E+02  0.7546771E-02  0.1594137E+00
          2   -1    0    0  502    0  0.00000000000E+00  0.00000000000E+00  0.13192285955E+04  0.13192285955E+04  0.00000000000E+00 0. -1.
          2   -1    0    0  503    0 -0.00000000000E+00 -0.00000000000E+00 -0.20802458068E+04  0.20802458068E+04  0.00000000000E+00 0. -1.
         24    2    1    2    0    0  0.40159488113E+03 -0.78406984742E+03 -0.55974546272E+03  0.10467349979E+04  0.79342287925E+02 0.  0.
         25    2    1    2    0    0 -0.32899738072E+03  0.79042372737E+03  0.14762939797E+03  0.87774011175E+03  0.12499727724E+03 0.  0.
         24    2    1    2    0    0 -0.74958082920E+02  0.51285680894E+02  0.10605082812E+02  0.10879683847E+03  0.58952090879E+02 0.  0.
        -11    1    5    5    0    0 -0.48196705695E+02  0.23461686087E+02 -0.22313346731E+02  0.58062540387E+02  0.00000000000E+00 0.  1.
         12    1    5    5    0    0 -0.26761377224E+02  0.27823994808E+02  0.32918429542E+02  0.50734298078E+02  0.00000000000E+00 0. -1.
        -13    1    3    3    0    0  0.20112604279E+03 -0.30719380440E+03 -0.23601803783E+03  0.43649081632E+03  0.00000000000E+00 0.  1.
         14    1    3    3    0    0  0.20046883834E+03 -0.47687604302E+03 -0.32372742488E+03  0.61024418160E+03  0.00000000000E+00 0. -1.
          5    1    4    4  501    0 -0.14685755337E+03  0.36943821259E+03  0.59227607609E+01  0.39762910231E+03  0.47000000000E+01 0.  1.
         -5    1    4    4    0  501 -0.18213982735E+03  0.42098551478E+03  0.14170663721E+03  0.48011100944E+03  0.47000000000E+01 0.  1.
          1    1    1    2  502    0 -0.92717077858E+01 -0.24687013953E+02  0.50264851379E+03  0.50333978746E+03  0.00000000000E+00 0. -1.
          1    1    1    2  503    0  0.11632290300E+02 -0.32952546892E+02 -0.86215474311E+03  0.86286266670E+03  0.00000000000E+00 0. -1.
<mgrwt>
<rscale>  0 0.30360584E+02</rscale>
<asrwt>0</asrwt>
<pdfrwt beam="1">  1        2 0.19400421E+00 0.26370689E+02</pdfrwt>
<pdfrwt beam="2">  1        2 0.30591850E+00 0.34954151E+02</pdfrwt>
<totfact> 0.31993886E+01</totfact>
</mgrwt>
</event>
<event>
13    1  0.1675423E-008  0.1317538E+03  0.7546771E-02  0.1242660E+00
          2   -1    0    0  503    0  0.00000000000E+00  0.00000000000E+00  0.57474560223E+03  0.57474560223E+03  0.00000000000E+00 0. -1.
          2   -1    0    0  502    0 -0.00000000000E+00 -0.00000000000E+00 -0.13032991093E+04  0.13032991093E+04  0.00000000000E+00 0. -1.
         24    2    1    2    0    0 -0.33724372600E+01 -0.36362697064E+02  0.35248819289E+03  0.36299236783E+03  0.78625148056E+02 0.  0.
         25    2    1    2    0    0  0.86208548460E+01  0.28150591924E+02 -0.19089490333E+03  0.23007303181E+03  0.12500384349E+03 0.  0.
         24    2    1    2    0    0 -0.18649580936E+03 -0.42091322941E+01 -0.28340200999E+03  0.34861536199E+03  0.80109722545E+02 0.  0.
        -13    1    5    5    0    0 -0.15277201538E+03  0.25569928416E+02 -0.24286718388E+03  0.28805829085E+03  0.00000000000E+00 0.  1.
         14    1    5    5    0    0 -0.33723793985E+02 -0.29779060710E+02 -0.40534826111E+02  0.60557071142E+02  0.00000000000E+00 0. -1.
        -13    1    3    3    0    0  0.11702034895E+02  0.22700985211E+02  0.11552329863E+03  0.11831274182E+03  0.00000000000E+00 0.  1.
         14    1    3    3    0    0 -0.15074472155E+02 -0.59063682275E+02  0.23696489426E+03  0.24467962601E+03  0.00000000000E+00 0. -1.
          5    1    4    4  501    0 -0.17757242111E+02 -0.26410515815E+02 -0.15743323913E+03  0.16068649531E+03  0.47000000000E+01 0.  1.
         -5    1    4    4    0  501  0.26378096957E+02  0.54561107739E+02 -0.33461664200E+02  0.69386536502E+02  0.47000000000E+01 0.  1.
          1    1    1    2  502    0  0.79567900742E+01  0.11021571966E+03 -0.70558571907E+03  0.71418626584E+03  0.00000000000E+00 0. -1.
          1    1    1    2  503    0  0.17329060170E+03 -0.97794482228E+02  0.98840932380E+02  0.22217768409E+03  0.00000000000E+00 0. -1.
<mgrwt>
<rscale>  0 0.12026558E+03</rscale>
<asrwt>0</asrwt>
<pdfrwt beam="1">  1        2 0.84521413E-01 0.13175384E+03</pdfrwt>
<pdfrwt beam="2">  1        2 0.19166163E+00 0.10977904E+03</pdfrwt>
<totfact> 0.17632846E+02</totfact>
</mgrwt>
</event>
<event>
13    1  0.1675423E-008  0.1427168E+03  0.7546771E-02  0.1394932E+00
          2   -1    0    0  502    0  0.00000000000E+00  0.00000000000E+00  0.27198713032E+04  0.27198713032E+04  0.00000000000E+00 0. -1.
          2   -1    0    0  503    0 -0.00000000000E+00 -0.00000000000E+00 -0.18739080077E+04  0.18739080077E+04  0.00000000000E+00 0. -1.
         24    2    1    2    0    0  0.68641713463E+02  0.89423670167E+02  0.38175388598E+03  0.40608548539E+03  0.80381057325E+02 0.  0.
         25    2    1    2    0    0  0.95418443422E+02  0.79620717937E+02 -0.17877879843E+03  0.25105909374E+03  0.12499868684E+03 0.  0.
         24    2    1    2    0    0 -0.19934769767E+02 -0.45145040086E+02  0.35353433093E+03  0.36640510564E+03  0.82648101017E+02 0.  0.
        -11    1    3    3    0    0 -0.11336398969E+02  0.25912930814E+02  0.15266767716E+03  0.15526562264E+03  0.00000000000E+00 0.  1.
         12    1    3    3    0    0  0.79978112432E+02  0.63510739353E+02  0.22908620882E+03  0.25081986275E+03  0.00000000000E+00 0. -1.
        -13    1    5    5    0    0 -0.13961871421E+02  0.63055220701E+01  0.25159976017E+03  0.25206573107E+03  0.00000000000E+00 0.  1.
         14    1    5    5    0    0 -0.59728983453E+01 -0.51450562156E+02  0.10193457076E+03  0.11433937457E+03  0.00000000000E+00 0. -1.
          5    1    4    4  501    0 -0.28286866219E+02  0.21956383597E+02 -0.18792819423E+02  0.40712278775E+02  0.47000000000E+01 0.  1.
         -5    1    4    4    0  501  0.12370530964E+03  0.57664334340E+02 -0.15998597901E+03  0.21034681497E+03  0.47000000000E+01 0.  1.
          1    1    1    2  502    0 -0.15106611683E+03 -0.99036262501E+02  0.19255127922E+04  0.19339670798E+04  0.00000000000E+00 0. -1.
          1    1    1    2  503    0  0.69407297144E+01 -0.24863085518E+02 -0.16360589152E+04  0.16362625464E+04  0.00000000000E+00 0. -1.
<mgrwt>
<rscale>  0 0.60696360E+02</rscale>
<asrwt>0</asrwt>
<pdfrwt beam="1">  1        2 0.39998108E+00 0.14271682E+03</pdfrwt>
<pdfrwt beam="2">  1        2 0.27557471E+00 0.25813693E+02</pdfrwt>
<totfact> 0.73025377E+00</totfact>
</mgrwt>
</event>
<event>
13    1  0.1675423E-008  0.1608071E+03  0.7546771E-02  0.1269499E+00
          2   -1    0    0  503    0  0.00000000000E+00  0.00000000000E+00  0.27708555314E+04  0.27708555314E+04  0.00000000000E+00 0. -1.
          2   -1    0    0  502    0 -0.00000000000E+00 -0.00000000000E+00 -0.83662234748E+03  0.83662234748E+03  0.00000000000E+00 0. -1.
         24    2    1    2    0    0  0.33221811088E+02  0.73763045469E+02  0.67526170553E+03  0.68517269737E+03  0.83298131222E+02 0.  0.
         25    2    1    2    0    0  0.10707170547E+03 -0.12121361018E+03 -0.32957701076E+02  0.20704812282E+03  0.12500250276E+03 0.  0.
         24    2    1    2    0    0 -0.11524105903E+03 -0.95867738627E+02 -0.67923432064E+02  0.18323834417E+03  0.80570299455E+02 0.  0.
        -11    1    5    5    0    0  0.45253239556E+00  0.34469499018E+01  0.11008796465E+02  0.11544689203E+02  0.00000000000E+00 0.  1.
         12    1    5    5    0    0 -0.11569359143E+03 -0.99314688529E+02 -0.78932228529E+02  0.17169365496E+03  0.00000000000E+00 0. -1.
        -11    1    3    3    0    0 -0.16106743255E+02 -0.53657391003E+01  0.20839148587E+03  0.20908187324E+03  0.00000000000E+00 0.  1.
         12    1    3    3    0    0  0.49328554343E+02  0.79128784570E+02  0.46687021966E+03  0.47609082413E+03  0.00000000000E+00 0. -1.
          5    1    4    4  501    0  0.85458996333E+02 -0.12871889139E+03  0.13382370624E+02  0.15515466767E+03  0.47000000000E+01 0. -1.
         -5    1    4    4    0  501  0.21612709136E+02  0.75052812069E+01 -0.46340071700E+02  0.51893455150E+02  0.47000000000E+01 0. -1.
          1    1    1    2  502    0 -0.68367756463E+02 -0.91170340597E+01 -0.58081284820E+03  0.58489386650E+03  0.00000000000E+00 0. -1.
          1    1    1    2  503    0  0.43315298936E+02  0.15243533740E+03  0.19406654598E+04  0.19471248481E+04  0.00000000000E+00 0. -1.
<mgrwt>
<rscale>  0 0.10531544E+03</rscale>
<asrwt>0</asrwt>
<pdfrwt beam="1">  1        2 0.40747875E+00 0.16080710E+03</pdfrwt>
<pdfrwt beam="2">  1        2 0.12303270E+00 0.68972969E+02</pdfrwt>
<totfact> 0.20781935E+01</totfact>
</mgrwt>
</event>
<event>
13    1  0.1675423E-008  0.1060746E+03  0.7546771E-02  0.1338998E+00
          2   -1    0    0  502    0  0.00000000000E+00  0.00000000000E+00  0.40679458861E+03  0.40679458861E+03  0.00000000000E+00 0. -1.
          2   -1    0    0  503    0 -0.00000000000E+00 -0.00000000000E+00 -0.23343465288E+04  0.23343465288E+04  0.00000000000E+00 0. -1.
         24    2    1    2    0    0  0.42604859071E+02 -0.70190304788E+02  0.13782917457E+03  0.17927026708E+03  0.79994339774E+02 0.  0.
         25    2    1    2    0    0  0.27624512321E+02  0.12680799205E+02 -0.10499834031E+03  0.16605321027E+03  0.12500040329E+03 0.  0.
         24    2    1    2    0    0  0.34650459467E+02  0.11072712265E+03 -0.14624998212E+03  0.20266577216E+03  0.78887311422E+02 0.  0.
        -13    1    5    5    0    0  0.17114194701E+02 -0.75252490600E+00  0.98303780557E+00  0.17158913641E+02  0.00000000000E+00 0.  1.
         14    1    5    5    0    0  0.17536264766E+02  0.11147964756E+03 -0.14723301992E+03  0.18550685852E+03  0.00000000000E+00 0. -1.
        -13    1    3    3    0    0  0.22982045090E+02  0.13354407747E+02  0.49077720464E+02  0.55813414595E+02  0.00000000000E+00 0.  1.
         14    1    3    3    0    0  0.19622813980E+02 -0.83544712535E+02  0.88751454104E+02  0.12345685249E+03  0.00000000000E+00 0. -1.
          5    1    4    4  501    0  0.15715391079E+02 -0.86577442742E+01  0.26430550092E+02  0.32289224686E+02  0.47000000000E+01 0.  1.
         -5    1    4    4    0  501  0.11909121242E+02  0.21338543480E+02 -0.13142889040E+03  0.13376398558E+03  0.47000000000E+01 0.  1.
          1    1    1    2  502    0 -0.60990924665E+02 -0.86876730726E+02  0.17423078007E+03  0.20401917546E+03  0.00000000000E+00 0. -1.
          1    1    1    2  503    0 -0.43888906193E+02  0.33659113659E+02 -0.19883635724E+04  0.19891326925E+04  0.00000000000E+00 0. -1.
<mgrwt>
<rscale>  0 0.76596101E+02</rscale>
<asrwt>0</asrwt>
<pdfrwt beam="1">  1        2 0.59822733E-01 0.10607459E+03</pdfrwt>
<pdfrwt beam="2">  1        2 0.34328626E+00 0.55309782E+02</pdfrwt>
<totfact> 0.87296993E+01</totfact>
</mgrwt>
</event>
<event>
13    1  0.1675423E-008  0.1414963E+03  0.7546771E-02  0.1268196E+00
          2   -1    0    0  502    0  0.00000000000E+00  0.00000000000E+00  0.28589444833E+03  0.28589444833E+03  0.00000000000E+00 0. -1.
          2   -1    0    0  503    0 -0.00000000000E+00 -0.00000000000E+00 -0.22761412162E+04  0.22761412162E+04  0.00000000000E+00 0. -1.
         24    2    1    2    0    0  0.27309767699E+02 -0.19144310837E+02 -0.70066169032E+02  0.11184549349E+03  0.80546994493E+02 0.  0.
         25    2    1    2    0    0 -0.13557590177E+03 -0.40664543566E+02 -0.97503344249E+03  0.99314226214E+03  0.12492761351E+03 0.  0.
         24    2    1    2    0    0  0.49593803416E+02  0.20733727472E+03 -0.46328541207E+03  0.51624865738E+03  0.80193593168E+02 0.  0.
        -11    1    3    3    0    0 -0.99249334273E+01  0.25065119205E+02 -0.10745072448E+02  0.29021045574E+02  0.00000000000E+00 0.  1.
         12    1    3    3    0    0  0.37234701127E+02 -0.44209430042E+02 -0.59321096584E+02  0.82824447916E+02  0.00000000000E+00 0. -1.
        -13    1    5    5    0    0 -0.20623289707E+02  0.27270579906E+02 -0.60492102665E+02  0.69485963270E+02  0.00000000000E+00 0.  1.
         14    1    5    5    0    0  0.70217093122E+02  0.18006669481E+03 -0.40279330940E+03  0.44676269411E+03  0.00000000000E+00 0. -1.
          5    1    4    4  501    0 -0.12206713619E+03 -0.68529780673E+02 -0.57223701779E+03  0.58912987627E+03  0.47000000000E+01 0.  1.
         -5    1    4    4    0  501 -0.13508765586E+02  0.27865237106E+02 -0.40279642470E+03  0.40401238587E+03  0.47000000000E+01 0.  1.
          1    1    1    2  502    0  0.12069657293E+03 -0.19707146835E+03  0.16825270983E+03  0.28585625884E+03  0.00000000000E+00 0. -1.
          1    1    1    2  503    0 -0.62024242270E+02  0.49543048034E+02 -0.65011445411E+03  0.65494299269E+03  0.00000000000E+00 0. -1.
<mgrwt>
<rscale>  0 0.10598245E+03</rscale>
<asrwt>0</asrwt>
<pdfrwt beam="1">  1        2 0.42043301E-01 0.14149634E+03</pdfrwt>
<pdfrwt beam="2">  1        2 0.33472665E+00 0.79382115E+02</pdfrwt>
<totfact> 0.12923847E+02</totfact>
</mgrwt>
</event>
<event>
13    1  0.1675423E-008  0.7248136E+02  0.7546771E-02  0.1362668E+00
          2   -1    0    0  503    0  0.00000000000E+00  0.00000000000E+00  0.97955453486E+03  0.97955453486E+03  0.00000000000E+00 0. -1.
          2   -1    0    0  502    0 -0.00000000000E+00 -0.00000000000E+00 -0.31951769193E+04  0.31951769193E+04  0.00000000000E+00 0. -1.
         24    2    1    2    0    0 -0.71712568404E+02 -0.69152820450E+02  0.27065797425E+03  0.29963934312E+03  0.81260026338E+02 0.  0.
         25    2    1    2    0    0  0.19604777190E+03  0.75478266697E+02 -0.66533719654E+02  0.25334429698E+03  0.12499959739E+03 0.  0.
         24    2    1    2    0    0 -0.11671420785E+03  0.29684298643E+02  0.42974065351E+03  0.45335658652E+03  0.79698189186E+02 0.  0.
        -11    1    5    5    0    0 -0.87499469266E+01  0.31958409928E+02  0.64889576203E+02  0.72859856136E+02  0.00000000000E+00 0.  1.
         12    1    5    5    0    0 -0.10796426093E+03 -0.22741112850E+01  0.36485107731E+03  0.38049673038E+03  0.00000000000E+00 0. -1.
        -11    1    3    3    0    0 -0.37435711044E+02  0.14312000732E+01  0.35028135956E+02  0.51287923564E+02  0.00000000000E+00 0.  1.
         12    1    3    3    0    0 -0.34276857360E+02 -0.70584020523E+02  0.23562983829E+03  0.24835141956E+03  0.00000000000E+00 0. -1.
          5    1    4    4  501    0 -0.11567630765E+02  0.13131641376E+02 -0.27651904904E+02  0.33060065511E+02  0.47000000000E+01 0.  1.
         -5    1    4    4    0  501  0.20761540267E+03  0.62346625321E+02 -0.38881814750E+02  0.22028423147E+03  0.47000000000E+01 0.  1.
          1    1    1    2  502    0 -0.64978105347E+02  0.12445869510E+02 -0.29997149341E+04  0.30004444237E+04  0.00000000000E+00 0. -1.
          1    1    1    2  503    0  0.57357109700E+02 -0.48455614401E+02  0.15022764161E+03  0.16794680379E+03  0.00000000000E+00 0. -1.
<mgrwt>
<rscale>  0 0.69248226E+02</rscale>
<asrwt>0</asrwt>
<pdfrwt beam="1">  1        2 0.14405213E+00 0.72481364E+02</pdfrwt>
<pdfrwt beam="2">  1        2 0.46987897E+00 0.66159307E+02</pdfrwt>
<totfact> 0.11601568E+01</totfact>
</mgrwt>
</event>
<event>
13    1  0.1675423E-008  0.3015751E+03  0.7546771E-02  0.1226862E+00
          2   -1    0    0  502    0  0.00000000000E+00  0.00000000000E+00  0.24584803000E+04  0.24584803000E+04  0.00000000000E+00 0. -1.
          2   -1    0    0  503    0 -0.00000000000E+00 -0.00000000000E+00 -0.13185302721E+04  0.13185302721E+04  0.00000000000E+00 0. -1.
         24    2    1    2    0    0  0.47369374139E+02  0.69938956190E+02  0.74753395776E+03  0.75727994933E+03  0.86778963184E+02 0.  0.
         25    2    1    2    0    0 -0.26476743019E+03  0.30209210922E+03 -0.80603439945E+03  0.90921819077E+03  0.12499932316E+03 0.  0.
         24    2    1    2    0    0  0.67333602872E+02 -0.13952371778E+03  0.87262021267E+02  0.19796437640E+03  0.87031902604E+02 0.  0.
        -13    1    5    5    0    0  0.60375477915E+01 -0.59450380354E+02 -0.67015607469E+01  0.60130779340E+02  0.00000000000E+00 0.  1.
         14    1    5    5    0    0  0.61296055080E+02 -0.80073337426E+02  0.93963582014E+02  0.13783359706E+03  0.00000000000E+00 0. -1.
        -13    1    3    3    0    0  0.63700532002E+02  0.79269048531E+02  0.65579807790E+03  0.66363578777E+03  0.00000000000E+00 0.  1.
         14    1    3    3    0    0 -0.16331157863E+02 -0.93300923409E+01  0.91735879869E+02  0.93644161567E+02  0.00000000000E+00 0. -1.
          5    1    4    4  501    0 -0.22117451958E+03  0.23788414467E+03 -0.73629764067E+03  0.80477533514E+03  0.47000000000E+01 0. -1.
         -5    1    4    4    0  501 -0.43592910612E+02  0.64207964547E+02 -0.69736758780E+02  0.10444285563E+03  0.47000000000E+01 0.  1.
          1    1    1    2  502    0  0.54674597758E+02 -0.13783150520E+02  0.14757552520E+04  0.14768320320E+04  0.00000000000E+00 0. -1.
          1    1    1    2  503    0  0.95389855424E+02 -0.21872419711E+03 -0.36456680361E+03  0.43571602359E+03  0.00000000000E+00 0. -1.
<mgrwt>
<rscale>  0 0.13040077E+03</rscale>
<asrwt>0</asrwt>
<pdfrwt beam="1">  1        2 0.36154122E+00 0.56385165E+02</pdfrwt>
<pdfrwt beam="2">  1        2 0.19390151E+00 0.30157510E+03</pdfrwt>
<totfact> 0.16956010E+01</totfact>
</mgrwt>
</event>
<event>
13    1  0.1675423E-008  0.1950432E+03  0.7546771E-02  0.1203194E+00
          2   -1    0    0  503    0  0.00000000000E+00  0.00000000000E+00  0.13172294225E+04  0.13172294225E+04  0.00000000000E+00 0. -1.
          2   -1    0    0  502    0 -0.00000000000E+00 -0.00000000000E+00 -0.35128492649E+04  0.35128492649E+04  0.00000000000E+00 0. -1.
         24    2    1    2    0    0  0.26184056611E+02  0.10708592412E+02  0.55828986866E+02  0.10963117765E+03  0.90010224783E+02 0.  0.
         25    2    1    2    0    0 -0.46226269734E+03  0.20982558523E+03  0.37594376381E+03  0.64395037033E+03  0.12499915335E+03 0.  0.
         24    2    1    2    0    0  0.46291538199E+02  0.10784747182E+02 -0.18987414172E+03  0.21192740835E+03  0.81251581126E+02 0.  0.
        -13    1    5    5    0    0 -0.20282410577E+02  0.69036459199E+01 -0.84903593522E+02  0.87565156877E+02  0.00000000000E+00 0.  1.
         14    1    5    5    0    0  0.66573948776E+02  0.38811012616E+01 -0.10497054819E+03  0.12436225147E+03  0.00000000000E+00 0. -1.
        -13    1    3    3    0    0  0.51780647448E+02 -0.18832244514E+02  0.35831499837E+02  0.65725073329E+02  0.00000000000E+00 0.  1.
         14    1    3    3    0    0 -0.25596590836E+02  0.29540836926E+02  0.19997487029E+02  0.43906104316E+02  0.00000000000E+00 0. -1.
          5    1    4    4  501    0 -0.38586596709E+03  0.22206796177E+03  0.31628999805E+03  0.54613933851E+03  0.47000000000E+01 0. -1.
         -5    1    4    4    0  501 -0.76396730248E+02 -0.12242376548E+02  0.59653765762E+02  0.97811031820E+02  0.47000000000E+01 0.  1.
          1    1    1    2  502    0  0.27485823300E+03 -0.25169810340E+03 -0.31351585708E+04  0.31572326882E+04  0.00000000000E+00 0. -1.
          1    1    1    2  503    0  0.11492886953E+03  0.20379178583E+02  0.69764011946E+03  0.70733704290E+03  0.00000000000E+00 0. -1.
<mgrwt>
<rscale>  0 0.14780682E+03</rscale>
<asrwt>0</asrwt>
<pdfrwt beam="1">  1        2 0.19371021E+00 0.11201031E+03</pdfrwt>
<pdfrwt beam="2">  1        2 0.51659547E+00 0.19504325E+03</pdfrwt>
<totfact> 0.40719862E+00</totfact>
</mgrwt>
</event>
<event>
13    1  0.1675423E-008  0.2138125E+03  0.7546771E-02  0.1306948E+00
          2   -1    0    0  503    0  0.00000000000E+00  0.00000000000E+00  0.16307833637E+04  0.16307833637E+04  0.00000000000E+00 0. -1.
          2   -1    0    0  502    0 -0.00000000000E+00 -0.00000000000E+00 -0.30973258781E+04  0.30973258781E+04  0.00000000000E+00 0. -1.
         24    2    1    2    0    0 -0.99762565930E+02  0.13423634735E+03  0.44501474877E+03  0.48064896157E+03  0.70804880662E+02 0.  0.
         25    2    1    2    0    0 -0.18034629728E+03  0.41440661732E+03  0.67671923346E+02  0.47377513714E+03  0.12500303973E+03 0.  0.
         24    2    1    2    0    0  0.44374267086E+03 -0.57937900427E+03 -0.36900522250E+03  0.82065529249E+03  0.68721658411E+02 0.  0.
        -13    1    5    5    0    0  0.38618227676E+02 -0.88147100132E+02 -0.45514644002E+02  0.10645591383E+03  0.00000000000E+00 0.  1.
         14    1    5    5    0    0  0.40512444318E+03 -0.49123190413E+03 -0.32349057850E+03  0.71419937866E+03  0.00000000000E+00 0. -1.
        -13    1    3    3    0    0 -0.69722212142E+02  0.11613017265E+03  0.40689169749E+03  0.42884526038E+03  0.00000000000E+00 0.  1.
         14    1    3    3    0    0 -0.30040353788E+02  0.18106174701E+02  0.38123051279E+02  0.51803701188E+02  0.00000000000E+00 0. -1.
          5    1    4    4  501    0 -0.16823138550E+03  0.31511126319E+03  0.82560198339E+01  0.35733340051E+03  0.47000000000E+01 0.  1.
         -5    1    4    4    0  501 -0.12114911782E+02  0.99295354132E+02  0.59415903512E+02  0.11644173663E+03  0.47000000000E+01 0.  1.
          1    1    1    2  502    0  0.18790715145E+02  0.31280404546E+02 -0.22690859116E+04  0.22693793047E+04  0.00000000000E+00 0. -1.
          1    1    1    2  503    0 -0.18242452279E+03 -0.54436494531E+00  0.65886194758E+03  0.68365054584E+03  0.00000000000E+00 0. -1.
<mgrwt>
<rscale>  0 0.88329608E+02</rscale>
<asrwt>0</asrwt>
<pdfrwt beam="1">  1        2 0.23982108E+00 0.21381251E+03</pdfrwt>
<pdfrwt beam="2">  1        2 0.45548910E+00 0.36490474E+02</pdfrwt>
<totfact> 0.61632279E+00</totfact>
</mgrwt>
</event>
<event>
13    1  0.1675423E-008  0.9909047E+02  0.7546771E-02  0.1368640E+00
          2   -1    0    0  502    0  0.00000000000E+00  0.00000000000E+00  0.20533035907E+04  0.20533035907E+04  0.00000000000E+00 0. -1.
          2   -1    0    0  503    0 -0.00000000000E+00 -0.00000000000E+00 -0.19886361645E+04  0.19886361645E+04  0.00000000000E+00 0. -1.
         24    2    1    2    0    0 -0.89135817869E+02  0.14006529422E+03  0.54576640365E+03  0.57588757168E+03  0.78879954339E+02 0.  0.
         25    2    1    2    0    0  0.71644018933E+02 -0.38651714778E+02 -0.37665406358E+02  0.15385226517E+03  0.12500006463E+03 0.  0.
         24    2    1    2    0    0 -0.50156885635E+02  0.26329968514E+02  0.10556229888E+03  0.14417453017E+03  0.80211693572E+02 0.  0.
        -11    1    3    3    0    0 -0.17511897450E+02 -0.38741652242E-01  0.17791268099E+02  0.24963919440E+02  0.00000000000E+00 0.  1.
         12    1    3    3    0    0 -0.71623920419E+02  0.14010403587E+03  0.52797513555E+03  0.55092365224E+03  0.00000000000E+00 0. -1.
        -11    1    5    5    0    0 -0.27619271200E+02  0.51673384240E+02  0.88685309307E+02  0.10629227097E+03  0.00000000000E+00 0.  1.
         12    1    5    5    0    0 -0.22537614435E+02 -0.25343415727E+02  0.16876989574E+02  0.37882259201E+02  0.00000000000E+00 0. -1.
          5    1    4    4  501    0  0.73192357820E+02 -0.53617182621E+02  0.20881675506E+02  0.93220479979E+02  0.47000000000E+01 0.  1.
         -5    1    4    4    0  501 -0.15483388872E+01  0.14965467843E+02 -0.58547081864E+02  0.60631785195E+02  0.47000000000E+01 0.  1.
          1    1    1    2  502    0  0.51911894653E+02 -0.84471993670E+02  0.13073521585E+04  0.13111064140E+04  0.00000000000E+00 0. -1.
          1    1    1    2  503    0  0.15736789917E+02 -0.43271554282E+02 -0.18563480284E+04  0.18569189742E+04  0.00000000000E+00 0. -1.
<mgrwt>
<rscale>  0 0.67546631E+02</rscale>
<asrwt>0</asrwt>
<pdfrwt beam="1">  1        2 0.30195641E+00 0.99090467E+02</pdfrwt>
<pdfrwt beam="2">  1        2 0.29244649E+00 0.46044261E+02</pdfrwt>
<totfact> 0.13585659E+01</totfact>
</mgrwt>
</event>
<event>
13    1  0.1675423E-008  0.1437680E+03  0.7546771E-02  0.1341042E+00
          2   -1    0    0  502    0  0.00000000000E+00  0.00000000000E+00  0.20484919752E+04  0.20484919752E+04  0.00000000000E+00 0. -1.
          2   -1    0    0  503    0 -0.00000000000E+00 -0.00000000000E+00 -0.12194302796E+04  0.12194302796E+04  0.00000000000E+00 0. -1.
         24    2    1    2    0    0 -0.83956039200E+01 -0.50632720025E+02  0.67584053637E+03  0.68263302472E+03  0.81198875193E+02 0.  0.
         25    2    1    2    0    0  0.10542600101E+03 -0.18363293237E+03 -0.96756368506E+02  0.26424911297E+03  0.12502041162E+03 0.  0.
         24    2    1    2    0    0 -0.47666181130E+02  0.80379670270E+02  0.26988158696E+03  0.29716591563E+03  0.82088697229E+02 0.  0.
        -11    1    5    5    0    0  0.39371504967E+01  0.70586073511E+02  0.17453417526E+03  0.18830845244E+03  0.00000000000E+00 0.  1.
         12    1    5    5    0    0 -0.51603331627E+02  0.97935967592E+01  0.95347411703E+02  0.10885746318E+03  0.00000000000E+00 0. -1.
        -11    1    3    3    0    0 -0.38287647803E+02 -0.48643605474E+02  0.53949828814E+03  0.54303825578E+03  0.00000000000E+00 0.  1.
         12    1    3    3    0    0  0.29892043883E+02 -0.19891145514E+01  0.13634224823E+03  0.13959476894E+03  0.00000000000E+00 0. -1.
          5    1    4    4  501    0  0.47639735288E+02  0.53271287665E+01 -0.16350694660E+02  0.50866078039E+02  0.47000000000E+01 0. -1.
         -5    1    4    4    0  501  0.57786265718E+02 -0.18896006114E+03 -0.80405673846E+02  0.21338303493E+03  0.47000000000E+01 0. -1.
          1    1    1    2  502    0  0.21951767009E+02  0.33548921008E+02  0.99679323821E+03  0.99759920305E+03  0.00000000000E+00 0. -1.
          1    1    1    2  503    0 -0.71315982965E+02  0.12033706112E+03 -0.10166972975E+04  0.10262749984E+04  0.00000000000E+00 0. -1.
<mgrwt>
<rscale>  0 0.75921160E+02</rscale>
<asrwt>0</asrwt>
<pdfrwt beam="1">  1        2 0.30124882E+00 0.40092520E+02</pdfrwt>
<pdfrwt beam="2">  1        2 0.17932798E+00 0.14376803E+03</pdfrwt>
<totfact> 0.32625777E+01</totfact>
</mgrwt>
</event>
<event>
13    1  0.1675423E-008  0.1198627E+03  0.7546771E-02  0.1442397E+00
          2   -1    0    0  502    0  0.00000000000E+00  0.00000000000E+00  0.63430394489E+03  0.63430394489E+03  0.00000000000E+00 0. -1.
          2   -1    0    0  503    0 -0.00000000000E+00 -0.00000000000E+00 -0.76955264348E+03  0.76955264348E+03  0.00000000000E+00 0. -1.
         24    2    1    2    0    0 -0.39867830760E+01 -0.27445993985E+02  0.18672266015E+03  0.20505323057E+03  0.80076828920E+02 0.  0.
         25    2    1    2    0    0 -0.10202254451E+03  0.16750058298E+03 -0.12481024327E+03  0.26394575908E+03  0.12499888810E+03 0.  0.
         24    2    1    2    0    0 -0.17139164508E+02 -0.73758915702E+02 -0.44418700442E+02  0.11814477177E+03  0.79063503220E+02 0.  0.
        -11    1    3    3    0    0  0.18761007031E+02 -0.37929631982E+02  0.47583089522E+02  0.63677176253E+02  0.00000000000E+00 0.  1.
         12    1    3    3    0    0 -0.22747790107E+02  0.10483637998E+02  0.13913957063E+03  0.14137605432E+03  0.00000000000E+00 0. -1.
        -13    1    5    5    0    0 -0.68315165535E+01 -0.22114506551E+02 -0.59102438445E+02  0.63472980461E+02  0.00000000000E+00 0.  1.
         14    1    5    5    0    0 -0.10307647954E+02 -0.51644409151E+02  0.14683738003E+02  0.54671791306E+02  0.00000000000E+00 0. -1.
          5    1    4    4  501    0  0.23588002971E+02  0.18322900122E+01 -0.79172634114E+01  0.25387481773E+02  0.47000000000E+01 0. -1.
         -5    1    4    4    0  501 -0.12561054748E+03  0.16566829297E+03 -0.11689297986E+03  0.23855827731E+03  0.47000000000E+01 0. -1.
          1    1    1    2  502    0  0.14382227532E+03 -0.71499152517E+02  0.31230041297E+03  0.35118161061E+03  0.00000000000E+00 0. -1.
          1    1    1    2  503    0 -0.20673783230E+02  0.52034792242E+01 -0.46504282800E+03  0.46553121633E+03  0.00000000000E+00 0. -1.
<mgrwt>
<rscale>  0 0.50549991E+02</rscale>
<asrwt>0</asrwt>
<pdfrwt beam="1">  1        2 0.93279992E-01 0.11986270E+03</pdfrwt>
<pdfrwt beam="2">  1        2 0.11316951E+00 0.21318572E+02</pdfrwt>
<totfact> 0.33904519E+02</totfact>
</mgrwt>
</event>
<event>
13    1  0.1675423E-008  0.8934596E+02  0.7546771E-02  0.1304730E+00
          2   -1    0    0  502    0  0.00000000000E+00  0.00000000000E+00  0.25316973403E+04  0.25316973403E+04  0.00000000000E+00 0. -1.
          2   -1    0    0  503    0 -0.00000000000E+00 -0.00000000000E+00 -0.83882685852E+03  0.83882685852E+03  0.00000000000E+00 0. -1.
         24    2    1    2    0    0 -0.33664054204E+02 -0.59078670770E+02  0.30889793625E+03  0.32587919176E+03  0.78458617878E+02 0.  0.
         25    2    1    2    0    0  0.15981311682E+03 -0.20608920037E+01  0.24562779517E+03  0.31859506343E+03  0.12500128440E+03 0.  0.
         24    2    1    2    0    0  0.60869057008E+02 -0.48794809417E+02 -0.25344658633E+03  0.27702039574E+03  0.80119610618E+02 0.  0.
        -11    1    3    3    0    0 -0.28637930821E+02 -0.75752900338E+02  0.20298737980E+03  0.21854635515E+03  0.00000000000E+00 0.  1.
         12    1    3    3    0    0 -0.50261233829E+01  0.16674229568E+02  0.10591055645E+03  0.10733283661E+03  0.00000000000E+00 0. -1.
        -13    1    5    5    0    0 -0.15212458545E+02 -0.28095894091E+01 -0.11551140674E+02  0.19306515442E+02  0.00000000000E+00 0.  1.
         14    1    5    5    0    0  0.76081515554E+02 -0.45985220008E+02 -0.24189544566E+03  0.25771388030E+03  0.00000000000E+00 0. -1.
          5    1    4    4  501    0  0.20551432326E+02 -0.31693448522E+02  0.12896161059E+03  0.13446197624E+03  0.47000000000E+01 0.  1.
         -5    1    4    4    0  501  0.13926168449E+03  0.29632556518E+02  0.11666618459E+03  0.18413308719E+03  0.47000000000E+01 0.  1.
          1    1    1    2  502    0 -0.88888307124E+02  0.90315544698E+01  0.19099784537E+04  0.19120670474E+04  0.00000000000E+00 0. -1.
          1    1    1    2  503    0 -0.98129812496E+02  0.10090281772E+03 -0.51818711700E+03  0.53696250050E+03  0.00000000000E+00 0. -1.
<mgrwt>
<rscale>  0 0.89228709E+02</rscale>
<asrwt>0</asrwt>
<pdfrwt beam="1">  1        2 0.37230843E+00 0.89345957E+02</pdfrwt>
<pdfrwt beam="2">  1        2 0.12335689E+00 0.89111615E+02</pdfrwt>
<totfact> 0.29394393E+01</totfact>
</mgrwt>
</event>
<event>
13    1  0.1675423E-008  0.1169711E+03  0.7546771E-02  0.1283018E+00
          2   -1    0    0  502    0  0.00000000000E+00  0.00000000000E+00  0.24927245961E+04  0.24927245961E+04  0.00000000000E+00 0. -1.
          2   -1    0    0  503    0 -0.00000000000E+00 -0.00000000000E+00 -0.30860400030E+04  0.30860400030E+04  0.00000000000E+00 0. -1.
         24    2    1    2    0    0 -0.88878140378E+03 -0.26447015377E+03  0.38412183194E+03  0.10094756256E+04  0.10777110497E+03 0.  0.
         25    2    1    2    0    0  0.54173573245E+03  0.23544668621E+03  0.39242708297E+03  0.72009469685E+03  0.12499844448E+03 0.  0.
         24    2    1    2    0    0  0.29237636898E+03  0.16145825431E+03 -0.19798361033E+03  0.39809325605E+03  0.87909166343E+02 0.  0.
        -11    1    5    5    0    0  0.29603293535E+03  0.14928111191E+03 -0.18394070545E+03  0.37914974918E+03  0.00000000000E+00 0.  1.
         12    1    5    5    0    0 -0.36565663715E+01  0.12177142403E+02 -0.14042904881E+02  0.18943506862E+02  0.00000000000E+00 0. -1.
        -11    1    3    3    0    0 -0.28087403788E+03 -0.46653033090E+02  0.80354167082E+02  0.29584374731E+03  0.00000000000E+00 0.  1.
         12    1    3    3    0    0 -0.60790736590E+03 -0.21781712068E+03  0.30376766486E+03  0.71363187834E+03  0.00000000000E+00 0. -1.
          5    1    4    4  501    0  0.10413276835E+03  0.81801538214E+02  0.42734371420E+02  0.13922442888E+03  0.47000000000E+01 0.  1.
         -5    1    4    4    0  501  0.43760296411E+03  0.15364514800E+03  0.34969271155E+03  0.58087026797E+03  0.47000000000E+01 0.  1.
          1    1    1    2  502    0 -0.44511828161E+02 -0.70423218384E+02  0.11366047690E+04  0.11396539533E+04  0.00000000000E+00 0. -1.
          1    1    1    2  503    0  0.99181130508E+02 -0.62011568366E+02 -0.23084854804E+04  0.23114470672E+04  0.00000000000E+00 0. -1.
<mgrwt>
<rscale>  0 0.98716691E+02</rscale>
<asrwt>0</asrwt>
<pdfrwt beam="1">  1        2 0.36657715E+00 0.83311059E+02</pdfrwt>
<pdfrwt beam="2">  1        2 0.45382941E+00 0.11697109E+03</pdfrwt>
<totfact> 0.21339561E+00</totfact>
</mgrwt>
</event>
<event>
13    1  0.1675423E-008  0.1121132E+03  0.7546771E-02  0.1428066E+00
          2   -1    0    0  503    0  0.00000000000E+00  0.00000000000E+00  0.53683934156E+03  0.53683934156E+03  0.00000000000E+00 0. -1.
          2   -1    0    0  502    0 -0.00000000000E+00 -0.00000000000E+00 -0.24993887979E+04  0.24993887979E+04  0.00000000000E+00 0. -1.
         24    2    1    2    0    0  0.13597133116E+02 -0.84520616155E+02 -0.34762693056E+02  0.12255190271E+03  0.80510294038E+02 0.  0.
         25    2    1    2    0    0 -0.27440932928E+02  0.20142790674E+03 -0.19667727137E+04  0.19811976751E+04  0.12499245597E+03 0.  0.
         24    2    1    2    0    0  0.20363522105E+02 -0.42181894672E+02 -0.16007770532E+02  0.94178732026E+02  0.80121155621E+02 0.  0.
        -11    1    5    5    0    0  0.12484615718E+02  0.27021459704E+01 -0.40483841865E+02  0.42451250566E+02  0.00000000000E+00 0.  1.
         12    1    5    5    0    0  0.78789063870E+01 -0.44884040642E+02  0.24476071334E+02  0.51727481460E+02  0.00000000000E+00 0. -1.
        -13    1    3    3    0    0 -0.23482329059E+02 -0.19733925723E+02 -0.36762078678E+02  0.47877949322E+02  0.00000000000E+00 0.  1.
         14    1    3    3    0    0  0.37079462175E+02 -0.64786690431E+02  0.19993856228E+01  0.74673953392E+02  0.00000000000E+00 0. -1.
          5    1    4    4  501    0  0.49623658631E+02  0.66197572774E+02 -0.70373683561E+03  0.70859879335E+03  0.47000000000E+01 0.  1.
         -5    1    4    4    0  501 -0.77064591559E+02  0.13523033397E+03 -0.12630358781E+04  0.12725988817E+04  0.47000000000E+01 0.  1.
          1    1    1    2  502    0 -0.17912143753E+02  0.17990604493E+02 -0.38634769533E+03  0.38718089885E+03  0.00000000000E+00 0. -1.
          1    1    1    2  503    0  0.11392421460E+02 -0.92716000406E+02  0.44134141627E+03  0.45111893079E+03  0.00000000000E+00 0. -1.
<mgrwt>
<rscale>  0 0.53350092E+02</rscale>
<asrwt>0</asrwt>
<pdfrwt beam="1">  1        2 0.78946963E-01 0.11211316E+03</pdfrwt>
<pdfrwt beam="2">  1        2 0.36755717E+00 0.25387137E+02</pdfrwt>
<totfact> 0.60561990E+01</totfact>
</mgrwt>
</event>
<event>
13    1  0.1675423E-008  0.5268990E+02  0.7546771E-02  0.1476785E+00
          2   -1    0    0  502    0  0.00000000000E+00  0.00000000000E+00  0.13238713860E+04  0.13238713860E+04  0.00000000000E+00 0. -1.
          4   -1    0    0  503    0 -0.00000000000E+00 -0.00000000000E+00 -0.24482971249E+03  0.24482971249E+03  0.00000000000E+00 0. -1.
         24    2    1    2    0    0 -0.39067245287E+02 -0.94521280506E+02  0.55078516184E+03  0.56552310980E+03  0.77405239451E+02 0.  0.
         25    2    1    2    0    0  0.28155734044E+02  0.13296018503E+02  0.68976930362E+02  0.14612691178E+03  0.12500291179E+03 0.  0.
         24    2    1    2    0    0 -0.18589491453E+02  0.13426256800E+03  0.34796280114E+03  0.38201934301E+03  0.80552225907E+02 0.  0.
        -13    1    5    5    0    0 -0.19079784440E+02 -0.20755998519E+00  0.20418602953E+02  0.27946387995E+02  0.00000000000E+00 0.  1.
         14    1    5    5    0    0  0.49029298659E+00  0.13447012799E+03  0.32754419819E+03  0.35407295502E+03  0.00000000000E+00 0. -1.
        -13    1    3    3    0    0 -0.15049109047E+01  0.13647628240E+02  0.62868234524E+02  0.64350115971E+02  0.00000000000E+00 0.  1.
         14    1    3    3    0    0 -0.37562334382E+02 -0.10816890875E+03  0.48791692731E+03  0.50117299383E+03  0.00000000000E+00 0. -1.
          5    1    4    4  501    0  0.32600524691E+02 -0.24106857307E+02 -0.22840281385E+02  0.46772889937E+02  0.47000000000E+01 0.  1.
         -5    1    4    4    0  501 -0.44447906468E+01  0.37402875810E+02  0.91817211747E+02  0.99354021839E+02  0.47000000000E+01 0.  1.
          1    1    1    2  502    0  0.37757938010E+02 -0.97996234289E+00  0.28809637164E+03  0.29056176892E+03  0.00000000000E+00 0. -1.
          3    1    1    2  503    0 -0.82569353146E+01 -0.52057343657E+02 -0.17677959148E+03  0.18446996496E+03  0.00000000000E+00 0. -1.
<mgrwt>
<rscale>  0 0.44610894E+02</rscale>
<asrwt>0</asrwt>
<pdfrwt beam="1">  1        2 0.19468697E+00 0.37770653E+02</pdfrwt>
<pdfrwt beam="2">  1        4 0.36004370E-01 0.52689898E+02</pdfrwt>
<totfact> 0.73216429E+01</totfact>
</mgrwt>
</event>
<event>
13    1  0.1675423E-008  0.1117943E+03  0.7546771E-02  0.1330344E+00
         -1   -1    0    0    0  501 -0.00000000000E+00  0.00000000000E+00  0.36886805847E+03  0.36886805847E+03  0.00000000000E+00 0.  1.
          2   -1    0    0  503    0  0.00000000000E+00 -0.00000000000E+00 -0.45825427800E+04  0.45825427800E+04  0.00000000000E+00 0. -1.
         24    2    1    2    0    0 -0.15880444689E+02  0.16042982532E+02 -0.12859193044E+04  0.12885870757E+04  0.79741007055E+02 0.  0.
         25    2    1    2    0    0 -0.27204871188E+02 -0.13720364767E+03 -0.43079288686E+02  0.19247949058E+03  0.12501033249E+03 0.  0.
         24    2    1    2    0    0  0.58161105671E+02  0.19677588121E+02 -0.69120906622E+03  0.69877223264E+03  0.82114177763E+02 0.  0.
        -11    1    3    3    0    0  0.30356314090E+02 -0.30305412864E+00 -0.32421208468E+03  0.32563027116E+03  0.00000000000E+00 0.  1.
         12    1    3    3    0    0 -0.46236758779E+02  0.16346036660E+02 -0.96170721976E+03  0.96295680449E+03  0.00000000000E+00 0. -1.
        -11    1    5    5    0    0  0.78679904592E+02  0.11481133353E+02 -0.57615040316E+03  0.58161123689E+03  0.00000000000E+00 0.  1.
         12    1    5    5    0    0 -0.20518798921E+02  0.81964547674E+01 -0.11505866306E+03  0.11716099575E+03  0.00000000000E+00 0. -1.
          5    1    4    4  502    0 -0.76399917187E+02 -0.66960332565E+02 -0.24429237038E+02  0.10459211780E+03  0.47000000000E+01 0. -1.
         -5    1    4    4    0  502  0.49195045999E+02 -0.70243315103E+02 -0.18650051648E+02  0.87887372779E+02  0.47000000000E+01 0. -1.
          1    1    1    2  503    0 -0.69171103597E+02  0.11813526653E+03 -0.24778411681E+04  0.24816199220E+04  0.00000000000E+00 0. -1.
         -2    1    1    2    0  501  0.54095313802E+02 -0.16652189514E+02  0.28437410593E+03  0.28995211762E+03  0.00000000000E+00 0.  1.
<mgrwt>
<rscale>  0 0.79546184E+02</rscale>
<asrwt>0</asrwt>
<pdfrwt beam="2">  1        2 0.67390331E+00 0.11179430E+03</pdfrwt>
<pdfrwt beam="1">  1       -1 0.54245306E-01 0.56600339E+02</pdfrwt>
<totfact> 0.11027446E+00</totfact>
</mgrwt>
</event>
<event>
13    1  0.1675423E-008  0.1234877E+03  0.7546771E-02  0.1319582E+00
         -1   -1    0    0    0  501 -0.00000000000E+00  0.00000000000E+00  0.11864985222E+04  0.11864985222E+04  0.00000000000E+00 0.  1.
          2   -1    0    0  503    0  0.00000000000E+00 -0.00000000000E+00 -0.42230757663E+04  0.42230757663E+04  0.00000000000E+00 0. -1.
         24    2    1    2    0    0  0.16273677744E+03 -0.17657122649E+03 -0.94361175140E+03  0.97649774124E+03  0.74054334802E+02 0.  0.
         25    2    1    2    0    0 -0.10374952733E+03  0.24962379934E+03  0.40724666383E+03  0.50453044646E+03  0.12500048233E+03 0.  0.
         24    2    1    2    0    0 -0.11028198236E+02 -0.14370559806E+02  0.26952873386E+02  0.88627906858E+02  0.82464018486E+02 0.  0.
        -11    1    3    3    0    0 -0.18576426281E+01  0.53648793087E+01 -0.15525742907E+02  0.16531226783E+02  0.00000000000E+00 0.  1.
         12    1    3    3    0    0  0.16459442007E+03 -0.18193610580E+03 -0.92808600849E+03  0.95996651446E+03  0.00000000000E+00 0. -1.
        -13    1    5    5    0    0 -0.41375147184E+02  0.12360616037E+02  0.78011227029E+01  0.43881034044E+02  0.00000000000E+00 0.  1.
         14    1    5    5    0    0  0.30346948948E+02 -0.26731175843E+02  0.19151750683E+02  0.44746872814E+02  0.00000000000E+00 0. -1.
          5    1    4    4  502    0 -0.12331568795E+03  0.24862779623E+03  0.37609531442E+03  0.46743161583E+03  0.47000000000E+01 0.  1.
         -5    1    4    4    0  502  0.19566160616E+02  0.99600310916E+00  0.31151349415E+02  0.37098830626E+02  0.47000000000E+01 0.  1.
          1    1    1    2  503    0 -0.10367515227E+03 -0.67247031394E+02 -0.31811294504E+04  0.31835287466E+04  0.00000000000E+00 0. -1.
         -2    1    1    2    0  501  0.55716100395E+02  0.85650183511E+01  0.65396442048E+03  0.65638944739E+03  0.00000000000E+00 0.  1.
<mgrwt>
<rscale>  0 0.83433060E+02</rscale>
<asrwt>0</asrwt>
<pdfrwt beam="2">  1        2 0.62104055E+00 0.12348772E+03</pdfrwt>
<pdfrwt beam="1">  1       -1 0.17448508E+00 0.56370590E+02</pdfrwt>
<totfact> 0.16084282E-01</totfact>
</mgrwt>
</event>
<event>
13    1  0.1675423E-008  0.6740528E+02  0.7546771E-02  0.1371327E+00
          2   -1    0    0  503    0  0.00000000000E+00  0.00000000000E+00  0.11398137279E+04  0.11398137279E+04  0.00000000000E+00 0. -1.
         -1   -1    0    0    0  501 -0.00000000000E+00 -0.00000000000E+00 -0.11009287001E+04  0.11009287001E+04  0.00000000000E+00 0.  1.
         24    2    1    2    0    0 -0.72324416859E+00  0.22404916133E+02  0.54761841233E+03  0.55287762627E+03  0.72699661384E+02 0.  0.
         25    2    1    2    0    0 -0.35354093670E+02 -0.13677450487E+03  0.25250379809E+02  0.19027437369E+03  0.12493829870E+03 0.  0.
         24    2    1    2    0    0 -0.12641122706E+02 -0.66628739449E+01  0.14061480460E+03  0.16228921606E+03  0.79756344595E+02 0.  0.
        -11    1    5    5    0    0 -0.59955100010E+01 -0.40288981929E+02  0.44904911826E+02  0.60626721098E+02  0.00000000000E+00 0.  1.
         12    1    5    5    0    0 -0.66456127047E+01  0.33626107984E+02  0.95709892774E+02  0.10166249496E+03  0.00000000000E+00 0. -1.
        -13    1    3    3    0    0  0.24056221819E+02  0.32478627759E+02  0.18953274647E+03  0.19379428540E+03  0.00000000000E+00 0.  1.
         14    1    3    3    0    0 -0.24779465987E+02 -0.10073711627E+02  0.35808566586E+03  0.35908334088E+03  0.00000000000E+00 0. -1.
          5    1    4    4  502    0 -0.22968665036E+02 -0.35532506203E+02 -0.48340737320E+02  0.64413006879E+02  0.47000000000E+01 0. -1.
         -5    1    4    4    0  502 -0.12385428633E+02 -0.10124199866E+03  0.73591117128E+02  0.12586136681E+03  0.47000000000E+01 0. -1.
          1    1    1    2  503    0  0.10982143927E+02  0.65281958021E+02  0.32589229908E+03  0.33254793959E+03  0.00000000000E+00 0. -1.
         -2    1    1    2    0  501  0.37736316617E+02  0.55750504657E+02 -0.10004908680E+04  0.10027532724E+04  0.00000000000E+00 0.  1.
<mgrwt>
<rscale>  0 0.66799546E+02</rscale>
<asrwt>0</asrwt>
<pdfrwt beam="1">  1        2 0.16761967E+00 0.66199256E+02</pdfrwt>
<pdfrwt beam="2">  1       -1 0.16190128E+00 0.67405279E+02</pdfrwt>
<totfact> 0.98643786E+00</totfact>
</mgrwt>
</event>
<event>
13    1  0.1675423E-008  0.4822705E+02  0.7546771E-02  0.1541488E+00
          4   -1    0    0  503    0 -0.00000000000E+00  0.00000000000E+00  0.12552898571E+03  0.12552898571E+03  0.00000000000E+00 0. -1.
          2   -1    0    0  502    0  0.00000000000E+00 -0.00000000000E+00 -0.25298900129E+04  0.25298900129E+04  0.00000000000E+00 0. -1.
         24    2    1    2    0    0 -0.65229272529E+02 -0.40491668102E+02 -0.24224241802E+03  0.26635312115E+03  0.79800769893E+02 0.  0.
         25    2    1    2    0    0 -0.35327009166E+02  0.77513729284E+02 -0.24673688804E+03  0.28942832868E+03  0.12503315446E+03 0.  0.
         24    2    1    2    0    0  0.32480013466E+02 -0.83047880916E+01 -0.92855455484E+03  0.93260616845E+03  0.80104827231E+02 0.  0.
        -13    1    5    5    0    0  0.31779555991E+02  0.38742290986E+01 -0.90896546322E+03  0.90952908868E+03  0.00000000000E+00 0.  1.
         14    1    5    5    0    0  0.70045747531E+00 -0.12179017190E+02 -0.19589091620E+02  0.23077079774E+02  0.00000000000E+00 0. -1.
        -13    1    3    3    0    0  0.75408136125E+01 -0.13951205053E+02 -0.12392546912E+03  0.12493607121E+03  0.00000000000E+00 0.  1.
         14    1    3    3    0    0 -0.72770086142E+02 -0.26540463048E+02 -0.11831694890E+03  0.14141704994E+03  0.00000000000E+00 0. -1.
          5    1    4    4  501    0  0.23772575384E+02  0.76998578345E+02 -0.19382688402E+03  0.20996396685E+03  0.47000000000E+01 0.  1.
         -5    1    4    4    0  501 -0.59099584549E+02  0.51515093987E+00 -0.52910004024E+02  0.79464361825E+02  0.47000000000E+01 0.  1.
          1    1    1    2  502    0  0.45592424528E+02 -0.14510877253E+02 -0.10744225846E+04  0.10754873896E+04  0.00000000000E+00 0. -1.
          3    1    1    2  503    0  0.22483843701E+02 -0.14206395838E+02  0.87595418408E+02  0.91543990717E+02  0.00000000000E+00 0. -1.
<mgrwt>
<rscale>  0 0.35814028E+02</rscale>
<asrwt>0</asrwt>
<pdfrwt beam="2">  1        2 0.37204262E+00 0.48227052E+02</pdfrwt>
<pdfrwt beam="1">  1        4 0.18460146E-01 0.26595957E+02</pdfrwt>
<totfact> 0.57675854E+01</totfact>
</mgrwt>
</event>
<event>
13    1  0.1675423E-008  0.1282494E+03  0.7546771E-02  0.1306130E+00
          2   -1    0    0  502    0  0.00000000000E+00  0.00000000000E+00  0.22524731007E+04  0.22524731007E+04  0.00000000000E+00 0. -1.
          4   -1    0    0  503    0 -0.00000000000E+00 -0.00000000000E+00 -0.16061154409E+03  0.16061154409E+03  0.00000000000E+00 0. -1.
         24    2    1    2    0    0  0.46504651709E+02  0.43109735185E+02  0.17011143176E+03  0.19825716188E+03  0.79667252511E+02 0.  0.
         25    2    1    2    0    0  0.12520740513E+03  0.70048399904E+02  0.18113794130E+03  0.26271749613E+03  0.12500342542E+03 0.  0.
         24    2    1    2    0    0 -0.64050753560E+01 -0.15180785529E+03  0.80317706149E+02  0.19110496560E+03  0.83567481937E+02 0.  0.
        -11    1    5    5    0    0  0.38523431383E+01  0.54971606177E+01 -0.79748316594E+01  0.10423879437E+02  0.00000000000E+00 0.  1.
         12    1    5    5    0    0 -0.10257418494E+02 -0.15730501591E+03  0.88292537808E+02  0.18068108617E+03  0.00000000000E+00 0. -1.
        -13    1    3    3    0    0  0.67967476531E+02  0.28271929398E+02  0.14171359467E+03  0.15969227524E+03  0.00000000000E+00 0.  1.
         14    1    3    3    0    0 -0.21462824823E+02  0.14837805787E+02  0.28397837095E+02  0.38564886641E+02  0.00000000000E+00 0. -1.
          5    1    4    4  501    0 -0.77358725057E+01  0.12249203804E+02 -0.13246218961E+02  0.20185119123E+02  0.47000000000E+01 0. -1.
         -5    1    4    4    0  501  0.13294327763E+03  0.57799196100E+02  0.19438416026E+03  0.24253237701E+03  0.47000000000E+01 0. -1.
          1    1    1    2  502    0 -0.34986757303E+02  0.50324427733E+02  0.16240902793E+04  0.16252463987E+04  0.00000000000E+00 0. -1.
          3    1    1    2  503    0 -0.13032022418E+03 -0.11674707527E+02  0.36204198171E+02  0.13575862253E+03  0.00000000000E+00 0. -1.
<mgrwt>
<rscale>  0 0.88659846E+02</rscale>
<asrwt>0</asrwt>
<pdfrwt beam="1">  1        2 0.33124602E+00 0.61291282E+02</pdfrwt>
<pdfrwt beam="2">  1        4 0.23619346E-01 0.12824937E+03</pdfrwt>
<totfact> 0.61741194E+01</totfact>
</mgrwt>
</event>
<event>
13    1  0.1675423E-008  0.6357196E+03  0.7546771E-02  0.1015293E+00
         -3   -1    0    0    0  501 -0.00000000000E+00  0.00000000000E+00  0.30985539566E+04  0.30985539566E+04  0.00000000000E+00 0.  1.
          2   -1    0    0  503    0  0.00000000000E+00 -0.00000000000E+00 -0.17553718279E+04  0.17553718279E+04  0.00000000000E+00 0. -1.
         24    2    1    2    0    0  0.51215846171E+03  0.16411705913E+03  0.78772682174E+02  0.54994780002E+03  0.83646567737E+02 0.  0.
         25    2    1    2    0    0  0.23097869736E+03  0.14359433210E+03 -0.16858895816E+03  0.34353489323E+03  0.12499398069E+03 0.  0.
         24    2    1    2    0    0 -0.17039429824E+02  0.91956888208E+02  0.72408951398E+02  0.14234723790E+03  0.79203967313E+02 0.  0.
        -11    1    5    5    0    0  0.25354730844E+02  0.64024213451E+01  0.23063001427E+02  0.34867684323E+02  0.00000000000E+00 0.  1.
         12    1    5    5    0    0 -0.42394160668E+02  0.85554466863E+02  0.49345949971E+02  0.10747955358E+03  0.00000000000E+00 0. -1.
        -13    1    3    3    0    0  0.25639282596E+03  0.56246296767E+02  0.72401641195E+02  0.27229198437E+03  0.00000000000E+00 0.  1.
         14    1    3    3    0    0  0.25576563575E+03  0.10787076236E+03  0.63710409794E+01  0.27765581565E+03  0.00000000000E+00 0. -1.
          5    1    4    4  502    0  0.28660798693E+02  0.47954215423E+02 -0.90523207564E+02  0.10647811637E+03  0.47000000000E+01 0. -1.
         -5    1    4    4    0  502  0.20231789867E+03  0.95640116677E+02 -0.78065750600E+02  0.23705677686E+03  0.47000000000E+01 0. -1.
          1    1    1    2  503    0  0.62703737490E+03 -0.11099617046E+03 -0.93888596440E+03  0.11344614905E+04  0.00000000000E+00 0. -1.
         -4    1    1    2    0  501 -0.13531351041E+04 -0.28867210897E+03  0.22994754177E+04  0.26836343628E+04  0.00000000000E+00 0.  1.
<mgrwt>
<rscale>  0 0.49424292E+03</rscale>
<asrwt>0</asrwt>
<pdfrwt beam="2">  1        2 0.25814292E+00 0.63571960E+03</pdfrwt>
<pdfrwt beam="1">  1       -3 0.45566970E+00 0.38425126E+03</pdfrwt>
<totfact> 0.38874473E-02</totfact>
</mgrwt>
</event>
<event>
13    1  0.1675423E-008  0.9599235E+02  0.7546771E-02  0.1452150E+00
          2   -1    0    0  503    0  0.00000000000E+00  0.00000000000E+00  0.39351701487E+04  0.39351701487E+04  0.00000000000E+00 0. -1.
          2   -1    0    0  502    0 -0.00000000000E+00 -0.00000000000E+00 -0.18920394504E+04  0.18920394504E+04  0.00000000000E+00 0. -1.
         24    2    1    2    0    0  0.15156376370E+02  0.11981832229E+04 -0.63367275757E+03  0.13576148101E+04  0.75525211707E+02 0.  0.
         25    2    1    2    0    0 -0.22617841917E+03 -0.77312700222E+03 -0.26017797985E+03  0.85568884249E+03  0.12501509954E+03 0.  0.
         24    2    1    2    0    0  0.29156161105E+03 -0.36943517696E+03  0.45681359895E+03  0.65781431183E+03  0.50502293486E+02 0.  0.
        -11    1    5    5    0    0  0.15404776796E+03 -0.15857007425E+03  0.19839092377E+03  0.29704232341E+03  0.00000000000E+00 0.  1.
         12    1    5    5    0    0  0.13751384309E+03 -0.21086510271E+03  0.25842267518E+03  0.36077198842E+03  0.00000000000E+00 0. -1.
        -11    1    3    3    0    0  0.27801879200E+02  0.11587767876E+04 -0.60769059640E+03  0.13087491925E+04  0.00000000000E+00 0.  1.
         12    1    3    3    0    0 -0.12645502830E+02  0.39406435286E+02 -0.25982161172E+02  0.48865617595E+02  0.00000000000E+00 0. -1.
          5    1    4    4  501    0  0.65954315051E+00 -0.12200305965E+03 -0.11261584784E+02  0.12261359979E+03  0.47000000000E+01 0.  1.
         -5    1    4    4    0  501 -0.22683796232E+03 -0.65112394257E+03 -0.24891639507E+03  0.73307524270E+03  0.47000000000E+01 0.  1.
          1    1    1    2  502    0 -0.17899920595E+02  0.17117758753E+02 -0.23646741790E+03  0.23776093992E+03  0.00000000000E+00 0. -1.
          1    1    1    2  503    0 -0.62639647661E+02 -0.72738802490E+02  0.27166352547E+04  0.27183306947E+04  0.00000000000E+00 0. -1.
<mgrwt>
<rscale>  0 0.48759434E+02</rscale>
<asrwt>0</asrwt>
<pdfrwt beam="1">  1        2 0.57870149E+00 0.95992354E+02</pdfrwt>
<pdfrwt beam="2">  1        2 0.27824110E+00 0.24767415E+02</pdfrwt>
<totfact> 0.15352720E+00</totfact>
</mgrwt>
</event>
<event>
13    1  0.1675423E-008  0.1383767E+03  0.7546771E-02  0.1272824E+00
          2   -1    0    0  502    0  0.00000000000E+00  0.00000000000E+00  0.10217072753E+04  0.10217072753E+04  0.00000000000E+00 0. -1.
          2   -1    0    0  503    0 -0.00000000000E+00 -0.00000000000E+00 -0.30121249116E+04  0.30121249116E+04  0.00000000000E+00 0. -1.
         24    2    1    2    0    0  0.10321643757E+02  0.11283847758E+02  0.16691724303E+02  0.83831760087E+02  0.80717338837E+02 0.  0.
         25    2    1    2    0    0  0.49954351962E+02  0.18243300790E+03 -0.37627497801E+02  0.22981752312E+03  0.12499210250E+03 0.  0.
         24    2    1    2    0    0  0.86809138166E+02 -0.15075470859E+03  0.46208415161E+03  0.50013811385E+03  0.79709228584E+02 0.  0.
        -11    1    5    5    0    0  0.69120835826E+02 -0.15428165843E+03  0.44154961963E+03  0.47280713475E+03  0.00000000000E+00 0.  1.
         12    1    5    5    0    0  0.17688302339E+02  0.35269498406E+01  0.20534531981E+02  0.27330979098E+02  0.00000000000E+00 0. -1.
        -13    1    3    3    0    0  0.41217351769E+02  0.16501458677E+02 -0.64706070002E+01  0.44866880661E+02  0.00000000000E+00 0.  1.
         14    1    3    3    0    0 -0.30895708012E+02 -0.52176109188E+01  0.23162331303E+02  0.38964879426E+02  0.00000000000E+00 0. -1.
          5    1    4    4  501    0  0.75982925846E+02  0.49585774213E+02 -0.83570829619E+01  0.91236422881E+02  0.47000000000E+01 0. -1.
         -5    1    4    4    0  501 -0.26028573885E+02  0.13284723369E+03 -0.29270414839E+02  0.13858110023E+03  0.47000000000E+01 0. -1.
          1    1    1    2  502    0 -0.12808110037E+02 -0.76557787176E+02  0.38870482164E+03  0.39637933955E+03  0.00000000000E+00 0. -1.
          1    1    1    2  503    0 -0.13427702385E+03  0.33595640105E+02 -0.28202708361E+04  0.28236654502E+04  0.00000000000E+00 0. -1.
<mgrwt>
<rscale>  0 0.10363904E+03</rscale>
<asrwt>0</asrwt>
<pdfrwt beam="1">  1        2 0.15025107E+00 0.77621791E+02</pdfrwt>
<pdfrwt beam="2">  1        2 0.44295955E+00 0.13837674E+03</pdfrwt>
<totfact> 0.12213644E+01</totfact>
</mgrwt>
</event>
<event>
13    1  0.1675423E-008  0.5016460E+02  0.7546771E-02  0.1541172E+00
         -1   -1    0    0    0  501 -0.00000000000E+00  0.00000000000E+00  0.28726746882E+04  0.28726746882E+04  0.00000000000E+00 0.  1.
          2   -1    0    0  503    0  0.00000000000E+00 -0.00000000000E+00 -0.21781403000E+04  0.21781403000E+04  0.00000000000E+00 0. -1.
         24    2    1    2    0    0 -0.46649298791E+03  0.39803492038E+03 -0.24266052590E+03  0.66724350517E+03  0.10140147307E+03 0.  0.
         25    2    1    2    0    0  0.38677506507E+02 -0.20151804979E+03  0.28377729235E+02  0.24194030395E+03  0.12499736499E+03 0.  0.
         24    2    1    2    0    0  0.42835945240E+03 -0.24380287947E+03 -0.36991864358E+03  0.62174098000E+03  0.82403755022E+02 0.  0.
        -11    1    5    5    0    0  0.27669121296E+03 -0.11261339910E+03 -0.20823062005E+03  0.36414254916E+03  0.00000000000E+00 0.  1.
         12    1    5    5    0    0  0.15166823944E+03 -0.13118948037E+03 -0.16168802353E+03  0.25759843083E+03  0.00000000000E+00 0. -1.
        -11    1    3    3    0    0 -0.18424314642E+03  0.98044551073E+02 -0.64292009407E+02  0.21838437094E+03  0.00000000000E+00 0.  1.
         12    1    3    3    0    0 -0.28224984149E+03  0.29999036931E+03 -0.17836851650E+03  0.44885913423E+03  0.00000000000E+00 0. -1.
          5    1    4    4  502    0  0.21841834513E+02 -0.21625462186E+03  0.25381152557E+02  0.21888220603E+03  0.47000000000E+01 0.  1.
         -5    1    4    4    0  502  0.16835671994E+02  0.14736572068E+02  0.29965766782E+01  0.23058097918E+02  0.47000000000E+01 0.  1.
          1    1    1    2  503    0 -0.25355009837E+02  0.36840384203E+01 -0.11201684484E+04  0.11204614235E+04  0.00000000000E+00 0. -1.
         -2    1    1    2    0  501  0.24811038845E+02  0.43601970454E+02  0.23989042769E+04  0.23994287756E+04  0.00000000000E+00 0.  1.
<mgrwt>
<rscale>  0 0.35850802E+02</rscale>
<asrwt>0</asrwt>
<pdfrwt beam="2">  1        2 0.32031475E+00 0.25621254E+02</pdfrwt>
<pdfrwt beam="1">  1       -1 0.42245216E+00 0.50164602E+02</pdfrwt>
<totfact> 0.84654656E-02</totfact>
</mgrwt>
</event>
<event>
13    1  0.1675423E-008  0.7746677E+02  0.7546771E-02  0.1469747E+00
          2   -1    0    0  502    0  0.00000000000E+00  0.00000000000E+00  0.77385212394E+03  0.77385212394E+03  0.00000000000E+00 0. -1.
          2   -1    0    0  503    0 -0.00000000000E+00 -0.00000000000E+00 -0.14940054171E+04  0.14940054171E+04  0.00000000000E+00 0. -1.
         24    2    1    2    0    0  0.22891945173E+03  0.80253888358E+02  0.86281362805E+02  0.27002699110E+03  0.81395948169E+02 0.  0.
         25    2    1    2    0    0 -0.20977557513E+03 -0.35602417461E+02 -0.82985598745E+02  0.26035533186E+03  0.12499986073E+03 0.  0.
         24    2    1    2    0    0 -0.12957553300E+02  0.45589241646E+02 -0.88410675388E+02  0.12837640192E+03  0.80111022379E+02 0.  0.
        -11    1    5    5    0    0 -0.38030897115E+02  0.61078108292E+01 -0.66222533813E+02  0.76609911063E+02  0.00000000000E+00 0.  1.
         12    1    5    5    0    0  0.25073343814E+02  0.39481430816E+02 -0.22188141575E+02  0.51766490859E+02  0.00000000000E+00 0. -1.
        -11    1    3    3    0    0  0.15012960670E+03  0.72407546515E+02  0.92461474748E+02  0.19060659987E+03  0.00000000000E+00 0.  1.
         12    1    3    3    0    0  0.78789845024E+02  0.78463418425E+01 -0.61801119436E+01  0.79420391228E+02  0.00000000000E+00 0. -1.
          5    1    4    4  501    0 -0.22338222813E+02  0.36357456278E+02 -0.30858552939E+02  0.52869661573E+02  0.47000000000E+01 0.  1.
         -5    1    4    4    0  501 -0.18743735231E+03 -0.71959873739E+02 -0.52127045806E+02  0.20748567029E+03  0.47000000000E+01 0.  1.
          1    1    1    2  502    0 -0.24652318751E+02  0.11042229172E+02  0.48429151243E+03  0.48504426257E+03  0.00000000000E+00 0. -1.
          1    1    1    2  503    0  0.18465995452E+02 -0.10128294171E+03 -0.11193298943E+04  0.11240545536E+04  0.00000000000E+00 0. -1.
<mgrwt>
<rscale>  0 0.45744512E+02</rscale>
<asrwt>0</asrwt>
<pdfrwt beam="1">  1        2 0.11380178E+00 0.27012361E+02</pdfrwt>
<pdfrwt beam="2">  1        2 0.21970668E+00 0.77466770E+02</pdfrwt>
<totfact> 0.10834094E+02</totfact>
</mgrwt>
</event>
<event>
13    1  0.1675423E-008  0.4416130E+02  0.7546771E-02  0.1537590E+00
          2   -1    0    0  502    0  0.00000000000E+00  0.00000000000E+00  0.77077343760E+03  0.77077343760E+03  0.00000000000E+00 0. -1.
          2   -1    0    0  503    0 -0.00000000000E+00 -0.00000000000E+00 -0.48194411373E+04  0.48194411373E+04  0.00000000000E+00 0. -1.
         24    2    1    2    0    0  0.11189293526E+04  0.20060730333E+03 -0.83109734819E+03  0.14125344311E+04  0.11083560188E+03 0.  0.
         25    2    1    2    0    0 -0.93314504849E+03 -0.50444299657E+03 -0.22311468473E+04  0.24736316174E+04  0.12495881665E+03 0.  0.
         24    2    1    2    0    0 -0.20236873137E+03  0.28005552920E+03 -0.55849293475E+03  0.66215416522E+03  0.84555174181E+02 0.  0.
        -13    1    5    5    0    0 -0.94975854173E+02  0.16416307566E+03 -0.23374459201E+03  0.30100907392E+03  0.00000000000E+00 0.  1.
         14    1    5    5    0    0 -0.10739287720E+03  0.11589245354E+03 -0.32474834274E+03  0.36114509130E+03  0.00000000000E+00 0. -1.
        -13    1    3    3    0    0  0.53421432096E+03  0.14888848506E+03 -0.38110166626E+03  0.67289761608E+03  0.00000000000E+00 0.  1.
         14    1    3    3    0    0  0.58471503169E+03  0.51718818265E+02 -0.44999568193E+03  0.73963681506E+03  0.00000000000E+00 0. -1.
          5    1    4    4  501    0 -0.83484583390E+03 -0.47433724256E+03 -0.20779815455E+04  0.22891030513E+04  0.47000000000E+01 0. -1.
         -5    1    4    4    0  501 -0.98299214597E+02 -0.30105754009E+02 -0.15316530183E+03  0.18452856608E+03  0.47000000000E+01 0. -1.
          1    1    1    2  502    0  0.22007835012E+02 -0.20079484465E+02  0.30559249101E+03  0.30704120418E+03  0.00000000000E+00 0. -1.
          1    1    1    2  503    0 -0.54234077952E+01  0.43859648513E+02 -0.73352306044E+03  0.73485315697E+03  0.00000000000E+00 0. -1.
<mgrwt>
<rscale>  0 0.36271601E+02</rscale>
<asrwt>0</asrwt>
<pdfrwt beam="1">  1        2 0.11334903E+00 0.29791450E+02</pdfrwt>
<pdfrwt beam="2">  1        2 0.70874136E+00 0.44161296E+02</pdfrwt>
<totfact> 0.14166509E+00</totfact>
</mgrwt>
</event>
<event>
13    1  0.1675423E-008  0.1016157E+03  0.7546771E-02  0.1282354E+00
         -3   -1    0    0    0  501 -0.00000000000E+00  0.00000000000E+00  0.33929335879E+03  0.33929335879E+03  0.00000000000E+00 0.  1.
          2   -1    0    0  503    0  0.00000000000E+00 -0.00000000000E+00 -0.40266946573E+04  0.40266946573E+04  0.00000000000E+00 0. -1.
         24    2    1    2    0    0  0.74521872698E+02 -0.21588871810E+02 -0.15050614153E+04  0.15091031534E+04  0.78503978710E+02 0.  0.
         25    2    1    2    0    0 -0.17397438355E+03 -0.36610246770E+02  0.15539934037E+03  0.26717333161E+03  0.12500095133E+03 0.  0.
         24    2    1    2    0    0 -0.14463846726E+02  0.42689675531E+02 -0.78637410948E+02  0.12091847944E+03  0.80036398039E+02 0.  0.
        -13    1    3    3    0    0  0.73155298621E+01 -0.39638806869E+02 -0.48613366321E+03  0.48780189677E+03  0.00000000000E+00 0.  1.
         14    1    3    3    0    0  0.67206342836E+02  0.18049935059E+02 -0.10189277521E+04  0.10213012566E+04  0.00000000000E+00 0. -1.
        -13    1    5    5    0    0  0.13954171155E+02  0.11698005675E+02 -0.76693180505E+02  0.78825162007E+02  0.00000000000E+00 0.  1.
         14    1    5    5    0    0 -0.28418017881E+02  0.30991669856E+02 -0.19442304424E+01  0.42093317435E+02  0.00000000000E+00 0. -1.
          5    1    4    4  502    0 -0.31282929348E+02 -0.93369452696E+01 -0.20619875679E+02  0.38898193899E+02  0.47000000000E+01 0.  1.
         -5    1    4    4    0  502 -0.14269145420E+03 -0.27273301501E+02  0.17601921605E+03  0.22827513771E+03  0.47000000000E+01 0.  1.
          1    1    1    2  503    0  0.16032432046E+02  0.95038610407E+02 -0.23246565972E+04  0.23266537498E+04  0.00000000000E+00 0. -1.
         -4    1    1    2    0  501  0.97883925531E+02 -0.79529167358E+02  0.65554784671E+02  0.14213930185E+03  0.00000000000E+00 0.  1.
<mgrwt>
<rscale>  0 0.99027878E+02</rscale>
<asrwt>0</asrwt>
<pdfrwt beam="2">  1        2 0.59216092E+00 0.96506005E+02</pdfrwt>
<pdfrwt beam="1">  1       -3 0.49896087E-01 0.10161565E+03</pdfrwt>
<totfact> 0.17172649E+00</totfact>
</mgrwt>
</event>
<event>
13    1  0.1675423E-008  0.4669249E+02  0.7546771E-02  0.1493919E+00
          2   -1    0    0  503    0  0.00000000000E+00  0.00000000000E+00  0.41968752816E+03  0.41968752816E+03  0.00000000000E+00 0. -1.
         -1   -1    0    0    0  501 -0.00000000000E+00 -0.00000000000E+00 -0.65828603794E+03  0.65828603794E+03  0.00000000000E+00 0.  1.
         24    2    1    2    0    0  0.21568718470E+03 -0.85389794276E+02  0.14825293520E+02  0.24571686497E+03  0.79653058906E+02 0.  0.
         25    2    1    2    0    0 -0.11465956062E+03  0.77740786991E+02  0.61555136516E+01  0.18669698148E+03  0.12500971059E+03 0.  0.
         24    2    1    2    0    0 -0.43147601105E+02  0.56073585451E+02 -0.45782546655E+02  0.11825097808E+03  0.82953539837E+02 0.  0.
        -13    1    5    5    0    0 -0.50813559681E+02  0.68922874224E+02 -0.19213219684E+02  0.87758351451E+02  0.00000000000E+00 0.  1.
         14    1    5    5    0    0  0.76659585763E+01 -0.12849288773E+02 -0.26569326971E+02  0.30492626626E+02  0.00000000000E+00 0. -1.
        -13    1    3    3    0    0  0.71749907606E+01 -0.12717434743E+02 -0.17234048252E+02  0.22588184035E+02  0.00000000000E+00 0.  1.
         14    1    3    3    0    0  0.20851219394E+03 -0.72672359533E+02  0.32059341772E+02  0.22312868093E+03  0.00000000000E+00 0. -1.
          5    1    4    4  502    0 -0.44843550498E+02 -0.19607041235E+02 -0.34544078988E+02  0.60089628726E+02  0.47000000000E+01 0. -1.
         -5    1    4    4    0  502 -0.69816010127E+02  0.97347828227E+02  0.40699592640E+02  0.12660735275E+03  0.47000000000E+01 0. -1.
          1    1    1    2  503    0 -0.44546925961E+02 -0.13056898342E+02  0.15232485265E+03  0.15924123820E+03  0.00000000000E+00 0. -1.
         -2    1    1    2    0  501 -0.13333097008E+02 -0.35367679825E+02 -0.36612162294E+03  0.36806750337E+03  0.00000000000E+00 0.  1.
<mgrwt>
<rscale>  0 0.42010180E+02</rscale>
<asrwt>0</asrwt>
<pdfrwt beam="1">  1        2 0.61718755E-01 0.46692491E+02</pdfrwt>
<pdfrwt beam="2">  1       -1 0.96806769E-01 0.37797411E+02</pdfrwt>
<totfact> 0.10822309E+02</totfact>
</mgrwt>
</event>
<event>
13    1  0.1675423E-008  0.7095886E+02  0.7546771E-02  0.1440671E+00
          2   -1    0    0  503    0  0.00000000000E+00  0.00000000000E+00  0.24464548800E+04  0.24464548800E+04  0.00000000000E+00 0. -1.
          2   -1    0    0  502    0 -0.00000000000E+00 -0.00000000000E+00 -0.25709439520E+04  0.25709439520E+04  0.00000000000E+00 0. -1.
         24    2    1    2    0    0  0.19989962369E+02 -0.35949088514E+02  0.15903255069E+03  0.18342922591E+03  0.81627159556E+02 0.  0.
         25    2    1    2    0    0 -0.37974251167E+02 -0.67011667790E+01 -0.12955233726E+04  0.13021105644E+04  0.12499665447E+03 0.  0.
         24    2    1    2    0    0 -0.25559346397E+02  0.31772057861E+02 -0.17885537894E+02  0.91793308899E+02  0.80270637495E+02 0.  0.
        -11    1    5    5    0    0 -0.25939741346E+02 -0.10447810305E+02 -0.36222863738E+02  0.45761586278E+02  0.00000000000E+00 0.  1.
         12    1    5    5    0    0  0.38039494962E+00  0.42219868166E+02  0.18337325844E+02  0.46031722621E+02  0.00000000000E+00 0. -1.
        -13    1    3    3    0    0  0.37174169613E+02 -0.94250214462E+01  0.25136888316E+02  0.45854259016E+02  0.00000000000E+00 0.  1.
         14    1    3    3    0    0 -0.17184207243E+02 -0.26524067068E+02  0.13389566238E+03  0.13757496689E+03  0.00000000000E+00 0. -1.
          5    1    4    4  501    0 -0.52017453007E+02  0.30465584144E+02 -0.31380408187E+03  0.31957637434E+03  0.47000000000E+01 0.  1.
         -5    1    4    4    0  501  0.14043201840E+02 -0.37166750923E+02 -0.98171929073E+03  0.98253419008E+03  0.47000000000E+01 0.  1.
          1    1    1    2  502    0 -0.25856350163E+02  0.25730711145E+02 -0.12042495582E+04  0.12048019002E+04  0.00000000000E+00 0. -1.
          1    1    1    2  503    0  0.69399985358E+02 -0.14852513714E+02  0.22341368460E+04  0.22352638327E+04  0.00000000000E+00 0. -1.
<mgrwt>
<rscale>  0 0.50876457E+02</rscale>
<asrwt>0</asrwt>
<pdfrwt beam="1">  1        2 0.35977278E+00 0.70958862E+02</pdfrwt>
<pdfrwt beam="2">  1        2 0.37807999E+00 0.36477669E+02</pdfrwt>
<totfact> 0.50293100E+00</totfact>
</mgrwt>
</event>
<event>
13    1  0.1675423E-008  0.1561071E+03  0.7546771E-02  0.1267880E+00
          2   -1    0    0  502    0  0.00000000000E+00  0.00000000000E+00  0.95527825557E+03  0.95527825557E+03  0.00000000000E+00 0. -1.
          2   -1    0    0  503    0 -0.00000000000E+00 -0.00000000000E+00 -0.26835962909E+04  0.26835962909E+04  0.00000000000E+00 0. -1.
         24    2    1    2    0    0  0.96783424169E+02  0.18955142929E+03  0.22949287902E+03  0.32279540754E+03  0.78950098583E+02 0.  0.
         25    2    1    2    0    0  0.21185566760E+03 -0.14041440340E+03 -0.62184435964E+03  0.68331103572E+03  0.12499814137E+03 0.  0.
         24    2    1    2    0    0 -0.57650285715E+02  0.34704168267E+02  0.72250177551E+02  0.12721229463E+03  0.80218108997E+02 0.  0.
        -11    1    5    5    0    0 -0.69837623043E+02  0.49043209262E+02  0.53939203764E+02  0.10095527559E+03  0.00000000000E+00 0.  1.
         12    1    5    5    0    0  0.12187337328E+02 -0.14339040995E+02  0.18310973788E+02  0.26257019040E+02  0.00000000000E+00 0. -1.
        -13    1    3    3    0    0  0.36666612754E+02  0.14580768247E+03  0.17440082169E+03  0.23026065092E+03  0.00000000000E+00 0.  1.
         14    1    3    3    0    0  0.60116811415E+02  0.43743746826E+02  0.55092057326E+02  0.92534756613E+02  0.00000000000E+00 0. -1.
          5    1    4    4  501    0  0.51376488026E+02 -0.17944048993E+02 -0.28811424337E+03  0.29324638045E+03  0.47000000000E+01 0.  1.
         -5    1    4    4    0  501  0.16047917957E+03 -0.12247035440E+03 -0.33373011628E+03  0.39006465528E+03  0.47000000000E+01 0.  1.
          1    1    1    2  502    0 -0.18205939393E+03 -0.10523505687E+03  0.52782365973E+03  0.56817062215E+03  0.00000000000E+00 0. -1.
          1    1    1    2  503    0 -0.68929412127E+02  0.21393862702E+02 -0.19360403920E+04  0.19373851865E+04  0.00000000000E+00 0. -1.
<mgrwt>
<rscale>  0 0.10614490E+03</rscale>
<asrwt>0</asrwt>
<pdfrwt beam="1">  1        2 0.14048210E+00 0.15610712E+03</pdfrwt>
<pdfrwt beam="2">  1        2 0.39464651E+00 0.72173134E+02</pdfrwt>
<totfact> 0.21071391E+01</totfact>
</mgrwt>
</event>
<event>
13    1  0.1675423E-008  0.1761968E+03  0.7546771E-02  0.1212573E+00
          2   -1    0    0  503    0  0.00000000000E+00  0.00000000000E+00  0.20783860366E+04  0.20783860366E+04  0.00000000000E+00 0. -1.
          2   -1    0    0  502    0 -0.00000000000E+00 -0.00000000000E+00 -0.33514261299E+04  0.33514261299E+04  0.00000000000E+00 0. -1.
         24    2    1    2    0    0  0.36899156711E+03 -0.11527565516E+03  0.84249669237E+03  0.92983059694E+03  0.73082207704E+02 0.  0.
         25    2    1    2    0    0 -0.90852888885E+03  0.15974501604E+03 -0.54210760078E+03  0.10772417238E+04  0.12500347461E+03 0.  0.
         24    2    1    2    0    0  0.44565632734E+03  0.22227320453E+03 -0.66788850028E+03  0.83701756423E+03  0.80674744970E+02 0.  0.
        -11    1    3    3    0    0  0.27694229393E+03 -0.72216779952E+02  0.54703884107E+03  0.61738463790E+03  0.00000000000E+00 0.  1.
         12    1    3    3    0    0  0.92049273177E+02 -0.43058875206E+02  0.29545785130E+03  0.31244595904E+03  0.00000000000E+00 0. -1.
        -11    1    5    5    0    0  0.17274413121E+03  0.59901133386E+02 -0.29683957745E+03  0.34862933811E+03  0.00000000000E+00 0.  1.
         12    1    5    5    0    0  0.27291219613E+03  0.16237207114E+03 -0.37104892283E+03  0.48838822613E+03  0.00000000000E+00 0. -1.
          5    1    4    4  501    0 -0.19515196866E+03  0.60089345332E+02 -0.69620940073E+02  0.21578736198E+03  0.47000000000E+01 0.  1.
         -5    1    4    4    0  501 -0.71337692019E+03  0.99655670705E+02 -0.47248666070E+03  0.86145436183E+03  0.47000000000E+01 0.  1.
          1    1    1    2  502    0  0.32717892810E+02 -0.17275551568E+03 -0.17374325783E+04  0.17463066434E+04  0.00000000000E+00 0. -1.
          1    1    1    2  503    0  0.61163101589E+02 -0.93987049730E+02  0.83189189375E+03  0.83941563804E+03  0.00000000000E+00 0. -1.
<mgrwt>
<rscale>  0 0.14056320E+03</rscale>
<asrwt>0</asrwt>
<pdfrwt beam="1">  1        2 0.30564501E+00 0.11213604E+03</pdfrwt>
<pdfrwt beam="2">  1        2 0.49285678E+00 0.17619683E+03</pdfrwt>
<totfact> 0.21799555E+00</totfact>
</mgrwt>
</event>
<event>
13    1  0.1675423E-008  0.1361531E+03  0.7546771E-02  0.1228238E+00
          2   -1    0    0  502    0  0.00000000000E+00  0.00000000000E+00  0.11770189841E+04  0.11770189841E+04  0.00000000000E+00 0. -1.
          2   -1    0    0  503    0 -0.00000000000E+00 -0.00000000000E+00 -0.99586209796E+03  0.99586209796E+03  0.00000000000E+00 0. -1.
         24    2    1    2    0    0  0.13356892593E+02  0.81018452057E+02 -0.40945441302E+03  0.42984512175E+03  0.10184064117E+03 0.  0.
         25    2    1    2    0    0  0.17829452319E+03 -0.83541589663E+01  0.84897291252E+02  0.23386187877E+03  0.12500039724E+03 0.  0.
         24    2    1    2    0    0 -0.29755265991E+02 -0.67364403532E+02  0.15368121851E+03  0.18836597353E+03  0.80252628280E+02 0.  0.
        -11    1    5    5    0    0 -0.41221514025E+02 -0.89056347126E+00  0.64375518533E+02  0.76447457173E+02  0.00000000000E+00 0.  1.
         12    1    5    5    0    0  0.11466248034E+02 -0.66473840061E+02  0.89305699974E+02  0.11191851636E+03  0.00000000000E+00 0. -1.
        -13    1    3    3    0    0  0.31941790327E+02  0.25549258175E+02 -0.32225530792E+03  0.32484077029E+03  0.00000000000E+00 0.  1.
         14    1    3    3    0    0 -0.18584897734E+02  0.55469193882E+02 -0.87199105104E+02  0.10500435146E+03  0.00000000000E+00 0. -1.
          5    1    4    4  501    0  0.69350938387E+02 -0.14667909809E+02  0.10097074030E+03  0.12345801161E+03  0.47000000000E+01 0.  1.
         -5    1    4    4    0  501  0.10894358481E+03  0.63137508430E+01 -0.16073449053E+02  0.11040386716E+03  0.47000000000E+01 0.  1.
          1    1    1    2  502    0 -0.13502917524E+03  0.11427451423E+03  0.81907228295E+03  0.83795641143E+03  0.00000000000E+00 0. -1.
          1    1    1    2  503    0 -0.26866974557E+02 -0.11957440378E+03 -0.46703949354E+03  0.48285169658E+03  0.00000000000E+00 0. -1.
<mgrwt>
<rscale>  0 0.12947449E+03</rscale>
<asrwt>0</asrwt>
<pdfrwt beam="1">  1        2 0.17309103E+00 0.13615314E+03</pdfrwt>
<pdfrwt beam="2">  1        2 0.14645031E+00 0.12312344E+03</pdfrwt>
<totfact> 0.10482297E+02</totfact>
</mgrwt>
</event>
<event>
13    1  0.1675423E-008  0.3719896E+02  0.7546771E-02  0.1539827E+00
          2   -1    0    0  502    0  0.00000000000E+00  0.00000000000E+00  0.15069542205E+04  0.15069542205E+04  0.00000000000E+00 0. -1.
          4   -1    0    0  503    0 -0.00000000000E+00 -0.00000000000E+00 -0.92930405213E+03  0.92930405213E+03  0.00000000000E+00 0. -1.
         24    2    1    2    0    0  0.18136429052E+03 -0.51376341020E+02  0.30372256509E+03  0.37155347334E+03  0.10135113575E+03 0.  0.
         25    2    1    2    0    0 -0.12496402516E+03 -0.85957706245E+02 -0.26332502193E+03  0.32858686383E+03  0.12499810022E+03 0.  0.
         24    2    1    2    0    0 -0.11016797305E+03  0.12986313607E+03 -0.50205783910E+02  0.19435126828E+03  0.79059334357E+02 0.  0.
        -11    1    5    5    0    0 -0.11406733654E+03  0.90631025200E+02 -0.52498113491E+02  0.15485926486E+03  0.00000000000E+00 0.  1.
         12    1    5    5    0    0  0.38993634943E+01  0.39232110866E+02  0.22923295805E+01  0.39492003413E+02  0.00000000000E+00 0. -1.
        -11    1    3    3    0    0  0.10544015120E+03  0.22365179939E+02  0.14198362266E+03  0.17826153781E+03  0.00000000000E+00 0.  1.
         12    1    3    3    0    0  0.75924139327E+02 -0.73741520959E+02  0.16173894242E+03  0.19329193553E+03  0.00000000000E+00 0. -1.
          5    1    4    4  501    0 -0.20406495690E+02 -0.74873955076E+02 -0.17386086410E+03  0.19045268253E+03  0.47000000000E+01 0. -1.
         -5    1    4    4    0  501 -0.10455752947E+03 -0.11083751170E+02 -0.89464157832E+02  0.13813418130E+03  0.47000000000E+01 0. -1.
          1    1    1    2  502    0  0.31679347015E+02 -0.19491811760E+02  0.10636504975E+04  0.10643006589E+04  0.00000000000E+00 0. -1.
          3    1    1    2  503    0  0.22088360665E+02  0.26962722959E+02 -0.47619208832E+03  0.47746600830E+03  0.00000000000E+00 0. -1.
<mgrwt>
<rscale>  0 0.36008010E+02</rscale>
<asrwt>0</asrwt>
<pdfrwt beam="1">  1        2 0.22161091E+00 0.37198961E+02</pdfrwt>
<pdfrwt beam="2">  1        4 0.13666236E+00 0.34855188E+02</pdfrwt>
<totfact> 0.34581598E+00</totfact>
</mgrwt>
</event>
<event>
13    1  0.1675423E-008  0.2332734E+03  0.7546771E-02  0.1279087E+00
         -1   -1    0    0    0  501 -0.00000000000E+00  0.00000000000E+00  0.46108713591E+03  0.46108713591E+03  0.00000000000E+00 0.  1.
          2   -1    0    0  503    0  0.00000000000E+00 -0.00000000000E+00 -0.25810236843E+04  0.25810236843E+04  0.00000000000E+00 0. -1.
         24    2    1    2    0    0 -0.28128062779E+03  0.12127851811E+03 -0.10820373701E+03  0.33432192459E+03  0.78967271923E+02 0.  0.
         25    2    1    2    0    0  0.20052493766E+02  0.84728583943E+01  0.13708093728E+03  0.18679080916E+03  0.12500292470E+03 0.  0.
         24    2    1    2    0    0  0.87928723103E+02 -0.61899249139E+02 -0.52810651392E+02  0.14421549645E+03  0.80288026033E+02 0.  0.
        -11    1    5    5    0    0  0.16207034156E+02 -0.43866802941E+02  0.92508680260E+01  0.47671195870E+02  0.00000000000E+00 0.  1.
         12    1    5    5    0    0  0.71721688947E+02 -0.18032446197E+02 -0.62061519418E+02  0.96544300576E+02  0.00000000000E+00 0. -1.
        -11    1    3    3    0    0 -0.12022256593E+03  0.80392085551E+02 -0.81545940662E+02  0.16603039847E+03  0.00000000000E+00 0.  1.
         12    1    3    3    0    0 -0.16105806186E+03  0.40886432554E+02 -0.26657796345E+02  0.16829152612E+03  0.00000000000E+00 0. -1.
          5    1    4    4  502    0  0.11096201095E+02 -0.16389774903E+02 -0.19348665310E+02  0.28075100167E+02  0.47000000000E+01 0.  1.
         -5    1    4    4    0  502  0.89562926706E+01  0.24862633297E+02  0.15642960259E+03  0.15871570899E+03  0.47000000000E+01 0.  1.
          1    1    1    2  503    0  0.21356301359E+03 -0.83955164389E+02 -0.22270017393E+04  0.22387930626E+04  0.00000000000E+00 0. -1.
         -2    1    1    2    0  501 -0.40263602672E+02  0.16103037028E+02  0.13099864195E+03  0.13798952748E+03  0.00000000000E+00 0.  1.
<mgrwt>
<rscale>  0 0.10057705E+03</rscale>
<asrwt>0</asrwt>
<pdfrwt beam="2">  1        2 0.37956230E+00 0.23327335E+03</pdfrwt>
<pdfrwt beam="1">  1       -1 0.67806933E-01 0.43364334E+02</pdfrwt>
<totfact> 0.11706947E+01</totfact>
</mgrwt>
</event>
<event>
13    1  0.1675423E-008  0.8072462E+02  0.7546771E-02  0.1371583E+00
          2   -1    0    0  502    0  0.00000000000E+00  0.00000000000E+00  0.24407689807E+04  0.24407689807E+04  0.00000000000E+00 0. -1.
          2   -1    0    0  503    0 -0.00000000000E+00 -0.00000000000E+00 -0.11322406009E+04  0.11322406009E+04  0.00000000000E+00 0. -1.
         24    2    1    2    0    0  0.11061516412E+04  0.60584780275E+03  0.92729896764E+03  0.15669214283E+04  0.68821316487E+02 0.  0.
         25    2    1    2    0    0 -0.70236077153E+03 -0.35880818076E+03  0.32459841573E+03  0.86199836249E+03  0.12499232565E+03 0.  0.
         24    2    1    2    0    0 -0.38390779649E+03 -0.26376603776E+03 -0.28457615379E+03  0.55168054092E+03  0.80063181569E+02 0.  0.
        -13    1    3    3    0    0  0.42712014307E+03  0.21449785315E+03  0.31591754739E+03  0.57292655931E+03  0.00000000000E+00 0.  1.
         14    1    3    3    0    0  0.67903149811E+03  0.39134994960E+03  0.61138142025E+03  0.99399486895E+03  0.00000000000E+00 0. -1.
        -13    1    5    5    0    0 -0.84987148293E+02 -0.10064509846E+03 -0.89104917946E+02  0.15903439132E+03  0.00000000000E+00 0.  1.
         14    1    5    5    0    0 -0.29892064820E+03 -0.16312093930E+03 -0.19547123585E+03  0.39264614960E+03  0.00000000000E+00 0. -1.
          5    1    4    4  501    0 -0.53270915864E+03 -0.27139524708E+03  0.30181682364E+03  0.66973868999E+03  0.47000000000E+01 0.  1.
         -5    1    4    4    0  501 -0.16965161289E+03 -0.87412933675E+02  0.22781592090E+02  0.19225967249E+03  0.47000000000E+01 0.  1.
          1    1    1    2  502    0 -0.67194155488E+02  0.45085900474E+02  0.45702162846E+03  0.46412989758E+03  0.00000000000E+00 0. -1.
          1    1    1    2  503    0  0.47311082326E+02 -0.28359484703E+02 -0.11581447817E+03  0.12827935234E+03  0.00000000000E+00 0. -1.
<mgrwt>
<rscale>  0 0.66728933E+02</rscale>
<asrwt>0</asrwt>
<pdfrwt beam="1">  1        2 0.35893662E+00 0.80724620E+02</pdfrwt>
<pdfrwt beam="2">  1        2 0.16650597E+00 0.55159758E+02</pdfrwt>
<totfact> 0.22946835E+01</totfact>
</mgrwt>
</event>
<event>
13    1  0.1675423E-008  0.1053467E+03  0.7546771E-02  0.1321261E+00
          2   -1    0    0  503    0  0.00000000000E+00  0.00000000000E+00  0.48104450543E+03  0.48104450543E+03  0.00000000000E+00 0. -1.
          2   -1    0    0  502    0 -0.00000000000E+00 -0.00000000000E+00 -0.10217311317E+04  0.10217311317E+04  0.00000000000E+00 0. -1.
         24    2    1    2    0    0 -0.61996336673E+01 -0.15607869504E+01  0.19856710663E+03  0.21382657922E+03  0.79069833898E+02 0.  0.
         25    2    1    2    0    0 -0.16424965809E+02 -0.14347023776E+03 -0.45379635335E+03  0.49234993422E+03  0.12499535508E+03 0.  0.
         24    2    1    2    0    0  0.53576556235E+02 -0.12630531291E+02 -0.14078791185E+03  0.17051049316E+03  0.78883549969E+02 0.  0.
        -11    1    3    3    0    0 -0.35149239226E+02 -0.67022132693E+01  0.16657673304E+03  0.17037663182E+03  0.00000000000E+00 0.  1.
         12    1    3    3    0    0  0.28949605559E+02  0.51414263189E+01  0.31990373592E+02  0.43449947401E+02  0.00000000000E+00 0. -1.
        -13    1    5    5    0    0  0.46264760468E+02  0.80678426725E-01 -0.14735194550E+03  0.15444426313E+03  0.00000000000E+00 0.  1.
         14    1    5    5    0    0  0.73117957669E+01 -0.12711209717E+02  0.65640336471E+01  0.16066230035E+02  0.00000000000E+00 0. -1.
          5    1    4    4  501    0 -0.67141659309E+02 -0.10356310838E+03 -0.33550463642E+03  0.35751751131E+03  0.47000000000E+01 0. -1.
         -5    1    4    4    0  501  0.50716693500E+02 -0.39907129373E+02 -0.11829171692E+03  0.13483242291E+03  0.47000000000E+01 0. -1.
          1    1    1    2  502    0  0.53637629828E+01  0.10363901163E+03 -0.37377539520E+03  0.38791475963E+03  0.00000000000E+00 0. -1.
          1    1    1    2  503    0 -0.36315719742E+02  0.54022544366E+02  0.22910592746E+03  0.23817387093E+03  0.00000000000E+00 0. -1.
<mgrwt>
<rscale>  0 0.82809848E+02</rscale>
<asrwt>0</asrwt>
<pdfrwt beam="1">  1        2 0.70741839E-01 0.65094292E+02</pdfrwt>
<pdfrwt beam="2">  1        2 0.15025458E+00 0.10534673E+03</pdfrwt>
<totfact> 0.30730870E+02</totfact>
</mgrwt>
</event>
<event>
13    1  0.1675423E-008  0.1210643E+03  0.7546771E-02  0.1338748E+00
          2   -1    0    0  502    0  0.00000000000E+00  0.00000000000E+00  0.37400345910E+04  0.37400345910E+04  0.00000000000E+00 0. -1.
          2   -1    0    0  503    0 -0.00000000000E+00 -0.00000000000E+00 -0.29097180782E+04  0.29097180782E+04  0.00000000000E+00 0. -1.
         24    2    1    2    0    0  0.73509536100E+03 -0.39321335518E+03  0.24700489746E+03  0.87305662575E+03  0.78958976291E+02 0.  0.
         25    2    1    2    0    0 -0.50620314615E+03  0.71445966753E+03 -0.18930506718E+04  0.20894886552E+04  0.12501100960E+03 0.  0.
         24    2    1    2    0    0 -0.15374889412E+03 -0.32539041533E+03  0.33330263078E+03  0.49689896323E+03  0.79374373327E+02 0.  0.
        -11    1    3    3    0    0  0.47619775148E+03 -0.21686431082E+03  0.13506562415E+03  0.54040461753E+03  0.00000000000E+00 0.  1.
         12    1    3    3    0    0  0.25889760953E+03 -0.17634904436E+03  0.11193927331E+03  0.33265200822E+03  0.00000000000E+00 0. -1.
        -11    1    5    5    0    0 -0.88123006136E+02 -0.14098805440E+03  0.20001130821E+03  0.26009194356E+03  0.00000000000E+00 0.  1.
         12    1    5    5    0    0 -0.65625887979E+02 -0.18440236093E+03  0.13329132257E+03  0.23680701967E+03  0.00000000000E+00 0. -1.
          5    1    4    4  501    0 -0.10183568895E+03  0.17594244002E+03 -0.56430967252E+03  0.59982809724E+03  0.47000000000E+01 0.  1.
         -5    1    4    4    0  501 -0.40436745721E+03  0.53851722751E+03 -0.13287409992E+04  0.14896605579E+04  0.47000000000E+01 0.  1.
          1    1    1    2  502    0 -0.12031399685E+03 -0.13698723764E+02  0.26641796668E+04  0.26669301472E+04  0.00000000000E+00 0. -1.
          1    1    1    2  503    0  0.45170676118E+02  0.17842826753E+02 -0.52112001047E+03  0.52337827788E+03  0.00000000000E+00 0. -1.
<mgrwt>
<rscale>  0 0.76679429E+02</rscale>
<asrwt>0</asrwt>
<pdfrwt beam="1">  1        2 0.55000509E+00 0.12106433E+03</pdfrwt>
<pdfrwt beam="2">  1        2 0.42789972E+00 0.48567030E+02</pdfrwt>
<totfact> 0.59112499E-01</totfact>
</mgrwt>
</event>
<event>
13    1  0.1675423E-008  0.8000277E+02  0.7546771E-02  0.1459243E+00
          2   -1    0    0  503    0  0.00000000000E+00  0.00000000000E+00  0.71476302780E+03  0.71476302780E+03  0.00000000000E+00 0. -1.
          2   -1    0    0  502    0 -0.00000000000E+00 -0.00000000000E+00 -0.97370195011E+03  0.97370195011E+03  0.00000000000E+00 0. -1.
         24    2    1    2    0    0  0.77796818758E+02  0.17896389589E+03  0.21024815694E+03  0.29817509063E+03  0.81385970101E+02 0.  0.
         25    2    1    2    0    0 -0.37791384271E+03 -0.22605570789E+03  0.48112557366E+02  0.46028291440E+03  0.12500195009E+03 0.  0.
         24    2    1    2    0    0  0.25255619886E+03  0.16994067251E+02 -0.47753505342E+03  0.54659357459E+03  0.81555972426E+02 0.  0.
        -13    1    3    3    0    0  0.54540274579E+02  0.96281065874E+02  0.61996315512E+02  0.12683938006E+03  0.00000000000E+00 0.  1.
         14    1    3    3    0    0  0.23256544179E+02  0.82682830020E+02  0.14825184143E+03  0.17133571057E+03  0.00000000000E+00 0. -1.
        -13    1    5    5    0    0  0.53554412841E+02 -0.29265524184E+02 -0.94905700151E+02  0.11283456014E+03  0.00000000000E+00 0.  1.
         14    1    5    5    0    0  0.19900178602E+03  0.46259591435E+02 -0.38262935327E+03  0.43375901445E+03  0.00000000000E+00 0. -1.
          5    1    4    4  501    0 -0.40314827911E+02 -0.63202035045E+02  0.40532917703E+02  0.85350981253E+02  0.47000000000E+01 0. -1.
         -5    1    4    4    0  501 -0.33759901480E+03 -0.16285367284E+03  0.75796396632E+01  0.37493193315E+03  0.47000000000E+01 0. -1.
          1    1    1    2  502    0 -0.92721521725E+01 -0.26649344309E+02 -0.20116538628E+03  0.20313461791E+03  0.00000000000E+00 0. -1.
          1    1    1    2  503    0  0.56832977266E+02  0.56747089054E+02  0.16140080307E+03  0.18027878037E+03  0.00000000000E+00 0. -1.
<mgrwt>
<rscale>  0 0.47511928E+02</rscale>
<asrwt>0</asrwt>
<pdfrwt beam="1">  1        2 0.10511221E+00 0.80002772E+02</pdfrwt>
<pdfrwt beam="2">  1        2 0.14319146E+00 0.28216314E+02</pdfrwt>
<totfact> 0.22524145E+02</totfact>
</mgrwt>
</event>
<event>
13    1  0.1675423E-008  0.5162064E+02  0.7546771E-02  0.1504842E+00
          2   -1    0    0  503    0  0.00000000000E+00  0.00000000000E+00  0.55471996146E+03  0.55471996146E+03  0.00000000000E+00 0. -1.
          2   -1    0    0  502    0 -0.00000000000E+00 -0.00000000000E+00 -0.10738570438E+04  0.10738570438E+04  0.00000000000E+00 0. -1.
         24    2    1    2    0    0 -0.15497428674E+02  0.18535445801E+02  0.23508169014E+03  0.24923889110E+03  0.79201582997E+02 0.  0.
         25    2    1    2    0    0 -0.57026132603E+02  0.28367982881E+01 -0.96906072758E+02  0.16814815548E+03  0.12499195186E+03 0.  0.
         24    2    1    2    0    0  0.34167504027E+01 -0.45364995651E+02  0.17969071905E+02  0.96218704275E+02  0.82858279571E+02 0.  0.
        -13    1    5    5    0    0 -0.39412032720E+02 -0.22606775016E+02  0.33282296499E+01  0.45557125814E+02  0.00000000000E+00 0.  1.
         14    1    5    5    0    0  0.42828783123E+02 -0.22758220635E+02  0.14640842255E+02  0.50661578461E+02  0.00000000000E+00 0. -1.
        -13    1    3    3    0    0  0.19771370498E+02 -0.10574919990E+02  0.15822625412E+03  0.15980701961E+03  0.00000000000E+00 0.  1.
         14    1    3    3    0    0 -0.35268799172E+02  0.29110365791E+02  0.76855436023E+02  0.89431871488E+02  0.00000000000E+00 0. -1.
          5    1    4    4  501    0  0.16856639085E+02 -0.38791306595E+02 -0.47454188563E+01  0.42819630413E+02  0.47000000000E+01 0. -1.
         -5    1    4    4    0  501 -0.73882771688E+02  0.41628104883E+02 -0.92160653901E+02  0.12532852507E+03  0.47000000000E+01 0. -1.
          1    1    1    2  502    0  0.51528319057E+02 -0.24047608135E+01 -0.89323469889E+03  0.89472296150E+03  0.00000000000E+00 0. -1.
          1    1    1    2  503    0  0.17578491818E+02  0.26397512376E+02  0.21795292725E+03  0.22024829292E+03  0.00000000000E+00 0. -1.
<mgrwt>
<rscale>  0 0.40461601E+02</rscale>
<asrwt>0</asrwt>
<pdfrwt beam="1">  1        2 0.81576465E-01 0.31714855E+02</pdfrwt>
<pdfrwt beam="2">  1        2 0.15792015E+00 0.51620641E+02</pdfrwt>
<totfact> 0.25904278E+02</totfact>
</mgrwt>
</event>
<event>
13    1  0.1675423E-008  0.1198282E+03  0.7546771E-02  0.1264637E+00
          2   -1    0    0  503    0  0.00000000000E+00  0.00000000000E+00  0.17024707895E+04  0.17024707895E+04  0.00000000000E+00 0. -1.
          2   -1    0    0  502    0 -0.00000000000E+00 -0.00000000000E+00 -0.70228153945E+03  0.70228153945E+03  0.00000000000E+00 0. -1.
         24    2    1    2    0    0  0.91048630353E+01  0.16671407737E+02  0.40216957297E+03  0.41035452364E+03  0.79307220869E+02 0.  0.
         25    2    1    2    0    0  0.94963218269E+02 -0.51423361217E+02 -0.19690282042E+03  0.25703861984E+03  0.12504301858E+03 0.  0.
         24    2    1    2    0    0 -0.98992279297E+02  0.27674647726E+02  0.18203811599E+03  0.22375363166E+03  0.79764995593E+02 0.  0.
        -11    1    3    3    0    0 -0.18188110920E+02  0.28393024429E+02  0.79962286290E+02  0.86780979735E+02  0.00000000000E+00 0.  1.
         12    1    3    3    0    0  0.27292973955E+02 -0.11721616692E+02  0.32220728668E+03  0.32357354391E+03  0.00000000000E+00 0. -1.
        -13    1    5    5    0    0 -0.34488553523E+02  0.50005798422E+02  0.71305107248E+02  0.93672079723E+02  0.00000000000E+00 0.  1.
         14    1    5    5    0    0 -0.64503725775E+02 -0.22331150696E+02  0.11073300874E+03  0.13008155194E+03  0.00000000000E+00 0. -1.
          5    1    4    4  501    0  0.50045761452E+02  0.87789370614E+00 -0.17861832671E+03  0.18555846942E+03  0.47000000000E+01 0. -1.
         -5    1    4    4    0  501  0.44917456816E+02 -0.52301254923E+02 -0.18284493707E+02  0.71480150416E+02  0.47000000000E+01 0. -1.
          1    1    1    2  502    0 -0.10335850015E+03  0.67135827099E+02 -0.43872459617E+03  0.45570765861E+03  0.00000000000E+00 0. -1.
          1    1    1    2  503    0  0.98282698148E+02 -0.60058521345E+02  0.10516089777E+04  0.10578978952E+04  0.00000000000E+00 0. -1.
<mgrwt>
<rscale>  0 0.10783236E+03</rscale>
<asrwt>0</asrwt>
<pdfrwt beam="1">  1        2 0.25036335E+00 0.97037377E+02</pdfrwt>
<pdfrwt beam="2">  1        2 0.10327670E+00 0.11982823E+03</pdfrwt>
<totfact> 0.89906629E+01</totfact>
</mgrwt>
</event>
<event>
13    1  0.1675423E-008  0.4093944E+02  0.7546771E-02  0.1537911E+00
          2   -1    0    0  503    0  0.00000000000E+00  0.00000000000E+00  0.31085356159E+04  0.31085356159E+04  0.00000000000E+00 0. -1.
          2   -1    0    0  502    0 -0.00000000000E+00 -0.00000000000E+00 -0.18230781606E+04  0.18230781606E+04  0.00000000000E+00 0. -1.
         24    2    1    2    0    0 -0.65468453410E+03  0.12577129324E+02  0.46016262535E+03  0.80520036151E+03  0.88475742670E+02 0.  0.
         25    2    1    2    0    0  0.55695491947E+03 -0.22015158425E+03 -0.93911159909E+03  0.11208127208E+04  0.12500022917E+03 0.  0.
         24    2    1    2    0    0  0.92394856440E+02  0.19820684803E+03  0.96120911266E+03  0.98894246571E+03  0.79129502211E+02 0.  0.
        -11    1    3    3    0    0 -0.52682899482E+02 -0.17600489101E+02  0.59669712770E+02  0.81521406615E+02  0.00000000000E+00 0.  1.
         12    1    3    3    0    0 -0.60200163462E+03  0.30177618425E+02  0.40049291258E+03  0.72367895490E+03  0.00000000000E+00 0. -1.
        -11    1    5    5    0    0  0.20608205992E+02  0.87340326174E+02  0.54321738713E+03  0.55057984018E+03  0.00000000000E+00 0.  1.
         12    1    5    5    0    0  0.71786650448E+02  0.11086652186E+03  0.41799172553E+03  0.43836262553E+03  0.00000000000E+00 0. -1.
          5    1    4    4  501    0  0.47396411687E+03 -0.22886037216E+03 -0.77815525042E+03  0.93945023167E+03  0.47000000000E+01 0.  1.
         -5    1    4    4    0  501  0.82990802602E+02  0.87087879095E+01 -0.16095634867E+03  0.18136248918E+03  0.47000000000E+01 0.  1.
          1    1    1    2  502    0 -0.21855535139E+00  0.40951716653E+02 -0.60585677359E+03  0.60723926172E+03  0.00000000000E+00 0. -1.
          1    1    1    2  503    0  0.55533135430E+01 -0.31584109753E+02  0.14090540900E+04  0.14094189667E+04  0.00000000000E+00 0. -1.
<mgrwt>
<rscale>  0 0.36233557E+02</rscale>
<asrwt>0</asrwt>
<pdfrwt beam="1">  1        2 0.45713759E+00 0.32068603E+02</pdfrwt>
<pdfrwt beam="2">  1        2 0.26809973E+00 0.40939440E+02</pdfrwt>
<totfact> 0.58449350E+00</totfact>
</mgrwt>
</event>
<event>
13    1  0.1675423E-008  0.3576024E+02  0.7546771E-02  0.1547432E+00
          2   -1    0    0  503    0  0.00000000000E+00  0.00000000000E+00  0.22273019206E+04  0.22273019206E+04  0.00000000000E+00 0. -1.
          2   -1    0    0  502    0 -0.00000000000E+00 -0.00000000000E+00 -0.32749056483E+04  0.32749056483E+04  0.00000000000E+00 0. -1.
         24    2    1    2    0    0 -0.20058389670E+03  0.28277129026E+02  0.18619598640E+04  0.18746887833E+04  0.80808436407E+02 0.  0.
         25    2    1    2    0    0  0.65664408405E+02  0.42519898303E+03 -0.15759126832E+03  0.47493783774E+03  0.12499980866E+03 0.  0.
         24    2    1    2    0    0  0.13126368142E+03 -0.40924840893E+03 -0.21466777528E+04  0.21902427798E+04  0.64989581006E+02 0.  0.
        -11    1    5    5    0    0  0.44568721947E+02 -0.23094297069E+03 -0.10832362798E+04  0.11084772730E+04  0.00000000000E+00 0.  1.
         12    1    5    5    0    0  0.86694959474E+02 -0.17830543824E+03 -0.10634414730E+04  0.10817655068E+04  0.00000000000E+00 0. -1.
        -13    1    3    3    0    0 -0.58154764311E+02  0.22418778592E+02  0.90807022299E+03  0.91020662936E+03  0.00000000000E+00 0.  1.
         14    1    3    3    0    0 -0.14242913238E+03  0.58583504338E+01  0.95388964105E+03  0.96448215397E+03  0.00000000000E+00 0. -1.
          5    1    4    4  501    0  0.72881936728E+02  0.16462263153E+03 -0.10659918356E+03  0.20927939088E+03  0.47000000000E+01 0.  1.
         -5    1    4    4    0  501 -0.72175283231E+01  0.26057635151E+03 -0.50992084755E+02  0.26565844686E+03  0.47000000000E+01 0.  1.
          1    1    1    2  502    0 -0.25398238583E+02 -0.23370625507E+02 -0.78164039855E+03  0.78240205094E+03  0.00000000000E+00 0. -1.
          1    1    1    2  503    0  0.29054045454E+02 -0.20857077625E+02  0.17634582794E+03  0.17993611721E+03  0.00000000000E+00 0. -1.
<mgrwt>
<rscale>  0 0.35131895E+02</rscale>
<asrwt>0</asrwt>
<pdfrwt beam="1">  1        2 0.32754440E+00 0.35760245E+02</pdfrwt>
<pdfrwt beam="2">  1        2 0.48160377E+00 0.34514586E+02</pdfrwt>
<totfact> 0.31228846E+00</totfact>
</mgrwt>
</event>
<event>
13    1  0.1675423E-008  0.1153092E+03  0.7546771E-02  0.1340789E+00
          2   -1    0    0  502    0  0.00000000000E+00  0.00000000000E+00  0.27921092993E+04  0.27921092993E+04  0.00000000000E+00 0. -1.
          2   -1    0    0  503    0 -0.00000000000E+00 -0.00000000000E+00 -0.20178789602E+03  0.20178789602E+03  0.00000000000E+00 0. -1.
         24    2    1    2    0    0  0.49812119254E+02 -0.51341084872E+02  0.56513143806E+03  0.57551223121E+03  0.81997754662E+02 0.  0.
         25    2    1    2    0    0  0.67022697715E+02 -0.34973365022E+02  0.75696913182E+03  0.77093582188E+03  0.12499838664E+03 0.  0.
         24    2    1    2    0    0 -0.60288924209E+01  0.28072328234E+02 -0.18080721283E+02  0.86787607952E+02  0.79879742461E+02 0.  0.
        -11    1    5    5    0    0 -0.16443212968E+02  0.52035173053E+02  0.75724854127E+00  0.54576660879E+02  0.00000000000E+00 0.  1.
         12    1    5    5    0    0  0.10414320547E+02 -0.23962844819E+02 -0.18837969825E+02  0.32210947074E+02  0.00000000000E+00 0. -1.
        -13    1    3    3    0    0 -0.13398614146E+02  0.98135064357E+01  0.16472077697E+03  0.16555591846E+03  0.00000000000E+00 0.  1.
         14    1    3    3    0    0  0.63210733399E+02 -0.61154591308E+02  0.40041066109E+03  0.40995631275E+03  0.00000000000E+00 0. -1.
          5    1    4    4  501    0  0.59289525970E+02  0.14938448768E+02  0.64621480951E+03  0.64911792085E+03  0.47000000000E+01 0.  1.
         -5    1    4    4    0  501  0.77331717450E+01 -0.49911813791E+02  0.11075432231E+03  0.12181790103E+03  0.47000000000E+01 0.  1.
          1    1    1    2  502    0 -0.14238923021E+02 -0.48031123017E+02  0.13853274568E+04  0.13862329884E+04  0.00000000000E+00 0. -1.
          1    1    1    2  503    0 -0.96567001528E+02  0.10627324468E+03 -0.99025902102E+02  0.17442854584E+03  0.00000000000E+00 0. -1.
<mgrwt>
<rscale>  0 0.76004432E+02</rscale>
<asrwt>0</asrwt>
<pdfrwt beam="1">  1        2 0.41060428E+00 0.50097262E+02</pdfrwt>
<pdfrwt beam="2">  1        2 0.29674692E-01 0.11530917E+03</pdfrwt>
<totfact> 0.11146040E+02</totfact>
</mgrwt>
</event>
<event>
13    1  0.1675423E-008  0.3859571E+02  0.7546771E-02  0.1519424E+00
          2   -1    0    0  502    0  0.00000000000E+00  0.00000000000E+00  0.27471989163E+03  0.27471989163E+03  0.00000000000E+00 0. -1.
          2   -1    0    0  503    0 -0.00000000000E+00 -0.00000000000E+00 -0.29536775674E+04  0.29536775674E+04  0.00000000000E+00 0. -1.
         24    2    1    2    0    0 -0.70545718916E+02  0.22715942974E+03 -0.90056153813E+03  0.93472893823E+03  0.78287923897E+02 0.  0.
         25    2    1    2    0    0 -0.14635278787E+03 -0.10341399637E+03 -0.10569485841E+03  0.24271257351E+03  0.12499758830E+03 0.  0.
         24    2    1    2    0    0  0.24096385879E+03 -0.84958393342E+02 -0.83426140235E+03  0.87608357945E+03  0.79049610370E+02 0.  0.
        -11    1    5    5    0    0  0.19720406972E+02 -0.35494699521E+02 -0.11681121683E+03  0.12366741091E+03  0.00000000000E+00 0.  1.
         12    1    5    5    0    0  0.22124345182E+03 -0.49463693821E+02 -0.71745018552E+03  0.75241616854E+03  0.00000000000E+00 0. -1.
        -13    1    3    3    0    0 -0.83219498325E+02  0.21560328221E+03 -0.79989387786E+03  0.83261063892E+03  0.00000000000E+00 0.  1.
         14    1    3    3    0    0  0.12673779409E+02  0.11556147533E+02 -0.10066766027E+03  0.10211829931E+03  0.00000000000E+00 0. -1.
          5    1    4    4  501    0 -0.10249351875E+03 -0.10515488652E+03 -0.22634858803E+02  0.14865025522E+03  0.47000000000E+01 0. -1.
         -5    1    4    4    0  501 -0.43859269122E+02  0.17408901493E+01 -0.83059999610E+02  0.94062318288E+02  0.47000000000E+01 0. -1.
          1    1    1    2  502    0 -0.38328538043E+02 -0.28808526285E+01  0.16564421743E+03  0.17004523783E+03  0.00000000000E+00 0. -1.
          1    1    1    2  503    0  0.14263186036E+02 -0.35906187405E+02 -0.10040840943E+04  0.10048271300E+04  0.00000000000E+00 0. -1.
<mgrwt>
<rscale>  0 0.38516100E+02</rscale>
<asrwt>0</asrwt>
<pdfrwt beam="1">  1        2 0.40399984E-01 0.38436651E+02</pdfrwt>
<pdfrwt beam="2">  1        2 0.43436435E+00 0.38595712E+02</pdfrwt>
<totfact> 0.68334290E+01</totfact>
</mgrwt>
</event>
<event>
13    1  0.1675423E-008  0.5988759E+02  0.7546771E-02  0.1533630E+00
          2   -1    0    0  502    0  0.00000000000E+00  0.00000000000E+00  0.59831121080E+03  0.59831121080E+03  0.00000000000E+00 0. -1.
          2   -1    0    0  503    0 -0.00000000000E+00 -0.00000000000E+00 -0.16968461179E+04  0.16968461179E+04  0.00000000000E+00 0. -1.
         24    2    1    2    0    0 -0.12603282507E+03  0.44455223268E+02 -0.18816604101E+03  0.24455353786E+03  0.80866767070E+02 0.  0.
         25    2    1    2    0    0  0.73109346608E+02  0.67716374336E+02  0.17804154231E+03  0.23927898216E+03  0.12500062640E+03 0.  0.
         24    2    1    2    0    0 -0.14266709185E+02 -0.67558202523E+02 -0.58766566286E+03  0.59717103991E+03  0.80589514745E+02 0.  0.
        -11    1    5    5    0    0 -0.26825322678E+02 -0.15584227690E+02 -0.67775477702E+02  0.74538456298E+02  0.00000000000E+00 0.  1.
         12    1    5    5    0    0  0.12558613493E+02 -0.51973974833E+02 -0.51989018516E+03  0.52263258361E+03  0.00000000000E+00 0. -1.
        -13    1    3    3    0    0 -0.75569743526E+02  0.20458583042E+02 -0.16764789104E+03  0.18502744426E+03  0.00000000000E+00 0.  1.
         14    1    3    3    0    0 -0.50463081546E+02  0.23996640225E+02 -0.20518149970E+02  0.59526093601E+02  0.00000000000E+00 0. -1.
          5    1    4    4  501    0  0.10248252838E+03  0.73157044311E+02  0.12087402857E+03  0.17460596364E+03  0.47000000000E+01 0.  1.
         -5    1    4    4    0  501 -0.29373181772E+02 -0.54406699744E+01  0.57167513746E+02  0.64673018525E+02  0.47000000000E+01 0.  1.
          1    1    1    2  502    0  0.21826087604E+02 -0.56492071464E+01  0.35530413156E+03  0.35601870393E+03  0.00000000000E+00 0. -1.
          1    1    1    2  503    0  0.45364100045E+02 -0.38964187935E+02 -0.85604887708E+03  0.85813506481E+03  0.00000000000E+00 0. -1.
<mgrwt>
<rscale>  0 0.36744867E+02</rscale>
<asrwt>0</asrwt>
<pdfrwt beam="1">  1        2 0.87986944E-01 0.22545324E+02</pdfrwt>
<pdfrwt beam="2">  1        2 0.24953619E+00 0.59887594E+02</pdfrwt>
<totfact> 0.11703064E+02</totfact>
</mgrwt>
</event>
<event>
13    1  0.1675423E-008  0.1395269E+03  0.7546771E-02  0.1284264E+00
          2   -1    0    0  502    0  0.00000000000E+00  0.00000000000E+00  0.34014581961E+04  0.34014581961E+04  0.00000000000E+00 0. -1.
          4   -1    0    0  503    0 -0.00000000000E+00 -0.00000000000E+00 -0.29614393453E+03  0.29614393453E+03  0.00000000000E+00 0. -1.
         24    2    1    2    0    0  0.19967954819E+02  0.48260398487E+02  0.64236409865E+03  0.65347174597E+03  0.10800880640E+03 0.  0.
         25    2    1    2    0    0  0.17174098968E+03 -0.23200435741E+02  0.16546224706E+03  0.27025360599E+03  0.12500411431E+03 0.  0.
         24    2    1    2    0    0 -0.52485715882E+02  0.11780845210E+03  0.30081482398E+03  0.33743849690E+03  0.82107241498E+02 0.  0.
        -11    1    3    3    0    0  0.37250990339E+02 -0.24336062583E+02  0.20346076075E+03  0.20826944421E+03  0.00000000000E+00 0.  1.
         12    1    3    3    0    0 -0.17283035519E+02  0.72596461070E+02  0.43890333790E+03  0.44520230176E+03  0.00000000000E+00 0. -1.
        -13    1    5    5    0    0 -0.12004927711E+02 -0.86242036314E+01  0.66560881811E+02  0.68182447632E+02  0.00000000000E+00 0.  1.
         14    1    5    5    0    0 -0.40480788171E+02  0.12643265573E+03  0.23425394217E+03  0.26925604927E+03  0.00000000000E+00 0. -1.
          5    1    4    4  501    0  0.11097939687E+03 -0.68736470125E+02  0.70046746332E+02  0.14822201431E+03  0.47000000000E+01 0. -1.
         -5    1    4    4    0  501  0.60761592808E+02  0.45536034384E+02  0.95415500729E+02  0.12203159168E+03  0.47000000000E+01 0. -1.
          1    1    1    2  502    0 -0.85355966786E+02 -0.18602795138E+03  0.22062826772E+04  0.22157561444E+04  0.00000000000E+00 0. -1.
          3    1    1    2  503    0 -0.53867261828E+02  0.43159536539E+02 -0.20960958533E+03  0.22068213737E+03  0.00000000000E+00 0. -1.
<mgrwt>
<rscale>  0 0.98136763E+02</rscale>
<asrwt>0</asrwt>
<pdfrwt beam="1">  1        2 0.50021442E+00 0.13952695E+03</pdfrwt>
<pdfrwt beam="2">  1        4 0.43550580E-01 0.69024832E+02</pdfrwt>
<totfact> 0.40727412E+00</totfact>
</mgrwt>
</event>
<event>
13    1  0.1675423E-008  0.2175402E+03  0.7546771E-02  0.1174079E+00
          2   -1    0    0  503    0  0.00000000000E+00  0.00000000000E+00  0.13767650589E+04  0.13767650589E+04  0.00000000000E+00 0. -1.
          2   -1    0    0  502    0 -0.00000000000E+00 -0.00000000000E+00 -0.26246690089E+04  0.26246690089E+04  0.00000000000E+00 0. -1.
         24    2    1    2    0    0  0.10407333553E+02 -0.19976750934E+03  0.36933715948E+02  0.21902322451E+03  0.81189304239E+02 0.  0.
         25    2    1    2    0    0  0.62113128823E+02  0.15852942871E+03  0.20143427587E+03  0.29187527798E+03  0.12500315941E+03 0.  0.
         24    2    1    2    0    0  0.14041680358E+03  0.13950094011E+03 -0.12085306215E+04  0.12273442428E+04  0.81548979667E+02 0.  0.
        -11    1    5    5    0    0  0.12410014897E+03  0.69759960297E+02 -0.82030758789E+03  0.83256941920E+03  0.00000000000E+00 0.  1.
         12    1    5    5    0    0  0.16316654606E+02  0.69740979812E+02 -0.38822303365E+03  0.39477482359E+03  0.00000000000E+00 0. -1.
        -11    1    3    3    0    0  0.33735952318E+02 -0.15374536101E+03  0.51146434807E+02  0.16550440569E+03  0.00000000000E+00 0.  1.
         12    1    3    3    0    0 -0.23328618765E+02 -0.46022148332E+02 -0.14212718859E+02  0.53518818820E+02  0.00000000000E+00 0. -1.
          5    1    4    4  501    0  0.50473737364E+02  0.11187716071E+03  0.49465900240E+02  0.13241247124E+03  0.47000000000E+01 0. -1.
         -5    1    4    4    0  501  0.11639391459E+02  0.46652267999E+02  0.15196837563E+03  0.15946280674E+03  0.47000000000E+01 0. -1.
          1    1    1    2  502    0 -0.26009685803E+03  0.32107600312E+02 -0.12519915388E+04  0.12791262982E+04  0.00000000000E+00 0. -1.
          1    1    1    2  503    0  0.47159592073E+02 -0.13037045980E+03  0.97425021848E+03  0.98406502434E+03  0.00000000000E+00 0. -1.
<mgrwt>
<rscale>  0 0.17366440E+03</rscale>
<asrwt>0</asrwt>
<pdfrwt beam="1">  1        2 0.20246545E+00 0.13863796E+03</pdfrwt>
<pdfrwt beam="2">  1        2 0.38598073E+00 0.21754016E+03</pdfrwt>
<totfact> 0.11506942E+01</totfact>
</mgrwt>
</event>
<event>
13    1  0.1675423E-008  0.6925732E+02  0.7546771E-02  0.1368390E+00
         -1   -1    0    0    0  501  0.00000000000E+00  0.00000000000E+00  0.10228545893E+04  0.10228545893E+04  0.00000000000E+00 0.  1.
         -3   -1    0    0    0  502 -0.00000000000E+00 -0.00000000000E+00 -0.28361960692E+04  0.28361960692E+04  0.00000000000E+00 0.  1.
         24    2    1    2    0    0  0.13497734257E+03  0.24505931021E+02 -0.82258815267E+01  0.15946609168E+03  0.80884767445E+02 0.  0.
         25    2    1    2    0    0 -0.66549008356E+00  0.32754151311E+01 -0.50319299160E+03  0.51849725353E+03  0.12500017559E+03 0.  0.
         24    2    1    2    0    0 -0.15663904296E+03 -0.37333852641E+02 -0.13702868846E+03  0.22700397955E+03  0.82609557170E+02 0.  0.
        -11    1    3    3    0    0  0.10615314291E+03  0.24585802906E+02  0.28645040981E+02  0.11266538877E+03  0.00000000000E+00 0.  1.
         12    1    3    3    0    0  0.28824199657E+02 -0.79871884638E-01 -0.36870922508E+02  0.46800702901E+02  0.00000000000E+00 0. -1.
        -13    1    5    5    0    0 -0.14288764983E+03 -0.29375278251E+01 -0.11812617616E+03  0.18541656625E+03  0.00000000000E+00 0.  1.
         14    1    5    5    0    0 -0.13751393132E+02 -0.34396324816E+02 -0.18902512300E+02  0.41587413302E+02  0.00000000000E+00 0. -1.
          5    1    4    4  503    0  0.27669012772E+02 -0.54047940789E+02 -0.25063689948E+03  0.25792964070E+03  0.47000000000E+01 0. -1.
         -5    1    4    4    0  503 -0.28334502856E+02  0.57323355920E+02 -0.25255609213E+03  0.26056761283E+03  0.47000000000E+01 0. -1.
         -2    1    1    2    0  501  0.45690064598E+02 -0.52190192966E+02  0.89271997799E+03  0.89541071992E+03  0.00000000000E+00 0.  1.
         -4    1    1    2    0  502 -0.23362874122E+02  0.61742699454E+02 -0.20576138963E+04  0.20586726139E+04  0.00000000000E+00 0.  1.
<mgrwt>
<rscale>  0 0.67616744E+02</rscale>
<asrwt>0</asrwt>
<pdfrwt beam="1">  1       -1 0.15041979E+00 0.69257316E+02</pdfrwt>
<pdfrwt beam="2">  1       -3 0.41708765E+00 0.66015035E+02</pdfrwt>
<totfact> 0.23332321E-02</totfact>
</mgrwt>
</event>
<event>
13    1  0.1675423E-008  0.1142179E+03  0.7546771E-02  0.1262755E+00
          2   -1    0    0  503    0  0.00000000000E+00  0.00000000000E+00  0.25993138762E+04  0.25993138762E+04  0.00000000000E+00 0. -1.
          2   -1    0    0  502    0 -0.00000000000E+00 -0.00000000000E+00 -0.45868068033E+04  0.45868068033E+04  0.00000000000E+00 0. -1.
         24    2    1    2    0    0 -0.73591989178E+02  0.24898662038E+02  0.20978293880E+03  0.23957829695E+03  0.85750537693E+02 0.  0.
         25    2    1    2    0    0 -0.12771434685E+03 -0.20312160377E+03  0.19109165448E+02  0.27121517776E+03  0.12499268832E+03 0.  0.
         24    2    1    2    0    0  0.16628094289E+01  0.33643146645E+02 -0.15060447458E+04  0.15085570033E+04  0.80242317659E+02 0.  0.
        -13    1    3    3    0    0 -0.42974177034E+02 -0.28413815157E+02  0.70381374801E+02  0.87221916411E+02  0.00000000000E+00 0.  1.
         14    1    3    3    0    0 -0.30617812144E+02  0.53312477194E+02  0.13940156400E+03  0.15235638054E+03  0.00000000000E+00 0. -1.
        -13    1    5    5    0    0  0.15405043293E+02  0.57082495066E+02 -0.11178873160E+04  0.11194497657E+04  0.00000000000E+00 0.  1.
         14    1    5    5    0    0 -0.13742233864E+02 -0.23439348421E+02 -0.38815742976E+03  0.38910723757E+03  0.00000000000E+00 0. -1.
          5    1    4    4  501    0  0.18702321478E+02 -0.61277555148E+02 -0.10737769375E+02  0.65131446205E+02  0.47000000000E+01 0.  1.
         -5    1    4    4    0  501 -0.14641666833E+03 -0.14184404862E+03  0.29846934823E+02  0.20608373156E+03  0.47000000000E+01 0.  1.
          1    1    1    2  502    0  0.88501882318E+02  0.85305299079E+02 -0.29354878593E+04  0.29380603379E+04  0.00000000000E+00 0. -1.
          1    1    1    2  503    0  0.11114164428E+03  0.59274496008E+02  0.22251475738E+04  0.22287098636E+04  0.00000000000E+00 0. -1.
<mgrwt>
<rscale>  0 0.10882816E+03</rscale>
<asrwt>0</asrwt>
<pdfrwt beam="1">  1        2 0.38225205E+00 0.10369278E+03</pdfrwt>
<pdfrwt beam="2">  1        2 0.67453040E+00 0.11421787E+03</pdfrwt>
<totfact> 0.19062213E-01</totfact>
</mgrwt>
</event>
<event>
13    1  0.1675423E-008  0.5459272E+02  0.7546771E-02  0.1432174E+00
          2   -1    0    0  502    0  0.00000000000E+00  0.00000000000E+00  0.19334564237E+04  0.19334564237E+04  0.00000000000E+00 0. -1.
          2   -1    0    0  503    0 -0.00000000000E+00 -0.00000000000E+00 -0.23167642277E+04  0.23167642277E+04  0.00000000000E+00 0. -1.
         24    2    1    2    0    0 -0.87565304949E+02  0.18770575802E+03  0.99301311745E+02  0.24001331027E+03  0.69602473843E+02 0.  0.
         25    2    1    2    0    0  0.25784467819E+03  0.12081412622E+03 -0.97856770589E+03  0.10267909908E+04  0.12500021053E+03 0.  0.
         24    2    1    2    0    0 -0.23158594603E+03 -0.23374615626E+03 -0.17425306938E+03  0.38020075360E+03  0.76936109108E+02 0.  0.
        -11    1    3    3    0    0 -0.49475827389E+02  0.64369551464E+02  0.71023180539E+02  0.10786838659E+03  0.00000000000E+00 0.  1.
         12    1    3    3    0    0 -0.38089477561E+02  0.12333620656E+03  0.28278131206E+02  0.13214492368E+03  0.00000000000E+00 0. -1.
        -13    1    5    5    0    0 -0.20867182361E+03 -0.19204501469E+03 -0.17380637012E+03  0.33261670423E+03  0.00000000000E+00 0.  1.
         14    1    5    5    0    0 -0.22914122420E+02 -0.41701141566E+02 -0.44669925663E+00  0.47584049370E+02  0.00000000000E+00 0. -1.
          5    1    4    4  501    0  0.44381098863E+02 -0.26095001648E+02 -0.15315506392E+03  0.16164527414E+03  0.47000000000E+01 0.  1.
         -5    1    4    4    0  501  0.21346357933E+03  0.14690912787E+03 -0.82541264197E+03  0.86514571667E+03  0.47000000000E+01 0.  1.
          1    1    1    2  502    0  0.13435790380E+02 -0.48718903375E+02  0.16355546607E+04  0.16363352652E+04  0.00000000000E+00 0. -1.
          1    1    1    2  503    0  0.47870782409E+02 -0.26054824617E+02 -0.96534300111E+03  0.96688033153E+03  0.00000000000E+00 0. -1.
<mgrwt>
<rscale>  0 0.52526059E+02</rscale>
<asrwt>0</asrwt>
<pdfrwt beam="1">  1        2 0.28433183E+00 0.50537630E+02</pdfrwt>
<pdfrwt beam="2">  1        2 0.34070062E+00 0.54592723E+02</pdfrwt>
<totfact> 0.11448077E+01</totfact>
</mgrwt>
</event>
<event>
13    1  0.1675423E-008  0.5434609E+02  0.7546771E-02  0.1493528E+00
          2   -1    0    0  503    0  0.00000000000E+00  0.00000000000E+00  0.11077049625E+04  0.11077049625E+04  0.00000000000E+00 0. -1.
          2   -1    0    0  502    0 -0.00000000000E+00 -0.00000000000E+00 -0.15799284709E+04  0.15799284709E+04  0.00000000000E+00 0. -1.
         24    2    1    2    0    0  0.13588150955E+02 -0.40130206263E+02  0.56474062437E+03  0.57190801288E+03  0.79697748311E+02 0.  0.
         25    2    1    2    0    0 -0.12958090002E+02  0.11577338859E+03 -0.40920645540E+03  0.44344858192E+03  0.12500132825E+03 0.  0.
         24    2    1    2    0    0  0.61164075138E+01 -0.49852901383E+02  0.33151447548E+03  0.34427425304E+03  0.78103723555E+02 0.  0.
        -11    1    3    3    0    0  0.96469837573E+00  0.24170283108E+02  0.12600191724E+03  0.12830283075E+03  0.00000000000E+00 0.  1.
         12    1    3    3    0    0  0.12623452580E+02 -0.64300489370E+02  0.43873870712E+03  0.44360518213E+03  0.00000000000E+00 0. -1.
        -13    1    5    5    0    0 -0.28938927182E+02 -0.26046798975E+02  0.77293008940E+02  0.86545401231E+02  0.00000000000E+00 0.  1.
         14    1    5    5    0    0  0.35055334696E+02 -0.23806102408E+02  0.25422146654E+03  0.25772885180E+03  0.00000000000E+00 0. -1.
          5    1    4    4  501    0  0.47453654644E+02  0.11590360556E+02 -0.14423009378E+03  0.15235024040E+03  0.47000000000E+01 0. -1.
         -5    1    4    4    0  501 -0.60411744646E+02  0.10418302803E+03 -0.26497636163E+03  0.29109834153E+03  0.47000000000E+01 0. -1.
          1    1    1    2  502    0 -0.35395999401E+02 -0.41266629755E+02 -0.11415475584E+04  0.11428414761E+04  0.00000000000E+00 0. -1.
          1    1    1    2  503    0  0.28649530933E+02  0.15476348814E+02  0.18227540549E+03  0.18516110942E+03  0.00000000000E+00 0. -1.
<mgrwt>
<rscale>  0 0.42067110E+02</rscale>
<asrwt>0</asrwt>
<pdfrwt beam="1">  1        2 0.16289779E+00 0.32562448E+02</pdfrwt>
<pdfrwt beam="2">  1        2 0.23234242E+00 0.54346091E+02</pdfrwt>
<totfact> 0.65302402E+01</totfact>
</mgrwt>
</event>
<event>
13    1  0.1675423E-008  0.5976560E+02  0.7546771E-02  0.1450392E+00
          2   -1    0    0  502    0  0.00000000000E+00  0.00000000000E+00  0.20546665801E+04  0.20546665801E+04  0.00000000000E+00 0. -1.
          2   -1    0    0  503    0 -0.00000000000E+00 -0.00000000000E+00 -0.77316853134E+03  0.77316853134E+03  0.00000000000E+00 0. -1.
         24    2    1    2    0    0  0.13331360165E+03 -0.51586831350E+02  0.13925780983E+04  0.14023972339E+04  0.83728873450E+02 0.  0.
         25    2    1    2    0    0 -0.14047657149E+03  0.55603552783E+02 -0.21574335123E+03  0.29154044338E+03  0.12500085722E+03 0.  0.
         24    2    1    2    0    0  0.73314779877E+01 -0.24225319684E+02  0.39825802022E+03  0.40710123391E+03  0.80506815218E+02 0.  0.
        -13    1    3    3    0    0  0.51789941158E+02 -0.33572023043E+02  0.28149762261E+03  0.28818429914E+03  0.00000000000E+00 0.  1.
         14    1    3    3    0    0  0.81523660493E+02 -0.18014808307E+02  0.11110804757E+04  0.11142129348E+04  0.00000000000E+00 0. -1.
        -13    1    5    5    0    0  0.11290494990E+02  0.21648275249E+02  0.26480882348E+03  0.26593201404E+03  0.00000000000E+00 0.  1.
         14    1    5    5    0    0 -0.39590170020E+01 -0.45873594933E+02  0.13344919674E+03  0.14116921987E+03  0.00000000000E+00 0. -1.
          5    1    4    4  501    0 -0.39362129968E+02 -0.31833119033E+02 -0.10948060175E+03  0.12070963881E+03  0.47000000000E+01 0.  1.
         -5    1    4    4    0  501 -0.10111444152E+03  0.87436671816E+02 -0.10626274949E+03  0.17083080457E+03  0.47000000000E+01 0.  1.
          1    1    1    2  502    0  0.45102467662E+01  0.60233864386E+02  0.21157166175E+03  0.22002506402E+03  0.00000000000E+00 0. -1.
          1    1    1    2  503    0 -0.46787549195E+01 -0.40025266135E+02 -0.50516638031E+03  0.50677113619E+03  0.00000000000E+00 0. -1.
<mgrwt>
<rscale>  0 0.49075677E+02</rscale>
<asrwt>0</asrwt>
<pdfrwt beam="1">  1        2 0.30215685E+00 0.59765597E+02</pdfrwt>
<pdfrwt beam="2">  1        2 0.11370126E+00 0.40297800E+02</pdfrwt>
<totfact> 0.59380201E+01</totfact>
</mgrwt>
</event>
<event>
13    1  0.1675423E-008  0.7083256E+02  0.7546771E-02  0.1362412E+00
          2   -1    0    0  502    0  0.00000000000E+00  0.00000000000E+00  0.17182874980E+04  0.17182874980E+04  0.00000000000E+00 0. -1.
          2   -1    0    0  503    0 -0.00000000000E+00 -0.00000000000E+00 -0.31301366179E+04  0.31301366179E+04  0.00000000000E+00 0. -1.
         24    2    1    2    0    0 -0.10986818233E+03  0.48790513520E+02  0.70712421302E+03  0.72174303179E+03  0.80229792416E+02 0.  0.
         25    2    1    2    0    0  0.24830301773E+02  0.42319846247E+02 -0.48177446564E+03  0.50014089097E+03  0.12500704702E+03 0.  0.
         24    2    1    2    0    0  0.14856861816E+03 -0.11648158714E+02  0.22839426781E+03  0.28444324304E+03  0.80843695132E+02 0.  0.
        -13    1    5    5    0    0  0.69938055420E+02 -0.45953710767E+02  0.10875600040E+03  0.13722588223E+03  0.00000000000E+00 0.  1.
         14    1    5    5    0    0  0.78630562743E+02  0.34305552053E+02  0.11963826740E+03  0.14721736082E+03  0.00000000000E+00 0. -1.
        -13    1    3    3    0    0 -0.36442582834E+02  0.31623131559E+02  0.11324209466E+03  0.12309287671E+03  0.00000000000E+00 0.  1.
         14    1    3    3    0    0 -0.73425599500E+02  0.17167381961E+02  0.59388211836E+03  0.59865015508E+03  0.00000000000E+00 0. -1.
          5    1    4    4  501    0 -0.34194237190E+02  0.42939047428E+02 -0.10339840006E+03  0.11715940758E+03  0.47000000000E+01 0. -1.
         -5    1    4    4    0  501  0.59024538963E+02 -0.61920118009E+00 -0.37837606558E+03  0.38298148338E+03  0.47000000000E+01 0. -1.
          1    1    1    2  502    0 -0.67280301971E+02 -0.87314967590E+01  0.73621021090E+03  0.73932966443E+03  0.00000000000E+00 0. -1.
          1    1    1    2  503    0  0.37495643700E+01 -0.70730704294E+02 -0.26018033460E+04  0.26027672857E+04  0.00000000000E+00 0. -1.
<mgrwt>
<rscale>  0 0.69322441E+02</rscale>
<asrwt>0</asrwt>
<pdfrwt beam="1">  1        2 0.25268934E+00 0.67844514E+02</pdfrwt>
<pdfrwt beam="2">  1        2 0.46031420E+00 0.70832563E+02</pdfrwt>
<totfact> 0.52659181E+00</totfact>
</mgrwt>
</event>
<event>
13    1  0.1675423E-008  0.1743131E+03  0.7546771E-02  0.1288753E+00
          2   -1    0    0  503    0  0.00000000000E+00  0.00000000000E+00  0.89361472246E+03  0.89361472246E+03  0.00000000000E+00 0. -1.
         -1   -1    0    0    0  501 -0.00000000000E+00 -0.00000000000E+00 -0.14921283588E+04  0.14921283588E+04  0.00000000000E+00 0.  1.
         24    2    1    2    0    0 -0.11847008008E+03 -0.12690423977E+03  0.24647774058E+03  0.31189739157E+03  0.79930346709E+02 0.  0.
         25    2    1    2    0    0 -0.79954559011E+02 -0.16464969288E+03 -0.30067185131E+03  0.37353690028E+03  0.12499600323E+03 0.  0.
         24    2    1    2    0    0  0.38850279685E+02  0.15214878646E+03 -0.56439189909E+02  0.18550330131E+03  0.81040083815E+02 0.  0.
        -13    1    3    3    0    0 -0.68988003436E+01  0.11389932651E+02  0.20128417773E+02  0.24134564716E+02  0.00000000000E+00 0.  1.
         14    1    3    3    0    0 -0.11157127974E+03 -0.13829417242E+03  0.22634932280E+03  0.28776282686E+03  0.00000000000E+00 0. -1.
        -13    1    5    5    0    0 -0.24987594622E+02  0.36006053896E+02 -0.90273871835E+01  0.44747173335E+02  0.00000000000E+00 0.  1.
         14    1    5    5    0    0  0.63837874306E+02  0.11614273256E+03 -0.47411802725E+02  0.14075612797E+03  0.00000000000E+00 0. -1.
          5    1    4    4  502    0 -0.39290747184E+02 -0.22983388179E+02 -0.17150019409E+03  0.17750043808E+03  0.47000000000E+01 0.  1.
         -5    1    4    4    0  502 -0.40663811827E+02 -0.14166630470E+03 -0.12917165723E+03  0.19603646220E+03  0.47000000000E+01 0.  1.
          1    1    1    2  503    0  0.14966092949E+03  0.87378099019E+02  0.49810864390E+03  0.52739505794E+03  0.00000000000E+00 0. -1.
         -2    1    1    2    0  501  0.99134299173E+01  0.52027047171E+02 -0.98598897961E+03  0.98741043019E+03  0.00000000000E+00 0.  1.
<mgrwt>
<rscale>  0 0.96084143E+02</rscale>
<asrwt>0</asrwt>
<pdfrwt beam="1">  1        2 0.13141393E+00 0.17431312E+03</pdfrwt>
<pdfrwt beam="2">  1       -1 0.21943064E+00 0.52963098E+02</pdfrwt>
<totfact> 0.55597652E+00</totfact>
</mgrwt>
</event>
<event>
13    1  0.1675423E-008  0.7529246E+02  0.7546771E-02  0.1410271E+00
          2   -1    0    0  503    0  0.00000000000E+00  0.00000000000E+00  0.41904908365E+04  0.41904908365E+04  0.00000000000E+00 0. -1.
         -3   -1    0    0    0  501 -0.00000000000E+00 -0.00000000000E+00 -0.18104065562E+04  0.18104065562E+04  0.00000000000E+00 0.  1.
         24    2    1    2    0    0 -0.54264363113E+03  0.18600415529E+03  0.25079505199E+04  0.25738991659E+04  0.77983650740E+02 0.  0.
         25    2    1    2    0    0 -0.15353275562E+03 -0.49154023367E+03  0.29106843783E+03  0.60459056994E+03  0.12499925359E+03 0.  0.
         24    2    1    2    0    0  0.62128469777E+03  0.21565278444E+03 -0.48752317492E+03  0.82021334686E+03  0.50698019351E+02 0.  0.
        -13    1    3    3    0    0 -0.29646879261E+03  0.12818479353E+03  0.15359371727E+04  0.15695311672E+04  0.00000000000E+00 0.  1.
         14    1    3    3    0    0 -0.24617483852E+03  0.57819361763E+02  0.97201334718E+03  0.10043679987E+04  0.00000000000E+00 0. -1.
        -13    1    5    5    0    0  0.45067027289E+03  0.13216708261E+03 -0.34595024168E+03  0.58331243970E+03  0.00000000000E+00 0.  1.
         14    1    5    5    0    0  0.17061442488E+03  0.83485701827E+02 -0.14157293324E+03  0.23690090716E+03  0.00000000000E+00 0. -1.
          5    1    4    4  502    0 -0.15093073523E+02 -0.41827039156E+02  0.73802448592E+02  0.86291329176E+02  0.47000000000E+01 0.  1.
         -5    1    4    4    0  502 -0.13843968210E+03 -0.44971319451E+03  0.21726598924E+03  0.51829924077E+03  0.47000000000E+01 0.  1.
          1    1    1    2  503    0  0.54928545866E+02  0.51398984272E+02  0.10335376543E+04  0.10362717228E+04  0.00000000000E+00 0. -1.
         -4    1    1    2    0  501  0.19963143118E+02  0.38484309663E+02 -0.96494915676E+03  0.96592258712E+03  0.00000000000E+00 0.  1.
<mgrwt>
<rscale>  0 0.57133432E+02</rscale>
<asrwt>0</asrwt>
<pdfrwt beam="1">  1        2 0.61624865E+00 0.75292457E+02</pdfrwt>
<pdfrwt beam="2">  1       -3 0.26623626E+00 0.43353998E+02</pdfrwt>
<totfact> 0.26767005E-02</totfact>
</mgrwt>
</event>
<event>
13    1  0.1675423E-008  0.1597733E+03  0.7546771E-02  0.1331840E+00
          2   -1    0    0  502    0  0.00000000000E+00  0.00000000000E+00  0.78735806010E+03  0.78735806010E+03  0.00000000000E+00 0. -1.
          2   -1    0    0  503    0 -0.00000000000E+00 -0.00000000000E+00 -0.34842294437E+04  0.34842294437E+04  0.00000000000E+00 0. -1.
         24    2    1    2    0    0 -0.12575197035E+03  0.26725750029E+02 -0.17974143572E+03  0.23477370406E+03  0.79270957124E+02 0.  0.
         25    2    1    2    0    0 -0.78684388524E+02 -0.55055670986E+02 -0.11958038300E+04  0.12061490167E+04  0.12500516265E+03 0.  0.
         24    2    1    2    0    0  0.82956948223E+02  0.10531291673E+02 -0.19576556794E+03  0.22524007340E+03  0.73594630977E+02 0.  0.
        -11    1    5    5    0    0 -0.13930723927E+02  0.27158578831E+01 -0.24892882989E+02  0.28654782788E+02  0.00000000000E+00 0.  1.
         12    1    5    5    0    0  0.96887672149E+02  0.78154337894E+01 -0.17087268495E+03  0.19658529061E+03  0.00000000000E+00 0. -1.
        -13    1    3    3    0    0 -0.11593637325E+03  0.10887678251E+02 -0.10191055714E+03  0.15474348399E+03  0.00000000000E+00 0.  1.
         14    1    3    3    0    0 -0.98155970916E+01  0.15838071777E+02 -0.77830878581E+02  0.80030220071E+02  0.00000000000E+00 0. -1.
          5    1    4    4  501    0 -0.15041718921E+02 -0.85488564174E+02 -0.65488926492E+03  0.66063347419E+03  0.47000000000E+01 0. -1.
         -5    1    4    4    0  501 -0.63642669603E+02  0.30432893187E+02 -0.54091456508E+03  0.54551554249E+03  0.47000000000E+01 0. -1.
          1    1    1    2  502    0  0.16053387076E+03  0.16209984825E+02  0.73092788256E+03  0.74852485382E+03  0.00000000000E+00 0. -1.
          1    1    1    2  503    0 -0.39054460112E+02  0.15886444599E+01 -0.18564884325E+04  0.18568998558E+04  0.00000000000E+00 0. -1.
<mgrwt>
<rscale>  0 0.79025432E+02</rscale>
<asrwt>0</asrwt>
<pdfrwt beam="1">  1        2 0.11578795E+00 0.15977326E+03</pdfrwt>
<pdfrwt beam="2">  1        2 0.51238668E+00 0.39086758E+02</pdfrwt>
<totfact> 0.11304194E+01</totfact>
</mgrwt>
</event>
<event>
13    1  0.1675423E-008  0.1847132E+03  0.7546771E-02  0.1221786E+00
          2   -1    0    0  503    0  0.00000000000E+00  0.00000000000E+00  0.15167065392E+04  0.15167065392E+04  0.00000000000E+00 0. -1.
          2   -1    0    0  502    0 -0.00000000000E+00 -0.00000000000E+00 -0.24850468102E+04  0.24850468102E+04  0.00000000000E+00 0. -1.
         24    2    1    2    0    0  0.75320007099E+02 -0.38584727370E+02 -0.75969511711E+03  0.76930234226E+03  0.86761386515E+02 0.  0.
         25    2    1    2    0    0  0.31809932493E+02 -0.28679008857E+03 -0.23252362021E+03  0.39109193731E+03  0.12500097106E+03 0.  0.
         24    2    1    2    0    0 -0.36331104622E+02  0.89696637255E+02 -0.34223212318E+03  0.36500176261E+03  0.82085471729E+02 0.  0.
        -13    1    3    3    0    0 -0.83713129684E+00 -0.43529099513E+02 -0.22323031314E+03  0.22743626799E+03  0.00000000000E+00 0.  1.
         14    1    3    3    0    0  0.76157138396E+02  0.49443721436E+01 -0.53646480397E+03  0.54186607426E+03  0.00000000000E+00 0. -1.
        -13    1    5    5    0    0 -0.36522373936E+02  0.82786425414E+01 -0.55639305585E+02  0.67068264077E+02  0.00000000000E+00 0.  1.
         14    1    5    5    0    0  0.19126931392E+00  0.81417994714E+02 -0.28659281760E+03  0.29793349853E+03  0.00000000000E+00 0. -1.
          5    1    4    4  501    0 -0.71885601135E+01 -0.27248662600E+03 -0.19960496136E+03  0.33788291959E+03  0.47000000000E+01 0.  1.
         -5    1    4    4    0  501  0.38998492606E+02 -0.14303462568E+02 -0.32918658851E+02  0.53209017728E+02  0.47000000000E+01 0.  1.
          1    1    1    2  502    0 -0.70726151066E+00  0.30281900251E+03 -0.10316784614E+04  0.10752024443E+04  0.00000000000E+00 0. -1.
          1    1    1    2  503    0 -0.70091573459E+02 -0.67140823819E+02  0.13977890509E+04  0.14011548629E+04  0.00000000000E+00 0. -1.
<mgrwt>
<rscale>  0 0.13389674E+03</rscale>
<asrwt>0</asrwt>
<pdfrwt beam="1">  1        2 0.22304508E+00 0.97060388E+02</pdfrwt>
<pdfrwt beam="2">  1        2 0.36544805E+00 0.18471321E+03</pdfrwt>
<totfact> 0.12088395E+01</totfact>
</mgrwt>
</event>
<event>
13    1  0.1675423E-008  0.1639429E+03  0.7546771E-02  0.1378676E+00
          2   -1    0    0  502    0  0.00000000000E+00  0.00000000000E+00  0.25221990391E+04  0.25221990391E+04  0.00000000000E+00 0. -1.
          2   -1    0    0  503    0 -0.00000000000E+00 -0.00000000000E+00 -0.43936694786E+04  0.43936694786E+04  0.00000000000E+00 0. -1.
         24    2    1    2    0    0  0.85299837235E+02 -0.37591699844E+03 -0.77063573878E+03  0.86540109905E+03  0.80311695287E+02 0.  0.
         25    2    1    2    0    0 -0.84257061120E+02  0.21238807906E+03 -0.23059664398E+04  0.23206278828E+04  0.12499840168E+03 0.  0.
         24    2    1    2    0    0 -0.17405567848E+03  0.12210579950E+03 -0.24368560524E+03  0.33085800491E+03  0.69850839118E+02 0.  0.
        -11    1    3    3    0    0  0.98790034594E+01 -0.15452765094E+03 -0.37645565273E+03  0.40705681187E+03  0.00000000000E+00 0.  1.
         12    1    3    3    0    0  0.75420833775E+02 -0.22138934749E+03 -0.39418008605E+03  0.45834428717E+03  0.00000000000E+00 0. -1.
        -11    1    5    5    0    0 -0.11160368133E+03  0.46626699855E+02 -0.16825103311E+03  0.20721448059E+03  0.00000000000E+00 0.  1.
         12    1    5    5    0    0 -0.62451997154E+02  0.75479099646E+02 -0.75434572133E+02  0.12364352431E+03  0.00000000000E+00 0. -1.
          5    1    4    4  501    0 -0.39659403106E+02  0.29593420570E+02 -0.19310245734E+03  0.19939731149E+03  0.47000000000E+01 0. -1.
         -5    1    4    4    0  501 -0.44597658014E+02  0.18279465849E+03 -0.21128639825E+04  0.21212305713E+04  0.47000000000E+01 0. -1.
          1    1    1    2  502    0  0.15337433804E+03  0.57881359580E+02  0.24209586663E+04  0.24265025868E+04  0.00000000000E+00 0. -1.
          1    1    1    2  503    0  0.19638564328E+02 -0.16458239704E+02 -0.97214132206E+03  0.97247894420E+03  0.00000000000E+00 0. -1.
<mgrwt>
<rscale>  0 0.64813093E+02</rscale>
<asrwt>0</asrwt>
<pdfrwt beam="1">  1        2 0.37091163E+00 0.16394291E+03</pdfrwt>
<pdfrwt beam="2">  1        2 0.64612786E+00 0.25623170E+02</pdfrwt>
<totfact> 0.40780657E-01</totfact>
</mgrwt>
</event>
<event>
13    1  0.1675423E-008  0.9702572E+02  0.7546771E-02  0.1289511E+00
          2   -1    0    0  503    0  0.00000000000E+00  0.00000000000E+00  0.52478368696E+03  0.52478368696E+03  0.00000000000E+00 0. -1.
          2   -1    0    0  502    0 -0.00000000000E+00 -0.00000000000E+00 -0.17090451534E+04  0.17090451534E+04  0.00000000000E+00 0. -1.
         24    2    1    2    0    0 -0.28857132920E+02  0.46249334967E+02 -0.69603715401E+02  0.11971475652E+03  0.80716854660E+02 0.  0.
         25    2    1    2    0    0  0.11058593594E+03  0.17284763035E+02  0.12539746695E+03  0.20947030197E+03  0.12500108171E+03 0.  0.
         24    2    1    2    0    0 -0.33302855970E+02  0.61965079853E+00  0.23268574519E+03  0.24841010645E+03  0.80345882231E+02 0.  0.
        -11    1    5    5    0    0  0.22472085883E+01 -0.20326095540E+02  0.11608006664E+02  0.23514802254E+02  0.00000000000E+00 0.  1.
         12    1    5    5    0    0 -0.35550064558E+02  0.20945746339E+02  0.22107773852E+03  0.22489530420E+03  0.00000000000E+00 0. -1.
        -13    1    3    3    0    0 -0.41974897392E+01  0.51743429205E+02 -0.72246495880E+01  0.52413709539E+02  0.00000000000E+00 0.  1.
         14    1    3    3    0    0 -0.24659643181E+02 -0.54940942373E+01 -0.62379065813E+02  0.67301046983E+02  0.00000000000E+00 0. -1.
          5    1    4    4  501    0  0.11120477177E+03  0.19533059058E+02  0.34122106500E+02  0.11804427057E+03  0.47000000000E+01 0.  1.
         -5    1    4    4    0  501 -0.61883583661E+00 -0.22482960226E+01  0.91275360453E+02  0.91426031406E+02  0.47000000000E+01 0.  1.
          1    1    1    2  502    0  0.54443150483E+02 -0.80436618429E+02 -0.15328890842E+04  0.15359632322E+04  0.00000000000E+00 0. -1.
          1    1    1    2  503    0 -0.10286909753E+03  0.16282869628E+02  0.60148120958E+02  0.12027044327E+03  0.00000000000E+00 0. -1.
<mgrwt>
<rscale>  0 0.95743289E+02</rscale>
<asrwt>0</asrwt>
<pdfrwt beam="1">  1        2 0.77174073E-01 0.94477810E+02</pdfrwt>
<pdfrwt beam="2">  1        2 0.25133016E+00 0.97025718E+02</pdfrwt>
<totfact> 0.12431393E+02</totfact>
</mgrwt>
</event>
<event>
13    1  0.1675423E-008  0.1280775E+03  0.7546771E-02  0.1290543E+00
          2   -1    0    0  502    0  0.00000000000E+00  0.00000000000E+00  0.11230307253E+04  0.11230307253E+04  0.00000000000E+00 0. -1.
          2   -1    0    0  503    0 -0.00000000000E+00 -0.00000000000E+00 -0.21786530934E+04  0.21786530934E+04  0.00000000000E+00 0. -1.
         24    2    1    2    0    0  0.21931351979E+02 -0.16540970128E+02  0.23044555020E+02  0.88095117404E+02  0.80468070077E+02 0.  0.
         25    2    1    2    0    0  0.89630823593E+02 -0.79891669855E+02 -0.47344953843E+03  0.50417836265E+03  0.12499996992E+03 0.  0.
         24    2    1    2    0    0  0.64467334463E+02  0.44637670736E+01  0.29589016656E+02  0.10750567826E+03  0.80659770158E+02 0.  0.
        -11    1    5    5    0    0  0.76373067233E+02  0.23500405858E+02  0.29120459589E+02  0.85047725665E+02  0.00000000000E+00 0.  1.
         12    1    5    5    0    0 -0.11905732770E+02 -0.19036638785E+02  0.46855706699E+00  0.22457952594E+02  0.00000000000E+00 0. -1.
        -13    1    3    3    0    0 -0.18045308006E+02 -0.19668878955E+02  0.37012107550E+02  0.45633255918E+02  0.00000000000E+00 0.  1.
         14    1    3    3    0    0  0.39976659985E+02  0.31279088270E+01 -0.13967552530E+02  0.42461861486E+02  0.00000000000E+00 0. -1.
          5    1    4    4  501    0  0.69501639416E+02 -0.31237033034E+02 -0.94150394456E+02  0.12121310528E+03  0.47000000000E+01 0. -1.
         -5    1    4    4    0  501  0.20129184177E+02 -0.48654636820E+02 -0.37929914397E+03  0.38296525737E+03  0.47000000000E+01 0. -1.
          1    1    1    2  502    0 -0.11649285430E+03  0.53500306608E+02  0.97859071592E+03  0.98695119292E+03  0.00000000000E+00 0. -1.
          1    1    1    2  503    0 -0.59536655735E+02  0.38468566301E+02 -0.16133971173E+04  0.16149534675E+04  0.00000000000E+00 0. -1.
<mgrwt>
<rscale>  0 0.95281466E+02</rscale>
<asrwt>0</asrwt>
<pdfrwt beam="1">  1        2 0.16515158E+00 0.12807750E+03</pdfrwt>
<pdfrwt beam="2">  1        2 0.32039016E+00 0.70883312E+02</pdfrwt>
<totfact> 0.30096934E+01</totfact>
</mgrwt>
</event>
<event>
13    1  0.1675423E-008  0.1029278E+03  0.7546771E-02  0.1295185E+00
          2   -1    0    0  503    0  0.00000000000E+00  0.00000000000E+00  0.13085437943E+04  0.13085437943E+04  0.00000000000E+00 0. -1.
          2   -1    0    0  502    0 -0.00000000000E+00 -0.00000000000E+00 -0.11021883917E+04  0.11021883917E+04  0.00000000000E+00 0. -1.
         24    2    1    2    0    0 -0.18644492399E+02  0.76495587920E+02  0.58786089769E+01  0.11337907169E+03  0.81369919422E+02 0.  0.
         25    2    1    2    0    0 -0.32451803076E+02 -0.12262790355E+02 -0.30513249662E+03  0.33156328857E+03  0.12499951313E+03 0.  0.
         24    2    1    2    0    0 -0.15599673345E+02  0.34300150602E+02 -0.11471996157E+03  0.14591600951E+03  0.81920462091E+02 0.  0.
        -11    1    5    5    0    0  0.24485050236E+02  0.29113210120E+01 -0.52846182622E+01  0.25217467463E+02  0.00000000000E+00 0.  1.
         12    1    5    5    0    0 -0.40084723581E+02  0.31388829590E+02 -0.10943534331E+03  0.12069854205E+03  0.00000000000E+00 0. -1.
        -13    1    3    3    0    0 -0.42328248216E+02  0.56099938419E+02  0.27401128617E+02  0.75430136797E+02  0.00000000000E+00 0.  1.
         14    1    3    3    0    0  0.23683755817E+02  0.20395649501E+02 -0.21522519641E+02  0.37948934897E+02  0.00000000000E+00 0. -1.
          5    1    4    4  501    0 -0.55217916289E+02  0.30425309122E+02 -0.25087135886E+03  0.25871460417E+03  0.47000000000E+01 0. -1.
         -5    1    4    4    0  501  0.22766113213E+02 -0.42688099477E+02 -0.54261137757E+02  0.72848684398E+02  0.47000000000E+01 0. -1.
          1    1    1    2  502    0  0.84408859075E+02  0.31477080557E+01 -0.59459934388E+03  0.60056901627E+03  0.00000000000E+00 0. -1.
          1    1    1    2  503    0 -0.17712890254E+02 -0.10168065622E+03  0.12149285958E+04  0.12193047999E+04  0.00000000000E+00 0. -1.
<mgrwt>
<rscale>  0 0.93241947E+02</rscale>
<asrwt>0</asrwt>
<pdfrwt beam="1">  1        2 0.19243291E+00 0.10292784E+03</pdfrwt>
<pdfrwt beam="2">  1        2 0.16208653E+00 0.84467530E+02</pdfrwt>
<totfact> 0.80720936E+01</totfact>
</mgrwt>
</event>
<event>
13    1  0.1675423E-008  0.1196209E+03  0.7546771E-02  0.1330978E+00
          2   -1    0    0  502    0  0.00000000000E+00  0.00000000000E+00  0.49875436569E+03  0.49875436569E+03  0.00000000000E+00 0. -1.
          2   -1    0    0  503    0 -0.00000000000E+00 -0.00000000000E+00 -0.12629299322E+04  0.12629299322E+04  0.00000000000E+00 0. -1.
         24    2    1    2    0    0 -0.12457930695E+02 -0.41384683575E+01 -0.51345571136E+02  0.96438906527E+02  0.80571508981E+02 0.  0.
         25    2    1    2    0    0  0.13011382174E+03 -0.30759218382E+01  0.16996774397E+03  0.24789098132E+03  0.12498734628E+03 0.  0.
         24    2    1    2    0    0  0.37612560725E+02  0.48468535891E+02 -0.93981004920E+02  0.13525815649E+03  0.75487985234E+02 0.  0.
        -11    1    3    3    0    0 -0.18445457971E+02  0.10100725478E+02 -0.69494271896E+02  0.72606565827E+02  0.00000000000E+00 0.  1.
         12    1    3    3    0    0  0.59875272755E+01 -0.14239193835E+02  0.18148700760E+02  0.23832340700E+02  0.00000000000E+00 0. -1.
        -13    1    5    5    0    0  0.24165691639E+02 -0.17310610937E+02 -0.23274551471E+02  0.37753710408E+02  0.00000000000E+00 0.  1.
         14    1    5    5    0    0  0.13446869086E+02  0.65779146828E+02 -0.70706453449E+02  0.97504446078E+02  0.00000000000E+00 0. -1.
          5    1    4    4  501    0  0.13964543775E+03 -0.11767697849E+02  0.18192047671E+03  0.22968778122E+03  0.47000000000E+01 0.  1.
         -5    1    4    4    0  501 -0.95316160096E+01  0.86917760107E+01 -0.11952732743E+02  0.18203200103E+02  0.47000000000E+01 0.  1.
          1    1    1    2  502    0  0.22978386262E+02 -0.47318966868E+02  0.23604315486E+03  0.24183354155E+03  0.00000000000E+00 0. -1.
          1    1    1    2  503    0 -0.17824683803E+03  0.60648211726E+01 -0.10248598892E+04  0.10402627120E+04  0.00000000000E+00 0. -1.
<mgrwt>
<rscale>  0 0.79324890E+02</rscale>
<asrwt>0</asrwt>
<pdfrwt beam="1">  1        2 0.73346231E-01 0.52603145E+02</pdfrwt>
<pdfrwt beam="2">  1        2 0.18572499E+00 0.11962095E+03</pdfrwt>
<totfact> 0.21743257E+02</totfact>
</mgrwt>
</event>
<event>
13    1  0.1675423E-008  0.7225766E+03  0.7546771E-02  0.1149791E+00
          2   -1    0    0  503    0  0.00000000000E+00  0.00000000000E+00  0.25114114232E+04  0.25114114232E+04  0.00000000000E+00 0. -1.
          2   -1    0    0  502    0 -0.00000000000E+00 -0.00000000000E+00 -0.31241838485E+04  0.31241838485E+04  0.00000000000E+00 0. -1.
         24    2    1    2    0    0 -0.30676309108E+03 -0.71865739165E+03  0.11979005878E+03  0.79465327392E+03  0.80945209512E+02 0.  0.
         25    2    1    2    0    0 -0.16221039180E+03  0.32082182474E+03 -0.45956077109E+03  0.59670481475E+03  0.12498671604E+03 0.  0.
         24    2    1    2    0    0 -0.26797164124E+03  0.21189316698E+03 -0.14542789394E+03  0.37909586894E+03  0.76530325899E+02 0.  0.
        -11    1    3    3    0    0 -0.60037651235E+02 -0.84895242401E+02 -0.62529663767E+00  0.10398130959E+03  0.00000000000E+00 0.  1.
         12    1    3    3    0    0 -0.24672543984E+03 -0.63376214925E+03  0.12041535542E+03  0.69067196433E+03  0.00000000000E+00 0. -1.
        -13    1    5    5    0    0 -0.13824152513E+03  0.61218075200E+02 -0.58977491056E+02  0.16228590959E+03  0.00000000000E+00 0.  1.
         14    1    5    5    0    0 -0.12973011612E+03  0.15067509178E+03 -0.86450402887E+02  0.21680995934E+03  0.00000000000E+00 0. -1.
          5    1    4    4  501    0 -0.13550948349E+03  0.30027225619E+03 -0.45590107377E+03  0.56248922391E+03  0.47000000000E+01 0. -1.
         -5    1    4    4    0  501 -0.26700908308E+02  0.20549568546E+02 -0.36596973216E+01  0.34215590838E+02  0.47000000000E+01 0. -1.
          1    1    1    2  502    0  0.30280150484E+02  0.46301296186E+02 -0.19265322534E+04  0.19273264438E+04  0.00000000000E+00 0. -1.
          1    1    1    2  503    0  0.70666497364E+03  0.13964110374E+03  0.17989584344E+04  0.19378148703E+04  0.00000000000E+00 0. -1.
<mgrwt>
<rscale>  0 0.19993878E+03</rscale>
<asrwt>0</asrwt>
<pdfrwt beam="1">  1        2 0.36932521E+00 0.72257657E+03</pdfrwt>
<pdfrwt beam="2">  1        2 0.45943880E+00 0.55323571E+02</pdfrwt>
<totfact> 0.17462312E+00</totfact>
</mgrwt>
</event>
<event>
13    1  0.1675423E-008  0.7792262E+02  0.7546771E-02  0.1452585E+00
          2   -1    0    0  502    0  0.00000000000E+00  0.00000000000E+00  0.16311105533E+04  0.16311105533E+04  0.00000000000E+00 0. -1.
          2   -1    0    0  503    0 -0.00000000000E+00 -0.00000000000E+00 -0.12645367932E+04  0.12645367932E+04  0.00000000000E+00 0. -1.
         24    2    1    2    0    0 -0.44774761611E+03  0.63777132129E+02  0.14831139905E+03  0.48231657845E+03  0.78022820022E+02 0.  0.
         25    2    1    2    0    0  0.36265465624E+03 -0.19812213192E+03  0.27780520797E+03  0.51339372421E+03  0.12500641435E+03 0.  0.
         24    2    1    2    0    0  0.23137894012E+02  0.48475384741E+02  0.35000476578E+03  0.36036836513E+03  0.66908874249E+02 0.  0.
        -11    1    5    5    0    0 -0.10163962651E+02  0.50162998428E+02  0.24111781869E+03  0.24649023315E+03  0.00000000000E+00 0.  1.
         12    1    5    5    0    0  0.33301856662E+02 -0.16876136863E+01  0.10888694709E+03  0.11387813198E+03  0.00000000000E+00 0. -1.
        -11    1    3    3    0    0 -0.35397232264E+03  0.44558397743E+02  0.14889678866E+03  0.38659036418E+03  0.00000000000E+00 0.  1.
         12    1    3    3    0    0 -0.93775293470E+02  0.19218734386E+02 -0.58538961427E+00  0.95726214266E+02  0.00000000000E+00 0. -1.
          5    1    4    4  501    0  0.25730195329E+03 -0.84816210999E+02  0.13472925867E+03  0.30260890264E+03  0.47000000000E+01 0. -1.
         -5    1    4    4    0  501  0.10535270295E+03 -0.11330592092E+03  0.14307594930E+03  0.21078482157E+03  0.47000000000E+01 0. -1.
          1    1    1    2  502    0  0.52961789182E+02  0.56816250804E+02  0.56210203940E+03  0.56744316030E+03  0.00000000000E+00 0. -1.
          1    1    1    2  503    0  0.89932766691E+01  0.29053364245E+02 -0.97164965214E+03  0.97212551838E+03  0.00000000000E+00 0. -1.
<mgrwt>
<rscale>  0 0.48681561E+02</rscale>
<asrwt>0</asrwt>
<pdfrwt beam="1">  1        2 0.23986920E+00 0.77922617E+02</pdfrwt>
<pdfrwt beam="2">  1        2 0.18596129E+00 0.30413435E+02</pdfrwt>
<totfact> 0.50155384E+01</totfact>
</mgrwt>
</event>
<event>
13    1  0.1675423E-008  0.7915443E+02  0.7546771E-02  0.1400758E+00
          2   -1    0    0  502    0  0.00000000000E+00  0.00000000000E+00  0.21194287906E+04  0.21194287906E+04  0.00000000000E+00 0. -1.
          2   -1    0    0  503    0 -0.00000000000E+00 -0.00000000000E+00 -0.60605218320E+03  0.60605218320E+03  0.00000000000E+00 0. -1.
         24    2    1    2    0    0  0.24992254103E+03 -0.40028900395E+03  0.36210916277E+03  0.60021029747E+03  0.80229621858E+02 0.  0.
         25    2    1    2    0    0 -0.22300953159E+03  0.98805279385E+02  0.28717869804E+03  0.39698194569E+03  0.12500930439E+03 0.  0.
         24    2    1    2    0    0  0.91261037178E+01  0.25948720010E+03  0.41395715647E+03  0.49576028326E+03  0.83671012224E+02 0.  0.
        -13    1    5    5    0    0 -0.30170497418E+02  0.17877664871E+03  0.24978863730E+03  0.30865144154E+03  0.00000000000E+00 0.  1.
         14    1    5    5    0    0  0.39296601136E+02  0.80710551383E+02  0.16416851917E+03  0.18710884173E+03  0.00000000000E+00 0. -1.
        -13    1    3    3    0    0  0.30739896780E+01 -0.45014622479E+02  0.45825220833E+02  0.64309536725E+02  0.00000000000E+00 0.  1.
         14    1    3    3    0    0  0.24684855136E+03 -0.35527438147E+03  0.31628394194E+03  0.53590076074E+03  0.00000000000E+00 0. -1.
          5    1    4    4  501    0 -0.61457609667E+02 -0.22874907940E+02  0.37703627673E+02  0.75788869492E+02  0.47000000000E+01 0.  1.
         -5    1    4    4    0  501 -0.16155192192E+03  0.12168018732E+03  0.24947507037E+03  0.32119307620E+03  0.47000000000E+01 0.  1.
          1    1    1    2  502    0 -0.25303870470E+02 -0.36530196789E+02  0.83671996074E+03  0.83789917880E+03  0.00000000000E+00 0. -1.
          1    1    1    2  503    0 -0.10735242691E+02  0.78526721256E+02 -0.38658837057E+03  0.39462926861E+03  0.00000000000E+00 0. -1.
<mgrwt>
<rscale>  0 0.59308256E+02</rscale>
<asrwt>0</asrwt>
<pdfrwt beam="1">  1        2 0.31168070E+00 0.44438060E+02</pdfrwt>
<pdfrwt beam="2">  1        2 0.89125321E-01 0.79154430E+02</pdfrwt>
<totfact> 0.73997081E+01</totfact>
</mgrwt>
</event>
<event>
13    1  0.1675423E-008  0.1468308E+03  0.7546771E-02  0.1242417E+00
          2   -1    0    0  503    0  0.00000000000E+00  0.00000000000E+00  0.38905872715E+04  0.38905872715E+04  0.00000000000E+00 0. -1.
          2   -1    0    0  502    0 -0.00000000000E+00 -0.00000000000E+00 -0.27184765462E+04  0.27184765462E+04  0.00000000000E+00 0. -1.
         24    2    1    2    0    0  0.39688727303E+02  0.57445975666E+03  0.75741061313E+03  0.95564227040E+03  0.89454485551E+02 0.  0.
         25    2    1    2    0    0  0.28649149229E+02 -0.47742370244E+03 -0.10712308997E+04  0.11797937035E+04  0.12499350743E+03 0.  0.
         24    2    1    2    0    0 -0.17609823807E+03 -0.31522070856E+03  0.21105414197E+03  0.42585568422E+03  0.80215512096E+02 0.  0.
        -11    1    5    5    0    0 -0.14560799972E+03 -0.25079647305E+03  0.20329361419E+03  0.35415936250E+03  0.00000000000E+00 0.  1.
         12    1    5    5    0    0 -0.30490238358E+02 -0.64424235517E+02  0.77605277756E+01  0.71696321722E+02  0.00000000000E+00 0. -1.
        -13    1    3    3    0    0  0.55027884761E+02  0.20843130337E+03  0.25647756937E+03  0.33504092275E+03  0.00000000000E+00 0.  1.
         14    1    3    3    0    0 -0.15339157458E+02  0.36602845328E+03  0.50093304376E+03  0.62060134765E+03  0.00000000000E+00 0. -1.
          5    1    4    4  501    0  0.32350139403E+02 -0.22452732618E+03 -0.64974358102E+03  0.68822079509E+03  0.47000000000E+01 0. -1.
         -5    1    4    4    0  501 -0.37009901740E+01 -0.25289637626E+03 -0.42148731868E+03  0.49157290839E+03  0.47000000000E+01 0. -1.
          1    1    1    2  502    0  0.51029957620E+02  0.13735783196E+03 -0.13816560986E+04  0.13894044787E+04  0.00000000000E+00 0. -1.
          1    1    1    2  503    0  0.56730403922E+02  0.80826822385E+02  0.26565329685E+04  0.26583676809E+04  0.00000000000E+00 0. -1.
<mgrwt>
<rscale>  0 0.12041327E+03</rscale>
<asrwt>0</asrwt>
<pdfrwt beam="1">  1        2 0.57214519E+00 0.98748741E+02</pdfrwt>
<pdfrwt beam="2">  1        2 0.39977596E+00 0.14683078E+03</pdfrwt>
<totfact> 0.52423841E-01</totfact>
</mgrwt>
</event>
<event>
13    1  0.1675423E-008  0.9118174E+02  0.7546771E-02  0.1319576E+00
          2   -1    0    0  503    0  0.00000000000E+00  0.00000000000E+00  0.69184146693E+03  0.69184146693E+03  0.00000000000E+00 0. -1.
          2   -1    0    0  502    0 -0.00000000000E+00 -0.00000000000E+00 -0.73325531444E+03  0.73325531444E+03  0.00000000000E+00 0. -1.
         24    2    1    2    0    0 -0.15442606343E+02 -0.10821243204E+01 -0.36933222555E+02  0.91096718973E+02  0.81822394219E+02 0.  0.
         25    2    1    2    0    0 -0.46811572861E+02 -0.85912592728E+01  0.30638302465E+03  0.33431365574E+03  0.12501971656E+03 0.  0.
         24    2    1    2    0    0 -0.22989130761E+02 -0.71130358330E+02 -0.37025314159E+02  0.11541694638E+03  0.79763209657E+02 0.  0.
        -11    1    5    5    0    0  0.27521372224E+02 -0.33373834592E+02 -0.20532111905E+01  0.43306517300E+02  0.00000000000E+00 0.  1.
         12    1    5    5    0    0 -0.50510502986E+02 -0.37756523739E+02 -0.34972102969E+02  0.72110429085E+02  0.00000000000E+00 0. -1.
        -13    1    3    3    0    0 -0.86313977241E+01  0.32478550816E+02 -0.44757316886E+02  0.55969408650E+02  0.00000000000E+00 0.  1.
         14    1    3    3    0    0 -0.68112086192E+01 -0.33560675136E+02  0.78240943317E+01  0.35127310323E+02  0.00000000000E+00 0. -1.
          5    1    4    4  501    0  0.44930926584E+01  0.49280539995E+02  0.72287480535E+02  0.87728725888E+02  0.47000000000E+01 0. -1.
         -5    1    4    4    0  501 -0.51304665519E+02 -0.57871799268E+02  0.23409554412E+03  0.24658492985E+03  0.47000000000E+01 0. -1.
          1    1    1    2  502    0  0.75673740652E+02 -0.10115872089E+02 -0.56960344482E+03  0.57469725094E+03  0.00000000000E+00 0. -1.
          1    1    1    2  503    0  0.95695693135E+01  0.90919614013E+02  0.29576510937E+03  0.30957220933E+03  0.00000000000E+00 0. -1.
<mgrwt>
<rscale>  0 0.83435253E+02</rscale>
<asrwt>0</asrwt>
<pdfrwt beam="1">  1        2 0.10174139E+00 0.91181742E+02</pdfrwt>
<pdfrwt beam="2">  1        2 0.10783166E+00 0.76346879E+02</pdfrwt>
<totfact> 0.31378788E+02</totfact>
</mgrwt>
</event>
<event>
13    1  0.1675423E-008  0.1266246E+03  0.7546771E-02  0.1355725E+00
          2   -1    0    0  503    0  0.00000000000E+00  0.00000000000E+00  0.10955523966E+04  0.10955523966E+04  0.00000000000E+00 0. -1.
          2   -1    0    0  502    0 -0.00000000000E+00 -0.00000000000E+00 -0.33254232696E+04  0.33254232696E+04  0.00000000000E+00 0. -1.
         24    2    1    2    0    0  0.13492801583E+02  0.49840878931E+02  0.67778153915E+02  0.12069213955E+03  0.85478333480E+02 0.  0.
         25    2    1    2    0    0  0.15366588185E+02  0.40379642533E+02 -0.55546367612E+03  0.57099110834E+03  0.12499721095E+03 0.  0.
         24    2    1    2    0    0  0.35955332139E+02  0.71933320504E+02 -0.35827166348E+01  0.11335003630E+03  0.79801042371E+02 0.  0.
        -11    1    3    3    0    0  0.93039763807E+01  0.70331037874E+02  0.69995021093E+02  0.99661034727E+02  0.00000000000E+00 0.  1.
         12    1    3    3    0    0  0.41888252024E+01 -0.20490158944E+02 -0.22168671781E+01  0.21031104826E+02  0.00000000000E+00 0. -1.
        -13    1    5    5    0    0 -0.19984740503E+02  0.46526153942E+02  0.66252967608E+01  0.51068262265E+02  0.00000000000E+00 0.  1.
         14    1    5    5    0    0  0.55940072642E+02  0.25407166562E+02 -0.10208013396E+02  0.62281774038E+02  0.00000000000E+00 0. -1.
          5    1    4    4  501    0  0.68364158116E+02  0.57425698222E+01 -0.28773990382E+03  0.29584282562E+03  0.47000000000E+01 0. -1.
         -5    1    4    4    0  501 -0.52997569930E+02  0.34637072711E+02 -0.26772377230E+03  0.27514828272E+03  0.47000000000E+01 0. -1.
          1    1    1    2  502    0  0.67386489989E+01  0.39579098267E+02 -0.26649169444E+04  0.26652193596E+04  0.00000000000E+00 0. -1.
          1    1    1    2  503    0 -0.71553370906E+02 -0.20173294024E+03  0.92631431018E+03  0.95072302239E+03  0.00000000000E+00 0. -1.
<mgrwt>
<rscale>  0 0.71300811E+02</rscale>
<asrwt>0</asrwt>
<pdfrwt beam="1">  1        2 0.16111065E+00 0.12662456E+03</pdfrwt>
<pdfrwt beam="2">  1        2 0.48903284E+00 0.40148654E+02</pdfrwt>
<totfact> 0.90345393E+00</totfact>
</mgrwt>
</event>
<event>
13    1  0.1675423E-008  0.8065567E+02  0.7546771E-02  0.1470156E+00
          2   -1    0    0  503    0  0.00000000000E+00  0.00000000000E+00  0.17656453216E+04  0.17656453216E+04  0.00000000000E+00 0. -1.
         -3   -1    0    0    0  501 -0.00000000000E+00 -0.00000000000E+00 -0.10763332051E+04  0.10763332051E+04  0.00000000000E+00 0.  1.
         24    2    1    2    0    0 -0.13312037724E+03 -0.82585798865E+02  0.85916056717E+03  0.87702228214E+03  0.80434782119E+02 0.  0.
         25    2    1    2    0    0  0.23988219191E+03  0.12957512680E+03 -0.27927312490E+02  0.30122692581E+03  0.12499818627E+03 0.  0.
         24    2    1    2    0    0 -0.22875697718E+01 -0.64443554841E+02 -0.97957861658E+01  0.10264498347E+03  0.79257999406E+02 0.  0.
        -11    1    5    5    0    0 -0.33639297500E+02 -0.49730488493E+02 -0.24725843965E+02  0.64931434466E+02  0.00000000000E+00 0.  1.
         12    1    5    5    0    0  0.31351727728E+02 -0.14713066348E+02  0.14930057799E+02  0.37713549008E+02  0.00000000000E+00 0. -1.
        -13    1    3    3    0    0 -0.20958204129E+02 -0.40072448037E+02  0.12089958102E+03  0.12908042494E+03  0.00000000000E+00 0.  1.
         14    1    3    3    0    0 -0.11216217312E+03 -0.42513350829E+02  0.73826098615E+03  0.74794185720E+03  0.00000000000E+00 0. -1.
          5    1    4    4  502    0  0.11829738604E+03  0.54294208695E+02 -0.75374169038E+02  0.15048417857E+03  0.47000000000E+01 0. -1.
         -5    1    4    4    0  502  0.12158480587E+03  0.75280918110E+02  0.47446856549E+02  0.15074274724E+03  0.47000000000E+01 0. -1.
          1    1    1    2  503    0 -0.78611680517E+02  0.16900635052E+02  0.71201844193E+03  0.71654426899E+03  0.00000000000E+00 0. -1.
         -4    1    1    2    0  501 -0.25862564375E+02  0.55359185000E+00 -0.84414379392E+03  0.84454006626E+03  0.00000000000E+00 0.  1.
<mgrwt>
<rscale>  0 0.45677568E+02</rscale>
<asrwt>0</asrwt>
<pdfrwt beam="1">  1        2 0.25965372E+00 0.80655669E+02</pdfrwt>
<pdfrwt beam="2">  1       -3 0.15828429E+00 0.25868489E+02</pdfrwt>
<totfact> 0.22581414E+00</totfact>
</mgrwt>
</event>
<event>
13    1  0.1675423E-008  0.9253805E+02  0.7546771E-02  0.1315523E+00
          2   -1    0    0  503    0  0.00000000000E+00  0.00000000000E+00  0.29139355900E+04  0.29139355900E+04  0.00000000000E+00 0. -1.
          2   -1    0    0  502    0 -0.00000000000E+00 -0.00000000000E+00 -0.78913180160E+03  0.78913180160E+03  0.00000000000E+00 0. -1.
         24    2    1    2    0    0 -0.23848932705E+03  0.37278949552E+03  0.63046503571E+03  0.77403175408E+03  0.76090919244E+02 0.  0.
         25    2    1    2    0    0  0.31307434382E+03 -0.26922869680E+03  0.81351979124E+03  0.92083648091E+03  0.12500295156E+03 0.  0.
         24    2    1    2    0    0 -0.13739202844E+03 -0.65124785950E+02  0.56759481008E+03  0.59337041902E+03  0.82503203051E+02 0.  0.
        -13    1    3    3    0    0 -0.19388713734E+03  0.25792837075E+03  0.41327264220E+03  0.52432198434E+03  0.00000000000E+00 0.  1.
         14    1    3    3    0    0 -0.44602189705E+02  0.11486112476E+03  0.21719239351E+03  0.24970976974E+03  0.00000000000E+00 0. -1.
        -13    1    5    5    0    0 -0.41700241946E+02 -0.65081196475E+02  0.25275627549E+03  0.26431081536E+03  0.00000000000E+00 0.  1.
         14    1    5    5    0    0 -0.95691786493E+02 -0.43589475125E-01  0.31483853459E+03  0.32905960366E+03  0.00000000000E+00 0. -1.
          5    1    4    4  501    0  0.22127510713E+03 -0.25011893203E+03  0.58225884701E+03  0.67124481981E+03  0.47000000000E+01 0. -1.
         -5    1    4    4    0  501  0.91799236688E+02 -0.19109764766E+02  0.23126094423E+03  0.24959166110E+03  0.47000000000E+01 0. -1.
          1    1    1    2  502    0  0.55493166129E+02  0.54831620931E+02 -0.64558132772E+03  0.65027782435E+03  0.00000000000E+00 0. -1.
          1    1    1    2  503    0  0.73138455372E+01 -0.93267633698E+02  0.75880547914E+03  0.76455091328E+03  0.00000000000E+00 0. -1.
<mgrwt>
<rscale>  0 0.84965601E+02</rscale>
<asrwt>0</asrwt>
<pdfrwt beam="1">  1        2 0.42851994E+00 0.92538053E+02</pdfrwt>
<pdfrwt beam="2">  1        2 0.11604880E+00 0.78012808E+02</pdfrwt>
<totfact> 0.20203533E+01</totfact>
</mgrwt>
</event>
<event>
13    1  0.1675423E-008  0.1509731E+03  0.7546771E-02  0.1326019E+00
          2   -1    0    0  503    0  0.00000000000E+00  0.00000000000E+00  0.16719478231E+04  0.16719478231E+04  0.00000000000E+00 0. -1.
         -1   -1    0    0    0  501 -0.00000000000E+00 -0.00000000000E+00 -0.25004121563E+04  0.25004121563E+04  0.00000000000E+00 0.  1.
         24    2    1    2    0    0  0.56340990186E+02 -0.10443503107E+03  0.10590486365E+03  0.17751910117E+03  0.78842934033E+02 0.  0.
         25    2    1    2    0    0  0.14837002053E+03  0.79920681459E+02 -0.80379654870E+03  0.83073089266E+03  0.12499578394E+03 0.  0.
         24    2    1    2    0    0 -0.61815591759E+02  0.34762513822E+02  0.43398974261E+02  0.11532285371E+03  0.79914265745E+02 0.  0.
        -11    1    5    5    0    0 -0.69914380301E+02  0.52395638101E+02  0.33857793864E+02  0.93699912861E+02  0.00000000000E+00 0.  1.
         12    1    5    5    0    0  0.80987885420E+01 -0.17633124278E+02  0.95411803978E+01  0.21622940851E+02  0.00000000000E+00 0. -1.
        -11    1    3    3    0    0  0.70470625361E+02 -0.99941000285E+02  0.75567901307E+02  0.14375263575E+03  0.00000000000E+00 0.  1.
         12    1    3    3    0    0 -0.14129635176E+02 -0.44940307800E+01  0.30336962344E+02  0.33766465422E+02  0.00000000000E+00 0. -1.
          5    1    4    4  502    0  0.83567808042E+02 -0.21554806347E+02 -0.40542468278E+03  0.41453522363E+03  0.47000000000E+01 0. -1.
         -5    1    4    4    0  502  0.64802212488E+02  0.10147548781E+03 -0.39837186592E+03  0.41619566903E+03  0.47000000000E+01 0. -1.
          1    1    1    2  503    0 -0.15929652988E+03 -0.50583419768E+02  0.14322533103E+04  0.14419721258E+04  0.00000000000E+00 0. -1.
         -2    1    1    2    0  501  0.16401110920E+02  0.40335255552E+02 -0.16062249327E+04  0.16068150060E+04  0.00000000000E+00 0.  1.
<mgrwt>
<rscale>  0 0.81078429E+02</rscale>
<asrwt>0</asrwt>
<pdfrwt beam="1">  1        2 0.24587468E+00 0.15097310E+03</pdfrwt>
<pdfrwt beam="2">  1       -1 0.36770766E+00 0.43542270E+02</pdfrwt>
<totfact> 0.27889297E-01</totfact>
</mgrwt>
</event>
<event>
13    1  0.1675423E-008  0.8204915E+02  0.7546771E-02  0.1422894E+00
          2   -1    0    0  503    0  0.00000000000E+00  0.00000000000E+00  0.16823112516E+04  0.16823112516E+04  0.00000000000E+00 0. -1.
          2   -1    0    0  502    0 -0.00000000000E+00 -0.00000000000E+00 -0.25831778731E+04  0.25831778731E+04  0.00000000000E+00 0. -1.
         24    2    1    2    0    0  0.11225589667E+02 -0.26850725800E+02  0.77475510470E+03  0.77952134798E+03  0.81000520717E+02 0.  0.
         25    2    1    2    0    0 -0.45206372641E+02 -0.87954327657E+02 -0.93462704947E+03  0.94812106496E+03  0.12500500924E+03 0.  0.
         24    2    1    2    0    0 -0.25128434635E+01 -0.85745282859E+01 -0.11550003513E+03  0.13877002286E+03  0.76400420237E+02 0.  0.
        -11    1    5    5    0    0 -0.24042693896E+02 -0.34745249356E+02 -0.54169032673E+02  0.68699109043E+02  0.00000000000E+00 0.  1.
         12    1    5    5    0    0  0.21529850433E+02  0.26170721070E+02 -0.61331002456E+02  0.70070913818E+02  0.00000000000E+00 0. -1.
        -13    1    3    3    0    0 -0.10500347637E+02  0.42966925415E+01  0.14948867460E+02  0.18766659416E+02  0.00000000000E+00 0.  1.
         14    1    3    3    0    0  0.21725937305E+02 -0.31147418341E+02  0.75980623724E+03  0.76075468856E+03  0.00000000000E+00 0. -1.
          5    1    4    4  501    0  0.15030729416E+02 -0.87786683356E+02 -0.38563525704E+03  0.39581443389E+03  0.47000000000E+01 0.  1.
         -5    1    4    4    0  501 -0.60237102058E+02 -0.16764430127E+00 -0.54899179243E+03  0.55230663107E+03  0.47000000000E+01 0.  1.
          1    1    1    2  502    0  0.29275537470E+02  0.21097976032E+02 -0.15091053012E+04  0.15095366811E+04  0.00000000000E+00 0. -1.
          1    1    1    2  503    0  0.72180889674E+01  0.10228160571E+03  0.88361065954E+03  0.88954000772E+03  0.00000000000E+00 0. -1.
<mgrwt>
<rscale>  0 0.54413284E+02</rscale>
<asrwt>0</asrwt>
<pdfrwt beam="1">  1        2 0.24739872E+00 0.82049149E+02</pdfrwt>
<pdfrwt beam="2">  1        2 0.37987909E+00 0.36085755E+02</pdfrwt>
<totfact> 0.11352806E+01</totfact>
</mgrwt>
</event>
<event>
13    1  0.1675423E-008  0.1078933E+03  0.7546771E-02  0.1428864E+00
         -1   -1    0    0    0  501 -0.00000000000E+00  0.00000000000E+00  0.76906052961E+03  0.76906052961E+03  0.00000000000E+00 0.  1.
          2   -1    0    0  503    0  0.00000000000E+00 -0.00000000000E+00 -0.12440924786E+04  0.12440924786E+04  0.00000000000E+00 0. -1.
         24    2    1    2    0    0 -0.14473346360E+03  0.82227813899E+02 -0.25793349591E+03  0.31809224233E+03  0.83329451269E+02 0.  0.
         25    2    1    2    0    0  0.86309087012E+02  0.11022647938E+03  0.32420577092E+03  0.37461204776E+03  0.12500267665E+03 0.  0.
         24    2    1    2    0    0  0.75919736065E+02 -0.11210486097E+03 -0.53982641448E+03  0.56226518611E+03  0.79989221551E+02 0.  0.
        -11    1    3    3    0    0 -0.10097991105E+03  0.96683540454E+02 -0.20121820898E+03  0.24501717706E+03  0.00000000000E+00 0.  1.
         12    1    3    3    0    0 -0.43753552558E+02 -0.14455726555E+02 -0.56715286931E+02  0.73075065264E+02  0.00000000000E+00 0. -1.
        -11    1    5    5    0    0  0.25067156463E+01 -0.54116529403E+02 -0.29972564109E+03  0.30458224227E+03  0.00000000000E+00 0.  1.
         12    1    5    5    0    0  0.73413020418E+02 -0.57988331570E+02 -0.24010077338E+03  0.25768294384E+03  0.00000000000E+00 0. -1.
          5    1    4    4  502    0  0.55613221124E+02  0.13485021899E+03  0.22982553862E+03  0.27224856313E+03  0.47000000000E+01 0. -1.
         -5    1    4    4    0  502  0.30695865888E+02 -0.24623739617E+02  0.94380232303E+02  0.10236348463E+03  0.47000000000E+01 0. -1.
          1    1    1    2  503    0 -0.21229191331E+02 -0.10630304457E+03 -0.37162305248E+03  0.38711071928E+03  0.00000000000E+00 0. -1.
         -2    1    1    2    0  501  0.37338318593E+01  0.25953612269E+02  0.37014524293E+03  0.37107281274E+03  0.00000000000E+00 0.  1.
<mgrwt>
<rscale>  0 0.53188814E+02</rscale>
<asrwt>0</asrwt>
<pdfrwt beam="2">  1        2 0.18295477E+00 0.10789326E+03</pdfrwt>
<pdfrwt beam="1">  1       -1 0.11309714E+00 0.26220822E+02</pdfrwt>
<totfact> 0.21159280E+01</totfact>
</mgrwt>
</event>
<event>
13    1  0.1675423E-008  0.7129483E+02  0.7546771E-02  0.1419367E+00
          2   -1    0    0  503    0  0.00000000000E+00  0.00000000000E+00  0.26862046110E+04  0.26862046110E+04  0.00000000000E+00 0. -1.
          2   -1    0    0  502    0 -0.00000000000E+00 -0.00000000000E+00 -0.87743862926E+03  0.87743862926E+03  0.00000000000E+00 0. -1.
         24    2    1    2    0    0 -0.18477316208E+03  0.12098294961E+03  0.37491810020E+03  0.44271453811E+03  0.81575638965E+02 0.  0.
         25    2    1    2    0    0  0.18184144371E+03 -0.60764178611E+02 -0.65353532125E+01  0.22896801483E+03  0.12500017968E+03 0.  0.
         24    2    1    2    0    0  0.34583032539E+02 -0.59475236345E+02  0.66828943996E+03  0.67659394308E+03  0.80220311469E+02 0.  0.
        -11    1    5    5    0    0  0.31164428535E+01  0.16815405583E+02  0.50504706514E+02  0.53321622828E+02  0.00000000000E+00 0.  1.
         12    1    5    5    0    0  0.31466589685E+02 -0.76290641929E+02  0.61778473345E+03  0.62327232026E+03  0.00000000000E+00 0. -1.
        -13    1    3    3    0    0 -0.25876412318E+02  0.89366179530E+01  0.98400444108E+01  0.29090863324E+02  0.00000000000E+00 0.  1.
         14    1    3    3    0    0 -0.15889674976E+03  0.11204633166E+03  0.36507805579E+03  0.41362367478E+03  0.00000000000E+00 0. -1.
          5    1    4    4  501    0  0.48327465535E+02 -0.73545152693E+02  0.23987617150E+02  0.91334162208E+02  0.47000000000E+01 0. -1.
         -5    1    4    4    0  501  0.13351397818E+03  0.12780974082E+02 -0.30522970362E+02  0.13763385262E+03  0.47000000000E+01 0. -1.
          1    1    1    2  502    0  0.35662064313E+02  0.23427691416E+02 -0.72014849520E+03  0.72141146006E+03  0.00000000000E+00 0. -1.
          1    1    1    2  503    0 -0.67313378489E+02 -0.24171226070E+02  0.14922422900E+04  0.14939552842E+04  0.00000000000E+00 0. -1.
<mgrwt>
<rscale>  0 0.55155016E+02</rscale>
<asrwt>0</asrwt>
<pdfrwt beam="1">  1        2 0.39503009E+00 0.71294830E+02</pdfrwt>
<pdfrwt beam="2">  1        2 0.12903509E+00 0.42668953E+02</pdfrwt>
<totfact> 0.24762921E+01</totfact>
</mgrwt>
</event>
<event>
13    1  0.1675423E-008  0.7265220E+02  0.7546771E-02  0.1433010E+00
          4   -1    0    0  503    0 -0.00000000000E+00  0.00000000000E+00  0.13171068172E+04  0.13171068172E+04  0.00000000000E+00 0. -1.
          2   -1    0    0  502    0  0.00000000000E+00 -0.00000000000E+00 -0.16371407282E+04  0.16371407282E+04  0.00000000000E+00 0. -1.
         24    2    1    2    0    0 -0.23843104064E+02  0.24254833851E+02 -0.16068993367E+03  0.18260965288E+03  0.79801252921E+02 0.  0.
         25    2    1    2    0    0  0.14555376880E+03  0.12169022352E+03 -0.61044772735E+02  0.23524891339E+03  0.12498470652E+03 0.  0.
         24    2    1    2    0    0 -0.99224400805E+02 -0.10537805276E+03 -0.30264027468E+02  0.17034982104E+03  0.84576204997E+02 0.  0.
        -11    1    3    3    0    0 -0.45816194577E+02  0.18769405839E+02 -0.52857591178E+02  0.72424714195E+02  0.00000000000E+00 0.  1.
         12    1    3    3    0    0  0.21973090513E+02  0.54854280115E+01 -0.10783234249E+03  0.11018493869E+03  0.00000000000E+00 0. -1.
        -13    1    5    5    0    0 -0.62818299622E+02 -0.36495935133E+02  0.22730829907E+02  0.76123469948E+02  0.00000000000E+00 0.  1.
         14    1    5    5    0    0 -0.36406101183E+02 -0.68882117632E+02 -0.52994857375E+02  0.94226351097E+02  0.00000000000E+00 0. -1.
          5    1    4    4  501    0  0.44848602337E+01  0.77778468862E+02 -0.91482908970E+01  0.78583620533E+02  0.47000000000E+01 0. -1.
         -5    1    4    4    0  501  0.14106890856E+03  0.43911754657E+02 -0.51896481838E+02  0.15666529286E+03  0.47000000000E+01 0. -1.
          1    1    1    2  502    0 -0.28607966281E+01 -0.72798509933E+02 -0.12156364416E+04  0.12178176240E+04  0.00000000000E+00 0. -1.
          3    1    1    2  503    0 -0.19625467299E+02  0.32231505328E+02  0.11476012645E+04  0.11482215341E+04  0.00000000000E+00 0. -1.
<mgrwt>
<rscale>  0 0.52360535E+02</rscale>
<asrwt>0</asrwt>
<pdfrwt beam="2">  1        2 0.24075599E+00 0.72652195E+02</pdfrwt>
<pdfrwt beam="1">  1        4 0.19369218E+00 0.37736307E+02</pdfrwt>
<totfact> 0.11887193E+00</totfact>
</mgrwt>
</event>
<event>
13    1  0.1675423E-008  0.1328547E+03  0.7546771E-02  0.1258738E+00
          2   -1    0    0  503    0  0.00000000000E+00  0.00000000000E+00  0.33647892408E+04  0.33647892408E+04  0.00000000000E+00 0. -1.
         -1   -1    0    0    0  501 -0.00000000000E+00 -0.00000000000E+00 -0.40294533928E+03  0.40294533928E+03  0.00000000000E+00 0.  1.
         24    2    1    2    0    0  0.21313271523E+02  0.68059848818E+02  0.84623510229E+03  0.85348406351E+03  0.85057626021E+02 0.  0.
         25    2    1    2    0    0 -0.19700323076E+03  0.11456681427E+03 -0.71784778996E+02  0.26965234220E+03  0.12499401306E+03 0.  0.
         24    2    1    2    0    0 -0.17813922255E+01 -0.47812099813E+02  0.45959923379E+02  0.10476036995E+03  0.81075583922E+02 0.  0.
        -11    1    3    3    0    0 -0.19448770312E+02 -0.54759938197E+01  0.74804139358E+02  0.77484840066E+02  0.00000000000E+00 0.  1.
         12    1    3    3    0    0  0.40762041835E+02  0.73535842638E+02  0.77143096294E+03  0.77599922344E+03  0.00000000000E+00 0. -1.
        -13    1    5    5    0    0  0.73610396748E+01  0.11046531992E+02 -0.14657936603E+02  0.19775385701E+02  0.00000000000E+00 0.  1.
         14    1    5    5    0    0 -0.91424319003E+01 -0.58858631805E+02  0.60617859982E+02  0.84984984249E+02  0.00000000000E+00 0. -1.
          5    1    4    4  502    0 -0.18698608766E+03  0.13883591308E+03 -0.60344628152E+02  0.24062994802E+03  0.47000000000E+01 0. -1.
         -5    1    4    4    0  502 -0.10017143099E+02 -0.24269098808E+02 -0.11440150844E+02  0.29022394183E+02  0.47000000000E+01 0. -1.
          1    1    1    2  503    0  0.38047031978E+02 -0.84567409653E+02  0.23120121717E+04  0.23138711083E+04  0.00000000000E+00 0. -1.
         -2    1    1    2    0  501  0.13942431948E+03 -0.50247153622E+02 -0.17057851694E+03  0.22596669611E+03  0.00000000000E+00 0.  1.
<mgrwt>
<rscale>  0 0.11099495E+03</rscale>
<asrwt>0</asrwt>
<pdfrwt beam="1">  1        2 0.49482193E+00 0.92731998E+02</pdfrwt>
<pdfrwt beam="2">  1       -1 0.59256669E-01 0.13285467E+03</pdfrwt>
<totfact> 0.64008057E+00</totfact>
</mgrwt>
</event>
<event>
13    1  0.1675423E-008  0.1465776E+03  0.7546771E-02  0.1249360E+00
         -1   -1    0    0    0  501 -0.00000000000E+00  0.00000000000E+00  0.99827443653E+03  0.99827443653E+03  0.00000000000E+00 0.  1.
          2   -1    0    0  503    0  0.00000000000E+00 -0.00000000000E+00 -0.11676664575E+04  0.11676664575E+04  0.00000000000E+00 0. -1.
         24    2    1    2    0    0 -0.30056012759E+02  0.80713332505E+01 -0.28154245452E+03  0.29431026601E+03  0.79899115477E+02 0.  0.
         25    2    1    2    0    0 -0.55303539238E+01  0.15874357923E+02 -0.17712273544E+03  0.21743568510E+03  0.12499293458E+03 0.  0.
         24    2    1    2    0    0 -0.17602397237E+03 -0.72374941685E+02  0.21619595704E+03  0.29891131728E+03  0.79904397390E+02 0.  0.
        -11    1    3    3    0    0  0.20327920629E+02  0.25037580245E+02 -0.94033186604E+02  0.99409984230E+02  0.00000000000E+00 0.  1.
         12    1    3    3    0    0 -0.50383933388E+02 -0.16966246995E+02 -0.18750926792E+03  0.19490028178E+03  0.00000000000E+00 0. -1.
        -13    1    5    5    0    0 -0.70970668030E+02 -0.52790175104E+02  0.50815248770E+02  0.10200895949E+03  0.00000000000E+00 0.  1.
         14    1    5    5    0    0 -0.10505330434E+03 -0.19584766581E+02  0.16538070827E+03  0.19690235779E+03  0.00000000000E+00 0. -1.
          5    1    4    4  502    0 -0.50065925947E+02  0.33208366962E+02 -0.15141623046E+03  0.16296735079E+03  0.47000000000E+01 0.  1.
         -5    1    4    4    0  502  0.44535572024E+02 -0.17334009038E+02 -0.25706504979E+02  0.54468334315E+02  0.47000000000E+01 0.  1.
          1    1    1    2  503    0  0.69347045478E+02  0.81214325081E+02 -0.62909497367E+03  0.63809502836E+03  0.00000000000E+00 0. -1.
         -2    1    1    2    0  501  0.14226329358E+03 -0.32785074569E+02  0.70217218562E+03  0.71718859728E+03  0.00000000000E+00 0.  1.
<mgrwt>
<rscale>  0 0.11628182E+03</rscale>
<asrwt>0</asrwt>
<pdfrwt beam="2">  1        2 0.17171565E+00 0.92247814E+02</pdfrwt>
<pdfrwt beam="1">  1       -1 0.14680506E+00 0.14657757E+03</pdfrwt>
<totfact> 0.11445321E+01</totfact>
</mgrwt>
</event>
<event>
13    1  0.1675423E-008  0.5245297E+02  0.7546771E-02  0.1548558E+00
          2   -1    0    0  503    0  0.00000000000E+00  0.00000000000E+00  0.64718959069E+03  0.64718959069E+03  0.00000000000E+00 0. -1.
         -3   -1    0    0    0  501 -0.00000000000E+00 -0.00000000000E+00 -0.55936624894E+03  0.55936624894E+03  0.00000000000E+00 0.  1.
         24    2    1    2    0    0  0.51797718204E+02  0.66455888374E+02  0.39255149064E+03  0.40963284095E+03  0.81258863313E+02 0.  0.
         25    2    1    2    0    0 -0.89889432308E+02 -0.68932533807E+02 -0.13729077306E+03  0.21749146610E+03  0.12498790821E+03 0.  0.
         24    2    1    2    0    0 -0.25099341171E+02 -0.28606224254E+02 -0.13811412637E+02  0.93675408009E+02  0.84475049294E+02 0.  0.
        -11    1    3    3    0    0 -0.86004362364E+01  0.52867058274E+02  0.21600012437E+03  0.22254201195E+03  0.00000000000E+00 0.  1.
         12    1    3    3    0    0  0.60398154441E+02  0.13588830100E+02  0.17655136627E+03  0.18709082900E+03  0.00000000000E+00 0. -1.
        -11    1    5    5    0    0  0.23451216753E+02 -0.21800086805E+02 -0.28110309826E+02  0.42607427409E+02  0.00000000000E+00 0.  1.
         12    1    5    5    0    0 -0.48550557925E+02 -0.68061374496E+01  0.14298897188E+02  0.51067980600E+02  0.00000000000E+00 0. -1.
          5    1    4    4  502    0 -0.23970497415E+02 -0.91358301071E+02 -0.10267910966E+03  0.13959231169E+03  0.47000000000E+01 0. -1.
         -5    1    4    4    0  502 -0.65918934893E+02  0.22425767264E+02 -0.34611663402E+02  0.77899154413E+02  0.47000000000E+01 0. -1.
          1    1    1    2  503    0  0.39961315932E+02  0.33552191575E+02  0.16152329188E+03  0.16974224622E+03  0.00000000000E+00 0. -1.
         -4    1    1    2    0  501  0.23229739343E+02 -0.24693218886E+01 -0.31514925508E+03  0.31601387836E+03  0.00000000000E+00 0.  1.
<mgrwt>
<rscale>  0 0.35004768E+02</rscale>
<asrwt>0</asrwt>
<pdfrwt beam="1">  1        2 0.95174940E-01 0.52452975E+02</pdfrwt>
<pdfrwt beam="2">  1       -3 0.82259742E-01 0.23360615E+02</pdfrwt>
<totfact> 0.40243869E+01</totfact>
</mgrwt>
</event>
<event>
13    1  0.1675423E-008  0.7814459E+02  0.7546771E-02  0.1488433E+00
          2   -1    0    0  503    0  0.00000000000E+00  0.00000000000E+00  0.43799403920E+04  0.43799403920E+04  0.00000000000E+00 0. -1.
          2   -1    0    0  502    0 -0.00000000000E+00 -0.00000000000E+00 -0.25049085424E+04  0.25049085424E+04  0.00000000000E+00 0. -1.
         24    2    1    2    0    0 -0.21415556532E+03 -0.30662440110E+03  0.51030786857E+03  0.63772498724E+03  0.79986930953E+02 0.  0.
         25    2    1    2    0    0 -0.85844043894E+03  0.26203649046E+03  0.15488984902E+03  0.91934725044E+03  0.12500156806E+03 0.  0.
         24    2    1    2    0    0  0.10574029358E+04  0.97720588009E+02 -0.25973605366E+03  0.10970387986E+04  0.91547943891E+02 0.  0.
        -11    1    3    3    0    0 -0.12672899597E+03 -0.19867334126E+03  0.38073677407E+03  0.44776313613E+03  0.00000000000E+00 0.  1.
         12    1    3    3    0    0 -0.87426569345E+02 -0.10795105984E+03  0.12957109449E+03  0.18996185111E+03  0.00000000000E+00 0. -1.
        -13    1    5    5    0    0  0.47803979769E+03  0.89316528378E+02 -0.12642661355E+03  0.50247704329E+03  0.00000000000E+00 0.  1.
         14    1    5    5    0    0  0.57936313811E+03  0.84040596313E+01 -0.13330944012E+03  0.59456175528E+03  0.00000000000E+00 0. -1.
          5    1    4    4  501    0 -0.42991432228E+03  0.19284808834E+03  0.10101532316E+03  0.48191585903E+03  0.47000000000E+01 0. -1.
         -5    1    4    4    0  501 -0.42852611666E+03  0.69188402124E+02  0.53874525863E+02  0.43743139141E+03  0.47000000000E+01 0. -1.
          1    1    1    2  502    0 -0.12098595943E+02  0.20102962918E+02 -0.13799483254E+04  0.13801477769E+04  0.00000000000E+00 0. -1.
          1    1    1    2  503    0  0.27291664406E+02 -0.73235640290E+02  0.28495185111E+04  0.28505901212E+04  0.00000000000E+00 0. -1.
<mgrwt>
<rscale>  0 0.42819324E+02</rscale>
<asrwt>0</asrwt>
<pdfrwt beam="1">  1        2 0.64410888E+00 0.78144590E+02</pdfrwt>
<pdfrwt beam="2">  1        2 0.36836890E+00 0.23462846E+02</pdfrwt>
<totfact> 0.41786104E-01</totfact>
</mgrwt>
</event>
<event>
13    1  0.1675423E-008  0.1388206E+03  0.7546771E-02  0.1260742E+00
          2   -1    0    0  503    0  0.00000000000E+00  0.00000000000E+00  0.25751042764E+04  0.25751042764E+04  0.00000000000E+00 0. -1.
         -3   -1    0    0    0  501 -0.00000000000E+00 -0.00000000000E+00 -0.23477848741E+04  0.23477848741E+04  0.00000000000E+00 0.  1.
         24    2    1    2    0    0  0.75019440265E+01 -0.79397955130E+01  0.59462306065E+03  0.60012007405E+03  0.80300681885E+02 0.  0.
         25    2    1    2    0    0  0.82799894787E+02 -0.96521878913E+00 -0.13462641373E+03  0.20150860490E+03  0.12499876939E+03 0.  0.
         24    2    1    2    0    0  0.37648836285E+02  0.68014330331E+02  0.30837757190E+03  0.32805473871E+03  0.80497209453E+02 0.  0.
        -11    1    3    3    0    0  0.91389299551E+01  0.35266298426E+02  0.21798093039E+03  0.22100433901E+03  0.00000000000E+00 0.  1.
         12    1    3    3    0    0 -0.16369859285E+01 -0.43206093939E+02  0.37664213025E+03  0.37911573505E+03  0.00000000000E+00 0. -1.
        -13    1    5    5    0    0  0.36737962768E+02  0.85446772831E+00  0.17385762073E+03  0.17769884724E+03  0.00000000000E+00 0.  1.
         14    1    5    5    0    0  0.91087351695E+00  0.67159862602E+02  0.13451995117E+03  0.15035589147E+03  0.00000000000E+00 0. -1.
          5    1    4    4  502    0  0.62308829841E+02 -0.57963066026E+02 -0.55328298972E+02  0.10161406382E+03  0.47000000000E+01 0.  1.
         -5    1    4    4    0  502  0.20491064946E+02  0.56997847237E+02 -0.79298114760E+02  0.99894541076E+02  0.47000000000E+01 0.  1.
          1    1    1    2  503    0  0.12525698071E+02 -0.85026606985E+02  0.16225829987E+04  0.16248575337E+04  0.00000000000E+00 0. -1.
         -4    1    1    2    0  501 -0.14047637317E+03  0.25917290957E+02 -0.21636378152E+04  0.21683481992E+04  0.00000000000E+00 0.  1.
<mgrwt>
<rscale>  0 0.10990734E+03</rscale>
<asrwt>0</asrwt>
<pdfrwt beam="1">  1        2 0.37869181E+00 0.87016068E+02</pdfrwt>
<pdfrwt beam="2">  1       -3 0.34526248E+00 0.13882061E+03</pdfrwt>
<totfact> 0.80231659E-02</totfact>
</mgrwt>
</event>
<event>
13    1  0.1675423E-008  0.9624023E+02  0.7546771E-02  0.1291664E+00
          4   -1    0    0  503    0 -0.00000000000E+00  0.00000000000E+00  0.74464521700E+03  0.74464521700E+03  0.00000000000E+00 0. -1.
          2   -1    0    0  502    0  0.00000000000E+00 -0.00000000000E+00 -0.16176196529E+04  0.16176196529E+04  0.00000000000E+00 0. -1.
         24    2    1    2    0    0  0.95080987122E+02 -0.16795039182E+03 -0.89549207351E+03  0.91957250379E+03  0.80372929377E+02 0.  0.
         25    2    1    2    0    0 -0.17720016009E+03  0.32920548102E+03  0.20605678191E+03  0.44481358049E+03  0.12499431407E+03 0.  0.
         24    2    1    2    0    0  0.16050372603E+02 -0.11908460702E+02 -0.50522740016E+02  0.10079820837E+03  0.84901741176E+02 0.  0.
        -11    1    3    3    0    0 -0.58663338964E-01 -0.59370827621E+02 -0.36459115535E+03  0.36939356948E+03  0.00000000000E+00 0.  1.
         12    1    3    3    0    0  0.95139650461E+02 -0.10857956420E+03 -0.53090091816E+03  0.55017893431E+03  0.00000000000E+00 0. -1.
        -13    1    5    5    0    0 -0.62558933185E+01  0.59473113496E+01 -0.67174889171E+02  0.67727191354E+02  0.00000000000E+00 0.  1.
         14    1    5    5    0    0  0.22306265921E+02 -0.17855772051E+02  0.16652149156E+02  0.33071017015E+02  0.00000000000E+00 0. -1.
          5    1    4    4  501    0 -0.37630039509E+02  0.32813874328E+01  0.32420794557E+02  0.49999852966E+02  0.47000000000E+01 0.  1.
         -5    1    4    4    0  501 -0.13957012058E+03  0.32592409359E+03  0.17363598736E+03  0.39481372753E+03  0.47000000000E+01 0.  1.
          1    1    1    2  502    0 -0.13266346673E+02 -0.10029474878E+03 -0.50425500546E+03  0.51430355154E+03  0.00000000000E+00 0. -1.
          3    1    1    2  503    0  0.79335147037E+02 -0.49051879714E+02  0.37123860115E+03  0.38277702575E+03  0.00000000000E+00 0. -1.
<mgrwt>
<rscale>  0 0.94783649E+02</rscale>
<asrwt>0</asrwt>
<pdfrwt beam="2">  1        2 0.23788524E+00 0.96240226E+02</pdfrwt>
<pdfrwt beam="1">  1        4 0.10950665E+00 0.93349117E+02</pdfrwt>
<totfact> 0.49929281E+00</totfact>
</mgrwt>
</event>
<event>
13    1  0.1675423E-008  0.1639777E+03  0.7546771E-02  0.1231273E+00
          2   -1    0    0  503    0  0.00000000000E+00  0.00000000000E+00  0.39906162046E+04  0.39906162046E+04  0.00000000000E+00 0. -1.
         -1   -1    0    0    0  501 -0.00000000000E+00 -0.00000000000E+00 -0.22535040848E+04  0.22535040848E+04  0.00000000000E+00 0.  1.
         24    2    1    2    0    0  0.28482757093E+03  0.23588086532E+03  0.22868214590E+04  0.23178946818E+04  0.79478567128E+02 0.  0.
         25    2    1    2    0    0  0.47034259025E+01 -0.33214305516E+03 -0.27951407791E+03  0.45176639956E+03  0.12499451475E+03 0.  0.
         24    2    1    2    0    0 -0.20181313211E+02 -0.15681754810E+02  0.16332546789E+03  0.18282617717E+03  0.78083287343E+02 0.  0.
        -11    1    5    5    0    0 -0.24014569177E+02  0.26094808806E+02  0.45067121033E+02  0.57347048551E+02  0.00000000000E+00 0.  1.
         12    1    5    5    0    0  0.38332559664E+01 -0.41776563616E+02  0.11825834685E+03  0.12547912862E+03  0.00000000000E+00 0. -1.
        -11    1    3    3    0    0  0.97808129168E+02  0.10875903873E+03  0.70710973296E+03  0.72207972765E+03  0.00000000000E+00 0.  1.
         12    1    3    3    0    0  0.18701944176E+03  0.12712182659E+03  0.15797117260E+04  0.15958149541E+04  0.00000000000E+00 0. -1.
          5    1    4    4  502    0 -0.57712626194E+02 -0.19160009634E+03 -0.17393229262E+03  0.26517140976E+03  0.47000000000E+01 0. -1.
         -5    1    4    4    0  502  0.62416052096E+02 -0.14054295882E+03 -0.10558178528E+03  0.18659498980E+03  0.47000000000E+01 0. -1.
          1    1    1    2  503    0 -0.34884931258E+03  0.52802832714E+02  0.14059251209E+04  0.14495204129E+04  0.00000000000E+00 0. -1.
         -2    1    1    2    0  501  0.79499628967E+02  0.59141111932E+02 -0.18394458501E+04  0.18421126180E+04  0.00000000000E+00 0.  1.
<mgrwt>
<rscale>  0 0.12746094E+03</rscale>
<asrwt>0</asrwt>
<pdfrwt beam="1">  1        2 0.58685532E+00 0.16397775E+03</pdfrwt>
<pdfrwt beam="2">  1       -1 0.33139766E+00 0.99076201E+02</pdfrwt>
<totfact> 0.21998115E-02</totfact>
</mgrwt>
</event>
<event>
13    1  0.1675423E-008  0.5459383E+02  0.7546771E-02  0.1542860E+00
          2   -1    0    0  502    0  0.00000000000E+00  0.00000000000E+00  0.25857811864E+04  0.25857811864E+04  0.00000000000E+00 0. -1.
          2   -1    0    0  503    0 -0.00000000000E+00 -0.00000000000E+00 -0.27321561735E+04  0.27321561735E+04  0.00000000000E+00 0. -1.
         24    2    1    2    0    0  0.77861779396E+02 -0.52247751925E+03  0.15403592117E+04  0.16303227809E+04  0.78744230427E+02 0.  0.
         25    2    1    2    0    0  0.34799323778E+03 -0.23308877584E+02  0.34300160240E+02  0.37208116170E+03  0.12500117033E+03 0.  0.
         24    2    1    2    0    0 -0.50134269263E+03  0.56217525594E+03 -0.80884285558E+03  0.11077831890E+04  0.74641242080E+02 0.  0.
        -13    1    5    5    0    0 -0.34283305862E+03  0.33299015643E+03 -0.52708187369E+03  0.71150000136E+03  0.00000000000E+00 0.  1.
         14    1    5    5    0    0 -0.15850963401E+03  0.22918509951E+03 -0.28176098190E+03  0.39628318767E+03  0.00000000000E+00 0. -1.
        -13    1    3    3    0    0  0.24666014078E+02 -0.38954016503E+03  0.11597918753E+04  0.12237104014E+04  0.00000000000E+00 0.  1.
         14    1    3    3    0    0  0.53195765317E+02 -0.13293735422E+03  0.38056733642E+03  0.40661237948E+03  0.00000000000E+00 0. -1.
          5    1    4    4  501    0  0.28376688102E+03 -0.40850164907E+02 -0.17987496836E+02  0.28729430690E+03  0.47000000000E+01 0. -1.
         -5    1    4    4    0  501  0.64226356762E+02  0.17541287323E+02  0.52287657076E+02  0.84786854797E+02  0.47000000000E+01 0. -1.
          1    1    1    2  502    0  0.21367384617E+02 -0.92560031618E+01  0.64709232119E+03  0.64751116659E+03  0.00000000000E+00 0. -1.
          1    1    1    2  503    0  0.54120290837E+02 -0.71328559417E+01 -0.15592838247E+04  0.15602390616E+04  0.00000000000E+00 0. -1.
<mgrwt>
<rscale>  0 0.35654915E+02</rscale>
<asrwt>0</asrwt>
<pdfrwt beam="1">  1        2 0.38026194E+00 0.23286020E+02</pdfrwt>
<pdfrwt beam="2">  1        2 0.40178767E+00 0.54593827E+02</pdfrwt>
<totfact> 0.39903824E+00</totfact>
</mgrwt>
</event>
<event>
13    1  0.1675423E-008  0.5362285E+02  0.7546771E-02  0.1471344E+00
          2   -1    0    0  502    0  0.00000000000E+00  0.00000000000E+00  0.32669136215E+04  0.32669136215E+04  0.00000000000E+00 0. -1.
          2   -1    0    0  503    0 -0.00000000000E+00 -0.00000000000E+00 -0.16331291505E+04  0.16331291505E+04  0.00000000000E+00 0. -1.
         24    2    1    2    0    0 -0.26078449189E+03  0.56506629177E+02  0.13077320177E+04  0.13391262858E+04  0.10906249984E+03 0.  0.
         25    2    1    2    0    0  0.32118313346E+03 -0.72662427579E+02  0.13478696231E+03  0.37713895394E+03  0.12501132657E+03 0.  0.
         24    2    1    2    0    0 -0.27439832776E+02  0.33850608443E+02  0.16541192750E+03  0.18991653946E+03  0.82512896495E+02 0.  0.
        -11    1    3    3    0    0 -0.20577825972E+03 -0.22748807733E+01  0.10064693337E+04  0.10272927465E+04  0.00000000000E+00 0.  1.
         12    1    3    3    0    0 -0.55006232177E+02  0.58781509950E+02  0.30126268400E+03  0.31183353934E+03  0.00000000000E+00 0. -1.
        -13    1    5    5    0    0 -0.51510628129E+02  0.29103876902E+02  0.71254877111E+02  0.92615538508E+02  0.00000000000E+00 0.  1.
         14    1    5    5    0    0  0.24070795353E+02  0.47467315409E+01  0.94157050385E+02  0.97301000953E+02  0.00000000000E+00 0. -1.
          5    1    4    4  501    0  0.15297936062E+03 -0.86000091623E+01  0.18070257385E+01  0.15330362121E+03  0.47000000000E+01 0. -1.
         -5    1    4    4    0  501  0.16820377284E+03 -0.64062418417E+02  0.13297993657E+03  0.22383533274E+03  0.47000000000E+01 0. -1.
          1    1    1    2  502    0  0.18112423213E+02 -0.34064181216E+02  0.15091261283E+04  0.15096191902E+04  0.00000000000E+00 0. -1.
          1    1    1    2  503    0 -0.51071232003E+02  0.16369371175E+02 -0.14832725648E+04  0.14842418026E+04  0.00000000000E+00 0. -1.
<mgrwt>
<rscale>  0 0.45483817E+02</rscale>
<asrwt>0</asrwt>
<pdfrwt beam="1">  1        2 0.48042847E+00 0.38580154E+02</pdfrwt>
<pdfrwt beam="2">  1        2 0.24016605E+00 0.53622845E+02</pdfrwt>
<totfact> 0.55605328E+00</totfact>
</mgrwt>
</event>
<event>
13    1  0.1675423E-008  0.1074457E+03  0.7546771E-02  0.1308127E+00
          2   -1    0    0  503    0  0.00000000000E+00  0.00000000000E+00  0.53748515777E+04  0.53748515777E+04  0.00000000000E+00 0. -1.
          2   -1    0    0  502    0 -0.00000000000E+00 -0.00000000000E+00 -0.58649484941E+03  0.58649484941E+03  0.00000000000E+00 0. -1.
         24    2    1    2    0    0  0.49567471798E+02 -0.10263958315E+03  0.16218464103E+04  0.16278411974E+04  0.80556607883E+02 0.  0.
         25    2    1    2    0    0  0.14744645736E+03  0.62299351341E+02  0.17732389422E+03  0.26961011155E+03  0.12499672726E+03 0.  0.
         24    2    1    2    0    0 -0.80250534190E+02  0.72205031941E+02  0.14134732504E+03  0.19602793390E+03  0.82426753538E+02 0.  0.
        -11    1    5    5    0    0 -0.22223308832E+02  0.74438143941E+02  0.77803612738E+02  0.10994687301E+03  0.00000000000E+00 0.  1.
         12    1    5    5    0    0 -0.58027225358E+02 -0.22331119998E+01  0.63543712298E+02  0.86081060894E+02  0.00000000000E+00 0. -1.
        -13    1    3    3    0    0 -0.14539050524E+02 -0.22551266314E+02  0.65884603728E+03  0.65939217802E+03  0.00000000000E+00 0.  1.
         14    1    3    3    0    0  0.64106522322E+02 -0.80088316832E+02  0.96300037306E+03  0.96844901941E+03  0.00000000000E+00 0. -1.
          5    1    4    4  501    0  0.16339120431E+03  0.56353003457E+02  0.18231538255E+03  0.25126347796E+03  0.47000000000E+01 0.  1.
         -5    1    4    4    0  501 -0.15944746947E+02  0.59463478843E+01 -0.49914883305E+01  0.18346633591E+02  0.47000000000E+01 0.  1.
          1    1    1    2  502    0 -0.66771099226E+02 -0.83455616906E+02 -0.50402547163E+03  0.51523285584E+03  0.00000000000E+00 0. -1.
          1    1    1    2  503    0 -0.49992295744E+02  0.51590816769E+02  0.33518645704E+04  0.33526343284E+04  0.00000000000E+00 0. -1.
<mgrwt>
<rscale>  0 0.87856650E+02</rscale>
<asrwt>0</asrwt>
<pdfrwt beam="1">  1        2 0.79041932E+00 0.71839001E+02</pdfrwt>
<pdfrwt beam="2">  1        2 0.86249245E-01 0.10744569E+03</pdfrwt>
<totfact> 0.43413022E-01</totfact>
</mgrwt>
</event>
<event>
13    1  0.1675423E-008  0.4979029E+02  0.7546771E-02  0.1499380E+00
          2   -1    0    0  502    0  0.00000000000E+00  0.00000000000E+00  0.34760471911E+04  0.34760471911E+04  0.00000000000E+00 0. -1.
          2   -1    0    0  503    0 -0.00000000000E+00 -0.00000000000E+00 -0.37131751016E+04  0.37131751016E+04  0.00000000000E+00 0. -1.
         24    2    1    2    0    0  0.81593366200E+02  0.87286173264E+02  0.23171822036E+04  0.23216362503E+04  0.79907200166E+02 0.  0.
         25    2    1    2    0    0 -0.70249758921E+02  0.11074252677E+03 -0.12441236574E+04  0.12572457913E+04  0.12499747617E+03 0.  0.
         24    2    1    2    0    0  0.54897176241E+02 -0.20369843190E+03  0.69530977165E+02  0.23606912592E+03  0.79920737675E+02 0.  0.
        -11    1    5    5    0    0  0.42229212592E+02 -0.36996668933E+02  0.32370089119E+02  0.64806501047E+02  0.00000000000E+00 0.  1.
         12    1    5    5    0    0  0.12667963649E+02 -0.16670176296E+03  0.37160888046E+02  0.17126262487E+03  0.00000000000E+00 0. -1.
        -13    1    3    3    0    0 -0.94053244374E+01  0.34145293945E+01  0.45572130202E+02  0.46657670215E+02  0.00000000000E+00 0.  1.
         14    1    3    3    0    0  0.90998690638E+02  0.83871643870E+02  0.22716100734E+04  0.22749785801E+04  0.00000000000E+00 0. -1.
          5    1    4    4  501    0 -0.10511830155E+03  0.89366394967E+02 -0.10288913562E+04  0.10381116138E+04  0.47000000000E+01 0.  1.
         -5    1    4    4    0  501  0.34868542626E+02  0.21376131805E+02 -0.21523230117E+03  0.21913417749E+03  0.47000000000E+01 0.  1.
          1    1    1    2  502    0 -0.40840943021E+02  0.28473301680E+02  0.99653282233E+03  0.99777571503E+03  0.00000000000E+00 0. -1.
          1    1    1    2  503    0 -0.25399840500E+02 -0.22803569820E+02 -0.23762502562E+04  0.23764954102E+04  0.00000000000E+00 0. -1.
<mgrwt>
<rscale>  0 0.41225716E+02</rscale>
<asrwt>0</asrwt>
<pdfrwt beam="1">  1        2 0.51118342E+00 0.49790286E+02</pdfrwt>
<pdfrwt beam="2">  1        2 0.54605516E+00 0.34134362E+02</pdfrwt>
<totfact> 0.39322363E-01</totfact>
</mgrwt>
</event>
<event>
13    1  0.1675423E-008  0.1251707E+03  0.7546771E-02  0.1379366E+00
          2   -1    0    0  503    0  0.00000000000E+00  0.00000000000E+00  0.17426255094E+04  0.17426255094E+04  0.00000000000E+00 0. -1.
          2   -1    0    0  502    0 -0.00000000000E+00 -0.00000000000E+00 -0.82763076812E+03  0.82763076812E+03  0.00000000000E+00 0. -1.
         24    2    1    2    0    0  0.11340137819E+03 -0.25449695377E+02  0.63908356630E+03  0.65455960226E+03  0.80702593727E+02 0.  0.
         25    2    1    2    0    0 -0.14160573330E+02  0.10261563941E+03 -0.45421710660E+03  0.48235812575E+03  0.12500276101E+03 0.  0.
         24    2    1    2    0    0 -0.10167224048E+03  0.29956626521E+02 -0.40715995863E+02  0.13870247768E+03  0.79661414996E+02 0.  0.
        -11    1    5    5    0    0 -0.14001000900E+02 -0.19028617512E+02  0.10634439297E+02  0.25907674727E+02  0.00000000000E+00 0.  1.
         12    1    5    5    0    0 -0.87671239577E+02  0.48985244033E+02 -0.51350435159E+02  0.11279480295E+03  0.00000000000E+00 0. -1.
        -13    1    3    3    0    0 -0.12238237312E+02 -0.74235824941E+01  0.53818015562E+02  0.55688983009E+02  0.00000000000E+00 0.  1.
         14    1    3    3    0    0  0.12563961550E+03 -0.18026112883E+02  0.58526555073E+03  0.59887061925E+03  0.00000000000E+00 0. -1.
          5    1    4    4  501    0  0.15201434031E+02  0.88867765434E+02 -0.43522680585E+03  0.44449187379E+03  0.47000000000E+01 0.  1.
         -5    1    4    4    0  501 -0.29362007361E+02  0.13747873979E+02 -0.18990300745E+02  0.37866251961E+02  0.47000000000E+01 0.  1.
          1    1    1    2  502    0  0.29717301367E+02  0.15183500786E+02 -0.25701181026E+03  0.25916930240E+03  0.00000000000E+00 0. -1.
          1    1    1    2  503    0 -0.27285865752E+02 -0.12230607134E+03  0.10278560877E+04  0.10354667694E+04  0.00000000000E+00 0. -1.
<mgrwt>
<rscale>  0 0.64630735E+02</rscale>
<asrwt>0</asrwt>
<pdfrwt beam="1">  1        2 0.25626846E+00 0.12517065E+03</pdfrwt>
<pdfrwt beam="2">  1        2 0.12171041E+00 0.33371495E+02</pdfrwt>
<totfact> 0.72391157E+01</totfact>
</mgrwt>
</event>
<event>
13    1  0.1675423E-008  0.6810165E+02  0.7546771E-02  0.1499478E+00
          2   -1    0    0  503    0  0.00000000000E+00  0.00000000000E+00  0.71497365595E+03  0.71497365595E+03  0.00000000000E+00 0. -1.
          2   -1    0    0  502    0 -0.00000000000E+00 -0.00000000000E+00 -0.77069508595E+03  0.77069508595E+03  0.00000000000E+00 0. -1.
         24    2    1    2    0    0  0.64607843913E+02 -0.32638481424E+02  0.50321914156E+02  0.11858616969E+03  0.79315450151E+02 0.  0.
         25    2    1    2    0    0 -0.79978337974E+02  0.65794121858E+02 -0.25347202307E+03  0.30099480781E+03  0.12499762732E+03 0.  0.
         24    2    1    2    0    0 -0.33130218130E+02  0.26308494873E+02  0.43026676118E+01  0.91631301981E+02  0.81166706834E+02 0.  0.
        -11    1    5    5    0    0 -0.73953348328E+01 -0.29314026654E+02  0.77456729494E+00  0.30242405500E+02  0.00000000000E+00 0.  1.
         12    1    5    5    0    0 -0.25734883297E+02  0.55622521526E+02  0.35281003168E+01  0.61388896481E+02  0.00000000000E+00 0. -1.
        -13    1    3    3    0    0 -0.17018904751E+01 -0.40561616320E+02  0.18788602827E+02  0.44734245784E+02  0.00000000000E+00 0.  1.
         14    1    3    3    0    0  0.66309734389E+02  0.79231348963E+01  0.31533311329E+02  0.73851923906E+02  0.00000000000E+00 0. -1.
          5    1    4    4  501    0 -0.29382735372E+01  0.81981805333E+02 -0.14826302023E+03  0.16951006762E+03  0.47000000000E+01 0.  1.
         -5    1    4    4    0  501 -0.77040064437E+02 -0.16187683475E+02 -0.10520900284E+03  0.13148474019E+03  0.47000000000E+01 0.  1.
          1    1    1    2  502    0  0.24571857747E+02  0.42661645952E+01 -0.41321458002E+03  0.41396650287E+03  0.00000000000E+00 0. -1.
          1    1    1    2  503    0  0.23928854443E+02 -0.63730299902E+02  0.55634059132E+03  0.56048995955E+03  0.00000000000E+00 0. -1.
<mgrwt>
<rscale>  0 0.41211867E+02</rscale>
<asrwt>0</asrwt>
<pdfrwt beam="1">  1        2 0.10514318E+00 0.68101652E+02</pdfrwt>
<pdfrwt beam="2">  1        2 0.11333751E+00 0.24939454E+02</pdfrwt>
<totfact> 0.29819644E+02</totfact>
</mgrwt>
</event>
<event>
13    1  0.1675423E-008  0.2211643E+03  0.7546771E-02  0.1177535E+00
          2   -1    0    0  503    0  0.00000000000E+00  0.00000000000E+00  0.30487776739E+04  0.30487776739E+04  0.00000000000E+00 0. -1.
          2   -1    0    0  502    0 -0.00000000000E+00 -0.00000000000E+00 -0.29108635011E+04  0.29108635011E+04  0.00000000000E+00 0. -1.
         24    2    1    2    0    0  0.17548624936E+03  0.80043887990E+02  0.12002235658E+03  0.23984535583E+03  0.76928414215E+02 0.  0.
         25    2    1    2    0    0 -0.45024045090E+02 -0.92243166838E+02 -0.17208611063E+03  0.23616839212E+03  0.12500365394E+03 0.  0.
         24    2    1    2    0    0 -0.25573170055E+02  0.91160072255E+01 -0.83070728622E+03  0.83498918507E+03  0.79970339445E+02 0.  0.
        -13    1    5    5    0    0 -0.52182549928E+02 -0.20256115495E+01 -0.63812571088E+03  0.64025896675E+03  0.00000000000E+00 0.  1.
         14    1    5    5    0    0  0.26609379873E+02  0.11141618775E+02 -0.19258157533E+03  0.19473021831E+03  0.00000000000E+00 0. -1.
        -13    1    3    3    0    0  0.47415246804E+02  0.51098994378E+02  0.14041095242E+02  0.71108826538E+02  0.00000000000E+00 0.  1.
         14    1    3    3    0    0  0.12807100256E+03  0.28944893612E+02  0.10598126134E+03  0.16873652929E+03  0.00000000000E+00 0. -1.
          5    1    4    4  501    0 -0.26618488417E+02  0.70477774764E+01 -0.11850889478E+03  0.12175657368E+03  0.47000000000E+01 0.  1.
         -5    1    4    4    0  501 -0.18405556674E+02 -0.99290944315E+02 -0.53577215848E+02  0.11441181843E+03  0.47000000000E+01 0.  1.
          1    1    1    2  502    0 -0.23892586028E+02 -0.20625404733E+03 -0.18035675170E+04  0.18154799299E+04  0.00000000000E+00 0. -1.
          1    1    1    2  503    0 -0.80996448187E+02  0.20933731896E+03  0.28242527301E+04  0.28331583121E+04  0.00000000000E+00 0. -1.
<mgrwt>
<rscale>  0 0.17030025E+03</rscale>
<asrwt>0</asrwt>
<pdfrwt beam="1">  1        2 0.44834966E+00 0.22116428E+03</pdfrwt>
<pdfrwt beam="2">  1        2 0.42806816E+00 0.13113409E+03</pdfrwt>
<totfact> 0.11682722E+00</totfact>
</mgrwt>
</event>
<event>
13    1  0.1675423E-008  0.5371267E+02  0.7546771E-02  0.1468788E+00
         -3   -1    0    0    0  501 -0.00000000000E+00  0.00000000000E+00  0.71816445587E+03  0.71816445587E+03  0.00000000000E+00 0.  1.
          4   -1    0    0  503    0  0.00000000000E+00 -0.00000000000E+00 -0.11012552291E+04  0.11012552291E+04  0.00000000000E+00 0. -1.
         24    2    1    2    0    0  0.80568004224E+01  0.25842175357E+02 -0.42579538835E+03  0.43413597487E+03  0.80247130027E+02 0.  0.
         25    2    1    2    0    0 -0.96229948473E+02 -0.23775566797E+02  0.19405657861E+03  0.25122546031E+03  0.12502318045E+03 0.  0.
         24    2    1    2    0    0  0.60688411802E+02  0.63930017179E+02 -0.41507697051E+03  0.43229189380E+03  0.82566697696E+02 0.  0.
        -11    1    3    3    0    0  0.38205785301E+02 -0.80621184031E+01 -0.17971248741E+03  0.18390556793E+03  0.00000000000E+00 0.  1.
         12    1    3    3    0    0 -0.30148984878E+02  0.33904293760E+02 -0.24608290094E+03  0.25023040694E+03  0.00000000000E+00 0. -1.
        -13    1    5    5    0    0  0.48567290646E+02  0.82214335561E+02 -0.29029865592E+03  0.30559988272E+03  0.00000000000E+00 0.  1.
         14    1    5    5    0    0  0.12121121156E+02 -0.18284318382E+02 -0.12477831460E+03  0.12669201108E+03  0.00000000000E+00 0. -1.
          5    1    4    4  502    0 -0.66801555926E+02 -0.65676834513E+02  0.17065265775E+03  0.19473138951E+03  0.47000000000E+01 0.  1.
         -5    1    4    4    0  502 -0.29428392547E+02  0.41901267716E+02  0.23403920861E+02  0.56494070802E+02  0.47000000000E+01 0.  1.
          3    1    1    2  503    0  0.44120454357E+02 -0.30471711250E+02 -0.21492443726E+03  0.22151219698E+03  0.00000000000E+00 0. -1.
         -4    1    1    2    0  501 -0.16635718108E+02 -0.35524914489E+02  0.47864944432E+03  0.48025415897E+03  0.00000000000E+00 0.  1.
<mgrwt>
<rscale>  0 0.45901996E+02</rscale>
<asrwt>0</asrwt>
<pdfrwt beam="2">  1        4 0.16194930E+00 0.53712671E+02</pdfrwt>
<pdfrwt beam="1">  1       -3 0.10561242E+00 0.39227116E+02</pdfrwt>
<totfact> 0.41568636E-01</totfact>
</mgrwt>
</event>
<event>
13    1  0.1675423E-008  0.6425824E+02  0.7546771E-02  0.1485823E+00
          2   -1    0    0  502    0  0.00000000000E+00  0.00000000000E+00  0.36179283800E+04  0.36179283800E+04  0.00000000000E+00 0. -1.
          2   -1    0    0  503    0 -0.00000000000E+00 -0.00000000000E+00 -0.17836368678E+04  0.17836368678E+04  0.00000000000E+00 0. -1.
         24    2    1    2    0    0  0.11383676675E+02 -0.13418435186E+03  0.68072892917E+03  0.69852231017E+03  0.80040704755E+02 0.  0.
         25    2    1    2    0    0 -0.40102844371E+02  0.14665808338E+03 -0.65448279417E+03  0.68343883621E+03  0.12499633365E+03 0.  0.
         24    2    1    2    0    0  0.21610078501E+02  0.52102037364E+02  0.55186626865E+01  0.97979580794E+02  0.79924494521E+02 0.  0.
        -11    1    3    3    0    0 -0.22482759212E+02 -0.41633413080E+02  0.11634647944E+03  0.12559983609E+03  0.00000000000E+00 0.  1.
         12    1    3    3    0    0  0.33866435888E+02 -0.92550938783E+02  0.56438244973E+03  0.57292247408E+03  0.00000000000E+00 0. -1.
        -13    1    5    5    0    0  0.97319729631E+01 -0.19557054841E+02  0.12226714888E+02  0.25033622365E+02  0.00000000000E+00 0.  1.
         14    1    5    5    0    0  0.11878105538E+02  0.71659092205E+02 -0.67080522011E+01  0.72945958429E+02  0.00000000000E+00 0. -1.
          5    1    4    4  501    0 -0.35068844024E+02  0.28483619216E+00 -0.48774089159E+02  0.60257005619E+02  0.47000000000E+01 0. -1.
         -5    1    4    4    0  501 -0.50340003463E+01  0.14637324719E+03 -0.60570870501E+03  0.62318183059E+03  0.47000000000E+01 0. -1.
          1    1    1    2  502    0  0.34305013974E+02 -0.54338404142E+02  0.28615155755E+04  0.28622370421E+04  0.00000000000E+00 0. -1.
          1    1    1    2  503    0 -0.27195924779E+02 -0.10237364737E+02 -0.10589888610E+04  0.10593874785E+04  0.00000000000E+00 0. -1.
<mgrwt>
<rscale>  0 0.43211992E+02</rscale>
<asrwt>0</asrwt>
<pdfrwt beam="1">  1        2 0.53204829E+00 0.64258239E+02</pdfrwt>
<pdfrwt beam="2">  1        2 0.26229954E+00 0.29058939E+02</pdfrwt>
<totfact> 0.28853580E+00</totfact>
</mgrwt>
</event>
<event>
13    1  0.1675423E-008  0.2431733E+03  0.7546771E-02  0.1246494E+00
          2   -1    0    0  503    0  0.00000000000E+00  0.00000000000E+00  0.24730467064E+04  0.24730467064E+04  0.00000000000E+00 0. -1.
          2   -1    0    0  502    0 -0.00000000000E+00 -0.00000000000E+00 -0.10277066859E+04  0.10277066859E+04  0.00000000000E+00 0. -1.
         24    2    1    2    0    0  0.12441012038E+03  0.18047816391E+02  0.70200769364E+03  0.71773049766E+03  0.80738241311E+02 0.  0.
         25    2    1    2    0    0 -0.51808500885E+03 -0.25297775430E+03  0.10877328890E+03  0.59988989688E+03  0.12500575763E+03 0.  0.
         24    2    1    2    0    0  0.78487774374E+02  0.21272188595E+03  0.30466213094E+03  0.38808176819E+03  0.79859334383E+02 0.  0.
        -13    1    5    5    0    0 -0.13559857788E+02  0.36363960956E+02  0.30559099998E+02  0.49397024124E+02  0.00000000000E+00 0.  1.
         14    1    5    5    0    0  0.92047632162E+02  0.17635792499E+03  0.27410303094E+03  0.33868474407E+03  0.00000000000E+00 0. -1.
        -13    1    3    3    0    0  0.76508729785E+02 -0.39142541075E+01  0.22215662060E+03  0.23499461950E+03  0.00000000000E+00 0.  1.
         14    1    3    3    0    0  0.47901390594E+02  0.21962070498E+02  0.47985107305E+03  0.48273587816E+03  0.00000000000E+00 0. -1.
          5    1    4    4  501    0 -0.52149868532E+03 -0.25183065786E+03  0.11590241012E+03  0.59062256789E+03  0.47000000000E+01 0. -1.
         -5    1    4    4    0  501  0.34136764755E+01 -0.11470964357E+01 -0.71291212142E+01  0.92673289895E+01  0.47000000000E+01 0. -1.
          1    1    1    2  502    0  0.13322710682E+02  0.55652456493E+02 -0.70969771577E+03  0.71200108027E+03  0.00000000000E+00 0. -1.
          1    1    1    2  503    0  0.30186440341E+03 -0.33444404534E+02  0.10395946227E+04  0.10830501493E+04  0.00000000000E+00 0. -1.
<mgrwt>
<rscale>  0 0.11796428E+03</rscale>
<asrwt>0</asrwt>
<pdfrwt beam="1">  1        2 0.36368334E+00 0.24317332E+03</pdfrwt>
<pdfrwt beam="2">  1        2 0.15113334E+00 0.57224912E+02</pdfrwt>
<totfact> 0.21948362E+01</totfact>
</mgrwt>
</event>
<event>
13    1  0.1675423E-008  0.6321850E+02  0.7546771E-02  0.1400380E+00
          2   -1    0    0  503    0  0.00000000000E+00  0.00000000000E+00  0.50716993287E+03  0.50716993287E+03  0.00000000000E+00 0. -1.
          2   -1    0    0  502    0 -0.00000000000E+00 -0.00000000000E+00 -0.24819915366E+04  0.24819915366E+04  0.00000000000E+00 0. -1.
         24    2    1    2    0    0  0.90201463159E+02 -0.11346992446E+03  0.64752418859E+02  0.17777085596E+03  0.79986709941E+02 0.  0.
         25    2    1    2    0    0  0.49923348975E+01  0.28019359250E+03 -0.34810459531E+03  0.46404139771E+03  0.12499694726E+03 0.  0.
         24    2    1    2    0    0 -0.31873484050E+02 -0.74429016925E+02 -0.13596247341E+03  0.17758505011E+03  0.80591924530E+02 0.  0.
        -11    1    5    5    0    0 -0.31564929237E+02  0.73694994321E+01 -0.40326827255E+02  0.51738837212E+02  0.00000000000E+00 0.  1.
         12    1    5    5    0    0 -0.30855481296E+00 -0.81798516357E+02 -0.95635646157E+02  0.12584621290E+03  0.00000000000E+00 0. -1.
        -13    1    3    3    0    0  0.86577543626E+02 -0.47944459914E+02  0.48252013604E+02  0.11010267532E+03  0.00000000000E+00 0.  1.
         14    1    3    3    0    0  0.36239195330E+01 -0.65525464546E+02  0.16500405255E+02  0.67668180634E+02  0.00000000000E+00 0. -1.
          5    1    4    4  501    0 -0.39762619187E+02  0.14001224897E+03 -0.10390464849E+03  0.17889315729E+03  0.47000000000E+01 0. -1.
         -5    1    4    4    0  501  0.44754954084E+02  0.14018134353E+03 -0.24419994681E+03  0.28514824042E+03  0.47000000000E+01 0. -1.
          1    1    1    2  502    0 -0.17335699995E+02 -0.60675676350E+02 -0.18595608895E+04  0.18606312816E+04  0.00000000000E+00 0. -1.
          1    1    1    2  503    0 -0.45984614012E+02 -0.31618974768E+02  0.30405393562E+03  0.30913288414E+03  0.00000000000E+00 0. -1.
<mgrwt>
<rscale>  0 0.59396896E+02</rscale>
<asrwt>0</asrwt>
<pdfrwt beam="1">  1        2 0.74583815E-01 0.55806310E+02</pdfrwt>
<pdfrwt beam="2">  1        2 0.36499875E+00 0.63218500E+02</pdfrwt>
<totfact> 0.57973452E+01</totfact>
</mgrwt>
</event>
<event>
13    1  0.1675423E-008  0.1707375E+03  0.7546771E-02  0.1271851E+00
          2   -1    0    0  503    0  0.00000000000E+00  0.00000000000E+00  0.43623950673E+04  0.43623950673E+04  0.00000000000E+00 0. -1.
          2   -1    0    0  502    0 -0.00000000000E+00 -0.00000000000E+00 -0.10948373458E+04  0.10948373458E+04  0.00000000000E+00 0. -1.
         24    2    1    2    0    0  0.23723458266E+02 -0.13504927656E+02  0.28391810030E+03  0.29633340018E+03  0.80366727212E+02 0.  0.
         25    2    1    2    0    0 -0.16188458777E+03  0.43280227413E+02  0.62881387169E+03  0.66265611437E+03  0.12500577124E+03 0.  0.
         24    2    1    2    0    0 -0.23064266215E+01  0.11900537034E+03 -0.45440413377E+03  0.47655180786E+03  0.80317563517E+02 0.  0.
        -11    1    5    5    0    0 -0.21080528839E+02 -0.19645896986E+01 -0.66241434609E+02  0.69542619794E+02  0.00000000000E+00 0.  1.
         12    1    5    5    0    0  0.18774102217E+02  0.12096996004E+03 -0.38816269916E+03  0.40700918806E+03  0.00000000000E+00 0. -1.
        -11    1    3    3    0    0 -0.16736483621E+02  0.14205792505E+02  0.27103479498E+02  0.34878546782E+02  0.00000000000E+00 0.  1.
         12    1    3    3    0    0  0.40459941888E+02 -0.27710720161E+02  0.25681462080E+03  0.26145485340E+03  0.00000000000E+00 0. -1.
          5    1    4    4  501    0 -0.90308117431E+02  0.33659778724E+02  0.53773588851E+03  0.54632454876E+03  0.47000000000E+01 0. -1.
         -5    1    4    4    0  501 -0.71576470343E+02  0.96204486889E+01  0.91077983177E+02  0.11633156562E+03  0.47000000000E+01 0. -1.
          1    1    1    2  502    0  0.19610112438E+03 -0.17939892571E+03 -0.57678790565E+03  0.63507787997E+03  0.00000000000E+00 0. -1.
          1    1    1    2  503    0 -0.55633568249E+02  0.30618255612E+02  0.33860177890E+04  0.33866132107E+04  0.00000000000E+00 0. -1.
<mgrwt>
<rscale>  0 0.10412620E+03</rscale>
<asrwt>0</asrwt>
<pdfrwt beam="1">  1        2 0.64152868E+00 0.63502531E+02</pdfrwt>
<pdfrwt beam="2">  1        2 0.16100549E+00 0.17073754E+03</pdfrwt>
<totfact> 0.17867567E+00</totfact>
</mgrwt>
</event>
<event>
13    1  0.1675423E-008  0.4446746E+02  0.7546771E-02  0.1527348E+00
          2   -1    0    0  503    0  0.00000000000E+00  0.00000000000E+00  0.39006424668E+04  0.39006424668E+04  0.00000000000E+00 0. -1.
          2   -1    0    0  502    0 -0.00000000000E+00 -0.00000000000E+00 -0.45000299777E+03  0.45000299777E+03  0.00000000000E+00 0. -1.
         24    2    1    2    0    0 -0.69404199347E+02 -0.51589645628E+02  0.20384424075E+04  0.20420637963E+04  0.85432225996E+02 0.  0.
         25    2    1    2    0    0  0.10377383134E+02 -0.88997121522E+02 -0.13918607781E+03  0.20742896333E+03  0.12500333137E+03 0.  0.
         24    2    1    2    0    0  0.91720048961E+02  0.15877731843E+03  0.11114216439E+03  0.23468900359E+03  0.95412491161E+02 0.  0.
        -11    1    5    5    0    0  0.36787272984E+02  0.12448806028E+03  0.34428087959E+02  0.13429770604E+03  0.00000000000E+00 0.  1.
         12    1    5    5    0    0  0.54932775977E+02  0.34289258150E+02  0.76714076433E+02  0.10039129755E+03  0.00000000000E+00 0. -1.
        -13    1    3    3    0    0 -0.21171859171E+02  0.13725264447E+01  0.96682109797E+02  0.98982633853E+02  0.00000000000E+00 0.  1.
         14    1    3    3    0    0 -0.48232340176E+02 -0.52962172072E+02  0.19417602977E+04  0.19430811625E+04  0.00000000000E+00 0. -1.
          5    1    4    4  501    0  0.55261883611E+02 -0.67398396380E+02 -0.12996404795E+03  0.15655402701E+03  0.47000000000E+01 0.  1.
         -5    1    4    4    0  501 -0.44884500476E+02 -0.21598725142E+02 -0.92220298628E+01  0.50874936320E+02  0.47000000000E+01 0.  1.
          1    1    1    2  502    0 -0.20068626185E+02  0.24470545154E+02 -0.21163528057E+03  0.21398843268E+03  0.00000000000E+00 0. -1.
          1    1    1    2  503    0 -0.12624606563E+02 -0.42661096435E+02  0.16518762555E+04  0.16524752686E+04  0.00000000000E+00 0. -1.
<mgrwt>
<rscale>  0 0.37513718E+02</rscale>
<asrwt>0</asrwt>
<pdfrwt beam="1">  1        2 0.57362387E+00 0.44467459E+02</pdfrwt>
<pdfrwt beam="2">  1        2 0.66176913E-01 0.31647391E+02</pdfrwt>
<totfact> 0.11855085E+01</totfact>
</mgrwt>
</event>
<event>
13    1  0.1675423E-008  0.9547528E+02  0.7546771E-02  0.1411377E+00
          2   -1    0    0  503    0  0.00000000000E+00  0.00000000000E+00  0.15408111454E+04  0.15408111454E+04  0.00000000000E+00 0. -1.
         -1   -1    0    0    0  501 -0.00000000000E+00 -0.00000000000E+00 -0.17141166165E+03  0.17141166165E+03  0.00000000000E+00 0.  1.
         24    2    1    2    0    0  0.38494495180E+02  0.24636894177E+02  0.48302559237E+03  0.49125986202E+03  0.77030685026E+02 0.  0.
         25    2    1    2    0    0 -0.12209159448E+03  0.77114516688E+00  0.31652606394E+03  0.36155860842E+03  0.12501570326E+03 0.  0.
         24    2    1    2    0    0 -0.45878634698E+02 -0.54124642302E+02 -0.42658325613E+01  0.10413771940E+03  0.76106118334E+02 0.  0.
        -13    1    5    5    0    0 -0.31053911509E+01  0.17906100975E+02 -0.89012259088E+01  0.20236198482E+02  0.00000000000E+00 0.  1.
         14    1    5    5    0    0 -0.42773243548E+02 -0.72030743276E+02  0.46353933475E+01  0.83901520916E+02  0.00000000000E+00 0. -1.
        -13    1    3    3    0    0 -0.21194506169E+02  0.13744977682E+02  0.21349900665E+03  0.21498827257E+03  0.00000000000E+00 0.  1.
         14    1    3    3    0    0  0.59689001349E+02  0.10891916496E+02  0.26952658572E+03  0.27627158945E+03  0.00000000000E+00 0. -1.
          5    1    4    4  502    0  0.11173745135E+02  0.25363014773E+02  0.11691802849E+03  0.12024995004E+03  0.47000000000E+01 0.  1.
         -5    1    4    4    0  502 -0.13326533962E+03 -0.24591869606E+02  0.19960803545E+03  0.24130865839E+03  0.47000000000E+01 0.  1.
          1    1    1    2  503    0  0.14130991138E+02 -0.30809618545E+02  0.61748393109E+03  0.61841355310E+03  0.00000000000E+00 0. -1.
         -2    1    1    2    0  501  0.11534474287E+03  0.59526221503E+02 -0.43370271060E+02  0.13685306414E+03  0.00000000000E+00 0.  1.
<mgrwt>
<rscale>  0 0.56887610E+02</rscale>
<asrwt>0</asrwt>
<pdfrwt beam="1">  1        2 0.22658987E+00 0.33895686E+02</pdfrwt>
<pdfrwt beam="2">  1       -1 0.25207598E-01 0.95475283E+02</pdfrwt>
<totfact> 0.25729256E+02</totfact>
</mgrwt>
</event>
<event>
13    1  0.1675423E-008  0.3024312E+03  0.7546771E-02  0.1200568E+00
         -3   -1    0    0    0  501 -0.00000000000E+00  0.00000000000E+00  0.17660803079E+04  0.17660803079E+04  0.00000000000E+00 0.  1.
          2   -1    0    0  503    0  0.00000000000E+00 -0.00000000000E+00 -0.13895060642E+04  0.13895060642E+04  0.00000000000E+00 0. -1.
         24    2    1    2    0    0  0.13384341505E+03  0.93600579181E+02 -0.53482507578E+02  0.18961013973E+03  0.80103047990E+02 0.  0.
         25    2    1    2    0    0 -0.54656869620E+03 -0.25531424496E+03  0.58471528600E+03  0.84937545953E+03  0.12499600885E+03 0.  0.
         24    2    1    2    0    0  0.92220624684E+02  0.79255014959E+02 -0.51911606779E+03  0.53924125153E+03  0.80707090752E+02 0.  0.
        -11    1    3    3    0    0  0.87809005570E+02  0.28614209741E+02 -0.59309710634E+02  0.10975808049E+03  0.00000000000E+00 0.  1.
         12    1    3    3    0    0  0.46034409483E+02  0.64986369440E+02  0.58272030558E+01  0.79852059240E+02  0.00000000000E+00 0. -1.
        -13    1    5    5    0    0  0.28898078614E+02  0.65589641203E+02 -0.36655210751E+03  0.37349370477E+03  0.00000000000E+00 0.  1.
         14    1    5    5    0    0  0.63322546070E+02  0.13665373756E+02 -0.15256396028E+03  0.16574754676E+03  0.00000000000E+00 0. -1.
          5    1    4    4  502    0 -0.52005837496E+03 -0.21251013080E+03  0.55939980939E+03  0.79282501588E+03  0.47000000000E+01 0.  1.
         -5    1    4    4    0  502 -0.26510321240E+02 -0.42804114164E+02  0.25315476614E+02  0.56550443656E+02  0.47000000000E+01 0.  1.
          1    1    1    2  503    0  0.73977582513E+02 -0.71320039393E+01 -0.58634650068E+03  0.59103787277E+03  0.00000000000E+00 0. -1.
         -4    1    1    2    0  501  0.24652707395E+03  0.89590654764E+02  0.95080403377E+03  0.98632164847E+03  0.00000000000E+00 0.  1.
<mgrwt>
<rscale>  0 0.14992285E+03</rscale>
<asrwt>0</asrwt>
<pdfrwt beam="2">  1        2 0.20433913E+00 0.74320577E+02</pdfrwt>
<pdfrwt beam="1">  1       -3 0.25971769E+00 0.30243119E+03</pdfrwt>
<totfact> 0.81445107E-01</totfact>
</mgrwt>
</event>
<event>
13    1  0.1196858E-007  0.9765475E+02  0.7546771E-02  0.1370239E+00
          2   -1    0    0  503    0  0.00000000000E+00  0.00000000000E+00  0.38758982663E+04  0.38758982663E+04  0.00000000000E+00 0. -1.
          2   -1    0    0  502    0 -0.00000000000E+00 -0.00000000000E+00 -0.38286862795E+04  0.38286862795E+04  0.00000000000E+00 0. -1.
         24    2    1    2    0    0 -0.18444386740E+02  0.21475780445E+02  0.22313516204E+03  0.24064166906E+03  0.85543601753E+02 0.  0.
         25    2    1    2    0    0  0.66189024878E+02 -0.35941206568E+02 -0.22200542962E+04  0.22248453258E+04  0.12499155296E+03 0.  0.
         24    2    1    2    0    0 -0.18392435444E+03 -0.10702697939E+02 -0.39800265386E+02  0.20536940769E+03  0.81546407590E+02 0.  0.
        -13    1    5    5    0    0 -0.14505784035E+03 -0.44958687379E+01  0.56604288070E+01  0.14523784058E+03  0.00000000000E+00 0.  1.
         14    1    5    5    0    0 -0.38866514087E+02 -0.62068292015E+01 -0.45460694193E+02  0.60131567105E+02  0.00000000000E+00 0. -1.
        -13    1    3    3    0    0  0.29601183289E+02  0.13221751910E+02  0.41976165324E+02  0.53038129973E+02  0.00000000000E+00 0.  1.
         14    1    3    3    0    0 -0.48045570029E+02  0.82540285344E+01  0.18115899672E+03  0.18760353909E+03  0.00000000000E+00 0. -1.
          5    1    4    4  501    0  0.25762644564E+01 -0.72232862179E+02 -0.11461605169E+04  0.11484468834E+04  0.47000000000E+01 0. -1.
         -5    1    4    4    0  501  0.63612760421E+02  0.36291655610E+02 -0.10738937793E+04  0.10763984424E+04  0.47000000000E+01 0. -1.
          1    1    1    2  502    0  0.39176786851E+02 -0.24310479858E+02 -0.14737047796E+04  0.14744258535E+04  0.00000000000E+00 0. -1.
          1    1    1    2  503    0  0.97002929449E+02  0.49478603921E+02  0.35576361660E+04  0.35593022898E+04  0.00000000000E+00 0. -1.
<mgrwt>
<rscale>  0 0.67100895E+02</rscale>
<asrwt>0</asrwt>
<pdfrwt beam="1">  1        2 0.56998504E+00 0.97654752E+02</pdfrwt>
<pdfrwt beam="2">  1        2 0.56304210E+00 0.46106616E+02</pdfrwt>
<totfact> 0.15673931E-01</totfact>
</mgrwt>
</event>
<event>
13    1  0.1675423E-008  0.5146519E+02  0.7546771E-02  0.1452756E+00
          2   -1    0    0  502    0  0.00000000000E+00  0.00000000000E+00  0.36878311930E+04  0.36878311930E+04  0.00000000000E+00 0. -1.
          4   -1    0    0  503    0 -0.00000000000E+00 -0.00000000000E+00 -0.33475554191E+03  0.33475554191E+03  0.00000000000E+00 0. -1.
         24    2    1    2    0    0 -0.36259925286E+02  0.42174134748E+02  0.63699571797E+03  0.64445561591E+03  0.80411792322E+02 0.  0.
         25    2    1    2    0    0 -0.71304899697E+02  0.13970125114E+02 -0.68535586186E+02  0.16000507992E+03  0.12499978363E+03 0.  0.
         24    2    1    2    0    0  0.62344258762E+02 -0.36252546010E+02  0.48325646588E+03  0.49544370446E+03  0.82015844673E+02 0.  0.
        -11    1    5    5    0    0  0.14559588332E+02  0.16164590397E+02  0.32299099281E+02  0.38942360091E+02  0.00000000000E+00 0.  1.
         12    1    5    5    0    0  0.47784670430E+02 -0.52417136406E+02  0.45095736660E+03  0.45650134437E+03  0.00000000000E+00 0. -1.
        -11    1    3    3    0    0  0.24329161724E+02  0.15218170426E+02  0.12923266231E+03  0.13238044353E+03  0.00000000000E+00 0.  1.
         12    1    3    3    0    0 -0.60589087010E+02  0.26955964322E+02  0.50776305566E+03  0.51207517238E+03  0.00000000000E+00 0. -1.
          5    1    4    4  501    0 -0.21052326338E+02  0.56983780676E+01 -0.98319892202E+02  0.10081945824E+03  0.47000000000E+01 0. -1.
         -5    1    4    4    0  501 -0.50252573359E+02  0.82717470468E+01  0.29784306017E+02  0.59185621677E+02  0.47000000000E+01 0. -1.
          1    1    1    2  502    0  0.79012766316E+00 -0.45984216640E+02  0.25086561211E+04  0.25090776605E+04  0.00000000000E+00 0. -1.
          3    1    1    2  503    0  0.44430438558E+02  0.26092502788E+02 -0.20729706764E+03  0.21360467416E+03  0.00000000000E+00 0. -1.
<mgrwt>
<rscale>  0 0.48651166E+02</rscale>
<asrwt>0</asrwt>
<pdfrwt beam="1">  1        2 0.54232809E+00 0.45991004E+02</pdfrwt>
<pdfrwt beam="2">  1        4 0.49228758E-01 0.51465194E+02</pdfrwt>
<totfact> 0.25911165E+00</totfact>
</mgrwt>
</event>
<event>
13    1  0.1675423E-008  0.1296138E+03  0.7546771E-02  0.1274931E+00
          2   -1    0    0  502    0  0.00000000000E+00  0.00000000000E+00  0.18752623562E+04  0.18752623562E+04  0.00000000000E+00 0. -1.
          2   -1    0    0  503    0 -0.00000000000E+00 -0.00000000000E+00 -0.22166140780E+04  0.22166140780E+04  0.00000000000E+00 0. -1.
         24    2    1    2    0    0 -0.12285125860E+03 -0.11117127392E+03  0.21520120114E+03  0.28337216177E+03  0.80850115702E+02 0.  0.
         25    2    1    2    0    0  0.12341667290E+03  0.11532267912E+03  0.41328694484E+02  0.21415853678E+03  0.12499928968E+03 0.  0.
         24    2    1    2    0    0  0.65346146396E+01 -0.58323932595E+02 -0.16148619287E+03  0.18485789951E+03  0.68192889822E+02 0.  0.
        -13    1    5    5    0    0 -0.11005920776E+02 -0.60049121127E+02 -0.15409132645E+03  0.16574427328E+03  0.00000000000E+00 0.  1.
         14    1    5    5    0    0  0.17540535416E+02  0.17251885311E+01 -0.73948664219E+01  0.19113626227E+02  0.00000000000E+00 0. -1.
        -13    1    3    3    0    0 -0.98790298873E+02 -0.11235824504E+03  0.14185700701E+03  0.20617300701E+03  0.00000000000E+00 0.  1.
         14    1    3    3    0    0 -0.24060959727E+02  0.11869711203E+01  0.73344194135E+02  0.77199154767E+02  0.00000000000E+00 0. -1.
          5    1    4    4  501    0  0.38456686598E+02 -0.24845817995E+02  0.59135887589E+01  0.46403576887E+02  0.47000000000E+01 0.  1.
         -5    1    4    4    0  501  0.84959986304E+02  0.14016849711E+03  0.35415105725E+02  0.16775495989E+03  0.47000000000E+01 0.  1.
          1    1    1    2  502    0 -0.49952237470E+02  0.12315541805E+03  0.14827153685E+04  0.14886595806E+04  0.00000000000E+00 0. -1.
          1    1    1    2  503    0  0.42852208529E+02 -0.68982890649E+02 -0.19191107931E+04  0.19208282555E+04  0.00000000000E+00 0. -1.
<mgrwt>
<rscale>  0 0.10259553E+03</rscale>
<asrwt>0</asrwt>
<pdfrwt beam="1">  1        2 0.27577388E+00 0.12961376E+03</pdfrwt>
<pdfrwt beam="2">  1        2 0.32597266E+00 0.81209304E+02</pdfrwt>
<totfact> 0.11790198E+01</totfact>
</mgrwt>
</event>
<event>
13    1  0.1675423E-008  0.4713028E+02  0.7546771E-02  0.1506341E+00
          2   -1    0    0  502    0  0.00000000000E+00  0.00000000000E+00  0.15574504031E+04  0.15574504031E+04  0.00000000000E+00 0. -1.
          2   -1    0    0  503    0 -0.00000000000E+00 -0.00000000000E+00 -0.16070897799E+04  0.16070897799E+04  0.00000000000E+00 0. -1.
         24    2    1    2    0    0  0.12838424240E+03 -0.30139907149E+03  0.12093837160E+04  0.12574403052E+04  0.10593976839E+03 0.  0.
         25    2    1    2    0    0 -0.13076522948E+03  0.34575772549E+03 -0.23277742876E+03  0.45438014418E+03  0.12501213582E+03 0.  0.
         24    2    1    2    0    0  0.61629938146E+02 -0.46238982539E+02 -0.10985282277E+03  0.15658994278E+03  0.80724684755E+02 0.  0.
        -11    1    5    5    0    0  0.71874183680E+01 -0.55840037247E+02 -0.54452777691E+02  0.78325434827E+02  0.00000000000E+00 0.  1.
         12    1    5    5    0    0  0.54442519778E+02  0.96010547072E+01 -0.55400045077E+02  0.78264507958E+02  0.00000000000E+00 0. -1.
        -11    1    3    3    0    0  0.46491969522E+02 -0.17059876638E+03  0.81452188510E+03  0.83349345746E+03  0.00000000000E+00 0.  1.
         12    1    3    3    0    0  0.81892272876E+02 -0.13080030512E+03  0.39486183089E+03  0.42394684769E+03  0.00000000000E+00 0. -1.
          5    1    4    4  501    0 -0.14873827452E+03  0.24820513322E+03 -0.15535607808E+03  0.32846074873E+03  0.47000000000E+01 0. -1.
         -5    1    4    4    0  501  0.17973045035E+02  0.97552592275E+02 -0.77421350687E+02  0.12591939545E+03  0.47000000000E+01 0. -1.
          1    1    1    2  502    0 -0.39244989738E+02 -0.26084624681E+02  0.18667263890E+03  0.19252857185E+03  0.00000000000E+00 0. -1.
          1    1    1    2  503    0 -0.20003961323E+02  0.27964953222E+02 -0.11030654802E+04  0.11036012191E+04  0.00000000000E+00 0. -1.
<mgrwt>
<rscale>  0 0.40255245E+02</rscale>
<asrwt>0</asrwt>
<pdfrwt beam="1">  1        2 0.22903682E+00 0.47130278E+02</pdfrwt>
<pdfrwt beam="2">  1        2 0.23633673E+00 0.34383093E+02</pdfrwt>
<totfact> 0.38775038E+01</totfact>
</mgrwt>
</event>
<event>
13    1  0.1675423E-008  0.8802366E+02  0.7546771E-02  0.1357201E+00
          2   -1    0    0  502    0  0.00000000000E+00  0.00000000000E+00  0.15279521502E+04  0.15279521502E+04  0.00000000000E+00 0. -1.
          4   -1    0    0  503    0 -0.00000000000E+00 -0.00000000000E+00 -0.13883715166E+04  0.13883715166E+04  0.00000000000E+00 0. -1.
         24    2    1    2    0    0 -0.24098246402E+02  0.79252425505E+02  0.73401856570E+03  0.74273321799E+03  0.77509392301E+02 0.  0.
         25    2    1    2    0    0  0.11580890110E+03 -0.20874373444E+03 -0.38943157628E+03  0.47356844154E+03  0.12499787189E+03 0.  0.
         24    2    1    2    0    0 -0.59940148372E+02  0.93676413839E+02  0.33690326205E+01  0.13744264221E+03  0.80691000865E+02 0.  0.
        -11    1    5    5    0    0 -0.69336355582E+02  0.43229682049E+02  0.18828470780E+02  0.83850145661E+02  0.00000000000E+00 0.  1.
         12    1    5    5    0    0  0.93962072104E+01  0.50446731790E+02 -0.15459438160E+02  0.53592496550E+02  0.00000000000E+00 0. -1.
        -13    1    3    3    0    0  0.25833197300E+02  0.26373041798E+02  0.16461961789E+03  0.16870835786E+03  0.00000000000E+00 0.  1.
         14    1    3    3    0    0 -0.49931443702E+02  0.52879383706E+02  0.56939894781E+03  0.57402486013E+03  0.00000000000E+00 0. -1.
          5    1    4    4  501    0  0.83291058028E+02 -0.16476292884E+03 -0.18311131013E+03  0.26006934645E+03  0.47000000000E+01 0. -1.
         -5    1    4    4    0  501  0.32517843067E+02 -0.43980805602E+02 -0.20632026615E+03  0.21349909509E+03  0.47000000000E+01 0. -1.
          1    1    1    2  502    0 -0.85094584603E+01  0.87895273483E+02  0.67329732930E+03  0.67906353430E+03  0.00000000000E+00 0. -1.
          3    1    1    2  503    0 -0.23261047861E+02 -0.52080378388E+02 -0.88167271769E+03  0.88351583081E+03  0.00000000000E+00 0. -1.
<mgrwt>
<rscale>  0 0.70857443E+02</rscale>
<asrwt>0</asrwt>
<pdfrwt beam="1">  1        2 0.22469885E+00 0.88023658E+02</pdfrwt>
<pdfrwt beam="2">  1        4 0.20417228E+00 0.57038953E+02</pdfrwt>
<totfact> 0.11492705E+00</totfact>
</mgrwt>
</event>
<event>
13    1  0.1675423E-008  0.1094761E+03  0.7546771E-02  0.1311455E+00
          2   -1    0    0  502    0  0.00000000000E+00  0.00000000000E+00  0.16991117295E+04  0.16991117295E+04  0.00000000000E+00 0. -1.
          2   -1    0    0  503    0 -0.00000000000E+00 -0.00000000000E+00 -0.15132864173E+03  0.15132864173E+03  0.00000000000E+00 0. -1.
         24    2    1    2    0    0 -0.34929267414E+01 -0.65847812815E+02  0.28771565624E+03  0.30594292343E+03  0.80452710106E+02 0.  0.
         25    2    1    2    0    0  0.41852688947E+02  0.62345781053E+02  0.11737363060E+03  0.18718093965E+03  0.12498596330E+03 0.  0.
         24    2    1    2    0    0 -0.41877711340E+02 -0.11290862754E+03  0.22732304851E+03  0.27547548096E+03  0.98533605177E+02 0.  0.
        -11    1    3    3    0    0  0.33016258360E+02 -0.52944506959E+02  0.14072415636E+03  0.15393661785E+03  0.00000000000E+00 0.  1.
         12    1    3    3    0    0 -0.36509185101E+02 -0.12903305856E+02  0.14699149988E+03  0.15200630558E+03  0.00000000000E+00 0. -1.
        -13    1    5    5    0    0  0.80895086404E+01 -0.50438881456E+02  0.22945299064E+02  0.56000068408E+02  0.00000000000E+00 0.  1.
         14    1    5    5    0    0 -0.49967219980E+02 -0.62469746080E+02  0.20437774944E+03  0.21947541255E+03  0.00000000000E+00 0. -1.
          5    1    4    4  501    0  0.31755876958E+02 -0.98899093725E+01 -0.14358674276E+02  0.36530912331E+02  0.47000000000E+01 0.  1.
         -5    1    4    4    0  501  0.10096811989E+02  0.72235690425E+02  0.13173230488E+03  0.15065002732E+03  0.47000000000E+01 0.  1.
          1    1    1    2  502    0 -0.64750905496E+02  0.22067850930E+02  0.95604516971E+03  0.95848945552E+03  0.00000000000E+00 0. -1.
          1    1    1    2  503    0  0.68268854630E+02  0.94342808368E+02 -0.40674417309E+02  0.12335157164E+03  0.00000000000E+00 0. -1.
<mgrwt>
<rscale>  0 0.86539317E+02</rscale>
<asrwt>0</asrwt>
<pdfrwt beam="1">  1        2 0.24986936E+00 0.68408112E+02</pdfrwt>
<pdfrwt beam="2">  1        2 0.22254213E-01 0.10947610E+03</pdfrwt>
<totfact> 0.48920314E+02</totfact>
</mgrwt>
</event>
<event>
13    1  0.1675423E-008  0.1586354E+03  0.7546771E-02  0.1383532E+00
          2   -1    0    0  502    0  0.00000000000E+00  0.00000000000E+00  0.76825488104E+03  0.76825488104E+03  0.00000000000E+00 0. -1.
          2   -1    0    0  503    0 -0.00000000000E+00 -0.00000000000E+00 -0.31638515797E+04  0.31638515797E+04  0.00000000000E+00 0. -1.
         24    2    1    2    0    0 -0.16885207173E+03  0.80821850225E+02  0.20091134238E+03  0.28530785532E+03  0.77408082335E+02 0.  0.
         25    2    1    2    0    0  0.34760803837E+03 -0.25505187710E+03 -0.19638476878E+04  0.20144996423E+04  0.12501303736E+03 0.  0.
         24    2    1    2    0    0 -0.39055312632E+02  0.71996249708E+02 -0.12297116881E+02  0.11557333432E+03  0.80605205205E+02 0.  0.
        -11    1    3    3    0    0 -0.84433013006E+02  0.79608284736E+02  0.95741339071E+02  0.15044207088E+03  0.00000000000E+00 0.  1.
         12    1    3    3    0    0 -0.84419058722E+02  0.12135654886E+01  0.10517000331E+03  0.13486578444E+03  0.00000000000E+00 0. -1.
        -13    1    5    5    0    0 -0.27094409286E+02 -0.10330298581E+02  0.77222314806E+01  0.30007581415E+02  0.00000000000E+00 0.  1.
         14    1    5    5    0    0 -0.11960903346E+02  0.82326548289E+02 -0.20019348361E+02  0.85565752909E+02  0.00000000000E+00 0. -1.
          5    1    4    4  501    0  0.14518579986E+03 -0.38305716374E+02 -0.75443755512E+03  0.76924921772E+03  0.47000000000E+01 0.  1.
         -5    1    4    4    0  501  0.20242223851E+03 -0.21674616072E+03 -0.12094101327E+04  0.12452504246E+04  0.47000000000E+01 0.  1.
          1    1    1    2  502    0 -0.15395722710E+03  0.81146875882E+02  0.43112661221E+03  0.46492773524E+03  0.00000000000E+00 0. -1.
          1    1    1    2  503    0  0.14256573099E+02  0.21086901283E+02 -0.10514898485E+04  0.10517978935E+04  0.00000000000E+00 0. -1.
<mgrwt>
<rscale>  0 0.63544537E+02</rscale>
<asrwt>0</asrwt>
<pdfrwt beam="1">  1        2 0.11297866E+00 0.15863536E+03</pdfrwt>
<pdfrwt beam="2">  1        2 0.46527229E+00 0.25454023E+02</pdfrwt>
<totfact> 0.18902749E+01</totfact>
</mgrwt>
</event>
<event>
13    1  0.1675423E-008  0.7332958E+02  0.7546771E-02  0.1516993E+00
          2   -1    0    0  502    0  0.00000000000E+00  0.00000000000E+00  0.38127640945E+03  0.38127640945E+03  0.00000000000E+00 0. -1.
          2   -1    0    0  503    0 -0.00000000000E+00 -0.00000000000E+00 -0.34053504460E+04  0.34053504460E+04  0.00000000000E+00 0. -1.
         24    2    1    2    0    0 -0.16860933001E+02 -0.20902773567E+03 -0.29967712109E+03  0.37415294310E+03  0.78785548083E+02 0.  0.
         25    2    1    2    0    0  0.52735156171E+02  0.11287042168E+03 -0.20506165528E+04  0.20581960721E+04  0.12498838135E+03 0.  0.
         24    2    1    2    0    0 -0.63633508511E+02  0.70906594182E+01 -0.13575534681E+03  0.17051337772E+03  0.80906099510E+02 0.  0.
        -11    1    5    5    0    0 -0.66921108989E+02 -0.12255307464E+02 -0.13464672140E+03  0.15085876499E+03  0.00000000000E+00 0.  1.
         12    1    5    5    0    0  0.32876004777E+01  0.19345966882E+02 -0.11086254109E+01  0.19654612736E+02  0.00000000000E+00 0. -1.
        -13    1    3    3    0    0 -0.11468099074E+02 -0.13654852028E+03 -0.12711473277E+03  0.18690952618E+03  0.00000000000E+00 0.  1.
         14    1    3    3    0    0 -0.53928339273E+01 -0.72479215392E+02 -0.17256238832E+03  0.18724341693E+03  0.00000000000E+00 0. -1.
          5    1    4    4  501    0 -0.90000552437E+01  0.31063685499E+02 -0.13207330285E+04  0.13211373040E+04  0.47000000000E+01 0. -1.
         -5    1    4    4    0  501  0.61735211414E+02  0.81806736183E+02 -0.72988352434E+03  0.73705876802E+03  0.47000000000E+01 0. -1.
          1    1    1    2  502    0  0.17714214933E+02  0.71124430139E+02  0.31858480707E+03  0.32690787275E+03  0.00000000000E+00 0. -1.
          1    1    1    2  503    0  0.10045070408E+02  0.17942224432E+02 -0.85660982285E+03  0.85685658979E+03  0.00000000000E+00 0. -1.
<mgrwt>
<rscale>  0 0.38831150E+02</rscale>
<asrwt>0</asrwt>
<pdfrwt beam="1">  1        2 0.56070063E-01 0.73329583E+02</pdfrwt>
<pdfrwt beam="2">  1        2 0.50078681E+00 0.20562754E+02</pdfrwt>
<totfact> 0.32400982E+01</totfact>
</mgrwt>
</event>
<event>
13    1  0.1675423E-008  0.2771524E+03  0.7546771E-02  0.1277543E+00
          2   -1    0    0  503    0  0.00000000000E+00  0.00000000000E+00  0.22900130897E+04  0.22900130897E+04  0.00000000000E+00 0. -1.
          2   -1    0    0  502    0 -0.00000000000E+00 -0.00000000000E+00 -0.11375512921E+04  0.11375512921E+04  0.00000000000E+00 0. -1.
         24    2    1    2    0    0  0.13022278762E+02  0.45927493439E+03  0.50886046768E+03  0.69028574953E+03  0.80326803295E+02 0.  0.
         25    2    1    2    0    0  0.10785704264E+03 -0.16944094435E+03 -0.42562450275E+03  0.48695191582E+03  0.12499030248E+03 0.  0.
         24    2    1    2    0    0  0.77489334335E+01 -0.52704436210E+02 -0.25047592088E+02  0.10009907872E+03  0.80960732003E+02 0.  0.
        -11    1    5    5    0    0  0.32458707499E+02 -0.57770006616E+02 -0.32489553468E+02  0.73800490794E+02  0.00000000000E+00 0.  1.
         12    1    5    5    0    0 -0.24709774066E+02  0.50655704057E+01  0.74419613798E+01  0.26298587930E+02  0.00000000000E+00 0. -1.
        -13    1    3    3    0    0  0.16386570203E+02  0.31935687548E+03  0.40486691695E+03  0.51592107346E+03  0.00000000000E+00 0.  1.
         14    1    3    3    0    0 -0.33642914409E+01  0.13991805891E+03  0.10399355073E+03  0.17436467607E+03  0.00000000000E+00 0. -1.
          5    1    4    4  501    0 -0.25595486017E+02 -0.48870785712E+02 -0.12297561869E+03  0.13486502657E+03  0.47000000000E+01 0.  1.
         -5    1    4    4    0  501  0.13345252865E+03 -0.12057015864E+03 -0.30264888406E+03  0.35208688925E+03  0.47000000000E+01 0.  1.
          1    1    1    2  502    0 -0.36725163749E+02  0.48246252409E+01 -0.51698695718E+03  0.51831219217E+03  0.00000000000E+00 0. -1.
          1    1    1    2  503    0 -0.91903091084E+02 -0.24195417907E+03  0.16112603819E+04  0.16319154455E+04  0.00000000000E+00 0. -1.
<mgrwt>
<rscale>  0 0.10132089E+03</rscale>
<asrwt>0</asrwt>
<pdfrwt beam="1">  1        2 0.33676663E+00 0.27715237E+03</pdfrwt>
<pdfrwt beam="2">  1        2 0.16728695E+00 0.37040716E+02</pdfrwt>
<totfact> 0.24028400E+01</totfact>
</mgrwt>
</event>
<event>
13    1  0.1675423E-008  0.2694312E+03  0.7546771E-02  0.1347019E+00
          2   -1    0    0  503    0  0.00000000000E+00  0.00000000000E+00  0.12718620436E+04  0.12718620436E+04  0.00000000000E+00 0. -1.
          2   -1    0    0  502    0 -0.00000000000E+00 -0.00000000000E+00 -0.19158719316E+04  0.19158719316E+04  0.00000000000E+00 0. -1.
         24    2    1    2    0    0 -0.11486902346E+03 -0.10494977277E+03  0.15917404064E+03  0.23703115090E+03  0.81474191788E+02 0.  0.
         25    2    1    2    0    0  0.30518071081E+03  0.44480941206E+03 -0.78499887164E+03  0.96064494726E+03  0.12499922769E+03 0.  0.
         24    2    1    2    0    0 -0.23779304207E+03 -0.22960507993E+02  0.12438725343E+02  0.25214178893E+03  0.79674613614E+02 0.  0.
        -11    1    5    5    0    0 -0.14519869807E+03 -0.50341601155E+02  0.21434773996E+02  0.15516568005E+03  0.00000000000E+00 0.  1.
         12    1    5    5    0    0 -0.92594343997E+02  0.27381093163E+02 -0.89960486523E+01  0.96976108885E+02  0.00000000000E+00 0. -1.
        -13    1    3    3    0    0  0.68962259350E+01 -0.15825794036E+02 -0.58751795144E+00  0.17273067659E+02  0.00000000000E+00 0.  1.
         14    1    3    3    0    0 -0.12176524939E+03 -0.89123978732E+02  0.15976155859E+03  0.21975808324E+03  0.00000000000E+00 0. -1.
          5    1    4    4  501    0  0.29241095172E+03  0.34809301924E+03 -0.67118282436E+03  0.81066724890E+03  0.47000000000E+01 0.  1.
         -5    1    4    4    0  501  0.12769759087E+02  0.96716392821E+02 -0.11381604728E+03  0.14997769836E+03  0.47000000000E+01 0.  1.
          1    1    1    2  502    0  0.20190689957E+02  0.22908222083E+01 -0.85408934580E+03  0.85433103797E+03  0.00000000000E+00 0. -1.
          1    1    1    2  503    0  0.27290664760E+02 -0.31918995351E+03  0.82346556339E+03  0.88358505017E+03  0.00000000000E+00 0. -1.
<mgrwt>
<rscale>  0 0.73992599E+02</rscale>
<asrwt>0</asrwt>
<pdfrwt beam="1">  1        2 0.18703854E+00 0.26943121E+03</pdfrwt>
<pdfrwt beam="2">  1        2 0.28174587E+00 0.20320232E+02</pdfrwt>
<totfact> 0.36658196E+01</totfact>
</mgrwt>
</event>
<event>
13    1  0.1675423E-008  0.8571684E+02  0.7546771E-02  0.1437097E+00
          2   -1    0    0  503    0  0.00000000000E+00  0.00000000000E+00  0.46874421110E+03  0.46874421110E+03  0.00000000000E+00 0. -1.
         -1   -1    0    0    0  501 -0.00000000000E+00 -0.00000000000E+00 -0.48800574266E+03  0.48800574266E+03  0.00000000000E+00 0.  1.
         24    2    1    2    0    0 -0.87434925757E+01 -0.14902025718E+03 -0.13339325959E+02  0.16989662058E+03  0.80021486833E+02 0.  0.
         25    2    1    2    0    0  0.34534555205E+02  0.14887076333E+03 -0.91005849656E+02  0.21739916373E+03  0.12500076816E+03 0.  0.
         24    2    1    2    0    0  0.44659516801E+02 -0.64477323392E+02  0.23372301784E+02  0.11409411201E+03  0.79494680529E+02 0.  0.
        -11    1    5    5    0    0  0.52808308013E+02 -0.93746495525E+01  0.23085858967E+02  0.58391423460E+02  0.00000000000E+00 0.  1.
         12    1    5    5    0    0 -0.81487912115E+01 -0.55102673839E+02  0.28644281706E+00  0.55702688552E+02  0.00000000000E+00 0. -1.
        -13    1    3    3    0    0  0.10334094232E+02 -0.87392893089E+02 -0.44091205572E+02  0.98429394364E+02  0.00000000000E+00 0.  1.
         14    1    3    3    0    0 -0.19077586808E+02 -0.61627364089E+02  0.30751879613E+02  0.71467226214E+02  0.00000000000E+00 0. -1.
          5    1    4    4  502    0 -0.21119732025E+02 -0.10330897632E+02 -0.29054272004E+02  0.37669765706E+02  0.47000000000E+01 0.  1.
         -5    1    4    4    0  502  0.55654287230E+02  0.15920166096E+03 -0.61951577652E+02  0.17972939802E+03  0.47000000000E+01 0.  1.
          1    1    1    2  503    0 -0.78282981935E+02  0.34616210170E+02  0.25014843384E+03  0.26438749255E+03  0.00000000000E+00 0. -1.
         -2    1    1    2    0  501  0.78324025042E+01  0.30010607073E+02 -0.18843709156E+03  0.19097256489E+03  0.00000000000E+00 0.  1.
<mgrwt>
<rscale>  0 0.51561426E+02</rscale>
<asrwt>0</asrwt>
<pdfrwt beam="1">  1        2 0.68932973E-01 0.85716836E+02</pdfrwt>
<pdfrwt beam="2">  1       -1 0.71765550E-01 0.31015852E+02</pdfrwt>
<totfact> 0.17574037E+02</totfact>
</mgrwt>
</event>
<event>
13    1  0.1675423E-008  0.1201385E+03  0.7546771E-02  0.1366294E+00
         -3   -1    0    0    0  502 -0.00000000000E+00  0.00000000000E+00  0.21576964051E+04  0.21576964051E+04  0.00000000000E+00 0.  1.
         -1   -1    0    0    0  501  0.00000000000E+00 -0.00000000000E+00 -0.10532575290E+04  0.10532575290E+04  0.00000000000E+00 0.  1.
         24    2    1    2    0    0  0.59507802650E+03 -0.30855146006E+03 -0.56766789303E+03  0.88207259076E+03  0.80519298691E+02 0.  0.
         25    2    1    2    0    0 -0.53011354387E+03  0.32898009834E+03  0.49871751669E+03  0.80844988989E+03  0.12499515391E+03 0.  0.
         24    2    1    2    0    0  0.63421167880E+02 -0.96747862206E+01  0.41492021938E+03  0.42891445227E+03  0.87709594064E+02 0.  0.
        -13    1    5    5    0    0  0.76470406936E+02 -0.26684214602E+02  0.25472842496E+03  0.26729448354E+03  0.00000000000E+00 0.  1.
         14    1    5    5    0    0 -0.13049239056E+02  0.17009428381E+02  0.16019179441E+03  0.16161996873E+03  0.00000000000E+00 0. -1.
        -13    1    3    3    0    0  0.56745094716E+03 -0.29203744674E+03 -0.51377207330E+03  0.81929737644E+03  0.00000000000E+00 0.  1.
         14    1    3    3    0    0  0.27627079336E+02 -0.16514013318E+02 -0.53895819729E+02  0.62775214319E+02  0.00000000000E+00 0. -1.
          5    1    4    4  503    0 -0.38162705993E+03  0.21021825442E+03  0.27693109906E+03  0.51627885003E+03  0.47000000000E+01 0.  1.
         -5    1    4    4    0  503 -0.14848648394E+03  0.11876184392E+03  0.22178641763E+03  0.29217103986E+03  0.47000000000E+01 0.  1.
         -2    1    1    2    0  501  0.33630433693E+02  0.19199412042E+02 -0.15681292586E+03  0.16152373575E+03  0.00000000000E+00 0.  1.
         -4    1    1    2    0  502 -0.16201608420E+03 -0.29953264103E+02  0.91528195890E+03  0.92999326549E+03  0.00000000000E+00 0.  1.
<mgrwt>
<rscale>  0 0.68208208E+02</rscale>
<asrwt>0</asrwt>
<pdfrwt beam="2">  1       -1 0.15489081E+00 0.38724972E+02</pdfrwt>
<pdfrwt beam="1">  1       -3 0.31730830E+00 0.12013849E+03</pdfrwt>
<totfact> 0.68523187E-02</totfact>
</mgrwt>
</event>
<event>
13    1  0.1675423E-008  0.6845532E+02  0.7546771E-02  0.1425089E+00
          2   -1    0    0  502    0  0.00000000000E+00  0.00000000000E+00  0.13783799100E+04  0.13783799100E+04  0.00000000000E+00 0. -1.
          2   -1    0    0  503    0 -0.00000000000E+00 -0.00000000000E+00 -0.11942231145E+04  0.11942231145E+04  0.00000000000E+00 0. -1.
         24    2    1    2    0    0 -0.41090678518E+02 -0.99236629832E+02  0.74403854099E+03  0.75583176070E+03  0.78434351161E+02 0.  0.
         25    2    1    2    0    0 -0.12078811222E+03  0.12229640793E+03 -0.15883382472E+03  0.26532989751E+03  0.12500236475E+03 0.  0.
         24    2    1    2    0    0  0.83199275847E+02 -0.11634564452E+02  0.92936030134E+02  0.14938252342E+03  0.81366762346E+02 0.  0.
        -11    1    5    5    0    0 -0.48345984642E+01  0.13077846491E+02 -0.55387059270E+01  0.15002688909E+02  0.00000000000E+00 0.  1.
         12    1    5    5    0    0  0.88033874311E+02 -0.24712410943E+02  0.98474736061E+02  0.13437983451E+03  0.00000000000E+00 0. -1.
        -13    1    3    3    0    0 -0.37367171517E+02 -0.99006909414E+01  0.32950249326E+03  0.33176229781E+03  0.00000000000E+00 0.  1.
         14    1    3    3    0    0 -0.37235070014E+01 -0.89335938891E+02  0.41453604773E+03  0.42406946289E+03  0.00000000000E+00 0. -1.
          5    1    4    4  501    0 -0.12019401091E+03  0.10698532950E+03 -0.70821090390E+02  0.17586977520E+03  0.47000000000E+01 0.  1.
         -5    1    4    4    0  501 -0.59410130525E+00  0.15311078428E+02 -0.88012734326E+02  0.89460122303E+02  0.47000000000E+01 0.  1.
          1    1    1    2  502    0  0.51995302281E+02 -0.44544915826E+02  0.45097523065E+03  0.45614298158E+03  0.00000000000E+00 0. -1.
          1    1    1    2  503    0  0.26684212606E+02  0.33119702185E+02 -0.94495918152E+03  0.94591586128E+03  0.00000000000E+00 0. -1.
<mgrwt>
<rscale>  0 0.53958636E+02</rscale>
<asrwt>0</asrwt>
<pdfrwt beam="1">  1        2 0.20270293E+00 0.68455322E+02</pdfrwt>
<pdfrwt beam="2">  1        2 0.17562105E+00 0.42531892E+02</pdfrwt>
<totfact> 0.71322350E+01</totfact>
</mgrwt>
</event>
<event>
13    1  0.1675423E-008  0.1034653E+03  0.7546771E-02  0.1327322E+00
          4   -1    0    0  503    0  0.00000000000E+00  0.00000000000E+00  0.23352737306E+03  0.23352737306E+03  0.00000000000E+00 0. -1.
          4   -1    0    0  502    0 -0.00000000000E+00 -0.00000000000E+00 -0.16429891165E+04  0.16429891165E+04  0.00000000000E+00 0. -1.
         24    2    1    2    0    0  0.18069618681E+02 -0.23699831090E+02  0.47963944480E+02  0.98429761221E+02  0.80620622740E+02 0.  0.
         25    2    1    2    0    0  0.15636116891E+03  0.10237583328E+03 -0.69599066442E+03  0.73140917484E+03  0.12500699859E+03 0.  0.
         24    2    1    2    0    0 -0.28108640991E+02  0.28892685653E+02 -0.17937938574E+03  0.19864176750E+03  0.75211068233E+02 0.  0.
        -11    1    5    5    0    0 -0.88734105615E+01 -0.25674540704E+02 -0.65429072654E+02  0.70844075290E+02  0.00000000000E+00 0.  1.
         12    1    5    5    0    0 -0.19235230430E+02  0.54567226356E+02 -0.11395031308E+03  0.12779769221E+03  0.00000000000E+00 0. -1.
        -13    1    3    3    0    0  0.42090151681E+02 -0.25497699959E+02  0.54540834406E+02  0.73460303494E+02  0.00000000000E+00 0.  1.
         14    1    3    3    0    0 -0.24020533000E+02  0.17978688687E+01 -0.65768899259E+01  0.24969457727E+02  0.00000000000E+00 0. -1.
          5    1    4    4  501    0  0.69731492904E+02  0.24194060030E+01 -0.10769232897E+03  0.12840585012E+03  0.47000000000E+01 0. -1.
         -5    1    4    4    0  501  0.86629676010E+02  0.99956427280E+02 -0.58829833546E+03  0.60300332472E+03  0.47000000000E+01 0. -1.
          3    1    1    2  502    0 -0.49402249167E+02 -0.38784023293E+02 -0.68677113778E+03  0.68963713530E+03  0.00000000000E+00 0. -1.
          3    1    1    2  503    0 -0.96919897438E+02 -0.68784664552E+02  0.10471550002E+03  0.15839865070E+03  0.00000000000E+00 0. -1.
<mgrwt>
<rscale>  0 0.80612631E+02</rscale>
<asrwt>0</asrwt>
<pdfrwt beam="1">  1        4 0.34342263E-01 0.10346528E+03</pdfrwt>
<pdfrwt beam="2">  1        4 0.24161603E+00 0.62807505E+02</pdfrwt>
<totfact> 0.11739189E+00</totfact>
</mgrwt>
</event>
<event>
13    1  0.1675423E-008  0.1919378E+03  0.7546771E-02  0.1330952E+00
          2   -1    0    0  503    0  0.00000000000E+00  0.00000000000E+00  0.33288752877E+04  0.33288752877E+04  0.00000000000E+00 0. -1.
         -3   -1    0    0    0  501 -0.00000000000E+00 -0.00000000000E+00 -0.23086706620E+04  0.23086706620E+04  0.00000000000E+00 0.  1.
         24    2    1    2    0    0 -0.35562824627E+02  0.68012122866E+02  0.98688247045E+03  0.99301347406E+03  0.79046732003E+02 0.  0.
         25    2    1    2    0    0  0.22745402613E+03 -0.28965937083E+03 -0.14598268281E+03  0.41542159666E+03  0.12500509660E+03 0.  0.
         24    2    1    2    0    0 -0.13484666226E+01  0.35387213824E+02 -0.90161334634E+01  0.88520239366E+02  0.80625485116E+02 0.  0.
        -11    1    3    3    0    0 -0.13571593007E+02 -0.14624465487E+02  0.32781833824E+03  0.32842491686E+03  0.00000000000E+00 0.  1.
         12    1    3    3    0    0 -0.21991231620E+02  0.82636588353E+02  0.65906413220E+03  0.66458855720E+03  0.00000000000E+00 0. -1.
        -13    1    5    5    0    0 -0.54820488599E+01 -0.14121196283E+02  0.24348323115E+02  0.28675806574E+02  0.00000000000E+00 0.  1.
         14    1    5    5    0    0  0.41335822373E+01  0.49508410107E+02 -0.33364456578E+02  0.59844432792E+02  0.00000000000E+00 0. -1.
          5    1    4    4  502    0  0.23433223440E+03 -0.29663892606E+03 -0.14182337148E+03  0.40378485265E+03  0.47000000000E+01 0. -1.
         -5    1    4    4    0  502 -0.68782082682E+01  0.69795552336E+01 -0.41593113323E+01  0.11636744003E+02  0.47000000000E+01 0. -1.
          1    1    1    2  503    0 -0.16346004585E+03  0.20474791423E+03  0.21563905316E+04  0.21722479186E+04  0.00000000000E+00 0. -1.
         -4    1    1    2    0  501 -0.27082689031E+02 -0.18487880090E+02 -0.19680695601E+04  0.19683427210E+04  0.00000000000E+00 0.  1.
<mgrwt>
<rscale>  0 0.79334121E+02</rscale>
<asrwt>0</asrwt>
<pdfrwt beam="1">  1        2 0.48954048E+00 0.19193780E+03</pdfrwt>
<pdfrwt beam="2">  1       -3 0.33951039E+00 0.32791367E+02</pdfrwt>
<totfact> 0.35095448E-02</totfact>
</mgrwt>
</event>
<event>
13    1  0.1675423E-008  0.1252477E+03  0.7546771E-02  0.1423050E+00
          2   -1    0    0  503    0  0.00000000000E+00  0.00000000000E+00  0.14457519660E+04  0.14457519660E+04  0.00000000000E+00 0. -1.
          2   -1    0    0  502    0 -0.00000000000E+00 -0.00000000000E+00 -0.15623690722E+04  0.15623690722E+04  0.00000000000E+00 0. -1.
         24    2    1    2    0    0 -0.18349128726E+03  0.54355955263E+02  0.33394869650E+03  0.39339971016E+03  0.81350953819E+02 0.  0.
         25    2    1    2    0    0  0.16548252076E+03  0.62213546009E+02  0.87844471920E+03  0.90473658270E+03  0.12501267697E+03 0.  0.
         24    2    1    2    0    0  0.11329786200E+03 -0.60016437562E+02 -0.19846382786E+03  0.24986107664E+03  0.81266772661E+02 0.  0.
        -11    1    5    5    0    0  0.28035437869E+02 -0.24915732342E+01 -0.11203230103E+03  0.11551376623E+03  0.00000000000E+00 0.  1.
         12    1    5    5    0    0  0.85262424135E+02 -0.57524864328E+02 -0.86431526827E+02  0.13434731041E+03  0.00000000000E+00 0. -1.
        -13    1    3    3    0    0 -0.31235727534E+02 -0.16038667440E+02  0.29764671828E+02  0.46030915881E+02  0.00000000000E+00 0.  1.
         14    1    3    3    0    0 -0.15225555972E+03  0.70394622703E+02  0.30418402468E+03  0.34736879428E+03  0.00000000000E+00 0. -1.
          5    1    4    4  501    0  0.12149016776E+03  0.98701413537E+02  0.57632933050E+03  0.59722643703E+03  0.47000000000E+01 0.  1.
         -5    1    4    4    0  501  0.43992352997E+02 -0.36487867528E+02  0.30211538870E+03  0.30751014567E+03  0.47000000000E+01 0.  1.
          1    1    1    2  502    0 -0.96299032168E+02 -0.80142846841E+02 -0.12914421317E+04  0.12975049746E+04  0.00000000000E+00 0. -1.
          1    1    1    2  503    0  0.10099366607E+01  0.23589783131E+02  0.16089543760E+03  0.16261869413E+03  0.00000000000E+00 0. -1.
<mgrwt>
<rscale>  0 0.54380819E+02</rscale>
<asrwt>0</asrwt>
<pdfrwt beam="1">  1        2 0.21261058E+00 0.23611392E+02</pdfrwt>
<pdfrwt beam="2">  1        2 0.22976016E+00 0.12524774E+03</pdfrwt>
<totfact> 0.43643695E+01</totfact>
</mgrwt>
</event>
<event>
13    1  0.1675423E-008  0.1065843E+03  0.7546771E-02  0.1326796E+00
          2   -1    0    0  502    0  0.00000000000E+00  0.00000000000E+00  0.96384932268E+03  0.96384932268E+03  0.00000000000E+00 0. -1.
          2   -1    0    0  503    0 -0.00000000000E+00 -0.00000000000E+00 -0.20863174719E+04  0.20863174719E+04  0.00000000000E+00 0. -1.
         24    2    1    2    0    0 -0.40237388905E+02 -0.71792368395E+02  0.16922215330E+03  0.20672748568E+03  0.85597456414E+02 0.  0.
         25    2    1    2    0    0  0.12217670175E+03  0.65658896950E+02 -0.27950537829E+03  0.33614213587E+03  0.12502016562E+03 0.  0.
         24    2    1    2    0    0 -0.64774400336E+01  0.31007928875E+01  0.80508947037E+02  0.11511096554E+03  0.81958963440E+02 0.  0.
        -11    1    3    3    0    0  0.23093900620E+02 -0.43117705830E+02  0.77324182004E+02  0.91495868346E+02  0.00000000000E+00 0.  1.
         12    1    3    3    0    0 -0.63331289525E+02 -0.28674662564E+02  0.91897971295E+02  0.11523161734E+03  0.00000000000E+00 0. -1.
        -13    1    5    5    0    0  0.83131997182E+01 -0.88850056190E+01 -0.14089296905E+02  0.18616146263E+02  0.00000000000E+00 0.  1.
         14    1    5    5    0    0 -0.14790639752E+02  0.11985798507E+02  0.94598243942E+02  0.96494819275E+02  0.00000000000E+00 0. -1.
          5    1    4    4  501    0  0.88289951159E+02  0.89930258920E+02 -0.13105479692E+03  0.18187912673E+03  0.47000000000E+01 0.  1.
         -5    1    4    4    0  501  0.33886750589E+02 -0.24271361970E+02 -0.14845058137E+03  0.15426300913E+03  0.47000000000E+01 0.  1.
          1    1    1    2  502    0 -0.13302626945E+03  0.23969386724E+02  0.64216993815E+03  0.65624138039E+03  0.00000000000E+00 0. -1.
          1    1    1    2  503    0  0.57564396644E+02 -0.20936708167E+02 -0.17348638094E+04  0.17359448271E+04  0.00000000000E+00 0. -1.
<mgrwt>
<rscale>  0 0.80800211E+02</rscale>
<asrwt>0</asrwt>
<pdfrwt beam="1">  1        2 0.14174255E+00 0.10658430E+03</pdfrwt>
<pdfrwt beam="2">  1        2 0.30681139E+00 0.61253616E+02</pdfrwt>
<totfact> 0.42084414E+01</totfact>
</mgrwt>
</event>
<event>
13    1  0.1675423E-008  0.7935356E+02  0.7546771E-02  0.1415619E+00
          2   -1    0    0  503    0  0.00000000000E+00  0.00000000000E+00  0.14266294755E+04  0.14266294755E+04  0.00000000000E+00 0. -1.
          2   -1    0    0  502    0 -0.00000000000E+00 -0.00000000000E+00 -0.92206496974E+03  0.92206496974E+03  0.00000000000E+00 0. -1.
         24    2    1    2    0    0 -0.18984062627E+03 -0.78100941063E+01  0.72208402109E+03  0.75097756818E+03  0.80383539700E+02 0.  0.
         25    2    1    2    0    0  0.41585705213E+01  0.19173145518E+02 -0.76450347702E+03  0.77490222410E+03  0.12499194901E+03 0.  0.
         24    2    1    2    0    0  0.92893581206E+02  0.35831721164E+01 -0.40607671890E+02  0.12955686447E+03  0.80584995894E+02 0.  0.
        -11    1    5    5    0    0  0.38485397824E+02  0.24383445774E+02 -0.53117937988E+02  0.69979951483E+02  0.00000000000E+00 0.  1.
         12    1    5    5    0    0  0.54408183382E+02 -0.20800273658E+02  0.12510266098E+02  0.59576912987E+02  0.00000000000E+00 0. -1.
        -13    1    3    3    0    0 -0.83259741535E+01  0.19791948513E+02  0.10434600896E+03  0.10653230805E+03  0.00000000000E+00 0.  1.
         14    1    3    3    0    0 -0.18151465211E+03 -0.27602042619E+02  0.61773801212E+03  0.64444526013E+03  0.00000000000E+00 0. -1.
          5    1    4    4  501    0 -0.51872412582E+02  0.38616839833E+02 -0.32642916652E+03  0.33280639756E+03  0.47000000000E+01 0.  1.
         -5    1    4    4    0  501  0.56030983103E+02 -0.19443694315E+02 -0.43807431050E+03  0.44209582653E+03  0.47000000000E+01 0.  1.
          1    1    1    2  502    0  0.26745701583E+02  0.29014283852E+02 -0.42613722412E+02  0.58078314011E+02  0.00000000000E+00 0. -1.
          1    1    1    2  503    0  0.66042772957E+02 -0.43960507379E+02  0.63020535598E+03  0.63517947446E+03  0.00000000000E+00 0. -1.
<mgrwt>
<rscale>  0 0.55958570E+02</rscale>
<asrwt>0</asrwt>
<pdfrwt beam="1">  1        2 0.20979845E+00 0.79353562E+02</pdfrwt>
<pdfrwt beam="2">  1        2 0.13559779E+00 0.39460882E+02</pdfrwt>
<totfact> 0.93819989E+01</totfact>
</mgrwt>
</event>
<event>
13    1  0.1675423E-008  0.3838777E+02  0.7546771E-02  0.1550619E+00
          2   -1    0    0  502    0  0.00000000000E+00  0.00000000000E+00  0.23451849437E+04  0.23451849437E+04  0.00000000000E+00 0. -1.
          2   -1    0    0  503    0 -0.00000000000E+00 -0.00000000000E+00 -0.30822724119E+04  0.30822724119E+04  0.00000000000E+00 0. -1.
         24    2    1    2    0    0  0.10134658663E+04  0.42466716105E+03 -0.88248474499E+02  0.11051928103E+04  0.78791464577E+02 0.  0.
         25    2    1    2    0    0 -0.50301630023E+03 -0.20549672727E+03  0.55058251093E+03  0.78359492052E+03  0.12500237958E+03 0.  0.
         24    2    1    2    0    0 -0.50958021502E+03 -0.20807668369E+03  0.43504193364E+03  0.70647907959E+03  0.82965679871E+02 0.  0.
        -11    1    5    5    0    0 -0.44836471595E+03 -0.20993697371E+03  0.39444481022E+03  0.63300170596E+03  0.00000000000E+00 0.  1.
         12    1    5    5    0    0 -0.61215499066E+02  0.18602900220E+01  0.40597123420E+02  0.73477373625E+02  0.00000000000E+00 0. -1.
        -13    1    3    3    0    0  0.68317257306E+03  0.25761566634E+03 -0.84831060975E+02  0.73504211106E+03  0.00000000000E+00 0.  1.
         14    1    3    3    0    0  0.33029329327E+03  0.16705149471E+03 -0.34174135243E+01  0.37015069928E+03  0.00000000000E+00 0. -1.
          5    1    4    4  501    0 -0.31237853508E+03 -0.10358394450E+03  0.40967020073E+03  0.52551093814E+03  0.47000000000E+01 0.  1.
         -5    1    4    4    0  501 -0.19063776515E+03 -0.10191278277E+03  0.14091231019E+03  0.25808398237E+03  0.47000000000E+01 0.  1.
          1    1    1    2  502    0 -0.25750348781E+02  0.18142839305E+02  0.59828420672E+03  0.59911287342E+03  0.00000000000E+00 0. -1.
          1    1    1    2  503    0  0.24880997704E+02 -0.29236589399E+02 -0.22327476449E+04  0.22330776717E+04  0.00000000000E+00 0. -1.
<mgrwt>
<rscale>  0 0.34773705E+02</rscale>
<asrwt>0</asrwt>
<pdfrwt beam="1">  1        2 0.34488014E+00 0.31499890E+02</pdfrwt>
<pdfrwt beam="2">  1        2 0.45327535E+00 0.38387770E+02</pdfrwt>
<totfact> 0.34712958E+00</totfact>
</mgrwt>
</event>
<event>
13    1  0.1675423E-008  0.9945563E+02  0.7546771E-02  0.1461781E+00
         -1   -1    0    0    0  501 -0.00000000000E+00  0.00000000000E+00  0.25440471901E+03  0.25440471901E+03  0.00000000000E+00 0.  1.
          2   -1    0    0  503    0  0.00000000000E+00 -0.00000000000E+00 -0.40643097676E+04  0.40643097676E+04  0.00000000000E+00 0. -1.
         24    2    1    2    0    0 -0.26081230540E+02  0.11072597047E+03 -0.85890280101E+03  0.87042613497E+03  0.83589256084E+02 0.  0.
         25    2    1    2    0    0  0.75863843976E+02  0.17563481705E+02 -0.16063757507E+03  0.21792971678E+03  0.12500052887E+03 0.  0.
         24    2    1    2    0    0 -0.34475399504E+02 -0.13460037491E+02 -0.27279146223E+03  0.28671482995E+03  0.80127935623E+02 0.  0.
        -11    1    5    5    0    0 -0.50921528373E+02  0.11395145116E+02 -0.11715333402E+03  0.12824880139E+03  0.00000000000E+00 0.  1.
         12    1    5    5    0    0  0.16446128869E+02 -0.24855182607E+02 -0.15563812820E+03  0.15846602856E+03  0.00000000000E+00 0. -1.
        -13    1    3    3    0    0 -0.53519442791E+02  0.96250858321E+02 -0.66515560544E+03  0.67421104851E+03  0.00000000000E+00 0.  1.
         14    1    3    3    0    0  0.27438212251E+02  0.14475112144E+02 -0.19374719557E+03  0.19621508646E+03  0.00000000000E+00 0. -1.
          5    1    4    4  502    0  0.47211445332E+01  0.53895350794E+02 -0.11151231562E+03  0.12403259482E+03  0.47000000000E+01 0.  1.
         -5    1    4    4    0  502  0.71142699443E+02 -0.36331869089E+02 -0.49125259454E+02  0.93897121958E+02  0.47000000000E+01 0.  1.
          1    1    1    2  503    0  0.68069063330E-01 -0.98700721884E+02 -0.27291312654E+04  0.27309154694E+04  0.00000000000E+00 0. -1.
         -2    1    1    2    0  501 -0.15375282997E+02 -0.16128692795E+02  0.21155805512E+03  0.21272833554E+03  0.00000000000E+00 0.  1.
<mgrwt>
<rscale>  0 0.47076260E+02</rscale>
<asrwt>0</asrwt>
<pdfrwt beam="2">  1        2 0.59769263E+00 0.99455633E+02</pdfrwt>
<pdfrwt beam="1">  1       -1 0.37412458E-01 0.22283044E+02</pdfrwt>
<totfact> 0.51901932E+00</totfact>
</mgrwt>
</event>
<event>
13    1  0.1675423E-008  0.3766939E+03  0.7546771E-02  0.1245920E+00
          2   -1    0    0  503    0  0.00000000000E+00  0.00000000000E+00  0.51882275156E+04  0.51882275156E+04  0.00000000000E+00 0. -1.
          2   -1    0    0  502    0 -0.00000000000E+00 -0.00000000000E+00 -0.99478680897E+03  0.99478680897E+03  0.00000000000E+00 0. -1.
         24    2    1    2    0    0  0.59055026607E+02  0.15429053144E+03  0.21868762480E+04  0.21945311233E+04  0.79032035764E+02 0.  0.
         25    2    1    2    0    0  0.63730973042E+02  0.16147084051E+03 -0.88027918813E+02  0.23131884278E+03  0.12500009310E+03 0.  0.
         24    2    1    2    0    0  0.16203178024E+03 -0.53318776559E+03 -0.15790741606E+03  0.58817546438E+03  0.10233344353E+03 0.  0.
        -11    1    5    5    0    0  0.13529647366E+03 -0.51684472393E+03 -0.14092099744E+03  0.55253265239E+03  0.00000000000E+00 0.  1.
         12    1    5    5    0    0  0.26735306584E+02 -0.16343041663E+02 -0.16986418620E+02  0.35642811989E+02  0.00000000000E+00 0. -1.
        -13    1    3    3    0    0 -0.70840581578E+01  0.48465564021E+02  0.97922510683E+03  0.98044933812E+03  0.00000000000E+00 0.  1.
         14    1    3    3    0    0  0.66139084764E+02  0.10582496742E+03  0.12076511412E+04  0.12140817852E+04  0.00000000000E+00 0. -1.
          5    1    4    4  501    0  0.21347669654E+02  0.16487919963E+03 -0.48943502958E+02  0.17337367145E+03  0.47000000000E+01 0.  1.
         -5    1    4    4    0  501  0.42383303389E+02 -0.34083591185E+01 -0.39084415854E+02  0.57945171332E+02  0.47000000000E+01 0.  1.
          1    1    1    2  502    0 -0.24977352327E+03  0.22977105129E+03 -0.39525786145E+03  0.52097056152E+03  0.00000000000E+00 0. -1.
          1    1    1    2  503    0 -0.35044256618E+02 -0.12344657649E+02  0.26477576549E+04  0.26480183325E+04  0.00000000000E+00 0. -1.
<mgrwt>
<rscale>  0 0.11830488E+03</rscale>
<asrwt>0</asrwt>
<pdfrwt beam="1">  1        2 0.76297462E+00 0.37154952E+02</pdfrwt>
<pdfrwt beam="2">  1        2 0.14629218E+00 0.37669394E+03</pdfrwt>
<totfact> 0.43562880E-01</totfact>
</mgrwt>
</event>
<event>
13    1  0.1675423E-008  0.1765451E+03  0.7546771E-02  0.1341165E+00
          2   -1    0    0  503    0  0.00000000000E+00  0.00000000000E+00  0.21295797758E+04  0.21295797758E+04  0.00000000000E+00 0. -1.
          2   -1    0    0  502    0 -0.00000000000E+00 -0.00000000000E+00 -0.22559189533E+04  0.22559189533E+04  0.00000000000E+00 0. -1.
         24    2    1    2    0    0 -0.38300766127E+03 -0.13218879029E+03  0.55122279342E+03  0.68911629784E+03  0.82861083126E+02 0.  0.
         25    2    1    2    0    0  0.35537252562E+03 -0.24269151812E+03 -0.78261400980E+03  0.90183114736E+03  0.12500370029E+03 0.  0.
         24    2    1    2    0    0 -0.18743706357E+02  0.39354185529E+02  0.12606727146E+03  0.15481036903E+03  0.78569809586E+02 0.  0.
        -13    1    5    5    0    0 -0.30865208215E+02  0.23451745008E+02  0.14376761234E+02  0.41344125165E+02  0.00000000000E+00 0.  1.
         14    1    5    5    0    0  0.12121501858E+02  0.15902440521E+02  0.11169051022E+03  0.11346624386E+03  0.00000000000E+00 0. -1.
        -13    1    3    3    0    0 -0.10090858918E+03 -0.74135372440E+02  0.15439225180E+03  0.19878522137E+03  0.00000000000E+00 0.  1.
         14    1    3    3    0    0 -0.28209907209E+03 -0.58053417853E+02  0.39683054162E+03  0.49033107648E+03  0.00000000000E+00 0. -1.
          5    1    4    4  501    0  0.32557188555E+03 -0.24368192196E+03 -0.76626350126E+03  0.86750203176E+03  0.47000000000E+01 0.  1.
         -5    1    4    4    0  501  0.29800640073E+02  0.99040383229E+00 -0.16350508539E+02  0.34329115601E+02  0.47000000000E+01 0.  1.
          1    1    1    2  502    0  0.28876766823E+02  0.15160145422E+02 -0.13105174156E+04  0.13109231840E+04  0.00000000000E+00 0. -1.
          1    1    1    2  503    0  0.17502075186E+02  0.32036597747E+03  0.12895021830E+04  0.13288177309E+04  0.00000000000E+00 0. -1.
<mgrwt>
<rscale>  0 0.75880879E+02</rscale>
<asrwt>0</asrwt>
<pdfrwt beam="1">  1        2 0.31317350E+00 0.17654507E+03</pdfrwt>
<pdfrwt beam="2">  1        2 0.33175279E+00 0.32614378E+02</pdfrwt>
<totfact> 0.92243199E+00</totfact>
</mgrwt>
</event>
<event>
13    1  0.1675423E-008  0.8262561E+02  0.7546771E-02  0.1324701E+00
          2   -1    0    0  503    0  0.00000000000E+00  0.00000000000E+00  0.26303043762E+04  0.26303043762E+04  0.00000000000E+00 0. -1.
         -3   -1    0    0    0  501 -0.00000000000E+00 -0.00000000000E+00 -0.40100362778E+03  0.40100362778E+03  0.00000000000E+00 0.  1.
         24    2    1    2    0    0  0.26120817912E+03  0.15813440263E+03  0.99160106257E+03  0.10408339092E+04  0.82621771912E+02 0.  0.
         25    2    1    2    0    0 -0.23164009364E+03 -0.35237879677E+03  0.49011467334E+03  0.65853295399E+03  0.12500123627E+03 0.  0.
         24    2    1    2    0    0 -0.14872997562E+03  0.24417027168E+03 -0.17409424036E+03  0.34416428841E+03  0.80003285382E+02 0.  0.
        -11    1    3    3    0    0  0.14591271407E+03  0.53841215470E+02  0.40076572254E+03  0.42988668387E+03  0.00000000000E+00 0.  1.
         12    1    3    3    0    0  0.11529546505E+03  0.10429318717E+03  0.59083534004E+03  0.61094722537E+03  0.00000000000E+00 0. -1.
        -13    1    5    5    0    0 -0.15483485901E+03  0.24317847090E+03 -0.17590953268E+03  0.33771847146E+03  0.00000000000E+00 0.  1.
         14    1    5    5    0    0  0.61048833940E+01  0.99180077707E+00  0.18152923167E+01  0.64458169561E+01  0.00000000000E+00 0. -1.
          5    1    4    4  502    0 -0.21203763695E+03 -0.26697114907E+03  0.32242297305E+03  0.46926774604E+03  0.47000000000E+01 0. -1.
         -5    1    4    4    0  502 -0.19602456688E+02 -0.85407647694E+02  0.16769170029E+03  0.18926520795E+03  0.47000000000E+01 0. -1.
          1    1    1    2  503    0  0.39733353887E+02 -0.70004536694E+02  0.89923571456E+03  0.90283123833E+03  0.00000000000E+00 0. -1.
         -4    1    1    2    0  501  0.79428536253E+02  0.20078659150E+02  0.22443538286E+02  0.84945613985E+02  0.00000000000E+00 0.  1.
<mgrwt>
<rscale>  0 0.81553124E+02</rscale>
<asrwt>0</asrwt>
<pdfrwt beam="1">  1        2 0.38680946E+00 0.80494562E+02</pdfrwt>
<pdfrwt beam="2">  1       -3 0.58971123E-01 0.82625607E+02</pdfrwt>
<totfact> 0.78924374E+00</totfact>
</mgrwt>
</event>
<event>
13    1  0.1675423E-008  0.1852470E+03  0.7546771E-02  0.1306375E+00
          2   -1    0    0  502    0  0.00000000000E+00  0.00000000000E+00  0.15008487521E+04  0.15008487521E+04  0.00000000000E+00 0. -1.
          2   -1    0    0  503    0 -0.00000000000E+00 -0.00000000000E+00 -0.32319208211E+04  0.32319208211E+04  0.00000000000E+00 0. -1.
         24    2    1    2    0    0  0.15149252298E+03 -0.20558459120E+03  0.99661887822E+02  0.28581083721E+03  0.80872332260E+02 0.  0.
         25    2    1    2    0    0  0.23902261224E+03 -0.39883406807E+03  0.73506234191E+01  0.48153849286E+03  0.12499946171E+03 0.  0.
         24    2    1    2    0    0 -0.21561053714E+03  0.46080536312E+03 -0.10799734290E+04  0.11965035865E+04  0.80304040476E+02 0.  0.
        -11    1    3    3    0    0  0.78370124396E+02 -0.58397280358E+02  0.66321687632E+02  0.11811301792E+03  0.00000000000E+00 0.  1.
         12    1    3    3    0    0  0.73122398585E+02 -0.14718731084E+03  0.33340200190E+02  0.16769781929E+03  0.00000000000E+00 0. -1.
        -13    1    5    5    0    0 -0.10423158213E+03  0.13422838863E+03 -0.34794017460E+03  0.38722583608E+03  0.00000000000E+00 0.  1.
         14    1    5    5    0    0 -0.11137895501E+03  0.32657697449E+03 -0.73203325437E+03  0.80927775046E+03  0.00000000000E+00 0. -1.
          5    1    4    4  501    0  0.18206105697E+03 -0.33432932765E+03 -0.40666529991E+02  0.38288142349E+03  0.47000000000E+01 0.  1.
         -5    1    4    4    0  501  0.56961555275E+02 -0.64504740416E+02  0.48017153410E+02  0.98657069372E+02  0.47000000000E+01 0.  1.
          1    1    1    2  502    0 -0.13749275510E+03  0.12379236418E+03  0.99663402874E+03  0.10136607886E+04  0.00000000000E+00 0. -1.
          1    1    1    2  503    0 -0.37411842980E+02  0.19820931968E+02 -0.17547451800E+04  0.17552558679E+04  0.00000000000E+00 0. -1.
<mgrwt>
<rscale>  0 0.88560758E+02</rscale>
<asrwt>0</asrwt>
<pdfrwt beam="1">  1        2 0.22071305E+00 0.18524701E+03</pdfrwt>
<pdfrwt beam="2">  1        2 0.47528247E+00 0.42338107E+02</pdfrwt>
<totfact> 0.59897728E+00</totfact>
</mgrwt>
</event>
<event>
13    1  0.1675423E-008  0.9719311E+02  0.7546771E-02  0.1434335E+00
          2   -1    0    0  502    0  0.00000000000E+00  0.00000000000E+00  0.23718772445E+04  0.23718772445E+04  0.00000000000E+00 0. -1.
          2   -1    0    0  503    0 -0.00000000000E+00 -0.00000000000E+00 -0.20225297412E+04  0.20225297412E+04  0.00000000000E+00 0. -1.
         24    2    1    2    0    0 -0.52570106122E+03 -0.38335395684E+03  0.33566495299E+03  0.73444674926E+03  0.58473967210E+02 0.  0.
         25    2    1    2    0    0 -0.19485456654E+03  0.47406038689E+03 -0.19441276274E+03  0.56224880507E+03  0.12500337582E+03 0.  0.
         24    2    1    2    0    0  0.67422435142E+03 -0.34763660234E+02 -0.63750813496E+03  0.93189811090E+03  0.78933382273E+02 0.  0.
        -11    1    5    5    0    0  0.61824935360E+03 -0.41486038804E+02 -0.55427527894E+03  0.83136901523E+03  0.00000000000E+00 0.  1.
         12    1    5    5    0    0  0.55974997822E+02  0.67223785707E+01 -0.83232856022E+02  0.10052909567E+03  0.00000000000E+00 0. -1.
        -11    1    3    3    0    0 -0.36783162112E+03 -0.23444428480E+03  0.22015791704E+03  0.48860386061E+03  0.00000000000E+00 0.  1.
         12    1    3    3    0    0 -0.15786944010E+03 -0.14890967204E+03  0.11550703595E+03  0.24584288865E+03  0.00000000000E+00 0. -1.
          5    1    4    4  501    0 -0.13553770197E+03  0.18829491720E+03 -0.11892899415E+03  0.26075206643E+03  0.47000000000E+01 0.  1.
         -5    1    4    4    0  501 -0.59316864567E+02  0.28576546969E+03 -0.75483768593E+02  0.30149673864E+03  0.47000000000E+01 0.  1.
          1    1    1    2  502    0  0.49474032906E+02 -0.83693025996E+02  0.15038425869E+04  0.15069819935E+04  0.00000000000E+00 0. -1.
          1    1    1    2  503    0 -0.31427565737E+01  0.27750256176E+02 -0.65823913881E+03  0.65883132705E+03  0.00000000000E+00 0. -1.
<mgrwt>
<rscale>  0 0.52099665E+02</rscale>
<asrwt>0</asrwt>
<pdfrwt beam="1">  1        2 0.34880548E+00 0.97193108E+02</pdfrwt>
<pdfrwt beam="2">  1        2 0.29743084E+00 0.27927650E+02</pdfrwt>
<totfact> 0.97634405E+00</totfact>
</mgrwt>
</event>
<event>
13    1  0.1675423E-008  0.1932305E+03  0.7546771E-02  0.1209029E+00
          2   -1    0    0  503    0  0.00000000000E+00  0.00000000000E+00  0.27119155470E+04  0.27119155470E+04  0.00000000000E+00 0. -1.
          2   -1    0    0  502    0 -0.00000000000E+00 -0.00000000000E+00 -0.23718983747E+04  0.23718983747E+04  0.00000000000E+00 0. -1.
         24    2    1    2    0    0 -0.17805238857E+03  0.51236043636E+03  0.71329647964E+03  0.89974599622E+03  0.80840089269E+02 0.  0.
         25    2    1    2    0    0  0.21234637190E+03 -0.68214034409E+03 -0.40701010057E+03  0.83167746746E+03  0.12499502880E+03 0.  0.
         24    2    1    2    0    0  0.59764930732E+02  0.13810154798E+03 -0.10007522256E+04  0.10149212886E+04  0.76917622442E+02 0.  0.
        -11    1    5    5    0    0  0.22359555005E+02  0.77637421477E+02 -0.30407142901E+03  0.31462192049E+03  0.00000000000E+00 0.  1.
         12    1    5    5    0    0  0.37405375727E+02  0.60464126501E+02 -0.69668079656E+03  0.70029936814E+03  0.00000000000E+00 0. -1.
        -13    1    3    3    0    0 -0.81888031504E+02  0.31409898076E+03  0.37449913684E+03  0.49559401017E+03  0.00000000000E+00 0.  1.
         14    1    3    3    0    0 -0.96164357070E+02  0.19826145559E+03  0.33879734280E+03  0.40415198605E+03  0.00000000000E+00 0. -1.
          5    1    4    4  501    0  0.63006936061E+02 -0.22680225774E+03 -0.69340593838E+02  0.24543705112E+03  0.47000000000E+01 0.  1.
         -5    1    4    4    0  501  0.14933943584E+03 -0.45533808635E+03 -0.33766950674E+03  0.58624041635E+03  0.47000000000E+01 0.  1.
          1    1    1    2  502    0  0.56957571562E+02 -0.89621070668E+02 -0.64155077350E+03  0.65027955238E+03  0.00000000000E+00 0. -1.
          1    1    1    2  503    0 -0.15101648562E+03  0.12129943043E+03  0.16760337923E+04  0.16871896170E+04  0.00000000000E+00 0. -1.
<mgrwt>
<rscale>  0 0.14324437E+03</rscale>
<asrwt>0</asrwt>
<pdfrwt beam="1">  1        2 0.39881111E+00 0.19323049E+03</pdfrwt>
<pdfrwt beam="2">  1        2 0.34880858E+00 0.10618899E+03</pdfrwt>
<totfact> 0.34981244E+00</totfact>
</mgrwt>
</event>
<event>
13    1  0.1675423E-008  0.1857149E+03  0.7546771E-02  0.1208929E+00
          2   -1    0    0  502    0  0.00000000000E+00  0.00000000000E+00  0.30943552666E+04  0.30943552666E+04  0.00000000000E+00 0. -1.
          2   -1    0    0  503    0 -0.00000000000E+00 -0.00000000000E+00 -0.11250894564E+04  0.11250894564E+04  0.00000000000E+00 0. -1.
         24    2    1    2    0    0 -0.75474613266E+01 -0.87819824813E+02  0.34659726034E+03  0.36679005169E+03  0.81461618819E+02 0.  0.
         25    2    1    2    0    0  0.42105286766E+03  0.19859061244E+03 -0.86228339128E+02  0.48967797438E+03  0.12500177363E+03 0.  0.
         24    2    1    2    0    0 -0.94837071499E+02 -0.12674750934E+02  0.26176416863E+03  0.28983656806E+03  0.79561528181E+02 0.  0.
        -13    1    5    5    0    0  0.13908793025E+02  0.38624099032E+01  0.29425542790E+02  0.32775529015E+02  0.00000000000E+00 0.  1.
         14    1    5    5    0    0 -0.10874586452E+03 -0.16537160837E+02  0.23233862584E+03  0.25706103905E+03  0.00000000000E+00 0. -1.
        -13    1    3    3    0    0 -0.41483092516E+02 -0.24645638030E+02  0.14503487797E+03  0.15285081048E+03  0.00000000000E+00 0.  1.
         14    1    3    3    0    0  0.33935631189E+02 -0.63174186784E+02  0.20156238238E+03  0.21393924121E+03  0.00000000000E+00 0. -1.
          5    1    4    4  501    0  0.40094176679E+03  0.17091697416E+03 -0.48554614413E+02  0.43857331542E+03  0.47000000000E+01 0.  1.
         -5    1    4    4    0  501  0.20111100865E+02  0.27673638282E+02 -0.37673724715E+02  0.51104658962E+02  0.47000000000E+01 0.  1.
          1    1    1    2  502    0 -0.20816794307E+03 -0.10289922237E+03  0.22503722862E+04  0.22623212789E+04  0.00000000000E+00 0. -1.
          1    1    1    2  503    0 -0.11050039176E+03  0.48031856711E+01 -0.80323956593E+03  0.81081884995E+03  0.00000000000E+00 0. -1.
<mgrwt>
<rscale>  0 0.14332112E+03</rscale>
<asrwt>0</asrwt>
<pdfrwt beam="1">  1        2 0.45505224E+00 0.18571488E+03</pdfrwt>
<pdfrwt beam="2">  1        2 0.16545433E+00 0.11060473E+03</pdfrwt>
<totfact> 0.90671463E+00</totfact>
</mgrwt>
</event>
<event>
13    1  0.1675423E-008  0.5529559E+02  0.7546771E-02  0.1488230E+00
          2   -1    0    0  502    0  0.00000000000E+00  0.00000000000E+00  0.26782520136E+04  0.26782520136E+04  0.00000000000E+00 0. -1.
          2   -1    0    0  503    0 -0.00000000000E+00 -0.00000000000E+00 -0.14391858429E+04  0.14391858429E+04  0.00000000000E+00 0. -1.
         24    2    1    2    0    0 -0.25644960046E+03 -0.64902395813E+03 -0.28763950901E+03  0.75782557688E+03  0.67561986537E+02 0.  0.
         25    2    1    2    0    0 -0.15626058894E+03 -0.24113846208E+03 -0.31006543034E+01  0.31336780467E+03  0.12499854958E+03 0.  0.
         24    2    1    2    0    0  0.38968863318E+03  0.89365946960E+03  0.68665582175E+03  0.11952492071E+04  0.81486017197E+02 0.  0.
        -13    1    5    5    0    0  0.17072509336E+03  0.48409137644E+03  0.33979008044E+03  0.61558818785E+03  0.00000000000E+00 0.  1.
         14    1    5    5    0    0  0.21896353982E+03  0.40956809316E+03  0.34686574131E+03  0.57966101921E+03  0.00000000000E+00 0. -1.
        -13    1    3    3    0    0 -0.13392094073E+03 -0.30144102121E+03 -0.10263437625E+03  0.34544945045E+03  0.00000000000E+00 0.  1.
         14    1    3    3    0    0 -0.12252865974E+03 -0.34758293692E+03 -0.18500513276E+03  0.41237612643E+03  0.00000000000E+00 0. -1.
          5    1    4    4  501    0 -0.21319156617E+02 -0.13872631344E+03 -0.24496685758E+02  0.14255410935E+03  0.47000000000E+01 0.  1.
         -5    1    4    4    0  501 -0.13494143233E+03 -0.10241214864E+03  0.21396031455E+02  0.17081369532E+03  0.47000000000E+01 0.  1.
          1    1    1    2  502    0 -0.28082628780E+02  0.17718343054E+02  0.13453484678E+04  0.13457581780E+04  0.00000000000E+00 0. -1.
          1    1    1    2  503    0  0.51104185005E+02 -0.21215392443E+02 -0.50219795551E+03  0.50523709000E+03  0.00000000000E+00 0. -1.
<mgrwt>
<rscale>  0 0.42849637E+02</rscale>
<asrwt>0</asrwt>
<pdfrwt beam="1">  1        2 0.39386059E+00 0.33205026E+02</pdfrwt>
<pdfrwt beam="2">  1        2 0.21164498E+00 0.55295588E+02</pdfrwt>
<totfact> 0.14020672E+01</totfact>
</mgrwt>
</event>
<event>
13    1  0.1675423E-008  0.1003593E+03  0.7546771E-02  0.1451963E+00
          2   -1    0    0  503    0  0.00000000000E+00  0.00000000000E+00  0.70499033019E+03  0.70499033019E+03  0.00000000000E+00 0. -1.
          2   -1    0    0  502    0 -0.00000000000E+00 -0.00000000000E+00 -0.81404904999E+03  0.81404904999E+03  0.00000000000E+00 0. -1.
         24    2    1    2    0    0  0.35144836419E+02  0.89716495393E+02  0.26300366627E+03  0.29257472645E+03  0.84527114078E+02 0.  0.
         25    2    1    2    0    0 -0.49869018308E+01 -0.21692589748E+03 -0.38842518717E+03  0.46214781115E+03  0.12499903653E+03 0.  0.
         24    2    1    2    0    0 -0.16486435511E+02  0.14337766315E+02  0.76535142091E+02  0.11113297048E+03  0.77559880441E+02 0.  0.
        -11    1    3    3    0    0  0.31946889264E+02 -0.50811449235E+00  0.35226211900E+02  0.47557837617E+02  0.00000000000E+00 0.  1.
         12    1    3    3    0    0  0.31979471554E+01  0.90224609885E+02  0.22777745437E+03  0.24501688884E+03  0.00000000000E+00 0. -1.
        -11    1    5    5    0    0 -0.39643859512E+02  0.32376576091E+01  0.11798550890E+02  0.41488839787E+02  0.00000000000E+00 0.  1.
         12    1    5    5    0    0  0.23157424001E+02  0.11100108705E+02  0.64736591201E+02  0.69644130693E+02  0.00000000000E+00 0. -1.
          5    1    4    4  501    0  0.29367729717E+02 -0.22389715342E+02 -0.13919718895E+03  0.14408924427E+03  0.47000000000E+01 0.  1.
         -5    1    4    4    0  501 -0.34354631547E+02 -0.19453618214E+03 -0.24922799822E+03  0.31805856688E+03  0.47000000000E+01 0.  1.
          1    1    1    2  502    0  0.23563406657E+02  0.27411599217E+01 -0.34485959174E+03  0.34567453784E+03  0.00000000000E+00 0. -1.
          1    1    1    2  503    0 -0.37234905734E+02  0.11013047586E+03  0.28468725074E+03  0.30750933425E+03  0.00000000000E+00 0. -1.
<mgrwt>
<rscale>  0 0.48792980E+02</rscale>
<asrwt>0</asrwt>
<pdfrwt beam="1">  1        2 0.10367505E+00 0.10035931E+03</pdfrwt>
<pdfrwt beam="2">  1        2 0.11971310E+00 0.23722312E+02</pdfrwt>
<totfact> 0.28246894E+02</totfact>
</mgrwt>
</event>
<event>
13    1  0.1675423E-008  0.1448609E+03  0.7546771E-02  0.1328592E+00
          2   -1    0    0  503    0  0.00000000000E+00  0.00000000000E+00  0.22747545788E+04  0.22747545788E+04  0.00000000000E+00 0. -1.
         -1   -1    0    0    0  501 -0.00000000000E+00 -0.00000000000E+00 -0.64670254983E+03  0.64670254983E+03  0.00000000000E+00 0.  1.
         24    2    1    2    0    0  0.10665328577E+03  0.59727006698E+02  0.67079338415E+03  0.68662804786E+03  0.80944877494E+02 0.  0.
         25    2    1    2    0    0  0.65218487174E+02 -0.14331552811E+03  0.15596986310E+03  0.25445133557E+03  0.12500436916E+03 0.  0.
         24    2    1    2    0    0 -0.50065208823E+02  0.36459330778E+02 -0.77599644143E+02  0.12829456286E+03  0.81252582439E+02 0.  0.
        -11    1    3    3    0    0  0.11922880158E+03  0.59833721654E+02  0.62866597263E+03  0.64266358736E+03  0.00000000000E+00 0.  1.
         12    1    3    3    0    0 -0.12575515805E+02 -0.10671495602E+00  0.42127411519E+02  0.43964460501E+02  0.00000000000E+00 0. -1.
        -13    1    5    5    0    0 -0.52415609080E+02  0.50547177823E+02 -0.30273125504E+02  0.78859846493E+02  0.00000000000E+00 0.  1.
         14    1    5    5    0    0  0.23504002571E+01 -0.14087847046E+02 -0.47326518639E+02  0.49434716367E+02  0.00000000000E+00 0. -1.
          5    1    4    4  502    0  0.98113490308E+02 -0.76460279130E+02  0.80177941144E+02  0.14806425467E+03  0.47000000000E+01 0. -1.
         -5    1    4    4    0  502 -0.32895003134E+02 -0.66855248980E+02  0.75791921960E+02  0.10638708090E+03  0.47000000000E+01 0. -1.
          1    1    1    2  503    0  0.42667598335E+02 -0.12133911232E+02  0.13494067215E+04  0.13501356434E+04  0.00000000000E+00 0. -1.
         -2    1    1    2    0  501 -0.16447416246E+03  0.59263101866E+02 -0.47051829558E+03  0.50194753893E+03  0.00000000000E+00 0.  1.
<mgrwt>
<rscale>  0 0.80161971E+02</rscale>
<asrwt>0</asrwt>
<pdfrwt beam="1">  1        2 0.33452273E+00 0.44359393E+02</pdfrwt>
<pdfrwt beam="2">  1       -1 0.95103317E-01 0.14486090E+03</pdfrwt>
<totfact> 0.99477775E+00</totfact>
</mgrwt>
</event>
<event>
13    1  0.1675423E-008  0.1148044E+03  0.7546771E-02  0.1257336E+00
          2   -1    0    0  503    0  0.00000000000E+00  0.00000000000E+00  0.15594277086E+04  0.15594277086E+04  0.00000000000E+00 0. -1.
         -3   -1    0    0    0  501 -0.00000000000E+00 -0.00000000000E+00 -0.16497227034E+04  0.16497227034E+04  0.00000000000E+00 0.  1.
         24    2    1    2    0    0  0.62395819373E+02 -0.11287364805E+02  0.45737615228E+03  0.46840240393E+03  0.78658912088E+02 0.  0.
         25    2    1    2    0    0  0.36124255790E+03 -0.51562515305E+02 -0.99937576841E+02  0.39845934596E+03  0.12500980959E+03 0.  0.
         24    2    1    2    0    0 -0.13815668759E+03  0.93682015609E+02 -0.24115206235E+03  0.30422516859E+03  0.80839629233E+02 0.  0.
        -13    1    5    5    0    0 -0.70699114907E+02  0.77782822712E+02 -0.91718314046E+02  0.13950190497E+03  0.00000000000E+00 0.  1.
         14    1    5    5    0    0 -0.67457572678E+02  0.15899192897E+02 -0.14943374831E+03  0.16472326363E+03  0.00000000000E+00 0. -1.
        -13    1    3    3    0    0  0.17508791008E+02  0.28029415815E+02  0.26313650516E+03  0.26520374481E+03  0.00000000000E+00 0.  1.
         14    1    3    3    0    0  0.44887028365E+02 -0.39316780620E+02  0.19423964712E+03  0.20319865912E+03  0.00000000000E+00 0. -1.
          5    1    4    4  502    0  0.17686420743E+03 -0.73902025717E+02 -0.91571054600E+02  0.21248483549E+03  0.47000000000E+01 0.  1.
         -5    1    4    4    0  502  0.18437835047E+03  0.22339510412E+02 -0.83665222415E+01  0.18597451046E+03  0.47000000000E+01 0.  1.
          1    1    1    2  503    0 -0.17957323621E+03 -0.52820821023E+01  0.90423933626E+03  0.92191280759E+03  0.00000000000E+00 0. -1.
         -4    1    1    2    0  501 -0.10590845347E+03 -0.25550053397E+02 -0.11108208442E+04  0.11161506859E+04  0.00000000000E+00 0.  1.
<mgrwt>
<rscale>  0 0.11176488E+03</rscale>
<asrwt>0</asrwt>
<pdfrwt beam="1">  1        2 0.22932761E+00 0.11480439E+03</pdfrwt>
<pdfrwt beam="2">  1       -3 0.24260628E+00 0.10880584E+03</pdfrwt>
<totfact> 0.85969304E-01</totfact>
</mgrwt>
</event>
<event>
13    1  0.1675423E-008  0.4339189E+03  0.7546771E-02  0.1179726E+00
          2   -1    0    0  503    0  0.00000000000E+00  0.00000000000E+00  0.16262500450E+04  0.16262500450E+04  0.00000000000E+00 0. -1.
          2   -1    0    0  502    0 -0.00000000000E+00 -0.00000000000E+00 -0.28023291239E+04  0.28023291239E+04  0.00000000000E+00 0. -1.
         24    2    1    2    0    0  0.59326265350E+02  0.11388504939E+03  0.28652657998E+03  0.32417860775E+03  0.80652826703E+02 0.  0.
         25    2    1    2    0    0 -0.46712343366E+03 -0.28519960837E+03 -0.29164630078E+03  0.63263362721E+03  0.12499849053E+03 0.  0.
         24    2    1    2    0    0  0.43293195160E+03 -0.27023591182E+03  0.11932424349E+03  0.53522075764E+03  0.10846871243E+03 0.  0.
        -11    1    5    5    0    0  0.36539487273E+03 -0.21584649727E+03  0.56478849723E+02  0.42812729867E+03  0.00000000000E+00 0.  1.
         12    1    5    5    0    0  0.67537078871E+02 -0.54389414545E+02  0.62845393766E+02  0.10709345897E+03  0.00000000000E+00 0. -1.
        -11    1    3    3    0    0  0.33391711534E+02  0.26238209604E+02  0.17450755389E+03  0.17960049111E+03  0.00000000000E+00 0.  1.
         12    1    3    3    0    0  0.25934553816E+02  0.87646839785E+02  0.11201902609E+03  0.14457811664E+03  0.00000000000E+00 0. -1.
          5    1    4    4  501    0 -0.27782152670E+03 -0.18430183640E+03 -0.10880392408E+03  0.35073116698E+03  0.47000000000E+01 0. -1.
         -5    1    4    4    0  501 -0.18930190695E+03 -0.10089777197E+03 -0.18284237669E+03  0.28190246022E+03  0.47000000000E+01 0. -1.
          1    1    1    2  502    0  0.38395454163E+02  0.42685122395E+03 -0.20903473325E+04  0.21338294563E+04  0.00000000000E+00 0. -1.
          1    1    1    2  503    0 -0.63530237461E+02  0.14699246840E+02  0.80006373092E+03  0.80271671993E+03  0.00000000000E+00 0. -1.
<mgrwt>
<rscale>  0 0.16821187E+03</rscale>
<asrwt>0</asrwt>
<pdfrwt beam="1">  1        2 0.23915442E+00 0.65208580E+02</pdfrwt>
<pdfrwt beam="2">  1        2 0.41210722E+00 0.43391886E+03</pdfrwt>
<totfact> 0.67826385E+00</totfact>
</mgrwt>
</event>
<event>
13    1  0.1675423E-008  0.1571586E+03  0.7546771E-02  0.1411932E+00
          2   -1    0    0  502    0  0.00000000000E+00  0.00000000000E+00  0.69473101732E+03  0.69473101732E+03  0.00000000000E+00 0. -1.
          2   -1    0    0  503    0 -0.00000000000E+00 -0.00000000000E+00 -0.26578431664E+04  0.26578431664E+04  0.00000000000E+00 0. -1.
         24    2    1    2    0    0  0.47319792091E+02  0.14805241130E+03 -0.21303844609E+03  0.27549072700E+03  0.79693675632E+02 0.  0.
         25    2    1    2    0    0  0.11116677262E+03 -0.26762735063E+03 -0.10678856149E+04  0.11135469777E+04  0.12499893983E+03 0.  0.
         24    2    1    2    0    0 -0.63694941886E+02 -0.30363947327E+02 -0.76842030727E+02  0.13223000564E+03  0.81246918622E+02 0.  0.
        -11    1    5    5    0    0  0.16807493363E+02  0.47282361001E+00 -0.29303559541E+02  0.33784819033E+02  0.00000000000E+00 0.  1.
         12    1    5    5    0    0 -0.80502435250E+02 -0.30836770937E+02 -0.47538471186E+02  0.98445186604E+02  0.00000000000E+00 0. -1.
        -13    1    3    3    0    0  0.62399321868E+02  0.69042096579E+02 -0.13005689544E+03  0.15992273922E+03  0.00000000000E+00 0.  1.
         14    1    3    3    0    0 -0.15079529776E+02  0.79010314717E+02 -0.82981550655E+02  0.11556798778E+03  0.00000000000E+00 0. -1.
          5    1    4    4  501    0  0.12774999765E+03 -0.21035573013E+03 -0.72933664797E+03  0.76975556586E+03  0.47000000000E+01 0.  1.
         -5    1    4    4    0  501 -0.16583225026E+02 -0.57271620501E+02 -0.33854896693E+03  0.34379141187E+03  0.47000000000E+01 0.  1.
          1    1    1    2  502    0 -0.85012966178E+02  0.13191782031E+03  0.60284681507E+03  0.62293964248E+03  0.00000000000E+00 0. -1.
          1    1    1    2  503    0 -0.97786566506E+01  0.18021066358E+02 -0.12081928724E+04  0.12083668309E+04  0.00000000000E+00 0. -1.
<mgrwt>
<rscale>  0 0.56764886E+02</rscale>
<asrwt>0</asrwt>
<pdfrwt beam="1">  1        2 0.10216633E+00 0.15715855E+03</pdfrwt>
<pdfrwt beam="2">  1        2 0.39085928E+00 0.20503194E+02</pdfrwt>
<totfact> 0.39251738E+01</totfact>
</mgrwt>
</event>
<event>
13    1  0.1675423E-008  0.2865791E+03  0.7546771E-02  0.1255737E+00
          2   -1    0    0  502    0  0.00000000000E+00  0.00000000000E+00  0.90514322018E+03  0.90514322018E+03  0.00000000000E+00 0. -1.
          2   -1    0    0  503    0 -0.00000000000E+00 -0.00000000000E+00 -0.39499355216E+04  0.39499355216E+04  0.00000000000E+00 0. -1.
         24    2    1    2    0    0 -0.16497223414E+03 -0.56851152756E+02  0.48752015775E+02  0.19790337943E+03  0.79631004915E+02 0.  0.
         25    2    1    2    0    0 -0.14965628447E+02 -0.11312419056E+03 -0.61842548401E+03  0.64116956112E+03  0.12500909694E+03 0.  0.
         24    2    1    2    0    0 -0.13680201063E+03  0.15094177693E+03 -0.23239630552E+04  0.23343064519E+04  0.81756462407E+02 0.  0.
        -11    1    5    5    0    0 -0.88849257716E+02  0.40901463669E+02 -0.11876912352E+04  0.11917120418E+04  0.00000000000E+00 0.  1.
         12    1    5    5    0    0 -0.47952752918E+02  0.11004031326E+03 -0.11362718200E+04  0.11425944101E+04  0.00000000000E+00 0. -1.
        -11    1    3    3    0    0 -0.14203975078E+02  0.15779227337E+02 -0.55841182763E+01  0.21952660437E+02  0.00000000000E+00 0.  1.
         12    1    3    3    0    0 -0.15076825906E+03 -0.72630380093E+02  0.54336134051E+02  0.17595071900E+03  0.00000000000E+00 0. -1.
          5    1    4    4  501    0  0.51048255634E+02 -0.74232900598E+02 -0.28115636257E+03  0.29527519054E+03  0.47000000000E+01 0. -1.
         -5    1    4    4    0  501 -0.66013884082E+02 -0.38891289961E+02 -0.33726912143E+03  0.34589437058E+03  0.47000000000E+01 0. -1.
          1    1    1    2  502    0  0.34230015556E+03  0.55193953982E+02  0.72541193728E+03  0.80401383557E+03  0.00000000000E+00 0. -1.
          1    1    1    2  503    0 -0.25560282343E+02 -0.36160387595E+02 -0.87656771529E+03  0.87768551381E+03  0.00000000000E+00 0. -1.
<mgrwt>
<rscale>  0 0.11265131E+03</rscale>
<asrwt>0</asrwt>
<pdfrwt beam="1">  1        2 0.13310930E+00 0.28657913E+03</pdfrwt>
<pdfrwt beam="2">  1        2 0.58087285E+00 0.44282069E+02</pdfrwt>
<totfact> 0.47396018E+00</totfact>
</mgrwt>
</event>
<event>
13    1  0.1675423E-008  0.5385956E+02  0.7546771E-02  0.1454915E+00
          2   -1    0    0  503    0  0.00000000000E+00  0.00000000000E+00  0.46167039516E+03  0.46167039516E+03  0.00000000000E+00 0. -1.
          2   -1    0    0  502    0 -0.00000000000E+00 -0.00000000000E+00 -0.20393188542E+04  0.20393188542E+04  0.00000000000E+00 0. -1.
         24    2    1    2    0    0  0.19163205134E+02 -0.44651214565E+00  0.24976366298E+03  0.26282526657E+03  0.79547505299E+02 0.  0.
         25    2    1    2    0    0 -0.94781074067E+02  0.25082553011E+03 -0.89071983694E+03  0.93856506740E+03  0.12500263704E+03 0.  0.
         24    2    1    2    0    0  0.80846348014E+02 -0.21281122529E+03 -0.30648328773E+02  0.24340024584E+03  0.80496024861E+02 0.  0.
        -13    1    3    3    0    0  0.45595462376E+02 -0.17742204508E+02  0.17381305561E+03  0.18056774438E+03  0.00000000000E+00 0.  1.
         14    1    3    3    0    0 -0.26432257243E+02  0.17295692363E+02  0.75950607373E+02  0.82257522194E+02  0.00000000000E+00 0. -1.
        -13    1    5    5    0    0 -0.24150452203E+01 -0.78215301014E+02  0.12764669923E+02  0.79286837208E+02  0.00000000000E+00 0.  1.
         14    1    5    5    0    0  0.83261393234E+02 -0.13459592428E+03 -0.43412998695E+02  0.16411340863E+03  0.00000000000E+00 0. -1.
          5    1    4    4  501    0 -0.51993516535E+02  0.10740001921E+03 -0.59755219194E+03  0.60936754260E+03  0.47000000000E+01 0.  1.
         -5    1    4    4    0  501 -0.42787557532E+02  0.14342551090E+03 -0.29316764501E+03  0.32919752480E+03  0.47000000000E+01 0.  1.
          1    1    1    2  502    0 -0.43245255081E+02  0.98562614625E+00 -0.97081461328E+03  0.97177782281E+03  0.00000000000E+00 0. -1.
          1    1    1    2  503    0  0.38016776000E+02 -0.38553418817E+02  0.64770656971E+02  0.84420846741E+02  0.00000000000E+00 0. -1.
<mgrwt>
<rscale>  0 0.48267746E+02</rscale>
<asrwt>0</asrwt>
<pdfrwt beam="1">  1        2 0.67892705E-01 0.53859561E+02</pdfrwt>
<pdfrwt beam="2">  1        2 0.29989983E+00 0.43256486E+02</pdfrwt>
<totfact> 0.10868129E+02</totfact>
</mgrwt>
</event>
<event>
13    1  0.1675423E-008  0.9296595E+02  0.7546771E-02  0.1315330E+00
          2   -1    0    0  503    0  0.00000000000E+00  0.00000000000E+00  0.14915513044E+04  0.14915513044E+04  0.00000000000E+00 0. -1.
          2   -1    0    0  502    0 -0.00000000000E+00 -0.00000000000E+00 -0.76513554448E+03  0.76513554448E+03  0.00000000000E+00 0. -1.
         24    2    1    2    0    0 -0.17902997650E+02 -0.36961960905E+02  0.32556913962E+03  0.33801412517E+03  0.81065283934E+02 0.  0.
         25    2    1    2    0    0  0.63522794487E+02  0.14950884330E+03 -0.37476180871E+03  0.42714862139E+03  0.12498596658E+03 0.  0.
         24    2    1    2    0    0  0.10453882889E+03 -0.10541997849E+03  0.55439983715E+03  0.57978312281E+03  0.82143480907E+02 0.  0.
        -11    1    5    5    0    0  0.33865977019E+02 -0.85335809022E+02  0.37153657185E+03  0.38271207052E+03  0.00000000000E+00 0.  1.
         12    1    5    5    0    0  0.70672851868E+02 -0.20084169464E+02  0.18286326530E+03  0.19707105229E+03  0.00000000000E+00 0. -1.
        -11    1    3    3    0    0  0.14197244718E+02  0.18420353138E+02  0.50546065512E+02  0.55639697213E+02  0.00000000000E+00 0.  1.
         12    1    3    3    0    0 -0.32100242368E+02 -0.55382314042E+02  0.27502307411E+03  0.28237442795E+03  0.00000000000E+00 0. -1.
          5    1    4    4  501    0  0.40594331319E+02  0.10772093785E+03 -0.35851435473E+03  0.37657181617E+03  0.47000000000E+01 0. -1.
         -5    1    4    4    0  501  0.22928463168E+02  0.41787905450E+02 -0.16247453978E+02  0.50576805217E+02  0.47000000000E+01 0. -1.
          1    1    1    2  502    0 -0.85406448069E+02  0.35980152969E+02 -0.33629780715E+03  0.34883383992E+03  0.00000000000E+00 0. -1.
          1    1    1    2  503    0 -0.64752177655E+02 -0.43107056880E+02  0.55750639903E+03  0.56290713961E+03  0.00000000000E+00 0. -1.
<mgrwt>
<rscale>  0 0.85039339E+02</rscale>
<asrwt>0</asrwt>
<pdfrwt beam="1">  1        2 0.21934578E+00 0.77788578E+02</pdfrwt>
<pdfrwt beam="2">  1        2 0.11251993E+00 0.92965952E+02</pdfrwt>
<totfact> 0.10566920E+02</totfact>
</mgrwt>
</event>
<event>
13    1  0.1675423E-008  0.2178139E+03  0.7546771E-02  0.1355493E+00
          2   -1    0    0  502    0  0.00000000000E+00  0.00000000000E+00  0.40188364715E+03  0.40188364715E+03  0.00000000000E+00 0. -1.
          2   -1    0    0  503    0 -0.00000000000E+00 -0.00000000000E+00 -0.17260826488E+04  0.17260826488E+04  0.00000000000E+00 0. -1.
         24    2    1    2    0    0 -0.64794002001E+02 -0.16439551839E+02  0.84127457281E+02  0.13474059394E+03  0.81296230092E+02 0.  0.
         25    2    1    2    0    0  0.83417524657E+02  0.38146518917E+03 -0.44683106671E+02  0.41242686651E+03  0.12500066493E+03 0.  0.
         24    2    1    2    0    0  0.19961007790E+02 -0.11115807841E+03 -0.17640359031E+03  0.22338903175E+03  0.77652254347E+02 0.  0.
        -11    1    5    5    0    0 -0.69321849000E+01 -0.98421826665E+02 -0.16348112092E+03  0.19094760551E+03  0.00000000000E+00 0.  1.
         12    1    5    5    0    0  0.26893192690E+02 -0.12736251741E+02 -0.12922469386E+02  0.32441426240E+02  0.00000000000E+00 0. -1.
        -11    1    3    3    0    0 -0.61236431344E+02 -0.19074139935E+02  0.15518535592E+02  0.65989001242E+02  0.00000000000E+00 0.  1.
         12    1    3    3    0    0 -0.35575706571E+01  0.26345880957E+01  0.68608921689E+02  0.68751592700E+02  0.00000000000E+00 0. -1.
          5    1    4    4  501    0  0.31617078509E+02  0.24221830574E+03  0.29864335800E+02  0.24613678279E+03  0.47000000000E+01 0.  1.
         -5    1    4    4    0  501  0.51800446148E+02  0.13924688343E+03 -0.74547442470E+02  0.16629008372E+03  0.47000000000E+01 0.  1.
          1    1    1    2  502    0  0.16963076991E+02 -0.16098418644E+02  0.71489170162E+02  0.75217062654E+02  0.00000000000E+00 0. -1.
          1    1    1    2  503    0 -0.55547607437E+02 -0.23776914028E+03 -0.12587289321E+04  0.12821927411E+04  0.00000000000E+00 0. -1.
<mgrwt>
<rscale>  0 0.71370833E+02</rscale>
<asrwt>0</asrwt>
<pdfrwt beam="1">  1        2 0.59100536E-01 0.23386001E+02</pdfrwt>
<pdfrwt beam="2">  1        2 0.25383569E+00 0.21781388E+03</pdfrwt>
<totfact> 0.15084255E+02</totfact>
</mgrwt>
</event>
<event>
13    1  0.1675423E-008  0.1314244E+03  0.7546771E-02  0.1295928E+00
          2   -1    0    0  502    0  0.00000000000E+00  0.00000000000E+00  0.25580901133E+04  0.25580901133E+04  0.00000000000E+00 0. -1.
          2   -1    0    0  503    0 -0.00000000000E+00 -0.00000000000E+00 -0.10870893588E+04  0.10870893588E+04  0.00000000000E+00 0. -1.
         24    2    1    2    0    0 -0.73627901011E+02 -0.71647988075E+02  0.10051310626E+04  0.10137590022E+04  0.82851431413E+02 0.  0.
         25    2    1    2    0    0  0.13821788192E+03  0.11840198654E+02 -0.22070824277E+03  0.28911105622E+03  0.12501480397E+03 0.  0.
         24    2    1    2    0    0 -0.53205640374E+02 -0.55639020256E+02  0.19752972284E+02  0.11413661156E+03  0.81917308554E+02 0.  0.
        -11    1    3    3    0    0  0.11503110982E+02  0.75443356120E+00  0.26378749336E+03  0.26403926296E+03  0.00000000000E+00 0.  1.
         12    1    3    3    0    0 -0.85131011993E+02 -0.72402421636E+02  0.74134356920E+03  0.74971973927E+03  0.00000000000E+00 0. -1.
        -13    1    5    5    0    0 -0.51710542361E+02 -0.42006808545E+02  0.48419247634E+02  0.82358822824E+02  0.00000000000E+00 0.  1.
         14    1    5    5    0    0 -0.14950980123E+01 -0.13632211711E+02 -0.28666275350E+02  0.31777788732E+02  0.00000000000E+00 0. -1.
          5    1    4    4  501    0  0.28306125585E+02 -0.18161398720E+02 -0.15250707135E+03  0.15624202367E+03  0.47000000000E+01 0.  1.
         -5    1    4    4    0  501  0.10991175634E+03  0.30001597374E+02 -0.68201171424E+02  0.13286903255E+03  0.47000000000E+01 0.  1.
          1    1    1    2  502    0  0.54069493074E+02  0.12110912553E+03  0.14430701776E+04  0.14491523273E+04  0.00000000000E+00 0. -1.
          1    1    1    2  503    0 -0.65453833614E+02 -0.56623158519E+01 -0.77624521511E+03  0.77902047479E+03  0.00000000000E+00 0. -1.
<mgrwt>
<rscale>  0 0.92921244E+02</rscale>
<asrwt>0</asrwt>
<pdfrwt beam="1">  1        2 0.37618972E+00 0.13142438E+03</pdfrwt>
<pdfrwt beam="2">  1        2 0.15986608E+00 0.65698296E+02</pdfrwt>
<totfact> 0.19715711E+01</totfact>
</mgrwt>
</event>
<event>
13    1  0.1675423E-008  0.6065079E+02  0.7546771E-02  0.1435015E+00
          2   -1    0    0  503    0  0.00000000000E+00  0.00000000000E+00  0.23593227871E+04  0.23593227871E+04  0.00000000000E+00 0. -1.
          2   -1    0    0  502    0 -0.00000000000E+00 -0.00000000000E+00 -0.18695424664E+04  0.18695424664E+04  0.00000000000E+00 0. -1.
         24    2    1    2    0    0  0.31628282853E+03 -0.21802530808E+03  0.63219575913E+03  0.74419793647E+03  0.81174061150E+02 0.  0.
         25    2    1    2    0    0 -0.17110689624E+03  0.23026676081E+02 -0.33029013092E+03  0.39309586672E+03  0.12499996840E+03 0.  0.
         24    2    1    2    0    0 -0.13195884950E+03  0.15633172530E+03  0.55391568877E+02  0.22616932954E+03  0.78940442266E+02 0.  0.
        -13    1    3    3    0    0  0.11148819054E+03 -0.11838914683E+03  0.30331881966E+03  0.34416262592E+03  0.00000000000E+00 0.  1.
         14    1    3    3    0    0  0.20479463799E+03 -0.99636161248E+02  0.32887693946E+03  0.40003531055E+03  0.00000000000E+00 0. -1.
        -13    1    5    5    0    0 -0.40286758366E+02  0.13327605980E+02  0.35153069714E+02  0.55103414514E+02  0.00000000000E+00 0.  1.
         14    1    5    5    0    0 -0.91672091137E+02  0.14300411932E+03  0.20238499162E+02  0.17106591502E+03  0.00000000000E+00 0. -1.
          5    1    4    4  501    0 -0.14603560131E+03  0.36414805426E+02 -0.15742458267E+03  0.21784633147E+03  0.47000000000E+01 0.  1.
         -5    1    4    4    0  501 -0.25071294931E+02 -0.13388129345E+02 -0.17286554824E+03  0.17524953525E+03  0.47000000000E+01 0.  1.
          1    1    1    2  502    0  0.28797508054E+02  0.53407364265E+02 -0.13654549625E+04  0.13668024354E+04  0.00000000000E+00 0. -1.
          1    1    1    2  503    0 -0.42014590842E+02 -0.14740457565E+02  0.14979380861E+04  0.14985996852E+04  0.00000000000E+00 0. -1.
<mgrwt>
<rscale>  0 0.51966315E+02</rscale>
<asrwt>0</asrwt>
<pdfrwt beam="1">  1        2 0.34695923E+00 0.44525352E+02</pdfrwt>
<pdfrwt beam="2">  1        2 0.27493271E+00 0.60650794E+02</pdfrwt>
<totfact> 0.11797910E+01</totfact>
</mgrwt>
</event>
<event>
13    1  0.1675423E-008  0.6173728E+02  0.7546771E-02  0.1429211E+00
          2   -1    0    0  502    0  0.00000000000E+00  0.00000000000E+00  0.17055229365E+03  0.17055229365E+03  0.00000000000E+00 0. -1.
          2   -1    0    0  503    0 -0.00000000000E+00 -0.00000000000E+00 -0.38698510932E+04  0.38698510932E+04  0.00000000000E+00 0. -1.
         24    2    1    2    0    0 -0.41002947874E+02 -0.11171424998E+03 -0.26462020137E+03  0.30068360332E+03  0.78901602922E+02 0.  0.
         25    2    1    2    0    0  0.65013613337E+02  0.50868989839E+02 -0.75633897052E+03  0.77103102702E+03  0.12500312898E+03 0.  0.
         24    2    1    2    0    0 -0.58967343517E+01  0.78032905946E+02 -0.54815687746E+03  0.55968955165E+03  0.81563018776E+02 0.  0.
        -11    1    3    3    0    0 -0.61800121512E+02 -0.58358901182E+02 -0.17045495478E+03  0.19047285364E+03  0.00000000000E+00 0.  1.
         12    1    3    3    0    0  0.20797173638E+02 -0.53355348802E+02 -0.94165246594E+02  0.11021074967E+03  0.00000000000E+00 0. -1.
        -11    1    5    5    0    0  0.12671614777E+02 -0.13991305898E+02 -0.78002621801E+02  0.80254192847E+02  0.00000000000E+00 0.  1.
         12    1    5    5    0    0 -0.18568349128E+02  0.92024211843E+02 -0.47015425566E+03  0.47943535881E+03  0.00000000000E+00 0. -1.
          5    1    4    4  501    0 -0.24306284433E+02  0.54791717214E+02 -0.28732016165E+03  0.29354368164E+03  0.47000000000E+01 0.  1.
         -5    1    4    4    0  501  0.89319897770E+02 -0.39227273752E+01 -0.46901880887E+03  0.47748734538E+03  0.47000000000E+01 0.  1.
          1    1    1    2  502    0 -0.61805315053E+02 -0.37770693339E+01  0.13229025861E+03  0.14606462866E+03  0.00000000000E+00 0. -1.
          1    1    1    2  503    0  0.43691383942E+02 -0.13410576467E+02 -0.22624730088E+04  0.22629345762E+04  0.00000000000E+00 0. -1.
<mgrwt>
<rscale>  0 0.53118641E+02</rscale>
<asrwt>0</asrwt>
<pdfrwt beam="1">  1        2 0.25081221E-01 0.61737280E+02</pdfrwt>
<pdfrwt beam="2">  1        2 0.56909572E+00 0.45703179E+02</pdfrwt>
<totfact> 0.33767922E+01</totfact>
</mgrwt>
</event>
<event>
13    1  0.1675423E-008  0.1230754E+03  0.7546771E-02  0.1275293E+00
          2   -1    0    0  502    0  0.00000000000E+00  0.00000000000E+00  0.13166541946E+04  0.13166541946E+04  0.00000000000E+00 0. -1.
          2   -1    0    0  503    0 -0.00000000000E+00 -0.00000000000E+00 -0.15343010331E+04  0.15343010331E+04  0.00000000000E+00 0. -1.
         24    2    1    2    0    0 -0.30167600733E+03  0.28633308232E+02  0.55297411766E+03  0.63570894697E+03  0.80729243245E+02 0.  0.
         25    2    1    2    0    0  0.91885192382E+02  0.30198359971E+02  0.11048252830E+03  0.19283721712E+03  0.12499989488E+03 0.  0.
         24    2    1    2    0    0  0.30978159870E+03 -0.23319241477E+03 -0.14771226216E+03  0.41899755683E+03  0.58281206556E+02 0.  0.
        -13    1    3    3    0    0 -0.97050040892E+02  0.12238695215E+02  0.10828975481E+03  0.14592863699E+03  0.00000000000E+00 0.  1.
         14    1    3    3    0    0 -0.20462596644E+03  0.16394613017E+02  0.44468436285E+03  0.48978030998E+03  0.00000000000E+00 0. -1.
        -13    1    5    5    0    0  0.23146752197E+03 -0.14434349205E+03 -0.11571841112E+03  0.29631572368E+03  0.00000000000E+00 0.  1.
         14    1    5    5    0    0  0.78314076731E+02 -0.88848922716E+02 -0.31993851046E+02  0.12268183316E+03  0.00000000000E+00 0. -1.
          5    1    4    4  501    0  0.72204913853E+02 -0.41361334516E+02  0.52065406483E+02  0.98271084912E+02  0.47000000000E+01 0.  1.
         -5    1    4    4    0  501  0.19680278529E+02  0.71559694487E+02  0.58417121821E+02  0.94566132203E+02  0.47000000000E+01 0.  1.
          1    1    1    2  502    0 -0.79580227746E+02  0.91614066513E+02  0.42495091078E+03  0.44193826085E+03  0.00000000000E+00 0. -1.
          1    1    1    2  503    0 -0.20410556013E+02  0.82746680053E+02 -0.11583421331E+04  0.11614732460E+04  0.00000000000E+00 0. -1.
<mgrwt>
<rscale>  0 0.10241737E+03</rscale>
<asrwt>0</asrwt>
<pdfrwt beam="1">  1        2 0.19362562E+00 0.12307538E+03</pdfrwt>
<pdfrwt beam="2">  1        2 0.22563251E+00 0.85226779E+02</pdfrwt>
<totfact> 0.47468911E+01</totfact>
</mgrwt>
</event>
<event>
13    1  0.1675423E-008  0.1035803E+03  0.7546771E-02  0.1468597E+00
          2   -1    0    0  503    0  0.00000000000E+00  0.00000000000E+00  0.15229627052E+03  0.15229627052E+03  0.00000000000E+00 0. -1.
          2   -1    0    0  502    0 -0.00000000000E+00 -0.00000000000E+00 -0.28652626950E+04  0.28652626950E+04  0.00000000000E+00 0. -1.
         24    2    1    2    0    0 -0.77934629748E+02 -0.53206348534E+02  0.30885944063E+02  0.12805733037E+03  0.80870367140E+02 0.  0.
         25    2    1    2    0    0  0.13523103150E+03  0.82505989162E+02 -0.13020437461E+04  0.13175879426E+04  0.12500159850E+03 0.  0.
         24    2    1    2    0    0  0.18758113485E+02 -0.84501485075E+02 -0.20402755053E+03  0.23497400264E+03  0.78058777474E+02 0.  0.
        -11    1    5    5    0    0  0.37671655307E+02 -0.22271644281E+02 -0.12605683941E+03  0.13343727558E+03  0.00000000000E+00 0.  1.
         12    1    5    5    0    0 -0.18913541821E+02 -0.62229840794E+02 -0.77970711117E+02  0.10153672706E+03  0.00000000000E+00 0. -1.
        -13    1    3    3    0    0  0.22225397696E+01 -0.38799120565E+02 -0.47662432411E+01  0.39153908033E+02  0.00000000000E+00 0.  1.
         14    1    3    3    0    0 -0.80157169517E+02 -0.14407227969E+02  0.35652187304E+02  0.88903422332E+02  0.00000000000E+00 0. -1.
          5    1    4    4  501    0  0.79274859498E+02  0.10469184648E+03 -0.67698636426E+03  0.68962128263E+03  0.47000000000E+01 0. -1.
         -5    1    4    4    0  501  0.55956172002E+02 -0.22185857316E+02 -0.62505738182E+03  0.62796665996E+03  0.47000000000E+01 0. -1.
          1    1    1    2  502    0 -0.41984428137E+01 -0.19932093443E+02 -0.12326830086E+04  0.12328512947E+04  0.00000000000E+00 0. -1.
          1    1    1    2  503    0 -0.71856072423E+02  0.75133937890E+02 -0.50980633736E+01  0.10408839521E+03  0.00000000000E+00 0. -1.
<mgrwt>
<rscale>  0 0.45933388E+02</rscale>
<asrwt>0</asrwt>
<pdfrwt beam="1">  1        2 0.22396511E-01 0.10358032E+03</pdfrwt>
<pdfrwt beam="2">  1        2 0.42136215E+00 0.20369469E+02</pdfrwt>
<totfact> 0.16232330E+02</totfact>
</mgrwt>
</event>
<event>
13    1  0.1675423E-008  0.1319571E+03  0.7546771E-02  0.1238525E+00
          2   -1    0    0  503    0  0.00000000000E+00  0.00000000000E+00  0.14276392403E+04  0.14276392403E+04  0.00000000000E+00 0. -1.
          2   -1    0    0  502    0 -0.00000000000E+00 -0.00000000000E+00 -0.10412184867E+04  0.10412184867E+04  0.00000000000E+00 0. -1.
         24    2    1    2    0    0 -0.62477173853E+02  0.16433150582E+02  0.37512233771E+03  0.38911172321E+03  0.80732392510E+02 0.  0.
         25    2    1    2    0    0  0.12081537803E+03  0.14856552991E+03 -0.54761798372E+02  0.23514380015E+03  0.12500271974E+03 0.  0.
         24    2    1    2    0    0  0.12239958947E+03  0.89186051104E+02 -0.26120064647E+03  0.31254288424E+03  0.80755591489E+02 0.  0.
        -11    1    3    3    0    0 -0.74840782172E+02 -0.82370494363E+01  0.29078841140E+03  0.30037791508E+03  0.00000000000E+00 0.  1.
         12    1    3    3    0    0  0.12363608319E+02  0.24670200018E+02  0.84333926308E+02  0.88733808135E+02  0.00000000000E+00 0. -1.
        -13    1    5    5    0    0  0.83666971225E+02  0.95956963101E+02 -0.16345137050E+03  0.20718168684E+03  0.00000000000E+00 0.  1.
         14    1    5    5    0    0  0.38732618248E+02 -0.67709119976E+01 -0.97749275963E+02  0.10536119740E+03  0.00000000000E+00 0. -1.
          5    1    4    4  501    0  0.97896464904E+02  0.25060358559E+02 -0.97706626380E+01  0.10163314056E+03  0.47000000000E+01 0.  1.
         -5    1    4    4    0  501  0.22918913129E+02  0.12350517135E+03 -0.44991135734E+02  0.13351065959E+03  0.47000000000E+01 0.  1.
          1    1    1    2  502    0 -0.15043443009E+03 -0.94440201119E+02 -0.58193530149E+03  0.60843912141E+03  0.00000000000E+00 0. -1.
          1    1    1    2  503    0 -0.30303363567E+02 -0.15974453048E+03  0.90919616218E+03  0.92362019801E+03  0.00000000000E+00 0. -1.
<mgrwt>
<rscale>  0 0.12281461E+03</rscale>
<asrwt>0</asrwt>
<pdfrwt beam="1">  1        2 0.20994695E+00 0.13195712E+03</pdfrwt>
<pdfrwt beam="2">  1        2 0.15312037E+00 0.11430553E+03</pdfrwt>
<totfact> 0.73403906E+01</totfact>
</mgrwt>
</event>
<event>
13    1  0.1675423E-008  0.2172753E+03  0.7546771E-02  0.1176894E+00
          2   -1    0    0  502    0  0.00000000000E+00  0.00000000000E+00  0.27456953447E+04  0.27456953447E+04  0.00000000000E+00 0. -1.
          2   -1    0    0  503    0 -0.00000000000E+00 -0.00000000000E+00 -0.29576039696E+04  0.29576039696E+04  0.00000000000E+00 0. -1.
         24    2    1    2    0    0  0.78011937829E+02  0.18895159605E+02 -0.21586073514E+03  0.24364481295E+03  0.79523885731E+02 0.  0.
         25    2    1    2    0    0 -0.48579227405E+02  0.24216056348E+03 -0.79448654547E+03  0.84132956110E+03  0.12499951845E+03 0.  0.
         24    2    1    2    0    0 -0.11756457917E+03  0.96647587835E+02 -0.27937116420E+03  0.32790716957E+03  0.79452362837E+02 0.  0.
        -11    1    5    5    0    0 -0.44251731519E+02  0.86118688972E+02 -0.17373362528E+03  0.19889197291E+03  0.00000000000E+00 0.  1.
         12    1    5    5    0    0 -0.73312847653E+02  0.10528898862E+02 -0.10563753892E+03  0.12901519666E+03  0.00000000000E+00 0. -1.
        -11    1    3    3    0    0  0.21034102388E+02 -0.30764947325E+02 -0.65655251064E+02  0.75495214679E+02  0.00000000000E+00 0.  1.
         12    1    3    3    0    0  0.56977835441E+02  0.49660106931E+02 -0.15020548407E+03  0.16814959827E+03  0.00000000000E+00 0. -1.
          5    1    4    4  501    0 -0.81769758839E+02  0.22402133577E+03 -0.67431888471E+03  0.71526212021E+03  0.47000000000E+01 0.  1.
         -5    1    4    4    0  501  0.33190531434E+02  0.18139227707E+02 -0.12016766076E+03  0.12606744089E+03  0.47000000000E+01 0.  1.
          1    1    1    2  502    0  0.10722161804E+03 -0.18886892535E+03  0.26752076624E+04  0.26840089387E+04  0.00000000000E+00 0. -1.
          1    1    1    2  503    0 -0.19089749291E+02 -0.16883438557E+03 -0.15973978425E+04  0.16064088320E+04  0.00000000000E+00 0. -1.
<mgrwt>
<rscale>  0 0.17091745E+03</rscale>
<asrwt>0</asrwt>
<pdfrwt beam="1">  1        2 0.40377873E+00 0.21727530E+03</pdfrwt>
<pdfrwt beam="2">  1        2 0.43494176E+00 0.13445051E+03</pdfrwt>
<totfact> 0.16066494E+00</totfact>
</mgrwt>
</event>
<event>
13    1  0.1675423E-008  0.4575237E+02  0.7546771E-02  0.1533729E+00
          2   -1    0    0  502    0  0.00000000000E+00  0.00000000000E+00  0.37089482388E+04  0.37089482388E+04  0.00000000000E+00 0. -1.
          2   -1    0    0  503    0 -0.00000000000E+00 -0.00000000000E+00 -0.20676273008E+03  0.20676273008E+03  0.00000000000E+00 0. -1.
         24    2    1    2    0    0  0.50294635880E+03 -0.10570746767E+03  0.18413134112E+04  0.19143629859E+04  0.10110121075E+03 0.  0.
         25    2    1    2    0    0 -0.16315405376E+03 -0.11702823727E+02  0.72915197328E+03  0.75765645291E+03  0.12499799662E+03 0.  0.
         24    2    1    2    0    0 -0.32117133372E+03  0.10937503918E+03  0.95839740955E+02  0.36721412252E+03  0.10269873921E+03 0.  0.
        -11    1    5    5    0    0 -0.19576187054E+03  0.13392689969E+02  0.61118792898E+02  0.20551783608E+03  0.00000000000E+00 0.  1.
         12    1    5    5    0    0 -0.12540946318E+03  0.95982349214E+02  0.34720948058E+02  0.16169628645E+03  0.00000000000E+00 0. -1.
        -13    1    3    3    0    0  0.21487873052E+03  0.15512182198E+01  0.68698608219E+03  0.71980910819E+03  0.00000000000E+00 0.  1.
         14    1    3    3    0    0  0.28806762828E+03 -0.10725868589E+03  0.11543273290E+04  0.11945538777E+04  0.00000000000E+00 0. -1.
          5    1    4    4  501    0 -0.14223979774E+03  0.16908382624E+02  0.68962697974E+03  0.70436177824E+03  0.47000000000E+01 0.  1.
         -5    1    4    4    0  501 -0.20914256023E+02 -0.28611206351E+02  0.39524993541E+02  0.53294674671E+02  0.47000000000E+01 0.  1.
          1    1    1    2  502    0 -0.45699828590E+02 -0.36473624147E+01  0.84450672566E+03  0.84575019200E+03  0.00000000000E+00 0. -1.
          1    1    1    2  503    0  0.27078857269E+02  0.11682614628E+02 -0.86263423589E+01  0.30727215592E+02  0.00000000000E+00 0. -1.
<mgrwt>
<rscale>  0 0.36732893E+02</rscale>
<asrwt>0</asrwt>
<pdfrwt beam="1">  1        2 0.54543353E+00 0.45752365E+02</pdfrwt>
<pdfrwt beam="2">  1        2 0.30406286E-01 0.29491490E+02</pdfrwt>
<totfact> 0.33737644E+01</totfact>
</mgrwt>
</event>
<event>
13    1  0.1675423E-008  0.2578524E+03  0.7546771E-02  0.1252402E+00
          2   -1    0    0  502    0  0.00000000000E+00  0.00000000000E+00  0.23143881744E+04  0.23143881744E+04  0.00000000000E+00 0. -1.
          2   -1    0    0  503    0 -0.00000000000E+00 -0.00000000000E+00 -0.22738826476E+04  0.22738826476E+04  0.00000000000E+00 0. -1.
         24    2    1    2    0    0  0.21560265139E+03 -0.44027338993E+02  0.29305977606E+03  0.37551212682E+03  0.81868279444E+02 0.  0.
         25    2    1    2    0    0  0.12065346612E+03  0.64471298979E+02 -0.50181871110E+03  0.53494052870E+03  0.12500217262E+03 0.  0.
         24    2    1    2    0    0  0.11861967627E+02  0.16701031601E+03 -0.48397187476E+01  0.18566907851E+03  0.80102633604E+02 0.  0.
        -11    1    5    5    0    0  0.27900039026E+02  0.17238518286E+02  0.10064176957E+02  0.34305485686E+02  0.00000000000E+00 0.  1.
         12    1    5    5    0    0 -0.16038071399E+02  0.14977179772E+03 -0.14903895705E+02  0.15136359283E+03  0.00000000000E+00 0. -1.
        -13    1    3    3    0    0  0.21935805671E+03 -0.31378066629E+02  0.27693861495E+03  0.35467948427E+03  0.00000000000E+00 0.  1.
         14    1    3    3    0    0 -0.37554053129E+01 -0.12649272364E+02  0.16121161108E+02  0.20832642556E+02  0.00000000000E+00 0. -1.
          5    1    4    4  501    0  0.83951764650E+02  0.19734147942E+02 -0.44640575527E+03  0.45468398225E+03  0.47000000000E+01 0.  1.
         -5    1    4    4    0  501  0.36701701471E+02  0.44737151037E+02 -0.55412955833E+02  0.80256546449E+02  0.47000000000E+01 0.  1.
          1    1    1    2  502    0 -0.39869086444E+03 -0.18194989936E+03  0.18470814031E+04  0.18983597870E+04  0.00000000000E+00 0. -1.
          1    1    1    2  503    0  0.50572779301E+02 -0.55043766331E+01 -0.15929772225E+04  0.15937893009E+04  0.00000000000E+00 0. -1.
<mgrwt>
<rscale>  0 0.11453088E+03</rscale>
<asrwt>0</asrwt>
<pdfrwt beam="1">  1        2 0.34035120E+00 0.25785238E+03</pdfrwt>
<pdfrwt beam="2">  1        2 0.33439451E+00 0.50871447E+02</pdfrwt>
<totfact> 0.66213646E+00</totfact>
</mgrwt>
</event>
<event>
13    1  0.1675423E-008  0.1858827E+03  0.7546771E-02  0.1352092E+00
          2   -1    0    0  502    0  0.00000000000E+00  0.00000000000E+00  0.15015835490E+04  0.15015835490E+04  0.00000000000E+00 0. -1.
          2   -1    0    0  503    0 -0.00000000000E+00 -0.00000000000E+00 -0.87903893201E+03  0.87903893201E+03  0.00000000000E+00 0. -1.
         24    2    1    2    0    0 -0.85769263795E+02  0.16391846971E+03  0.95878720938E+03  0.97963168256E+03  0.78610999780E+02 0.  0.
         25    2    1    2    0    0  0.40063030676E+03 -0.98840715660E+02  0.10395480064E+02  0.43128674733E+03  0.12500425052E+03 0.  0.
         24    2    1    2    0    0  0.37779646277E+02 -0.26933950401E+02 -0.31040339436E+03  0.32402910631E+03  0.80572049429E+02 0.  0.
        -11    1    5    5    0    0  0.32445416975E+02 -0.49879908515E+02 -0.27594436234E+03  0.28228709050E+03  0.00000000000E+00 0.  1.
         12    1    5    5    0    0  0.53342293021E+01  0.22945958114E+02 -0.34459032014E+02  0.41742015804E+02  0.00000000000E+00 0. -1.
        -11    1    3    3    0    0 -0.50660415489E+02  0.23360662539E+02  0.29309467963E+03  0.29835664813E+03  0.00000000000E+00 0.  1.
         12    1    3    3    0    0 -0.35108848306E+02  0.14055780717E+03  0.66569252974E+03  0.68127503443E+03  0.00000000000E+00 0. -1.
          5    1    4    4  501    0  0.38460761903E+03 -0.80503162129E+02  0.37249908817E+02  0.39473209324E+03  0.47000000000E+01 0. -1.
         -5    1    4    4    0  501  0.16022687731E+02 -0.18337553531E+02 -0.26854428753E+02  0.36554654085E+02  0.47000000000E+01 0. -1.
          1    1    1    2  502    0  0.23034841183E+02  0.16276884917E+02  0.19775392619E+03  0.19975524077E+03  0.00000000000E+00 0. -1.
          1    1    1    2  503    0 -0.37567553043E+03 -0.54420688564E+02 -0.23398860430E+03  0.44591970403E+03  0.00000000000E+00 0. -1.
<mgrwt>
<rscale>  0 0.72407764E+02</rscale>
<asrwt>0</asrwt>
<pdfrwt beam="1">  1        2 0.22082111E+00 0.28205334E+02</pdfrwt>
<pdfrwt beam="2">  1        2 0.12927043E+00 0.18588272E+03</pdfrwt>
<totfact> 0.93482085E+01</totfact>
</mgrwt>
</event>
<event>
13    1  0.1675423E-008  0.1130495E+03  0.7546771E-02  0.1369528E+00
          2   -1    0    0  502    0  0.00000000000E+00  0.00000000000E+00  0.12151646674E+04  0.12151646674E+04  0.00000000000E+00 0. -1.
          2   -1    0    0  503    0 -0.00000000000E+00 -0.00000000000E+00 -0.13538036921E+04  0.13538036921E+04  0.00000000000E+00 0. -1.
         24    2    1    2    0    0 -0.51239432735E+02 -0.12973402379E+02  0.27295749988E+03  0.28943645828E+03  0.80460412638E+02 0.  0.
         25    2    1    2    0    0 -0.95237444737E+02  0.41558558461E+02  0.16608476882E+03  0.23239188896E+03  0.12499821981E+03 0.  0.
         24    2    1    2    0    0  0.44397382603E+02  0.61158939167E+02 -0.73124648568E+03  0.73952640489E+03  0.80413539234E+02 0.  0.
        -11    1    3    3    0    0 -0.21793473917E-01  0.14325590366E+02  0.17493284585E+03  0.17551844226E+03  0.00000000000E+00 0.  1.
         12    1    3    3    0    0 -0.51217639261E+02 -0.27298992745E+02  0.98024654030E+02  0.11391801602E+03  0.00000000000E+00 0. -1.
        -13    1    5    5    0    0  0.44540433248E+02  0.64843398279E+02 -0.37042803979E+03  0.37868911940E+03  0.00000000000E+00 0.  1.
         14    1    5    5    0    0 -0.14305064554E+00 -0.36844591122E+01 -0.36081844589E+03  0.36083728549E+03  0.00000000000E+00 0. -1.
          5    1    4    4  501    0 -0.12431910955E+03  0.24603710751E+02  0.11603608899E+03  0.17189254647E+03  0.47000000000E+01 0.  1.
         -5    1    4    4    0  501  0.29081664811E+02  0.16954847710E+02  0.50048679829E+02  0.60499342489E+02  0.47000000000E+01 0.  1.
          1    1    1    2  502    0  0.14212838547E+03 -0.88679479418E+02  0.72026952972E+03  0.73949491105E+03  0.00000000000E+00 0. -1.
          1    1    1    2  503    0 -0.40048890597E+02 -0.10646158307E+01 -0.56670433747E+03  0.56811869636E+03  0.00000000000E+00 0. -1.
<mgrwt>
<rscale>  0 0.67298648E+02</rscale>
<asrwt>0</asrwt>
<pdfrwt beam="1">  1        2 0.17870069E+00 0.11304954E+03</pdfrwt>
<pdfrwt beam="2">  1        2 0.19908878E+00 0.40063038E+02</pdfrwt>
<totfact> 0.70022238E+01</totfact>
</mgrwt>
</event>
<event>
13    1  0.1675423E-008  0.1042733E+03  0.7546771E-02  0.1301727E+00
          2   -1    0    0  503    0  0.00000000000E+00  0.00000000000E+00  0.26667456671E+04  0.26667456671E+04  0.00000000000E+00 0. -1.
         -3   -1    0    0    0  501 -0.00000000000E+00 -0.00000000000E+00 -0.13040107052E+04  0.13040107052E+04  0.00000000000E+00 0.  1.
         24    2    1    2    0    0 -0.21565505535E+02 -0.79605690525E+02  0.74536676285E+03  0.75420199584E+03  0.80292604743E+02 0.  0.
         25    2    1    2    0    0  0.11057219994E+03  0.29457463127E+02 -0.50596792520E+03  0.53359216868E+03  0.12499243020E+03 0.  0.
         24    2    1    2    0    0 -0.72242499999E+02  0.15915885885E+03  0.17094973196E+03  0.25658345471E+03  0.77850736795E+02 0.  0.
        -11    1    5    5    0    0 -0.61633596795E+02  0.12891571476E+03  0.17310369759E+03  0.22446124807E+03  0.00000000000E+00 0.  1.
         12    1    5    5    0    0 -0.10608903204E+02  0.30243144091E+02 -0.21539656317E+01  0.32122206644E+02  0.00000000000E+00 0. -1.
        -11    1    3    3    0    0  0.95678429325E+01 -0.64895588733E+02  0.63996841433E+03  0.64332150002E+03  0.00000000000E+00 0.  1.
         12    1    3    3    0    0 -0.31133348467E+02 -0.14710101792E+02  0.10539834852E+03  0.11088049582E+03  0.00000000000E+00 0. -1.
          5    1    4    4  502    0  0.87011104522E+02  0.76910161028E+02 -0.35297109309E+03  0.37161376151E+03  0.47000000000E+01 0.  1.
         -5    1    4    4    0  502  0.23561095414E+02 -0.47452697901E+02 -0.15299683211E+03  0.16197840717E+03  0.47000000000E+01 0.  1.
          1    1    1    2  503    0  0.58412735208E+02 -0.86456173961E+02  0.16856752836E+04  0.16889013824E+04  0.00000000000E+00 0. -1.
         -4    1    1    2    0  501 -0.75176929609E+02 -0.22554457487E+02 -0.73328889127E+03  0.73747737075E+03  0.00000000000E+00 0.  1.
<mgrwt>
<rscale>  0 0.90466237E+02</rscale>
<asrwt>0</asrwt>
<pdfrwt beam="1">  1        2 0.39216848E+00 0.10427328E+03</pdfrwt>
<pdfrwt beam="2">  1       -3 0.19176628E+00 0.78487415E+02</pdfrwt>
<totfact> 0.49041069E-01</totfact>
</mgrwt>
</event>
<event>
13    1  0.1675423E-008  0.3221388E+03  0.7546771E-02  0.1101921E+00
          2   -1    0    0  503    0  0.00000000000E+00  0.00000000000E+00  0.11244368479E+04  0.11244368479E+04  0.00000000000E+00 0. -1.
         -1   -1    0    0    0  501 -0.00000000000E+00 -0.00000000000E+00 -0.82262647365E+03  0.82262647365E+03  0.00000000000E+00 0.  1.
         24    2    1    2    0    0 -0.73707203413E+01 -0.27791406156E+03 -0.79969661751E+02  0.30011355608E+03  0.79890215982E+02 0.  0.
         25    2    1    2    0    0  0.27301583779E+03  0.43167628154E+03 -0.75370495992E+02  0.53120252474E+03  0.12495339489E+03 0.  0.
         24    2    1    2    0    0 -0.34554656256E+02 -0.62694928825E+02  0.36666548572E+02  0.11443400038E+03  0.81400407185E+02 0.  0.
        -13    1    5    5    0    0  0.63409439638E+01  0.11162923669E+02  0.26440906686E+02  0.29392855961E+02  0.00000000000E+00 0.  1.
         14    1    5    5    0    0 -0.40895600220E+02 -0.73857852495E+02  0.10225641886E+02  0.85041144421E+02  0.00000000000E+00 0. -1.
        -13    1    3    3    0    0 -0.27101835700E+02 -0.20115482369E+03 -0.86404596455E+02  0.22059811169E+03  0.00000000000E+00 0.  1.
         14    1    3    3    0    0  0.19731115359E+02 -0.76759237868E+02  0.64349347040E+01  0.79515444387E+02  0.00000000000E+00 0. -1.
          5    1    4    4  502    0  0.15129411193E+03  0.32411106925E+03 -0.87443328642E+02  0.36824763304E+03  0.47000000000E+01 0. -1.
         -5    1    4    4    0  502  0.12172172586E+03  0.10756521230E+03  0.12072832650E+02  0.16295489170E+03  0.47000000000E+01 0. -1.
          1    1    1    2  503    0 -0.51193659231E+03  0.37484116686E+02  0.46083336782E+03  0.68981992320E+03  0.00000000000E+00 0. -1.
         -2    1    1    2    0  501  0.28084613112E+03 -0.12855140784E+03 -0.40349384380E+02  0.31149331717E+03  0.00000000000E+00 0.  1.
<mgrwt>
<rscale>  0 0.26888153E+03</rscale>
<asrwt>0</asrwt>
<pdfrwt beam="1">  1        2 0.16535836E+00 0.22442900E+03</pdfrwt>
<pdfrwt beam="2">  1       -1 0.12097448E+00 0.32213876E+03</pdfrwt>
<totfact> 0.17795432E+01</totfact>
</mgrwt>
</event>
<event>
13    1  0.1675423E-008  0.1953156E+03  0.7546771E-02  0.1278547E+00
         -1   -1    0    0    0  501 -0.00000000000E+00  0.00000000000E+00  0.36075859977E+03  0.36075859977E+03  0.00000000000E+00 0.  1.
          2   -1    0    0  503    0  0.00000000000E+00 -0.00000000000E+00 -0.21165423546E+04  0.21165423546E+04  0.00000000000E+00 0. -1.
         24    2    1    2    0    0 -0.17883496940E+02  0.13332490206E+02 -0.23220419971E+03  0.24600616844E+03  0.78119586464E+02 0.  0.
         25    2    1    2    0    0  0.15087605570E+03  0.85695534618E+02 -0.11805521219E+04  0.11997650960E+04  0.12500265701E+03 0.  0.
         24    2    1    2    0    0  0.33394720797E+02 -0.56884485694E+02 -0.10775861337E+03  0.15013093559E+03  0.81094555772E+02 0.  0.
        -11    1    3    3    0    0 -0.31913447764E+02  0.73363012426E+01 -0.33960944887E+02  0.47176638728E+02  0.00000000000E+00 0.  1.
         12    1    3    3    0    0  0.14029950824E+02  0.59961889638E+01 -0.19824325482E+03  0.19882952971E+03  0.00000000000E+00 0. -1.
        -11    1    5    5    0    0  0.20982104689E+02  0.21222309790E+01  0.55234959468E+01  0.21800495154E+02  0.00000000000E+00 0.  1.
         12    1    5    5    0    0  0.12412616108E+02 -0.59006716673E+02 -0.11328210932E+03  0.12833044044E+03  0.00000000000E+00 0. -1.
          5    1    4    4  502    0  0.84905848393E+02  0.93300272494E+02 -0.48958042398E+03  0.50559373561E+03  0.47000000000E+01 0.  1.
         -5    1    4    4    0  502  0.65970207306E+02 -0.76047378755E+01 -0.69097169787E+03  0.69417136036E+03  0.47000000000E+01 0.  1.
          1    1    1    2  503    0  0.30039650650E+02 -0.42518095200E+02 -0.52707492042E+03  0.52963963293E+03  0.00000000000E+00 0. -1.
         -2    1    1    2    0  501 -0.19642693021E+03  0.37455606886E+00  0.29180610053E+03  0.35175912143E+03  0.00000000000E+00 0.  1.
<mgrwt>
<rscale>  0 0.10083645E+03</rscale>
<asrwt>0</asrwt>
<pdfrwt beam="2">  1        2 0.31125623E+00 0.52059284E+02</pdfrwt>
<pdfrwt beam="1">  1       -1 0.53052735E-01 0.19531558E+03</pdfrwt>
<totfact> 0.36842090E+01</totfact>
</mgrwt>
</event>
<event>
13    1  0.1675423E-008  0.1493329E+03  0.7546771E-02  0.1319901E+00
          2   -1    0    0  502    0  0.00000000000E+00  0.00000000000E+00  0.10936970524E+04  0.10936970524E+04  0.00000000000E+00 0. -1.
          2   -1    0    0  503    0 -0.00000000000E+00 -0.00000000000E+00 -0.13475036760E+04  0.13475036760E+04  0.00000000000E+00 0. -1.
         24    2    1    2    0    0 -0.17878164322E+03  0.12308962243E+03  0.21921974539E+03  0.31875025961E+03  0.80190399236E+02 0.  0.
         25    2    1    2    0    0 -0.19268434661E+03 -0.10815458512E+03  0.20997804074E+03  0.32945381208E+03  0.12499745992E+03 0.  0.
         24    2    1    2    0    0  0.22612756133E+03 -0.13747791709E+03 -0.80408818989E+03  0.85028871382E+03  0.79995175225E+02 0.  0.
        -11    1    5    5    0    0  0.95183626484E+02 -0.55844641786E+02 -0.21952580342E+03  0.24570332748E+03  0.00000000000E+00 0.  1.
         12    1    5    5    0    0  0.13094393484E+03 -0.81633275307E+02 -0.58456238647E+03  0.60458538634E+03  0.00000000000E+00 0. -1.
        -13    1    3    3    0    0 -0.82098121787E+02  0.90446445013E+02  0.79535789304E+02  0.14576214459E+03  0.00000000000E+00 0.  1.
         14    1    3    3    0    0 -0.96683521433E+02  0.32643177413E+02  0.13968395608E+03  0.17298811501E+03  0.00000000000E+00 0. -1.
          5    1    4    4  501    0 -0.18785040979E+03 -0.67332346601E+02  0.12659000331E+03  0.23636526880E+03  0.47000000000E+01 0.  1.
         -5    1    4    4    0  501 -0.48339368242E+01 -0.40822238518E+02  0.83388037437E+02  0.93088543282E+02  0.47000000000E+01 0.  1.
          1    1    1    2  502    0  0.21080843494E+02  0.41426501202E+02  0.51741980664E+03  0.51950342951E+03  0.00000000000E+00 0. -1.
          1    1    1    2  503    0  0.12425758501E+03  0.81116378585E+02 -0.39633602641E+03  0.42320451337E+03  0.00000000000E+00 0. -1.
<mgrwt>
<rscale>  0 0.83314217E+02</rscale>
<asrwt>0</asrwt>
<pdfrwt beam="1">  1        2 0.16083780E+00 0.46481792E+02</pdfrwt>
<pdfrwt beam="2">  1        2 0.19816230E+00 0.14933286E+03</pdfrwt>
<totfact> 0.78555837E+01</totfact>
</mgrwt>
</event>
<event>
13    1  0.1675423E-008  0.4050157E+02  0.7546771E-02  0.1579536E+00
          2   -1    0    0  502    0  0.00000000000E+00  0.00000000000E+00  0.10039959581E+04  0.10039959581E+04  0.00000000000E+00 0. -1.
          2   -1    0    0  503    0 -0.00000000000E+00 -0.00000000000E+00 -0.12331078212E+04  0.12331078212E+04  0.00000000000E+00 0. -1.
         24    2    1    2    0    0  0.87338864091E+02 -0.24126203840E+02  0.21378420206E+03  0.24695967340E+03  0.84114471667E+02 0.  0.
         25    2    1    2    0    0 -0.10631161636E+03  0.46862801835E+01  0.12255946062E+03  0.20485968956E+03  0.12499019971E+03 0.  0.
         24    2    1    2    0    0  0.49889451565E+02 -0.17728090200E+01 -0.13570044846E+03  0.16391596453E+03  0.77212249585E+02 0.  0.
        -11    1    3    3    0    0  0.64343465083E+02 -0.39075298870E+01  0.53483096464E+02  0.83760324116E+02  0.00000000000E+00 0.  1.
         12    1    3    3    0    0  0.22995399008E+02 -0.20218673953E+02  0.16030110559E+03  0.16319934928E+03  0.00000000000E+00 0. -1.
        -13    1    5    5    0    0  0.57890291290E+02 -0.27926064739E+02 -0.88736857676E+02  0.10956906875E+03  0.00000000000E+00 0.  1.
         14    1    5    5    0    0 -0.80008397256E+01  0.26153255719E+02 -0.46963590780E+02  0.54346895771E+02  0.00000000000E+00 0. -1.
          5    1    4    4  501    0 -0.36168698111E+02  0.19122958482E+02 -0.19602784418E+02  0.45609444429E+02  0.47000000000E+01 0.  1.
         -5    1    4    4    0  501 -0.70142918251E+02 -0.14436678298E+02  0.14216224504E+03  0.15925024513E+03  0.47000000000E+01 0.  1.
          1    1    1    2  502    0 -0.40498507642E+02 -0.17546189365E+01  0.59496595358E+03  0.59634528063E+03  0.00000000000E+00 0. -1.
          1    1    1    2  503    0  0.95818083486E+01  0.22967351613E+02 -0.10247210309E+04  0.10250231712E+04  0.00000000000E+00 0. -1.
<mgrwt>
<rscale>  0 0.31747754E+02</rscale>
<asrwt>0</asrwt>
<pdfrwt beam="1">  1        2 0.14764646E+00 0.40501571E+02</pdfrwt>
<pdfrwt beam="2">  1        2 0.18133939E+00 0.24885946E+02</pdfrwt>
<totfact> 0.11409295E+02</totfact>
</mgrwt>
</event>
<event>
13    1  0.1675423E-008  0.1524578E+03  0.7546771E-02  0.1320352E+00
          2   -1    0    0  502    0  0.00000000000E+00  0.00000000000E+00  0.14070616743E+04  0.14070616743E+04  0.00000000000E+00 0. -1.
          2   -1    0    0  503    0 -0.00000000000E+00 -0.00000000000E+00 -0.38267656552E+04  0.38267656552E+04  0.00000000000E+00 0. -1.
         24    2    1    2    0    0  0.10775845275E+03 -0.15214537242E+02 -0.71197603113E+03  0.72446537836E+03  0.78082323589E+02 0.  0.
         25    2    1    2    0    0  0.27040588392E+02  0.20046745274E+03  0.19494557676E+03  0.30748517185E+03  0.12499983991E+03 0.  0.
         24    2    1    2    0    0 -0.73286671803E+02  0.38397490805E+02 -0.42052584698E+03  0.43621234323E+03  0.81202936141E+02 0.  0.
        -13    1    5    5    0    0 -0.38780368586E+02  0.62696039914E+02 -0.26567520026E+03  0.27571366024E+03  0.00000000000E+00 0.  1.
         14    1    5    5    0    0 -0.34506303216E+02 -0.24298549108E+02 -0.15485064672E+03  0.16049868298E+03  0.00000000000E+00 0. -1.
        -13    1    3    3    0    0  0.60922711753E+02  0.15579945192E+02 -0.20573539354E+03  0.21513103833E+03  0.00000000000E+00 0.  1.
         14    1    3    3    0    0  0.46835740996E+02 -0.30794482434E+02 -0.50624063758E+03  0.50933434002E+03  0.00000000000E+00 0. -1.
          5    1    4    4  501    0 -0.44540779352E+02  0.67663291012E+02  0.37549024530E+02  0.89410408896E+02  0.47000000000E+01 0. -1.
         -5    1    4    4    0  501  0.71581367744E+02  0.13280416173E+03  0.15739655223E+03  0.21807476295E+03  0.47000000000E+01 0. -1.
          1    1    1    2  502    0  0.16744964167E+02 -0.42141089442E+02  0.11375835347E+04  0.11384869625E+04  0.00000000000E+00 0. -1.
          1    1    1    2  503    0 -0.78257333506E+02 -0.18150931687E+03 -0.26197312143E+04  0.26271774735E+04  0.00000000000E+00 0. -1.
<mgrwt>
<rscale>  0 0.83146620E+02</rscale>
<asrwt>0</asrwt>
<pdfrwt beam="1">  1        2 0.20692084E+00 0.45346061E+02</pdfrwt>
<pdfrwt beam="2">  1        2 0.56275965E+00 0.15245779E+03</pdfrwt>
<totfact> 0.26039619E+00</totfact>
</mgrwt>
</event>
<event>
13    1  0.1675423E-008  0.6329487E+02  0.7546771E-02  0.1527592E+00
          2   -1    0    0  503    0  0.00000000000E+00  0.00000000000E+00  0.64339795076E+03  0.64339795076E+03  0.00000000000E+00 0. -1.
         -1   -1    0    0    0  501 -0.00000000000E+00 -0.00000000000E+00 -0.62364955174E+03  0.62364955174E+03  0.00000000000E+00 0.  1.
         24    2    1    2    0    0 -0.44201809802E+02  0.47580917340E+02  0.18189053195E+03  0.20918888097E+03  0.80362171617E+02 0.  0.
         25    2    1    2    0    0  0.78326632516E+02  0.78618820098E+02  0.96467652220E+01  0.16745467128E+03  0.12502810332E+03 0.  0.
         24    2    1    2    0    0 -0.67211651947E+02 -0.15550829918E+03  0.27372397641E+03  0.33196625925E+03  0.81095898468E+02 0.  0.
        -11    1    5    5    0    0  0.18256861726E+02 -0.37238425761E+02  0.51617431999E+02  0.66214595365E+02  0.00000000000E+00 0.  1.
         12    1    5    5    0    0 -0.85468513673E+02 -0.11826987342E+03  0.22210654441E+03  0.26575166389E+03  0.00000000000E+00 0. -1.
        -13    1    3    3    0    0 -0.41483138047E+01  0.50829257071E+02  0.50422653309E+02  0.71716566067E+02  0.00000000000E+00 0.  1.
         14    1    3    3    0    0 -0.40053495997E+02 -0.32483397304E+01  0.13146787864E+03  0.13747231491E+03  0.00000000000E+00 0. -1.
          5    1    4    4  502    0 -0.20255301566E+02  0.99847387781E+01 -0.32686387628E+02  0.40005776910E+02  0.47000000000E+01 0. -1.
         -5    1    4    4    0  502  0.98581934082E+02  0.68634081320E+02  0.42333152850E+02  0.12744889437E+03  0.47000000000E+01 0. -1.
          1    1    1    2  503    0 -0.22126363648E+02 -0.17792029638E+01  0.52191582045E+02  0.56715983354E+02  0.00000000000E+00 0. -1.
         -2    1    1    2    0  501  0.55213192881E+02  0.31087764709E+02 -0.49770445661E+03  0.50172170763E+03  0.00000000000E+00 0.  1.
<mgrwt>
<rscale>  0 0.37483407E+02</rscale>
<asrwt>0</asrwt>
<pdfrwt beam="1">  1        2 0.94617346E-01 0.22197782E+02</pdfrwt>
<pdfrwt beam="2">  1       -1 0.91713169E-01 0.63294874E+02</pdfrwt>
<totfact> 0.77082051E+01</totfact>
</mgrwt>
</event>
<event>
13    1  0.1675423E-008  0.5056538E+02  0.7546771E-02  0.1468394E+00
          2   -1    0    0  503    0  0.00000000000E+00  0.00000000000E+00  0.20672443218E+04  0.20672443218E+04  0.00000000000E+00 0. -1.
          2   -1    0    0  502    0 -0.00000000000E+00 -0.00000000000E+00 -0.27985842188E+04  0.27985842188E+04  0.00000000000E+00 0. -1.
         24    2    1    2    0    0 -0.39188642702E+03 -0.87300462782E+02  0.70579699597E+03  0.81615400456E+03  0.82229052909E+02 0.  0.
         25    2    1    2    0    0  0.58559437768E+03 -0.18300659799E+03  0.28962495898E+03  0.68986966492E+03  0.12500139053E+03 0.  0.
         24    2    1    2    0    0 -0.20077775520E+03  0.18001948851E+03  0.73639250791E+03  0.78826591090E+03  0.79815395482E+02 0.  0.
        -11    1    3    3    0    0 -0.52486530395E+02 -0.32996157146E+02  0.15463103991E+03  0.16659634078E+03  0.00000000000E+00 0.  1.
         12    1    3    3    0    0 -0.33939989663E+03 -0.54304305636E+02  0.55116595607E+03  0.64955766377E+03  0.00000000000E+00 0. -1.
        -11    1    5    5    0    0 -0.37749601443E+02  0.74893556147E+01  0.16698592339E+03  0.17136341928E+03  0.00000000000E+00 0.  1.
         12    1    5    5    0    0 -0.16302815376E+03  0.17253013290E+03  0.56940658452E+03  0.61690249162E+03  0.00000000000E+00 0. -1.
          5    1    4    4  501    0  0.44744626003E+03 -0.10586746198E+03  0.26185724218E+03  0.52915723599E+03  0.47000000000E+01 0. -1.
         -5    1    4    4    0  501  0.13814811765E+03 -0.77139136015E+02  0.27767716798E+02  0.16071242893E+03  0.47000000000E+01 0. -1.
          1    1    1    2  502    0  0.15074699718E+00  0.41786385326E+02 -0.25060639949E+04  0.25064123507E+04  0.00000000000E+00 0. -1.
          1    1    1    2  503    0  0.69190575476E+01  0.48501186934E+02  0.42909635100E+02  0.65126609582E+02  0.00000000000E+00 0. -1.
<mgrwt>
<rscale>  0 0.45966927E+02</rscale>
<asrwt>0</asrwt>
<pdfrwt beam="1">  1        2 0.30400652E+00 0.50565384E+02</pdfrwt>
<pdfrwt beam="2">  1        2 0.41155650E+00 0.41786657E+02</pdfrwt>
<totfact> 0.60274992E+00</totfact>
</mgrwt>
</event>
<event>
13    1  0.1675423E-008  0.2334083E+03  0.7546771E-02  0.1234735E+00
          2   -1    0    0  502    0  0.00000000000E+00  0.00000000000E+00  0.23425197294E+04  0.23425197294E+04  0.00000000000E+00 0. -1.
          2   -1    0    0  503    0 -0.00000000000E+00 -0.00000000000E+00 -0.19249060948E+04  0.19249060948E+04  0.00000000000E+00 0. -1.
         24    2    1    2    0    0 -0.13486227901E+03  0.13117856492E+03  0.93605411127E+03  0.95812908062E+03  0.80114828211E+02 0.  0.
         25    2    1    2    0    0  0.37313512346E+02 -0.14260505336E+03  0.23542009856E+03  0.30459440731E+03  0.12500652268E+03 0.  0.
         24    2    1    2    0    0 -0.47835143255E+02 -0.11362632696E+03  0.82857743826E+02  0.16855683432E+03  0.79667167478E+02 0.  0.
        -11    1    3    3    0    0 -0.32311641877E+02 -0.37629634391E+01  0.10324093801E+03  0.10824459975E+03  0.00000000000E+00 0.  1.
         12    1    3    3    0    0 -0.10255063713E+03  0.13494152836E+03  0.83281317327E+03  0.84988448087E+03  0.00000000000E+00 0. -1.
        -13    1    5    5    0    0  0.31493490123E+01 -0.23667971424E+02 -0.13319742583E+02  0.27340570824E+02  0.00000000000E+00 0.  1.
         14    1    5    5    0    0 -0.50984492268E+02 -0.89958355541E+02  0.96177486409E+02  0.14121626349E+03  0.00000000000E+00 0. -1.
          5    1    4    4  501    0  0.29379997269E+02 -0.65181569399E+02  0.18376113863E+02  0.73970215557E+02  0.47000000000E+01 0. -1.
         -5    1    4    4    0  501  0.79335150779E+01 -0.77423483959E+02  0.21704398470E+03  0.23062419176E+03  0.47000000000E+01 0. -1.
          1    1    1    2  502    0  0.18826359110E+03  0.17675829381E+03  0.98240691577E+03  0.10157804991E+04  0.00000000000E+00 0. -1.
          1    1    1    2  503    0 -0.42879681190E+02 -0.51705478411E+02 -0.18191252348E+04  0.18203650028E+04  0.00000000000E+00 0. -1.
<mgrwt>
<rscale>  0 0.12521414E+03</rscale>
<asrwt>0</asrwt>
<pdfrwt beam="1">  1        2 0.34448820E+00 0.23340827E+03</pdfrwt>
<pdfrwt beam="2">  1        2 0.28307442E+00 0.67172342E+02</pdfrwt>
<totfact> 0.91541152E+00</totfact>
</mgrwt>
</event>
<event>
13    1  0.1675423E-008  0.1088227E+03  0.7546771E-02  0.1287311E+00
          2   -1    0    0  502    0  0.00000000000E+00  0.00000000000E+00  0.15956295687E+04  0.15956295687E+04  0.00000000000E+00 0. -1.
          2   -1    0    0  503    0 -0.00000000000E+00 -0.00000000000E+00 -0.23981794651E+04  0.23981794651E+04  0.00000000000E+00 0. -1.
         24    2    1    2    0    0  0.14916049844E+02 -0.18827364114E+02  0.51341379954E+03  0.52028565527E+03  0.80786603735E+02 0.  0.
         25    2    1    2    0    0 -0.15996770457E+03 -0.26807293527E+02 -0.16061735138E+03  0.26024774879E+03  0.12499063842E+03 0.  0.
         24    2    1    2    0    0  0.17758815900E+02  0.66659484654E+02  0.99658139891E+02  0.14528406044E+03  0.80105249106E+02 0.  0.
        -11    1    3    3    0    0 -0.18655491715E+02 -0.17994532657E+02  0.42370868021E+03  0.42450073765E+03  0.00000000000E+00 0.  1.
         12    1    3    3    0    0  0.33571541559E+02 -0.83283145715E+00  0.89705119325E+02  0.95784917623E+02  0.00000000000E+00 0. -1.
        -13    1    5    5    0    0  0.19542301209E+01  0.77634837566E+02  0.99270868966E+02  0.12603845621E+03  0.00000000000E+00 0.  1.
         14    1    5    5    0    0  0.15804585779E+02 -0.10975352913E+02  0.38727092490E+00  0.19245604225E+02  0.00000000000E+00 0. -1.
          5    1    4    4  501    0 -0.15333357695E+02  0.27705678508E+01  0.20733698088E+02  0.26358378949E+02  0.47000000000E+01 0.  1.
         -5    1    4    4    0  501 -0.14463434688E+03 -0.29577861378E+02 -0.18135104947E+03  0.23388936984E+03  0.47000000000E+01 0.  1.
          1    1    1    2  502    0  0.60352790548E+02  0.64669014935E+02  0.90296337883E+03  0.90728573466E+03  0.00000000000E+00 0. -1.
          1    1    1    2  503    0  0.66940048282E+02 -0.85693841947E+02 -0.21579678634E+04  0.21607058346E+04  0.00000000000E+00 0. -1.
<mgrwt>
<rscale>  0 0.96736897E+02</rscale>
<asrwt>0</asrwt>
<pdfrwt beam="1">  1        2 0.23465141E+00 0.85993299E+02</pdfrwt>
<pdfrwt beam="2">  1        2 0.35267345E+00 0.10882275E+03</pdfrwt>
<totfact> 0.13164144E+01</totfact>
</mgrwt>
</event>
<event>
13    1  0.1675423E-008  0.8082337E+02  0.7546771E-02  0.1362357E+00
          2   -1    0    0  503    0  0.00000000000E+00  0.00000000000E+00  0.19772564896E+04  0.19772564896E+04  0.00000000000E+00 0. -1.
         -3   -1    0    0    0  501 -0.00000000000E+00 -0.00000000000E+00 -0.16938668820E+03  0.16938668820E+03  0.00000000000E+00 0.  1.
         24    2    1    2    0    0  0.34119656571E+02  0.68335533723E+02  0.45631825838E+03  0.46968374350E+03  0.80886153604E+02 0.  0.
         25    2    1    2    0    0 -0.12960768022E+03 -0.17801751118E+03  0.14917230701E+03  0.29387863791E+03  0.12499556626E+03 0.  0.
         24    2    1    2    0    0  0.17580930809E+02  0.10407418059E+03  0.78734480433E+00  0.13300015529E+03  0.80919078104E+02 0.  0.
        -11    1    3    3    0    0 -0.89806172918E+01  0.18559369783E+02  0.21056141426E+02  0.29469692659E+02  0.00000000000E+00 0.  1.
         12    1    3    3    0    0  0.43100273863E+02  0.49776163940E+02  0.43526211695E+03  0.44021405084E+03  0.00000000000E+00 0. -1.
        -13    1    5    5    0    0  0.46074300249E+02  0.34776359868E+02  0.50912889658E+01  0.57949612358E+02  0.00000000000E+00 0.  1.
         14    1    5    5    0    0 -0.28493369439E+02  0.69297820720E+02 -0.43039441614E+01  0.75050542929E+02  0.00000000000E+00 0. -1.
          5    1    4    4  502    0 -0.60984326977E+02 -0.38621620245E+02  0.11318133314E+03  0.13432357150E+03  0.47000000000E+01 0. -1.
         -5    1    4    4    0  502 -0.68623353246E+02 -0.13939589093E+03  0.35990973864E+02  0.15955506642E+03  0.47000000000E+01 0. -1.
          1    1    1    2  503    0  0.62339617722E+02 -0.51804579885E+02  0.11857562661E+04  0.11885233969E+04  0.00000000000E+00 0. -1.
         -4    1    1    2    0  501  0.15567475121E+02  0.57412376753E+02  0.15835625074E+02  0.61557244152E+02  0.00000000000E+00 0.  1.
<mgrwt>
<rscale>  0 0.69338448E+02</rscale>
<asrwt>0</asrwt>
<pdfrwt beam="1">  1        2 0.29077300E+00 0.80823370E+02</pdfrwt>
<pdfrwt beam="2">  1       -3 0.24909808E-01 0.59485522E+02</pdfrwt>
<totfact> 0.81392545E+01</totfact>
</mgrwt>
</event>
<event>
13    1  0.1675423E-008  0.1665729E+03  0.7546771E-02  0.1358690E+00
          2   -1    0    0  502    0  0.00000000000E+00  0.00000000000E+00  0.22597287682E+03  0.22597287682E+03  0.00000000000E+00 0. -1.
          2   -1    0    0  503    0 -0.00000000000E+00 -0.00000000000E+00 -0.16862188835E+04  0.16862188835E+04  0.00000000000E+00 0. -1.
         24    2    1    2    0    0 -0.50709782991E+02  0.40640334194E+02 -0.81578766966E+02  0.13318384119E+03  0.82823435567E+02 0.  0.
         25    2    1    2    0    0 -0.41165112543E+02 -0.27359000294E+03 -0.27941492272E+03  0.41260644478E+03  0.12500129211E+03 0.  0.
         24    2    1    2    0    0 -0.58986310209E+02  0.12921153554E+03 -0.68203914263E+02  0.17750815709E+03  0.81745741200E+02 0.  0.
        -11    1    5    5    0    0  0.20787764983E+02  0.31500870924E+02 -0.15509097675E+02  0.40804021281E+02  0.00000000000E+00 0.  1.
         12    1    5    5    0    0 -0.79774075192E+02  0.97710664619E+02 -0.52694816588E+02  0.13670413581E+03  0.00000000000E+00 0. -1.
        -11    1    3    3    0    0 -0.34096394638E+01 -0.24512246631E+02 -0.20138161953E+02  0.31906448298E+02  0.00000000000E+00 0.  1.
         12    1    3    3    0    0 -0.47300143527E+02  0.65152580825E+02 -0.61440605013E+02  0.10127739289E+03  0.00000000000E+00 0. -1.
          5    1    4    4  501    0  0.25693247997E+02 -0.16047714710E+03 -0.20458785176E+03  0.26132611201E+03  0.47000000000E+01 0. -1.
         -5    1    4    4    0  501 -0.66858360541E+02 -0.11311285585E+03 -0.74827070963E+02  0.15128033276E+03  0.47000000000E+01 0. -1.
          1    1    1    2  502    0  0.93678467855E+00  0.29750977429E+02  0.69559019015E+02  0.75660130517E+02  0.00000000000E+00 0. -1.
          1    1    1    2  503    0  0.14992442106E+03  0.73987155779E+02 -0.11006074218E+04  0.11132331868E+04  0.00000000000E+00 0. -1.
<mgrwt>
<rscale>  0 0.70414217E+02</rscale>
<asrwt>0</asrwt>
<pdfrwt beam="1">  1        2 0.33231306E-01 0.29765722E+02</pdfrwt>
<pdfrwt beam="2">  1        2 0.24797336E+00 0.16657288E+03</pdfrwt>
<totfact> 0.28785767E+02</totfact>
</mgrwt>
</event>
<event>
13    1  0.1675423E-008  0.4715542E+02  0.7546771E-02  0.1466553E+00
          2   -1    0    0  502    0  0.00000000000E+00  0.00000000000E+00  0.27430928822E+04  0.27430928822E+04  0.00000000000E+00 0. -1.
          2   -1    0    0  503    0 -0.00000000000E+00 -0.00000000000E+00 -0.34674714922E+04  0.34674714922E+04  0.00000000000E+00 0. -1.
         24    2    1    2    0    0  0.33693904364E+02  0.12522996108E+03  0.59927246402E+03  0.61836699461E+03  0.80202441026E+02 0.  0.
         25    2    1    2    0    0 -0.10605335843E+03 -0.33866732675E+03 -0.44414194602E+02  0.37886926078E+03  0.12500569204E+03 0.  0.
         24    2    1    2    0    0  0.42506780627E+02  0.15299211073E+03  0.58689855834E+03  0.61689835050E+03  0.10440423706E+03 0.  0.
        -11    1    3    3    0    0  0.50150267237E+02  0.39882777976E+02  0.21261743682E+03  0.22206273826E+03  0.00000000000E+00 0.  1.
         12    1    3    3    0    0 -0.16456362873E+02  0.85347183108E+02  0.38665502720E+03  0.39630425635E+03  0.00000000000E+00 0. -1.
        -13    1    5    5    0    0 -0.17893994029E+02  0.88018307272E+02  0.40074647651E+03  0.41068863617E+03  0.00000000000E+00 0.  1.
         14    1    5    5    0    0  0.60400774656E+02  0.64973803462E+02  0.18615208183E+03  0.20620971433E+03  0.00000000000E+00 0. -1.
          5    1    4    4  501    0 -0.68348866048E+02 -0.19886467016E+03 -0.87372456324E+02  0.22776031404E+03  0.47000000000E+01 0.  1.
         -5    1    4    4    0  501 -0.37704492379E+02 -0.13980265659E+03  0.42958261722E+02  0.15110894674E+03  0.47000000000E+01 0.  1.
          1    1    1    2  502    0 -0.14029434519E+02  0.43183687340E+02  0.13645975087E+04  0.13653527078E+04  0.00000000000E+00 0. -1.
          1    1    1    2  503    0  0.43882107954E+02  0.17261567593E+02 -0.32307329465E+04  0.32310770608E+04  0.00000000000E+00 0. -1.
<mgrwt>
<rscale>  0 0.46272168E+02</rscale>
<asrwt>0</asrwt>
<pdfrwt beam="1">  1        2 0.40339601E+00 0.45405461E+02</pdfrwt>
<pdfrwt beam="2">  1        2 0.50992228E+00 0.47155419E+02</pdfrwt>
<totfact> 0.12631190E+00</totfact>
</mgrwt>
</event>
<event>
13    1  0.1675423E-008  0.2047883E+03  0.7546771E-02  0.1282634E+00
          2   -1    0    0  503    0  0.00000000000E+00  0.00000000000E+00  0.94102816553E+03  0.94102816553E+03  0.00000000000E+00 0. -1.
          2   -1    0    0  502    0 -0.00000000000E+00 -0.00000000000E+00 -0.15269795116E+04  0.15269795116E+04  0.00000000000E+00 0. -1.
         24    2    1    2    0    0  0.15416514363E+03 -0.60973611863E+02 -0.23170450549E+03  0.29569511844E+03  0.79145134722E+02 0.  0.
         25    2    1    2    0    0 -0.22402825275E+03 -0.15372988512E+02 -0.19929845975E+03  0.32522349436E+03  0.12500183366E+03 0.  0.
         24    2    1    2    0    0 -0.31605619402E+02 -0.62102867704E+02 -0.91944353692E+02  0.14119758440E+03  0.81408306153E+02 0.  0.
        -11    1    3    3    0    0 -0.11325686762E+01 -0.17972675753E+02 -0.73097420024E+01  0.19435331581E+02  0.00000000000E+00 0.  1.
         12    1    3    3    0    0  0.15529771231E+03 -0.43000936110E+02 -0.22439476349E+03  0.27625978686E+03  0.00000000000E+00 0. -1.
        -11    1    5    5    0    0 -0.31741059173E+02 -0.67536982923E+02 -0.10398273160E+03  0.12798885643E+03  0.00000000000E+00 0.  1.
         12    1    5    5    0    0  0.13543977148E+00  0.54341152197E+01  0.12038377904E+02  0.13208727974E+02  0.00000000000E+00 0. -1.
          5    1    4    4  501    0 -0.16671431488E+03  0.36380926942E+02 -0.94979175505E+02  0.19534679012E+03  0.47000000000E+01 0. -1.
         -5    1    4    4    0  501 -0.57313937875E+02 -0.51753915455E+02 -0.10431928425E+03  0.12987670424E+03  0.47000000000E+01 0. -1.
          1    1    1    2  502    0  0.11519487550E+03  0.18419369219E+03 -0.87039058457E+03  0.89709361010E+03  0.00000000000E+00 0. -1.
          1    1    1    2  503    0 -0.13726146972E+02 -0.45744224107E+02  0.80738655741E+03  0.80879786983E+03  0.00000000000E+00 0. -1.
<mgrwt>
<rscale>  0 0.98896540E+02</rscale>
<asrwt>0</asrwt>
<pdfrwt beam="1">  1        2 0.13838650E+00 0.47759200E+02</pdfrwt>
<pdfrwt beam="2">  1        2 0.22455581E+00 0.20478831E+03</pdfrwt>
<totfact> 0.75289553E+01</totfact>
</mgrwt>
</event>
<event>
13    1  0.1675423E-008  0.4943807E+02  0.7546771E-02  0.1463397E+00
          2   -1    0    0  502    0  0.00000000000E+00  0.00000000000E+00  0.25570523128E+04  0.25570523128E+04  0.00000000000E+00 0. -1.
          2   -1    0    0  503    0 -0.00000000000E+00 -0.00000000000E+00 -0.14442906986E+04  0.14442906986E+04  0.00000000000E+00 0. -1.
         24    2    1    2    0    0 -0.25353309563E+02 -0.71823663442E+02  0.16338100475E+04  0.16382828248E+04  0.93988902917E+02 0.  0.
         25    2    1    2    0    0  0.10195176277E+03  0.72659724655E+02 -0.50811426695E+03  0.53803336525E+03  0.12500478521E+03 0.  0.
         24    2    1    2    0    0 -0.36197654506E+02  0.33428158570E+01  0.31763510132E+03  0.32393628313E+03  0.52165250217E+02 0.  0.
        -11    1    5    5    0    0 -0.37064344609E+02 -0.16895603405E+02  0.25121058227E+03  0.25449161813E+03  0.00000000000E+00 0.  1.
         12    1    5    5    0    0  0.86669010241E+00  0.20238419262E+02  0.66424519050E+02  0.69444665000E+02  0.00000000000E+00 0. -1.
        -11    1    3    3    0    0  0.17558975481E+02  0.19348077415E+01  0.71712218795E+02  0.73855964047E+02  0.00000000000E+00 0.  1.
         12    1    3    3    0    0 -0.42912285044E+02 -0.73758471183E+02  0.15620978287E+04  0.15644268608E+04  0.00000000000E+00 0. -1.
          5    1    4    4  501    0  0.89727314382E+02  0.10712364028E+03 -0.39047766135E+03  0.41475457715E+03  0.47000000000E+01 0.  1.
         -5    1    4    4    0  501  0.12224448386E+02 -0.34463915625E+02 -0.11763660561E+03  0.12327878811E+03  0.47000000000E+01 0.  1.
          1    1    1    2  502    0 -0.21844316223E+02 -0.44411770863E+02  0.58367683841E+03  0.58577148381E+03  0.00000000000E+00 0. -1.
          1    1    1    2  503    0 -0.18556482476E+02  0.40232893793E+02 -0.91424610610E+03  0.91531905438E+03  0.00000000000E+00 0. -1.
<mgrwt>
<rscale>  0 0.46801784E+02</rscale>
<asrwt>0</asrwt>
<pdfrwt beam="1">  1        2 0.37603711E+00 0.49438066E+02</pdfrwt>
<pdfrwt beam="2">  1        2 0.21239569E+00 0.44306081E+02</pdfrwt>
<totfact> 0.15276188E+01</totfact>
</mgrwt>
</event>
<event>
13    1  0.1675423E-008  0.1106142E+03  0.7546771E-02  0.1361732E+00
          2   -1    0    0  502    0  0.00000000000E+00  0.00000000000E+00  0.34170790754E+04  0.34170790754E+04  0.00000000000E+00 0. -1.
          2   -1    0    0  503    0 -0.00000000000E+00 -0.00000000000E+00 -0.57404725177E+03  0.57404725177E+03  0.00000000000E+00 0. -1.
         24    2    1    2    0    0 -0.29784799743E+03 -0.15870740253E+03  0.48817211100E+02  0.35056937812E+03  0.81328344292E+02 0.  0.
         25    2    1    2    0    0 -0.17722442980E+02 -0.17247425168E+03  0.31685721088E+03  0.38220983590E+03  0.12499765636E+03 0.  0.
         24    2    1    2    0    0  0.37269378150E+03  0.40183078935E+03  0.65296851842E+01  0.55446101131E+03  0.83760003777E+02 0.  0.
        -11    1    5    5    0    0  0.24950719388E+03  0.28586393049E+03  0.41504409099E+02  0.38169967583E+03  0.00000000000E+00 0.  1.
         12    1    5    5    0    0  0.12318658762E+03  0.11596685886E+03 -0.34974723914E+02  0.17276133548E+03  0.00000000000E+00 0. -1.
        -11    1    3    3    0    0 -0.10084783970E+03 -0.12151058945E+02  0.16732879067E+02  0.10294622017E+03  0.00000000000E+00 0.  1.
         12    1    3    3    0    0 -0.19700015773E+03 -0.14655634359E+03  0.32084332033E+02  0.24762315795E+03  0.00000000000E+00 0. -1.
          5    1    4    4  501    0  0.20287430706E+02 -0.67768723198E+02  0.23058614951E+03  0.24123897287E+03  0.47000000000E+01 0. -1.
         -5    1    4    4    0  501 -0.38009873687E+02 -0.10470552848E+03  0.86271061372E+02  0.14097086303E+03  0.47000000000E+01 0. -1.
          1    1    1    2  502    0  0.40389868116E+02 -0.16665113457E+02  0.25604754917E+04  0.25608482601E+04  0.00000000000E+00 0. -1.
          1    1    1    2  503    0 -0.97513209204E+02 -0.53984021686E+02 -0.89647775253E+02  0.14303784176E+03  0.00000000000E+00 0. -1.
<mgrwt>
<rscale>  0 0.69520168E+02</rscale>
<asrwt>0</asrwt>
<pdfrwt beam="1">  1        2 0.50251162E+00 0.43692876E+02</pdfrwt>
<pdfrwt beam="2">  1        2 0.84418715E-01 0.11061423E+03</pdfrwt>
<totfact> 0.17554285E+01</totfact>
</mgrwt>
</event>
<event>
13    1  0.1675423E-008  0.5977779E+02  0.7546771E-02  0.1430887E+00
          2   -1    0    0  502    0  0.00000000000E+00  0.00000000000E+00  0.24979253411E+03  0.24979253411E+03  0.00000000000E+00 0. -1.
          2   -1    0    0  503    0 -0.00000000000E+00 -0.00000000000E+00 -0.52170371328E+03  0.52170371328E+03  0.00000000000E+00 0. -1.
         24    2    1    2    0    0  0.91237260369E+02  0.14336157291E+03 -0.23437851909E+02  0.19005965631E+03  0.81832522791E+02 0.  0.
         25    2    1    2    0    0 -0.53994151107E+02 -0.12912821496E+03 -0.13682390494E+03  0.23223359943E+03  0.12498879746E+03 0.  0.
         24    2    1    2    0    0 -0.37304142659E+02  0.29437623147E+02 -0.47159966961E+02  0.10561872576E+03  0.81688922324E+02 0.  0.
        -11    1    5    5    0    0  0.23304919684E+02  0.20187310606E+02 -0.50597292822E+01  0.31244962016E+02  0.00000000000E+00 0.  1.
         12    1    5    5    0    0 -0.60609062343E+02  0.92503125413E+01 -0.42100237679E+02  0.74373763740E+02  0.00000000000E+00 0. -1.
        -13    1    3    3    0    0  0.75727427471E+02  0.69857086103E+02  0.17504936651E+02  0.10450396431E+03  0.00000000000E+00 0.  1.
         14    1    3    3    0    0  0.15509832898E+02  0.73504486808E+02 -0.40942788560E+02  0.85555691993E+02  0.00000000000E+00 0. -1.
          5    1    4    4  501    0 -0.44593764467E+02 -0.45618494788E+02  0.82648697587E+01  0.64498441595E+02  0.47000000000E+01 0.  1.
         -5    1    4    4    0  501 -0.94003866401E+01 -0.83509720169E+02 -0.14508877470E+03  0.16773515784E+03  0.47000000000E+01 0.  1.
          1    1    1    2  502    0  0.46439748938E+02 -0.39077365499E+02  0.75019327101E+02  0.96496581362E+02  0.00000000000E+00 0. -1.
          1    1    1    2  503    0 -0.46378715541E+02 -0.45936156023E+01 -0.13950878246E+03  0.14708768454E+03  0.00000000000E+00 0. -1.
<mgrwt>
<rscale>  0 0.52782407E+02</rscale>
<asrwt>0</asrwt>
<pdfrwt beam="1">  1        2 0.36734197E-01 0.59777786E+02</pdfrwt>
<pdfrwt beam="2">  1        2 0.76721133E-01 0.46605649E+02</pdfrwt>
<totfact> 0.13581556E+03</totfact>
</mgrwt>
</event>
<event>
13    1  0.1675423E-008  0.1430992E+03  0.7546771E-02  0.1215730E+00
          2   -1    0    0  503    0  0.00000000000E+00  0.00000000000E+00  0.20723688218E+04  0.20723688218E+04  0.00000000000E+00 0. -1.
          2   -1    0    0  502    0 -0.00000000000E+00 -0.00000000000E+00 -0.26737352810E+04  0.26737352810E+04  0.00000000000E+00 0. -1.
         24    2    1    2    0    0  0.30944197991E+02  0.93121740720E+02  0.49448474542E+03  0.51094846911E+03  0.83210411923E+02 0.  0.
         25    2    1    2    0    0  0.14322005122E+03  0.11361899243E+03 -0.66889968602E+02  0.23133869822E+03  0.12498826699E+03 0.  0.
         24    2    1    2    0    0  0.93025890443E+02 -0.10069971607E+03 -0.22281607188E+03  0.27366372659E+03  0.80315529347E+02 0.  0.
        -11    1    3    3    0    0  0.21878922798E+02  0.10621494721E+03  0.46456541722E+03  0.47705484921E+03  0.00000000000E+00 0.  1.
         12    1    3    3    0    0  0.90652751927E+01 -0.13093206490E+02  0.29919328198E+02  0.33893619906E+02  0.00000000000E+00 0. -1.
        -13    1    5    5    0    0  0.74413903573E+02 -0.36519701990E+02 -0.76447129189E+02  0.11276205585E+03  0.00000000000E+00 0.  1.
         14    1    5    5    0    0  0.18611986870E+02 -0.64180014077E+02 -0.14636894269E+03  0.16090167074E+03  0.00000000000E+00 0. -1.
          5    1    4    4  501    0  0.10629365916E+03  0.11070616616E+03  0.13499878378E+01  0.15355165147E+03  0.47000000000E+01 0. -1.
         -5    1    4    4    0  501  0.36926392053E+02  0.29128262737E+01 -0.68239956440E+02  0.77787046749E+02  0.47000000000E+01 0. -1.
          1    1    1    2  502    0 -0.12701783342E+03  0.62996682070E+02 -0.22576669559E+04  0.22621145408E+04  0.00000000000E+00 0. -1.
          1    1    1    2  503    0 -0.14017230622E+03 -0.16903769915E+03  0.14515217917E+04  0.14680386681E+04  0.00000000000E+00 0. -1.
<mgrwt>
<rscale>  0 0.13823019E+03</rscale>
<asrwt>0</asrwt>
<pdfrwt beam="1">  1        2 0.30476012E+00 0.13352684E+03</pdfrwt>
<pdfrwt beam="2">  1        2 0.39319636E+00 0.14309920E+03</pdfrwt>
<totfact> 0.52027874E+00</totfact>
</mgrwt>
</event>
<event>
13    1  0.1675423E-008  0.1147651E+03  0.7546771E-02  0.1263257E+00
          2   -1    0    0  503    0  0.00000000000E+00  0.00000000000E+00  0.10802616376E+04  0.10802616376E+04  0.00000000000E+00 0. -1.
          2   -1    0    0  502    0 -0.00000000000E+00 -0.00000000000E+00 -0.30366688771E+04  0.30366688771E+04  0.00000000000E+00 0. -1.
         24    2    1    2    0    0 -0.13714584346E+03  0.12843504208E+03  0.14256298544E+03  0.24991721634E+03  0.82643014189E+02 0.  0.
         25    2    1    2    0    0  0.13351937265E+03 -0.78821912722E+02 -0.11710770451E+04  0.11878915594E+04  0.12499837844E+03 0.  0.
         24    2    1    2    0    0 -0.16385871357E+02 -0.93994414619E+02  0.14866467815E+03  0.19278038821E+03  0.77198735686E+02 0.  0.
        -13    1    5    5    0    0 -0.23211388598E+02  0.47076623302E+01  0.32019150206E+02  0.39826581892E+02  0.00000000000E+00 0.  1.
         14    1    5    5    0    0  0.68255172412E+01 -0.98702076949E+02  0.11664552794E+03  0.15295380632E+03  0.00000000000E+00 0. -1.
        -13    1    3    3    0    0 -0.13710091483E+03  0.10455246434E+03  0.14582113250E+03  0.22581337722E+03  0.00000000000E+00 0.  1.
         14    1    3    3    0    0 -0.44928628458E-01  0.23882577744E+02 -0.32581470615E+01  0.24103839125E+02  0.00000000000E+00 0. -1.
          5    1    4    4  501    0 -0.12353703111E+02  0.41612302335E+01 -0.32623019143E+03  0.32652435991E+03  0.47000000000E+01 0. -1.
         -5    1    4    4    0  501  0.14587307576E+03 -0.82983142956E+02 -0.84484685365E+03  0.86136719949E+03  0.47000000000E+01 0. -1.
          1    1    1    2  502    0 -0.72018778988E+02  0.89945814587E+02 -0.17758322781E+04  0.17795665860E+04  0.00000000000E+00 0. -1.
          1    1    1    2  503    0  0.92031121154E+02 -0.45564529327E+02  0.69927442000E+03  0.70677476473E+03  0.00000000000E+00 0. -1.
<mgrwt>
<rscale>  0 0.10856139E+03</rscale>
<asrwt>0</asrwt>
<pdfrwt beam="1">  1        2 0.15886200E+00 0.10269301E+03</pdfrwt>
<pdfrwt beam="2">  1        2 0.44656896E+00 0.11476512E+03</pdfrwt>
<totfact> 0.11140071E+01</totfact>
</mgrwt>
</event>
<event>
13    1  0.1675423E-008  0.1019250E+03  0.7546771E-02  0.1286154E+00
          2   -1    0    0  502    0  0.00000000000E+00  0.00000000000E+00  0.11355746609E+04  0.11355746609E+04  0.00000000000E+00 0. -1.
          2   -1    0    0  503    0 -0.00000000000E+00 -0.00000000000E+00 -0.19439249433E+04  0.19439249433E+04  0.00000000000E+00 0. -1.
         24    2    1    2    0    0 -0.34875412519E+02 -0.10747537801E+03  0.12092902200E+03  0.18359871717E+03  0.79482132013E+02 0.  0.
         25    2    1    2    0    0 -0.65699752409E+01  0.18468728395E+03  0.58974620854E+02  0.23077030425E+03  0.12499747993E+03 0.  0.
         24    2    1    2    0    0 -0.80048172432E+01 -0.27028519456E+02 -0.19266778494E+02  0.67998909028E+02  0.58804973535E+02 0.  0.
        -11    1    5    5    0    0 -0.30664927990E+02 -0.20896076022E+02  0.79925399939E+00  0.37116338838E+02  0.00000000000E+00 0.  1.
         12    1    5    5    0    0  0.22660110747E+02 -0.61324434341E+01 -0.20066032494E+02  0.30882570191E+02  0.00000000000E+00 0. -1.
        -11    1    3    3    0    0  0.23339667284E+02 -0.28870223357E+02  0.52186157364E+02  0.64043929345E+02  0.00000000000E+00 0.  1.
         12    1    3    3    0    0 -0.58215079803E+02 -0.78605154648E+02  0.68742864641E+02  0.11955478783E+03  0.00000000000E+00 0. -1.
          5    1    4    4  501    0 -0.60835272005E+02  0.12838415479E+03  0.20916302557E+02  0.14367673170E+03  0.47000000000E+01 0.  1.
         -5    1    4    4    0  501  0.54265296764E+02  0.56303129168E+02  0.38058318297E+02  0.87093572545E+02  0.47000000000E+01 0.  1.
          1    1    1    2  502    0 -0.89445244881E+02  0.24793358327E+02  0.80791685497E+03  0.81323109077E+03  0.00000000000E+00 0. -1.
          1    1    1    2  503    0  0.13889544988E+03 -0.74976744819E+02 -0.17769040018E+04  0.17839005830E+04  0.00000000000E+00 0. -1.
<mgrwt>
<rscale>  0 0.97265295E+02</rscale>
<asrwt>0</asrwt>
<pdfrwt beam="1">  1        2 0.16699628E+00 0.92818599E+02</pdfrwt>
<pdfrwt beam="2">  1        2 0.28587131E+00 0.10192502E+03</pdfrwt>
<totfact> 0.37547593E+01</totfact>
</mgrwt>
</event>
<event>
13    1  0.1675423E-008  0.2610966E+03  0.7546771E-02  0.1280598E+00
          2   -1    0    0  503    0  0.00000000000E+00  0.00000000000E+00  0.29773835767E+03  0.29773835767E+03  0.00000000000E+00 0. -1.
          2   -1    0    0  502    0 -0.00000000000E+00 -0.00000000000E+00 -0.14805446975E+04  0.14805446975E+04  0.00000000000E+00 0. -1.
         24    2    1    2    0    0 -0.55068041273E+02 -0.12699162668E+03 -0.78915974387E+02  0.17840807522E+03  0.80264237837E+02 0.  0.
         25    2    1    2    0    0 -0.23195062088E+03  0.18048909089E+03 -0.26754929313E+03  0.41663360137E+03  0.12499412418E+03 0.  0.
         24    2    1    2    0    0  0.64225855274E+02  0.10428798616E+03 -0.35729290621E+02  0.15057677631E+03  0.79973988350E+02 0.  0.
        -11    1    3    3    0    0 -0.34760530438E+02 -0.35933724107E+01 -0.17554447468E+02  0.39107102009E+02  0.00000000000E+00 0.  1.
         12    1    3    3    0    0 -0.20307510835E+02 -0.12339825427E+03 -0.61361526919E+02  0.13930097322E+03  0.00000000000E+00 0. -1.
        -11    1    5    5    0    0 -0.12375430194E+02 -0.44110252766E+01 -0.12258327100E+01  0.13195115851E+02  0.00000000000E+00 0.  1.
         12    1    5    5    0    0  0.76601285468E+02  0.10869901144E+03 -0.34503457911E+02  0.13738166046E+03  0.00000000000E+00 0. -1.
          5    1    4    4  501    0 -0.21944317458E+03  0.19362141091E+03 -0.22191990757E+03  0.36730789946E+03  0.47000000000E+01 0. -1.
         -5    1    4    4    0  501 -0.12507446309E+02 -0.13132320023E+02 -0.45629385563E+02  0.49325701913E+02  0.47000000000E+01 0. -1.
          1    1    1    2  502    0  0.18702292099E+03 -0.17116424788E+03 -0.89533250052E+03  0.93053482430E+03  0.00000000000E+00 0. -1.
          1    1    1    2  503    0  0.35769885891E+02  0.13378797518E+02  0.94720718860E+02  0.10212977794E+03  0.00000000000E+00 0. -1.
<mgrwt>
<rscale>  0 0.99856312E+02</rscale>
<asrwt>0</asrwt>
<pdfrwt beam="1">  1        2 0.43785053E-01 0.38190011E+02</pdfrwt>
<pdfrwt beam="2">  1        2 0.21772716E+00 0.26109662E+03</pdfrwt>
<totfact> 0.26912904E+02</totfact>
</mgrwt>
</event>
<event>
13    1  0.1675423E-008  0.4650674E+02  0.7546771E-02  0.1469444E+00
          2   -1    0    0  503    0  0.00000000000E+00  0.00000000000E+00  0.18044871519E+03  0.18044871519E+03  0.00000000000E+00 0. -1.
          2   -1    0    0  502    0 -0.00000000000E+00 -0.00000000000E+00 -0.10757461716E+04  0.10757461716E+04  0.00000000000E+00 0. -1.
         24    2    1    2    0    0  0.11071875155E+02  0.50217877149E+02 -0.15027013127E+03  0.17781733863E+03  0.79959189346E+02 0.  0.
         25    2    1    2    0    0 -0.13448418736E+03 -0.17445158437E+02 -0.41882960520E+03  0.45763598816E+03  0.12498851650E+03 0.  0.
         24    2    1    2    0    0  0.69690465715E+02 -0.52427724300E+02 -0.27916781171E+03  0.30338852943E+03  0.80650514014E+02 0.  0.
        -11    1    3    3    0    0  0.26543554138E+02 -0.15708811268E+00 -0.10513148353E+03  0.10843068649E+03  0.00000000000E+00 0.  1.
         12    1    3    3    0    0 -0.15471678984E+02  0.50374965261E+02 -0.45138647739E+02  0.69386652141E+02  0.00000000000E+00 0. -1.
        -13    1    5    5    0    0  0.57146384604E+02 -0.70459393931E+02 -0.17710188254E+03  0.19898570869E+03  0.00000000000E+00 0.  1.
         14    1    5    5    0    0  0.12544081111E+02  0.18031669631E+02 -0.10206592917E+03  0.10440282074E+03  0.00000000000E+00 0. -1.
          5    1    4    4  501    0 -0.14751181426E+03 -0.17196013077E+02 -0.27017628893E+03  0.30833870226E+03  0.47000000000E+01 0. -1.
         -5    1    4    4    0  501  0.13027626901E+02 -0.24914536035E+00 -0.14865331628E+03  0.14929728590E+03  0.47000000000E+01 0. -1.
          1    1    1    2  502    0  0.15960761366E+02  0.44300960110E+02 -0.17523379225E+03  0.18145027670E+03  0.00000000000E+00 0. -1.
          1    1    1    2  503    0  0.37761085121E+02 -0.24645954521E+02  0.12820388404E+03  0.13590275386E+03  0.00000000000E+00 0. -1.
<mgrwt>
<rscale>  0 0.45794100E+02</rscale>
<asrwt>0</asrwt>
<pdfrwt beam="1">  1        2 0.26536575E-01 0.45092379E+02</pdfrwt>
<pdfrwt beam="2">  1        2 0.15819797E+00 0.46506740E+02</pdfrwt>
<totfact> 0.82197066E+02</totfact>
</mgrwt>
</event>
<event>
13    1  0.1675423E-008  0.2424190E+03  0.7546771E-02  0.1319871E+00
          2   -1    0    0  503    0  0.00000000000E+00  0.00000000000E+00  0.48888761723E+04  0.48888761723E+04  0.00000000000E+00 0. -1.
          2   -1    0    0  502    0 -0.00000000000E+00 -0.00000000000E+00 -0.15657455134E+04  0.15657455134E+04  0.00000000000E+00 0. -1.
         24    2    1    2    0    0  0.91127826141E+02 -0.12891283883E+03  0.57923892462E+03  0.60554987372E+03  0.79057681790E+02 0.  0.
         25    2    1    2    0    0  0.16173009538E+03  0.65270349561E+02 -0.92571779643E+03  0.95026035944E+03  0.12499787920E+03 0.  0.
         24    2    1    2    0    0 -0.34354699483E+03  0.20035515229E+03 -0.92813072786E+01  0.40522415025E+03  0.77160511752E+02 0.  0.
        -13    1    3    3    0    0  0.17883650550E+02 -0.79483528216E+02  0.19603830528E+03  0.21229336624E+03  0.00000000000E+00 0.  1.
         14    1    3    3    0    0  0.73244175592E+02 -0.49429310619E+02  0.38320061934E+03  0.39325650747E+03  0.00000000000E+00 0. -1.
        -13    1    5    5    0    0 -0.27294719659E+03  0.13607176623E+03  0.19191228417E+02  0.30558795942E+03  0.00000000000E+00 0.  1.
         14    1    5    5    0    0 -0.70599798236E+02  0.64283386057E+02 -0.28472535695E+02  0.99636190828E+02  0.00000000000E+00 0. -1.
          5    1    4    4  501    0  0.81781430547E+02 -0.14757780434E+01 -0.65597596307E+03  0.66107256366E+03  0.47000000000E+01 0.  1.
         -5    1    4    4    0  501  0.79948664837E+02  0.66746127604E+02 -0.26974183336E+03  0.28918779578E+03  0.47000000000E+01 0.  1.
          1    1    1    2  502    0 -0.28582252174E+02 -0.18311697526E+01 -0.40485868007E+03  0.40587048322E+03  0.00000000000E+00 0. -1.
          1    1    1    2  503    0  0.11927132548E+03 -0.13488149326E+03  0.40837495181E+04  0.40877168191E+04  0.00000000000E+00 0. -1.
<mgrwt>
<rscale>  0 0.83325183E+02</rscale>
<asrwt>0</asrwt>
<pdfrwt beam="1">  1        2 0.71895238E+00 0.24241899E+03</pdfrwt>
<pdfrwt beam="2">  1        2 0.23025669E+00 0.28640851E+02</pdfrwt>
<totfact> 0.30762993E-01</totfact>
</mgrwt>
</event>
<event>
13    1  0.1675423E-008  0.8299872E+02  0.7546771E-02  0.1387835E+00
          2   -1    0    0  502    0  0.00000000000E+00  0.00000000000E+00  0.93693502451E+03  0.93693502451E+03  0.00000000000E+00 0. -1.
          2   -1    0    0  503    0 -0.00000000000E+00 -0.00000000000E+00 -0.12930363281E+04  0.12930363281E+04  0.00000000000E+00 0. -1.
         24    2    1    2    0    0  0.43628199506E+02  0.18042254775E+03  0.47731715261E+03  0.51822301483E+03  0.79168891542E+02 0.  0.
         25    2    1    2    0    0  0.61188187103E+02 -0.11628193327E+03 -0.56272896567E+02  0.18989793511E+03  0.12501641741E+03 0.  0.
         24    2    1    2    0    0 -0.26242051885E+02  0.78016985635E+01 -0.53376081413E+02  0.10233251351E+03  0.82906124424E+02 0.  0.
        -11    1    5    5    0    0 -0.28441565418E+02 -0.11133679551E+02 -0.70421873205E+02  0.76760156914E+02  0.00000000000E+00 0.  1.
         12    1    5    5    0    0  0.21995135337E+01  0.18935378115E+02  0.17045791792E+02  0.25572356598E+02  0.00000000000E+00 0. -1.
        -13    1    3    3    0    0  0.43325507469E+01  0.10348785445E+02  0.14019738767E+01  0.11306364885E+02  0.00000000000E+00 0.  1.
         14    1    3    3    0    0  0.39295648759E+02  0.17007376231E+03  0.47591517874E+03  0.50691664994E+03  0.00000000000E+00 0. -1.
          5    1    4    4  501    0 -0.14909673301E+02 -0.19822308260E+02  0.30363578180E+02  0.39487455510E+02  0.47000000000E+01 0.  1.
         -5    1    4    4    0  501  0.76097860404E+02 -0.96459625013E+02 -0.86636474747E+02  0.15041047960E+03  0.47000000000E+01 0.  1.
          1    1    1    2  502    0 -0.78834046941E+02 -0.24956579831E+02  0.34243560472E+03  0.35227798855E+03  0.00000000000E+00 0. -1.
          1    1    1    2  503    0  0.25971221642E+00 -0.46985733210E+02 -0.10662050829E+04  0.10672399006E+04  0.00000000000E+00 0. -1.
<mgrwt>
<rscale>  0 0.62448502E+02</rscale>
<asrwt>0</asrwt>
<pdfrwt beam="1">  1        2 0.13778456E+00 0.82998722E+02</pdfrwt>
<pdfrwt beam="2">  1        2 0.19015240E+00 0.46986451E+02</pdfrwt>
<totfact> 0.10763255E+02</totfact>
</mgrwt>
</event>
<event>
13    1  0.1675423E-008  0.1940945E+03  0.7546771E-02  0.1350926E+00
          2   -1    0    0  503    0  0.00000000000E+00  0.00000000000E+00  0.24964902448E+04  0.24964902448E+04  0.00000000000E+00 0. -1.
         -1   -1    0    0    0  501 -0.00000000000E+00 -0.00000000000E+00 -0.10508336824E+04  0.10508336824E+04  0.00000000000E+00 0.  1.
         24    2    1    2    0    0 -0.14092427834E+03  0.26529027324E+03  0.41304423723E+03  0.51751184715E+03  0.83512805767E+02 0.  0.
         25    2    1    2    0    0 -0.21078534385E+03 -0.11719611126E+03 -0.50330872823E+03  0.57193526294E+03  0.12499951763E+03 0.  0.
         24    2    1    2    0    0  0.38157305324E+02 -0.74113044683E+02  0.46747629085E+03  0.48180529349E+03  0.81569203626E+02 0.  0.
        -11    1    3    3    0    0 -0.48947916364E+02  0.40329280378E+02  0.12852687613E+03  0.14332308698E+03  0.00000000000E+00 0.  1.
         12    1    3    3    0    0 -0.91976361975E+02  0.22496099286E+03  0.28451736110E+03  0.37418876017E+03  0.00000000000E+00 0. -1.
        -13    1    5    5    0    0  0.40965871980E+02 -0.89881372638E+02  0.36699509663E+03  0.38005560746E+03  0.00000000000E+00 0.  1.
         14    1    5    5    0    0 -0.28085666560E+01  0.15768327955E+02  0.10048119423E+03  0.10174968603E+03  0.00000000000E+00 0. -1.
          5    1    4    4  502    0 -0.21027565168E+03 -0.10730904337E+03 -0.50786129603E+03  0.56006809094E+03  0.47000000000E+01 0.  1.
         -5    1    4    4    0  502 -0.50969216694E+00 -0.98870678909E+01  0.45525678084E+01  0.11867171998E+02  0.47000000000E+01 0.  1.
          1    1    1    2  503    0  0.30682630492E+03 -0.10042025048E+03  0.15047101631E+04  0.15389539574E+04  0.00000000000E+00 0. -1.
         -2    1    1    2    0  501  0.67260119464E+01  0.26439133187E+02 -0.43626540058E+03  0.43711756627E+03  0.00000000000E+00 0.  1.
<mgrwt>
<rscale>  0 0.72767735E+02</rscale>
<asrwt>0</asrwt>
<pdfrwt beam="1">  1        2 0.36713092E+00 0.19409454E+03</pdfrwt>
<pdfrwt beam="2">  1       -1 0.15453436E+00 0.27281257E+02</pdfrwt>
<totfact> 0.22838711E+00</totfact>
</mgrwt>
</event>
<event>
13    1  0.1675423E-008  0.2343193E+03  0.7546771E-02  0.1255279E+00
          2   -1    0    0  503    0  0.00000000000E+00  0.00000000000E+00  0.18489319172E+04  0.18489319172E+04  0.00000000000E+00 0. -1.
          2   -1    0    0  502    0 -0.00000000000E+00 -0.00000000000E+00 -0.13833108323E+04  0.13833108323E+04  0.00000000000E+00 0. -1.
         24    2    1    2    0    0  0.62825273418E+02  0.33440518558E+02  0.22539206761E+02  0.10672015628E+03  0.76262000064E+02 0.  0.
         25    2    1    2    0    0  0.18908226505E+03 -0.23246286125E+03 -0.71998049636E+03  0.78980293480E+03  0.12500270340E+03 0.  0.
         24    2    1    2    0    0 -0.92383036194E+02  0.54573034973E+02  0.22916984290E+01  0.13520482792E+03  0.82232913654E+02 0.  0.
        -11    1    5    5    0    0  0.15185012703E+02  0.10753838555E+02 -0.33970868730E+01  0.18914805146E+02  0.00000000000E+00 0.  1.
         12    1    5    5    0    0 -0.10756804890E+03  0.43819196418E+02  0.56887853020E+01  0.11629002277E+03  0.00000000000E+00 0. -1.
        -13    1    3    3    0    0  0.55141691723E+02 -0.85382579114E+01 -0.48527894049E+01  0.56009441876E+02  0.00000000000E+00 0.  1.
         14    1    3    3    0    0  0.76835816952E+01  0.41978776470E+02  0.27391996166E+02  0.50710714405E+02  0.00000000000E+00 0. -1.
          5    1    4    4  501    0 -0.53795990216E+00 -0.78616340324E+02 -0.21214900042E+03  0.22629650184E+03  0.47000000000E+01 0.  1.
         -5    1    4    4    0  501  0.18962022496E+03 -0.15384652093E+03 -0.50783149593E+03  0.56350643295E+03  0.47000000000E+01 0.  1.
          1    1    1    2  502    0  0.44844964472E+02  0.30802696066E+02 -0.51028490576E+03  0.51317693048E+03  0.00000000000E+00 0. -1.
          1    1    1    2  503    0 -0.20436946675E+03  0.11364661166E+03  0.16710555819E+04  0.16873379000E+04  0.00000000000E+00 0. -1.
<mgrwt>
<rscale>  0 0.11290741E+03</rscale>
<asrwt>0</asrwt>
<pdfrwt beam="1">  1        2 0.27190175E+00 0.23431931E+03</pdfrwt>
<pdfrwt beam="2">  1        2 0.20342806E+00 0.54404751E+02</pdfrwt>
<totfact> 0.29873778E+01</totfact>
</mgrwt>
</event>
<event>
13    1  0.1675423E-008  0.7451520E+02  0.7546771E-02  0.1406162E+00
          2   -1    0    0  503    0  0.00000000000E+00  0.00000000000E+00  0.68597839912E+03  0.68597839912E+03  0.00000000000E+00 0. -1.
          2   -1    0    0  502    0 -0.00000000000E+00 -0.00000000000E+00 -0.63387254644E+03  0.63387254644E+03  0.00000000000E+00 0. -1.
         24    2    1    2    0    0 -0.34497193032E+02 -0.89627116782E+00  0.24943806265E+03  0.26426831031E+03  0.80171897238E+02 0.  0.
         25    2    1    2    0    0  0.92099438725E+02  0.13647977446E+03 -0.10218060120E+03  0.23060243763E+03  0.12501029369E+03 0.  0.
         24    2    1    2    0    0 -0.78530137677E+01 -0.55685033219E+02 -0.16878623618E+03  0.19508240316E+03  0.80036602540E+02 0.  0.
        -13    1    3    3    0    0 -0.86708909364E+01  0.38101507047E+02  0.90142882426E+02  0.98247892806E+02  0.00000000000E+00 0.  1.
         14    1    3    3    0    0 -0.25826302096E+02 -0.38997778214E+02  0.15929518022E+03  0.16602041750E+03  0.00000000000E+00 0. -1.
        -13    1    5    5    0    0  0.21173076060E+02 -0.62621134632E+02 -0.97445491212E+02  0.11775113337E+03  0.00000000000E+00 0.  1.
         14    1    5    5    0    0 -0.29026089828E+02  0.69361014128E+01 -0.71340744973E+02  0.77331269787E+02  0.00000000000E+00 0. -1.
          5    1    4    4  501    0 -0.20536126221E+02  0.69430320851E+02 -0.55604563721E+02  0.91412578129E+02  0.47000000000E+01 0. -1.
         -5    1    4    4    0  501  0.11263556495E+03  0.67049453605E+02 -0.46576037480E+02  0.13918985950E+03  0.47000000000E+01 0. -1.
          1    1    1    2  502    0  0.14744889054E+02 -0.42766819135E+02 -0.27230858596E+03  0.27604053789E+03  0.00000000000E+00 0. -1.
          1    1    1    2  503    0 -0.64494120979E+02 -0.37131650934E+02  0.34594321338E+03  0.35385725657E+03  0.00000000000E+00 0. -1.
<mgrwt>
<rscale>  0 0.58059158E+02</rscale>
<asrwt>0</asrwt>
<pdfrwt beam="1">  1        2 0.10087918E+00 0.74515200E+02</pdfrwt>
<pdfrwt beam="2">  1        2 0.93216551E-01 0.45237292E+02</pdfrwt>
<totfact> 0.38015971E+02</totfact>
</mgrwt>
</event>
<event>
13    1  0.1675423E-008  0.5773189E+02  0.7546771E-02  0.1468495E+00
         -1   -1    0    0    0  501 -0.00000000000E+00  0.00000000000E+00  0.37492668307E+03  0.37492668307E+03  0.00000000000E+00 0.  1.
          2   -1    0    0  503    0  0.00000000000E+00 -0.00000000000E+00 -0.28113320576E+04  0.28113320576E+04  0.00000000000E+00 0. -1.
         24    2    1    2    0    0 -0.30036727148E+03 -0.12393530997E+03 -0.69770745395E+03  0.77565923039E+03  0.96286507618E+02 0.  0.
         25    2    1    2    0    0  0.14222507373E+03 -0.25037573138E+03 -0.33780690971E+03  0.46114410174E+03  0.12499758340E+03 0.  0.
         24    2    1    2    0    0  0.93951414097E+02  0.34784577174E+03  0.26008322470E+02  0.36996039509E+03  0.79816739936E+02 0.  0.
        -11    1    3    3    0    0 -0.64872044248E+02 -0.20366215953E+02 -0.71512859695E+02  0.98677525197E+02  0.00000000000E+00 0.  1.
         12    1    3    3    0    0 -0.23549522724E+03 -0.10356909401E+03 -0.62619459426E+03  0.67698170519E+03  0.00000000000E+00 0. -1.
        -13    1    5    5    0    0  0.44298636838E+02  0.79309437046E+02  0.33357483885E+02  0.96773331870E+02  0.00000000000E+00 0.  1.
         14    1    5    5    0    0  0.49652777260E+02  0.26853633469E+03 -0.73491614146E+01  0.27318706322E+03  0.00000000000E+00 0. -1.
          5    1    4    4  502    0 -0.17855680091E+02 -0.12836237126E+02 -0.51137999509E+02  0.55863935493E+02  0.47000000000E+01 0.  1.
         -5    1    4    4    0  502  0.16008075382E+03 -0.23753949425E+03 -0.28666891020E+03  0.40528016624E+03  0.47000000000E+01 0.  1.
          1    1    1    2  503    0  0.33794748734E+02  0.46803861994E+02 -0.14982263582E+04  0.14993381563E+04  0.00000000000E+00 0. -1.
         -2    1    1    2    0  501  0.30396034925E+02 -0.20338592386E+02  0.71327024837E+02  0.80156857171E+02  0.00000000000E+00 0.  1.
<mgrwt>
<rscale>  0 0.45950221E+02</rscale>
<asrwt>0</asrwt>
<pdfrwt beam="2">  1        2 0.41343117E+00 0.57731889E+02</pdfrwt>
<pdfrwt beam="1">  1       -1 0.55136279E-01 0.36572904E+02</pdfrwt>
<totfact> 0.15852856E+01</totfact>
</mgrwt>
</event>
<event>
13    1  0.1675423E-008  0.7776949E+02  0.7546771E-02  0.1431413E+00
          2   -1    0    0  502    0  0.00000000000E+00  0.00000000000E+00  0.21516286196E+04  0.21516286196E+04  0.00000000000E+00 0. -1.
          2   -1    0    0  503    0 -0.00000000000E+00 -0.00000000000E+00 -0.20034363538E+04  0.20034363538E+04  0.00000000000E+00 0. -1.
         24    2    1    2    0    0  0.35746319014E+03  0.34694898031E+02  0.13306061156E+04  0.13805070849E+04  0.79394636466E+02 0.  0.
         25    2    1    2    0    0 -0.45900459124E+03 -0.28419512575E+02 -0.64942172029E+03  0.80552676393E+03  0.12502764953E+03 0.  0.
         24    2    1    2    0    0  0.47326137005E+02  0.23918730680E+02  0.41948207191E+03  0.43126833732E+03  0.84942929051E+02 0.  0.
        -13    1    5    5    0    0  0.58088538077E+01  0.31583805186E+02  0.33777666421E+03  0.33929980021E+03  0.00000000000E+00 0.  1.
         14    1    5    5    0    0  0.41517283197E+02 -0.76650745059E+01  0.81705407698E+02  0.91968537111E+02  0.00000000000E+00 0. -1.
        -13    1    3    3    0    0  0.43053177327E+02  0.14441852079E+02  0.93967810846E+02  0.10436518885E+03  0.00000000000E+00 0.  1.
         14    1    3    3    0    0  0.31441001281E+03  0.20253045952E+02  0.12366383048E+04  0.12761418960E+04  0.00000000000E+00 0. -1.
          5    1    4    4  501    0 -0.41779340459E+03 -0.53556447404E+02 -0.61738859270E+03  0.74740242598E+03  0.47000000000E+01 0.  1.
         -5    1    4    4    0  501 -0.41211186652E+02  0.25136934829E+02 -0.32033127590E+02  0.58124337941E+02  0.47000000000E+01 0.  1.
          1    1    1    2  502    0  0.43927154628E+02 -0.64359901288E+02  0.28719603443E+03  0.29757915585E+03  0.00000000000E+00 0. -1.
          1    1    1    2  503    0  0.10288109469E+02  0.34165785153E+02 -0.12396702359E+04  0.12401836315E+04  0.00000000000E+00 0. -1.
<mgrwt>
<rscale>  0 0.52677381E+02</rscale>
<asrwt>0</asrwt>
<pdfrwt beam="1">  1        2 0.31641598E+00 0.77769487E+02</pdfrwt>
<pdfrwt beam="2">  1        2 0.29462299E+00 0.35681173E+02</pdfrwt>
<totfact> 0.12690972E+01</totfact>
</mgrwt>
</event>
<event>
13    1  0.1675423E-008  0.7876121E+02  0.7546771E-02  0.1408931E+00
          2   -1    0    0  502    0  0.00000000000E+00  0.00000000000E+00  0.48560061199E+03  0.48560061199E+03  0.00000000000E+00 0. -1.
          2   -1    0    0  503    0 -0.00000000000E+00 -0.00000000000E+00 -0.49748193954E+03  0.49748193954E+03  0.00000000000E+00 0. -1.
         24    2    1    2    0    0 -0.50683257393E+02 -0.36982959370E+02  0.21202997200E+03  0.23535619330E+03  0.80618216505E+02 0.  0.
         25    2    1    2    0    0 -0.46922427622E+02  0.61446647833E+02 -0.29009630067E+03  0.32520359682E+03  0.12499644387E+03 0.  0.
         24    2    1    2    0    0  0.24826072145E+02 -0.10061111127E+03  0.39990927950E+02  0.13738797110E+03  0.80853266568E+02 0.  0.
        -11    1    5    5    0    0  0.31445170091E+02 -0.10580061753E+03  0.15456247262E+02  0.11145162615E+03  0.00000000000E+00 0.  1.
         12    1    5    5    0    0 -0.66190979459E+01  0.51895062604E+01  0.24534680688E+02  0.25936344949E+02  0.00000000000E+00 0. -1.
        -13    1    3    3    0    0 -0.57739643821E+02 -0.28826799317E+02  0.79539335963E+02  0.10242732444E+03  0.00000000000E+00 0.  1.
         14    1    3    3    0    0  0.70563864285E+01 -0.81561600525E+01  0.13249063604E+03  0.13292886885E+03  0.00000000000E+00 0. -1.
          5    1    4    4  501    0 -0.61269024787E+02  0.27422036310E+02 -0.27805440011E+03  0.28608075939E+03  0.47000000000E+01 0.  1.
         -5    1    4    4    0  501  0.14346597165E+02  0.34024611523E+02 -0.12041900562E+02  0.39122837431E+02  0.47000000000E+01 0.  1.
          1    1    1    2  502    0  0.70262804131E+02  0.34342512629E+02  0.14193208020E+03  0.16205241500E+03  0.00000000000E+00 0. -1.
          1    1    1    2  503    0  0.25168087383E+01  0.41804910175E+02 -0.11573800703E+03  0.12308237532E+03  0.00000000000E+00 0. -1.
<mgrwt>
<rscale>  0 0.57433150E+02</rscale>
<asrwt>0</asrwt>
<pdfrwt beam="1">  1        2 0.71411855E-01 0.78761205E+02</pdfrwt>
<pdfrwt beam="2">  1        2 0.73159109E-01 0.41880602E+02</pdfrwt>
<totfact> 0.71691420E+02</totfact>
</mgrwt>
</event>
<event>
13    1  0.1675423E-008  0.1081074E+03  0.7546771E-02  0.1386092E+00
          2   -1    0    0  503    0  0.00000000000E+00  0.00000000000E+00  0.91216242105E+03  0.91216242105E+03  0.00000000000E+00 0. -1.
          2   -1    0    0  502    0 -0.00000000000E+00 -0.00000000000E+00 -0.19473450475E+04  0.19473450475E+04  0.00000000000E+00 0. -1.
         24    2    1    2    0    0  0.39969298697E+03  0.19380943157E+03  0.40659981045E+03  0.60747352734E+03  0.79900569178E+02 0.  0.
         25    2    1    2    0    0 -0.42173648054E+03  0.56201677570E+02 -0.96311302042E+03  0.10602979911E+04  0.12499940919E+03 0.  0.
         24    2    1    2    0    0  0.69731325517E+02 -0.19376893842E+03 -0.62683101282E+00  0.21957075798E+03  0.76171291110E+02 0.  0.
        -13    1    5    5    0    0  0.77497785807E+01 -0.12513360444E+03  0.13186797876E+02  0.12606494226E+03  0.00000000000E+00 0.  1.
         14    1    5    5    0    0  0.61981546936E+02 -0.68635333973E+02 -0.13813628889E+02  0.93505815719E+02  0.00000000000E+00 0. -1.
        -13    1    3    3    0    0  0.28666788705E+03  0.14754059391E+03  0.24509994162E+03  0.40499467367E+03  0.00000000000E+00 0.  1.
         14    1    3    3    0    0  0.11302509993E+03  0.46268837658E+02  0.16149986883E+03  0.20247885367E+03  0.00000000000E+00 0. -1.
          5    1    4    4  501    0 -0.40531105221E+03  0.44520783426E+02 -0.82105363429E+03  0.91673895389E+03  0.47000000000E+01 0. -1.
         -5    1    4    4    0  501 -0.16425428332E+02  0.11680894144E+02 -0.14205938612E+03  0.14355903723E+03  0.47000000000E+01 0. -1.
          1    1    1    2  502    0  0.11192389083E+02  0.34830466388E+02 -0.71271106915E+03  0.71364942307E+03  0.00000000000E+00 0. -1.
          1    1    1    2  503    0 -0.58880221029E+02 -0.91072637110E+02  0.23466848363E+03  0.25851576909E+03  0.00000000000E+00 0. -1.
<mgrwt>
<rscale>  0 0.62889283E+02</rscale>
<asrwt>0</asrwt>
<pdfrwt beam="1">  1        2 0.13414153E+00 0.10810737E+03</pdfrwt>
<pdfrwt beam="2">  1        2 0.28637427E+00 0.36584573E+02</pdfrwt>
<totfact> 0.55570856E+01</totfact>
</mgrwt>
</event>
<event>
13    1  0.1675423E-008  0.9866654E+02  0.7546771E-02  0.1289566E+00
          2   -1    0    0  503    0  0.00000000000E+00  0.00000000000E+00  0.26435091637E+04  0.26435091637E+04  0.00000000000E+00 0. -1.
          2   -1    0    0  502    0 -0.00000000000E+00 -0.00000000000E+00 -0.68614611294E+03  0.68614611294E+03  0.00000000000E+00 0. -1.
         24    2    1    2    0    0  0.34369649697E+01  0.99473253526E+02  0.79415421613E+03  0.80429214273E+03  0.79361142662E+02 0.  0.
         25    2    1    2    0    0 -0.85522712809E+00  0.55600451715E+02 -0.27716925196E+02  0.13959019429E+03  0.12500021102E+03 0.  0.
         24    2    1    2    0    0  0.76205563229E+01 -0.10799193404E+02  0.38155603055E+03  0.39044258802E+03  0.81766219409E+02 0.  0.
        -11    1    5    5    0    0  0.78500634773E+01  0.35051529803E+02  0.19905127327E+03  0.20226626666E+03  0.00000000000E+00 0.  1.
         12    1    5    5    0    0 -0.22950715435E+00 -0.45850723206E+02  0.18250475728E+03  0.18817632136E+03  0.00000000000E+00 0. -1.
        -13    1    3    3    0    0  0.15089227277E+01 -0.13841624487E+02  0.93685953188E+02  0.94714968410E+02  0.00000000000E+00 0.  1.
         14    1    3    3    0    0  0.19280422420E+01  0.11331487801E+03  0.70046826294E+03  0.70957717432E+03  0.00000000000E+00 0. -1.
          5    1    4    4  501    0  0.61843242134E+02  0.30059309454E+02 -0.15291982544E+02  0.70598041139E+02  0.47000000000E+01 0. -1.
         -5    1    4    4    0  501 -0.62698469263E+02  0.25541142261E+02 -0.12424942652E+02  0.68992153146E+02  0.47000000000E+01 0. -1.
          1    1    1    2  502    0  0.64394804332E+02 -0.74723916062E+02 -0.58700524758E+03  0.59523568034E+03  0.00000000000E+00 0. -1.
          1    1    1    2  503    0 -0.74597098496E+02 -0.69550595776E+02  0.13963749769E+04  0.14000946713E+04  0.00000000000E+00 0. -1.
<mgrwt>
<rscale>  0 0.95718646E+02</rscale>
<asrwt>0</asrwt>
<pdfrwt beam="1">  1        2 0.38875134E+00 0.92858827E+02</pdfrwt>
<pdfrwt beam="2">  1        2 0.10090384E+00 0.98666540E+02</pdfrwt>
<totfact> 0.32497766E+01</totfact>
</mgrwt>
</event>
<event>
13    1  0.1675423E-008  0.2356433E+03  0.7546771E-02  0.1261796E+00
          2   -1    0    0  502    0  0.00000000000E+00  0.00000000000E+00  0.21760220838E+04  0.21760220838E+04  0.00000000000E+00 0. -1.
          2   -1    0    0  503    0 -0.00000000000E+00 -0.00000000000E+00 -0.22321593578E+04  0.22321593578E+04  0.00000000000E+00 0. -1.
         24    2    1    2    0    0  0.15400404346E+03  0.26206768485E+02  0.45670021713E+03  0.48953382377E+03  0.81634773042E+02 0.  0.
         25    2    1    2    0    0 -0.25201292265E+03  0.84249419416E+02 -0.86993161741E+03  0.91815855712E+03  0.12500255676E+03 0.  0.
         24    2    1    2    0    0 -0.39437493918E+00  0.23025599034E+02  0.20015544684E+02  0.90326051323E+02  0.85016702924E+02 0.  0.
        -11    1    5    5    0    0 -0.26232200968E+02  0.36413941620E+02  0.35628464322E+02  0.57301753742E+02  0.00000000000E+00 0.  1.
         12    1    5    5    0    0  0.25837826029E+02 -0.13388342586E+02 -0.15612919638E+02  0.33024297581E+02  0.00000000000E+00 0. -1.
        -13    1    3    3    0    0 -0.10212938772E+01 -0.12991866859E+02  0.15500952817E+02  0.20251202036E+02  0.00000000000E+00 0.  1.
         14    1    3    3    0    0  0.15502533734E+03  0.39198635343E+02  0.44119926431E+03  0.46928262173E+03  0.00000000000E+00 0. -1.
          5    1    4    4  501    0 -0.15388242854E+03  0.10823962619E+03 -0.48700615316E+03  0.52210411002E+03  0.47000000000E+01 0. -1.
         -5    1    4    4    0  501 -0.98130494102E+02 -0.23990206770E+02 -0.38292546426E+03  0.39605444710E+03  0.47000000000E+01 0. -1.
          1    1    1    2  502    0  0.13997958928E+03 -0.16255857997E+03  0.16160296916E+04  0.16302059813E+04  0.00000000000E+00 0. -1.
          1    1    1    2  503    0 -0.41576335154E+02  0.29076793031E+02 -0.12789511101E+04  0.12799570280E+04  0.00000000000E+00 0. -1.
<mgrwt>
<rscale>  0 0.10934071E+03</rscale>
<asrwt>0</asrwt>
<pdfrwt beam="1">  1        2 0.32000325E+00 0.23564332E+03</pdfrwt>
<pdfrwt beam="2">  1        2 0.32825873E+00 0.50735111E+02</pdfrwt>
<totfact> 0.82173426E+00</totfact>
</mgrwt>
</event>
<event>
13    1  0.1675423E-008  0.1022361E+03  0.7546771E-02  0.1326038E+00
         -1   -1    0    0    0  501 -0.00000000000E+00  0.00000000000E+00  0.26350216166E+03  0.26350216166E+03  0.00000000000E+00 0.  1.
          2   -1    0    0  503    0  0.00000000000E+00 -0.00000000000E+00 -0.14076734104E+04  0.14076734104E+04  0.00000000000E+00 0. -1.
         24    2    1    2    0    0 -0.46765298085E+02  0.75062722095E+02 -0.37389512463E+02  0.12731165143E+03  0.83599495187E+02 0.  0.
         25    2    1    2    0    0  0.89604277086E+02 -0.77458232087E+02 -0.16886533000E+03  0.24118183702E+03  0.12499789855E+03 0.  0.
         24    2    1    2    0    0 -0.51272609033E+01 -0.16828527076E+02 -0.22927824937E+03  0.24357898667E+03  0.80328817882E+02 0.  0.
        -13    1    5    5    0    0 -0.47540206128E+01 -0.48372733277E+02 -0.11119006047E+03  0.12134970780E+03  0.00000000000E+00 0.  1.
         14    1    5    5    0    0 -0.37324029054E+00  0.31544206201E+02 -0.11808818891E+03  0.12222927887E+03  0.00000000000E+00 0. -1.
        -13    1    3    3    0    0 -0.52891258007E+02  0.13986981305E+02  0.13517583146E+01  0.54726118720E+02  0.00000000000E+00 0.  1.
         14    1    3    3    0    0  0.61259599229E+01  0.61075740789E+02 -0.38741270777E+02  0.72585532714E+02  0.00000000000E+00 0. -1.
          5    1    4    4  502    0  0.51836262534E+02 -0.30956386593E+02 -0.17063712550E+03  0.18106466962E+03  0.47000000000E+01 0.  1.
         -5    1    4    4    0  502  0.37768014552E+02 -0.46501845494E+02  0.17717954983E+01  0.60117167405E+02  0.47000000000E+01 0.  1.
          1    1    1    2  503    0  0.63119968837E+02 -0.12199212896E+02 -0.86665740187E+03  0.86903855121E+03  0.00000000000E+00 0. -1.
         -2    1    1    2    0  501 -0.10083168694E+03  0.31423249964E+02  0.15801924502E+03  0.19006454568E+03  0.00000000000E+00 0.  1.
<mgrwt>
<rscale>  0 0.81071301E+02</rscale>
<asrwt>0</asrwt>
<pdfrwt beam="2">  1        2 0.20701080E+00 0.64288034E+02</pdfrwt>
<pdfrwt beam="1">  1       -1 0.38750317E-01 0.10223607E+03</pdfrwt>
<totfact> 0.13762042E+02</totfact>
</mgrwt>
</event>
<event>
13    1  0.1675423E-008  0.3432839E+02  0.7546771E-02  0.1567973E+00
          2   -1    0    0  503    0  0.00000000000E+00  0.00000000000E+00  0.59396682314E+03  0.59396682314E+03  0.00000000000E+00 0. -1.
         -3   -1    0    0    0  501 -0.00000000000E+00 -0.00000000000E+00 -0.96776856155E+03  0.96776856155E+03  0.00000000000E+00 0.  1.
         24    2    1    2    0    0 -0.38125562257E+02 -0.31750061403E+02  0.28284824775E+03  0.29715421250E+03  0.76392865201E+02 0.  0.
         25    2    1    2    0    0  0.86476597347E+02  0.54793478432E+02 -0.67877168751E+03  0.69773598765E+03  0.12499591004E+03 0.  0.
         24    2    1    2    0    0 -0.50366165534E+01  0.26422760252E+02 -0.66128681402E+02  0.10707818630E+03  0.79807303629E+02 0.  0.
        -13    1    5    5    0    0  0.36811593633E+02  0.18779525454E+02 -0.27694208223E+02  0.49746690052E+02  0.00000000000E+00 0.  1.
         14    1    5    5    0    0 -0.41848210186E+02  0.76432347985E+01 -0.38434473179E+02  0.57331496252E+02  0.00000000000E+00 0. -1.
        -13    1    3    3    0    0  0.30481960826E+00 -0.31133389645E+02  0.37167243088E+02  0.48484892746E+02  0.00000000000E+00 0.  1.
         14    1    3    3    0    0 -0.38430381865E+02 -0.61667175734E+00  0.24568100466E+03  0.24866931975E+03  0.00000000000E+00 0. -1.
          5    1    4    4  502    0  0.14563070360E+02  0.78276460083E+02 -0.44166893721E+03  0.44881268622E+03  0.47000000000E+01 0.  1.
         -5    1    4    4    0  502  0.71913526987E+02 -0.23482981651E+02 -0.23710275030E+03  0.24892330142E+03  0.47000000000E+01 0.  1.
          1    1    1    2  503    0 -0.23835267689E+02 -0.24644567403E+02  0.27158324564E+03  0.27373880616E+03  0.00000000000E+00 0. -1.
         -4    1    1    2    0  501 -0.19479150848E+02 -0.24821609878E+02 -0.18333286289E+03  0.18602819209E+03  0.00000000000E+00 0.  1.
<mgrwt>
<rscale>  0 0.32911104E+02</rscale>
<asrwt>0</asrwt>
<pdfrwt beam="1">  1        2 0.87348063E-01 0.34328391E+02</pdfrwt>
<pdfrwt beam="2">  1       -3 0.14231890E+00 0.31552332E+02</pdfrwt>
<totfact> 0.13474681E+01</totfact>
</mgrwt>
</event>
<event>
13    1  0.1675423E-008  0.1705398E+03  0.7546771E-02  0.1367032E+00
          2   -1    0    0  502    0  0.00000000000E+00  0.00000000000E+00  0.85614824385E+03  0.85614824385E+03  0.00000000000E+00 0. -1.
          2   -1    0    0  503    0 -0.00000000000E+00 -0.00000000000E+00 -0.21422407310E+04  0.21422407310E+04  0.00000000000E+00 0. -1.
         24    2    1    2    0    0  0.60148777400E+02 -0.73452103778E+02  0.61618852812E+02  0.14003034544E+03  0.82453184591E+02 0.  0.
         25    2    1    2    0    0 -0.21851639434E+03  0.16539284085E+03 -0.31236228424E+03  0.43393501879E+03  0.12500079007E+03 0.  0.
         24    2    1    2    0    0 -0.96242176706E+01 -0.72965507656E+02 -0.33624956952E+03  0.35310819471E+03  0.78772033709E+02 0.  0.
        -11    1    5    5    0    0 -0.44351457783E+02 -0.37080536268E+02 -0.18609005470E+03  0.19486284006E+03  0.00000000000E+00 0.  1.
         12    1    5    5    0    0  0.34727240113E+02 -0.35884971388E+02 -0.15015951482E+03  0.15824535465E+03  0.00000000000E+00 0. -1.
        -11    1    3    3    0    0 -0.14254907381E+02 -0.12150116597E+02 -0.87518971734E+01  0.20674221192E+02  0.00000000000E+00 0.  1.
         12    1    3    3    0    0  0.74403684781E+02 -0.61301987181E+02  0.70370749985E+02  0.11935612424E+03  0.00000000000E+00 0. -1.
          5    1    4    4  501    0 -0.80608553027E+02  0.27274097213E+00 -0.12389087151E+03  0.14788120655E+03  0.47000000000E+01 0. -1.
         -5    1    4    4    0  501 -0.13790784131E+03  0.16512009987E+03 -0.18847141273E+03  0.28605381224E+03  0.47000000000E+01 0. -1.
          1    1    1    2  502    0  0.15215354032E+03  0.30310809625E+01  0.67753397033E+03  0.69441498273E+03  0.00000000000E+00 0. -1.
          1    1    1    2  503    0  0.15838294288E+02 -0.22006310375E+02 -0.13766334565E+04  0.13769004332E+04  0.00000000000E+00 0. -1.
<mgrwt>
<rscale>  0 0.67999208E+02</rscale>
<asrwt>0</asrwt>
<pdfrwt beam="1">  1        2 0.12590416E+00 0.17053984E+03</pdfrwt>
<pdfrwt beam="2">  1        2 0.31503540E+00 0.27113267E+02</pdfrwt>
<totfact> 0.50069006E+01</totfact>
</mgrwt>
</event>
<event>
13    1  0.1675423E-008  0.1884479E+03  0.7546771E-02  0.1261137E+00
          2   -1    0    0  503    0  0.00000000000E+00  0.00000000000E+00  0.13890101911E+04  0.13890101911E+04  0.00000000000E+00 0. -1.
          2   -1    0    0  502    0 -0.00000000000E+00 -0.00000000000E+00 -0.18214851620E+04  0.18214851620E+04  0.00000000000E+00 0. -1.
         24    2    1    2    0    0 -0.81100612610E+02  0.35776541371E+03  0.17154342443E+03  0.41238081809E+03  0.77829249332E+02 0.  0.
         25    2    1    2    0    0  0.68341226514E+02 -0.12120112664E+03 -0.76423715946E+03  0.78679356033E+03  0.12500173738E+03 0.  0.
         24    2    1    2    0    0  0.43634217214E+02 -0.76068373356E+02  0.14030106116E+03  0.18614599304E+03  0.85297131407E+02 0.  0.
        -13    1    3    3    0    0 -0.29839008386E+02  0.25335309326E+03  0.14363935340E+03  0.29276342007E+03  0.00000000000E+00 0.  1.
         14    1    3    3    0    0 -0.51261604224E+02  0.10441232045E+03  0.27904071031E+02  0.11961739802E+03  0.00000000000E+00 0. -1.
        -13    1    5    5    0    0 -0.18659055046E+02 -0.50297573314E+02  0.75654818197E+02  0.92745122421E+02  0.00000000000E+00 0.  1.
         14    1    5    5    0    0  0.62293272260E+02 -0.25770800043E+02  0.64646242961E+02  0.93400870620E+02  0.00000000000E+00 0. -1.
          5    1    4    4  501    0 -0.10826430114E+02  0.20627250250E+02 -0.75762581992E+02  0.79402480263E+02  0.47000000000E+01 0.  1.
         -5    1    4    4    0  501  0.79167656628E+02 -0.14182837689E+03 -0.68847457746E+03  0.70739108007E+03  0.47000000000E+01 0.  1.
          1    1    1    2  502    0  0.28870313647E+02  0.56952671821E+02 -0.88768401949E+03  0.88997753921E+03  0.00000000000E+00 0. -1.
          1    1    1    2  503    0 -0.59745144765E+02 -0.21744858553E+03  0.90760172246E+03  0.93519744240E+03  0.00000000000E+00 0. -1.
<mgrwt>
<rscale>  0 0.10969417E+03</rscale>
<asrwt>0</asrwt>
<pdfrwt beam="1">  1        2 0.20426620E+00 0.18844791E+03</pdfrwt>
<pdfrwt beam="2">  1        2 0.26786547E+00 0.63852187E+02</pdfrwt>
<totfact> 0.31642193E+01</totfact>
</mgrwt>
</event>
<event>
13    1  0.1675423E-008  0.2064667E+03  0.7546771E-02  0.1220303E+00
          2   -1    0    0  502    0  0.00000000000E+00  0.00000000000E+00  0.12143048840E+04  0.12143048840E+04  0.00000000000E+00 0. -1.
          2   -1    0    0  503    0 -0.00000000000E+00 -0.00000000000E+00 -0.31765098691E+04  0.31765098691E+04  0.00000000000E+00 0. -1.
         24    2    1    2    0    0  0.15861559531E+03  0.19598436490E+03  0.95876060284E+02  0.28119070976E+03  0.79417995171E+02 0.  0.
         25    2    1    2    0    0 -0.11769156940E+03 -0.50677087641E+03 -0.66347125274E+03  0.85234195809E+03  0.12499873445E+03 0.  0.
         24    2    1    2    0    0 -0.18661667262E+02  0.39894107569E+02 -0.10916417500E+03  0.14187542067E+03  0.79196087293E+02 0.  0.
        -11    1    3    3    0    0  0.13641164937E+02 -0.21697356254E+01 -0.63897968945E+01  0.15219022238E+02  0.00000000000E+00 0.  1.
         12    1    3    3    0    0  0.14497443038E+03  0.19815410053E+03  0.10226585718E+03  0.26597168752E+03  0.00000000000E+00 0. -1.
        -13    1    5    5    0    0 -0.23403111574E+02 -0.93458617351E+01 -0.81265060679E+02  0.85082670680E+02  0.00000000000E+00 0.  1.
         14    1    5    5    0    0  0.47414443123E+01  0.49239969304E+02 -0.27899114321E+02  0.56792749987E+02  0.00000000000E+00 0. -1.
          5    1    4    4  501    0 -0.87145821831E+02 -0.39048044757E+03 -0.41611829677E+03  0.57727454569E+03  0.47000000000E+01 0. -1.
         -5    1    4    4    0  501 -0.30545747564E+02 -0.11629042885E+03 -0.24735295597E+03  0.27506741239E+03  0.47000000000E+01 0. -1.
          1    1    1    2  502    0 -0.65870180616E+02  0.19423361825E+03  0.90258741990E+03  0.92559690455E+03  0.00000000000E+00 0. -1.
          1    1    1    2  503    0  0.43607821961E+02  0.76658785692E+02 -0.21880330376E+04  0.21898097601E+04  0.00000000000E+00 0. -1.
<mgrwt>
<rscale>  0 0.13494131E+03</rscale>
<asrwt>0</asrwt>
<pdfrwt beam="1">  1        2 0.17857425E+00 0.20646669E+03</pdfrwt>
<pdfrwt beam="2">  1        2 0.46713380E+00 0.88194170E+02</pdfrwt>
<totfact> 0.79192647E+00</totfact>
</mgrwt>
</event>
<event>
13    1  0.1675423E-008  0.4530208E+02  0.7546771E-02  0.1486708E+00
          2   -1    0    0  503    0  0.00000000000E+00  0.00000000000E+00  0.90493693693E+03  0.90493693693E+03  0.00000000000E+00 0. -1.
          2   -1    0    0  502    0 -0.00000000000E+00 -0.00000000000E+00 -0.10920330589E+04  0.10920330589E+04  0.00000000000E+00 0. -1.
         24    2    1    2    0    0  0.80377121001E+02 -0.98803698935E+01  0.43355181792E+02  0.12214759142E+03  0.80512477362E+02 0.  0.
         25    2    1    2    0    0 -0.55944012736E+01  0.41622578694E+01 -0.36113208161E+03  0.38221678806E+03  0.12499868396E+03 0.  0.
         24    2    1    2    0    0 -0.38123227198E+02  0.82359292358E+01  0.97913460247E+02  0.13523086161E+03  0.84729742435E+02 0.  0.
        -11    1    3    3    0    0  0.69760345597E+02  0.12941672560E+02  0.59200264420E+02  0.92404891720E+02  0.00000000000E+00 0.  1.
         12    1    3    3    0    0  0.10616775404E+02 -0.22822042454E+02 -0.15845082628E+02  0.29742699696E+02  0.00000000000E+00 0. -1.
        -11    1    5    5    0    0  0.11405434010E+02 -0.24517652129E+02  0.93658098949E+01  0.28616736115E+02  0.00000000000E+00 0.  1.
         12    1    5    5    0    0 -0.49528661209E+02  0.32753581364E+02  0.88547650352E+02  0.10661412550E+03  0.00000000000E+00 0. -1.
          5    1    4    4  501    0  0.23081355520E+02  0.20224645589E+02 -0.34296879856E+03  0.34437112546E+03  0.47000000000E+01 0.  1.
         -5    1    4    4    0  501 -0.28675756794E+02 -0.16062387719E+02 -0.18163283053E+02  0.37845662608E+02  0.47000000000E+01 0.  1.
          1    1    1    2  502    0 -0.10537056039E+02 -0.39585208322E+02 -0.66092930530E+03  0.66219752708E+03  0.00000000000E+00 0. -1.
          1    1    1    2  503    0 -0.26122436490E+02  0.37067391111E+02  0.69369662292E+03  0.69517722764E+03  0.00000000000E+00 0. -1.
<mgrwt>
<rscale>  0 0.43078267E+02</rscale>
<asrwt>0</asrwt>
<pdfrwt beam="1">  1        2 0.13307896E+00 0.45302075E+02</pdfrwt>
<pdfrwt beam="2">  1        2 0.16059310E+00 0.40963621E+02</pdfrwt>
<totfact> 0.14739718E+02</totfact>
</mgrwt>
</event>
<event>
13    1  0.1675423E-008  0.1238035E+03  0.7546771E-02  0.1244259E+00
          4   -1    0    0  503    0  0.00000000000E+00  0.00000000000E+00  0.12411680165E+04  0.12411680165E+04  0.00000000000E+00 0. -1.
         -3   -1    0    0    0  501 -0.00000000000E+00 -0.00000000000E+00 -0.32234890850E+04  0.32234890850E+04  0.00000000000E+00 0.  1.
         24    2    1    2    0    0  0.10900621162E-01  0.26250410562E+03 -0.83039282222E+02  0.28361297704E+03  0.68061683513E+02 0.  0.
         25    2    1    2    0    0  0.49662105742E+02 -0.33728331971E+03 -0.51767192803E+03  0.63232628328E+03  0.12500376377E+03 0.  0.
         24    2    1    2    0    0  0.25019930725E+02  0.89820349469E+01 -0.94414124342E+03  0.94792705518E+03  0.80351356756E+02 0.  0.
        -11    1    5    5    0    0  0.39122080723E+02  0.22325192642E+02 -0.87367297862E+03  0.87483336985E+03  0.00000000000E+00 0.  1.
         12    1    5    5    0    0 -0.14102149997E+02 -0.13343157695E+02 -0.70468264796E+02  0.73093685330E+02  0.00000000000E+00 0. -1.
        -13    1    3    3    0    0  0.33616104476E+02  0.11005311621E+03 -0.35490384742E+02  0.12042133647E+03  0.00000000000E+00 0.  1.
         14    1    3    3    0    0 -0.33605203855E+02  0.15245098941E+03 -0.47548897480E+02  0.16319164057E+03  0.00000000000E+00 0. -1.
          5    1    4    4  502    0 -0.40249022877E+02 -0.87997396778E+02 -0.16201301430E+03  0.18876925726E+03  0.47000000000E+01 0.  1.
         -5    1    4    4    0  502  0.89911128619E+02 -0.24928592294E+03 -0.35565891373E+03  0.44355702603E+03  0.47000000000E+01 0.  1.
          3    1    1    2  503    0 -0.90676918338E+02 -0.84347213090E+02  0.10743432340E+04  0.10814574149E+04  0.00000000000E+00 0. -1.
         -4    1    1    2    0  501  0.15983981250E+02  0.15014439223E+03 -0.15118118488E+04  0.15193333711E+04  0.00000000000E+00 0.  1.
<mgrwt>
<rscale>  0 0.11929825E+03</rscale>
<asrwt>0</asrwt>
<pdfrwt beam="1">  1        4 0.18252471E+00 0.12380349E+03</pdfrwt>
<pdfrwt beam="2">  1       -3 0.47404251E+00 0.11495695E+03</pdfrwt>
<totfact> 0.22965689E-03</totfact>
</mgrwt>
</event>
<event>
13    1  0.1675423E-008  0.1758513E+03  0.7546771E-02  0.1346115E+00
          2   -1    0    0  502    0  0.00000000000E+00  0.00000000000E+00  0.11542308648E+04  0.11542308648E+04  0.00000000000E+00 0. -1.
          2   -1    0    0  503    0 -0.00000000000E+00 -0.00000000000E+00 -0.17281530217E+04  0.17281530217E+04  0.00000000000E+00 0. -1.
         24    2    1    2    0    0 -0.45605279626E+02 -0.25812058561E+02 -0.17554999647E+03  0.20049681336E+03  0.81455920659E+02 0.  0.
         25    2    1    2    0    0 -0.47814404556E+01 -0.97088908854E+02 -0.75455589136E+02  0.17541245803E+03  0.12500746420E+03 0.  0.
         24    2    1    2    0    0 -0.25385746230E+03 -0.59061351286E+02 -0.59194935992E+03  0.65139877009E+03  0.77359282395E+02 0.  0.
        -11    1    3    3    0    0 -0.60439907586E+02 -0.40011301611E+02 -0.10940643073E+03  0.13123891866E+03  0.00000000000E+00 0.  1.
         12    1    3    3    0    0  0.14834627960E+02  0.14199243051E+02 -0.66143565731E+02  0.69257894695E+02  0.00000000000E+00 0. -1.
        -13    1    5    5    0    0 -0.24356301023E+03 -0.72842036090E+02 -0.54437835000E+03  0.60081335714E+03  0.00000000000E+00 0.  1.
         14    1    5    5    0    0 -0.10294452065E+02  0.13780684804E+02 -0.47571009927E+02  0.50585412942E+02  0.00000000000E+00 0. -1.
          5    1    4    4  501    0  0.11622132904E+01 -0.94761079853E+02  0.45705329785E+01  0.94994698623E+02  0.47000000000E+01 0.  1.
         -5    1    4    4    0  501 -0.59436537460E+01 -0.23278290009E+01 -0.80026122115E+02  0.80417759410E+02  0.47000000000E+01 0.  1.
          1    1    1    2  502    0 -0.29399834309E+02 -0.10959471468E+02  0.10149712421E+04  0.10154560958E+04  0.00000000000E+00 0. -1.
          1    1    1    2  503    0  0.33364401669E+03  0.19292179017E+03 -0.74593845338E+03  0.83961974919E+03  0.00000000000E+00 0. -1.
<mgrwt>
<rscale>  0 0.74280086E+02</rscale>
<asrwt>0</asrwt>
<pdfrwt beam="1">  1        2 0.16973983E+00 0.31376110E+02</pdfrwt>
<pdfrwt beam="2">  1        2 0.25414015E+00 0.17585135E+03</pdfrwt>
<totfact> 0.47469149E+01</totfact>
</mgrwt>
</event>
<event>
13    1  0.1675423E-008  0.1028985E+03  0.7546771E-02  0.1323840E+00
          2   -1    0    0  502    0  0.00000000000E+00  0.00000000000E+00  0.49436392271E+04  0.49436392271E+04  0.00000000000E+00 0. -1.
          2   -1    0    0  503    0 -0.00000000000E+00 -0.00000000000E+00 -0.53107920843E+03  0.53107920843E+03  0.00000000000E+00 0. -1.
         24    2    1    2    0    0 -0.33359502471E+02 -0.54968626058E+01  0.13638053629E+03  0.15995231605E+03  0.76433113416E+02 0.  0.
         25    2    1    2    0    0  0.19836650122E+03 -0.25783838596E+02  0.10011196040E+04  0.10285325071E+04  0.12499832644E+03 0.  0.
         24    2    1    2    0    0 -0.18402346623E+03 -0.86887803753E+02  0.51771434057E+02  0.22243866908E+03  0.73379517267E+02 0.  0.
        -11    1    5    5    0    0 -0.45277101621E+02 -0.33479443979E+02 -0.16733049330E+02  0.58744225590E+02  0.00000000000E+00 0.  1.
         12    1    5    5    0    0 -0.13874636461E+03 -0.53408359774E+02  0.68504483387E+02  0.16369444349E+03  0.00000000000E+00 0. -1.
        -13    1    3    3    0    0  0.13576850577E+01  0.15444060352E+02  0.11109127643E+03  0.11216788314E+03  0.00000000000E+00 0.  1.
         14    1    3    3    0    0 -0.34717187529E+02 -0.20940922957E+02  0.25289259861E+02  0.47784432910E+02  0.00000000000E+00 0. -1.
          5    1    4    4  501    0  0.10942099362E+03 -0.75859943939E+02  0.59844362829E+03  0.61309424331E+03  0.47000000000E+01 0. -1.
         -5    1    4    4    0  501  0.88945507599E+02  0.50076105343E+02  0.40267597566E+03  0.41543826379E+03  0.47000000000E+01 0. -1.
          1    1    1    2  502    0  0.60528201009E+02  0.24050976719E+02  0.36369511317E+04  0.36375342812E+04  0.00000000000E+00 0. -1.
          1    1    1    2  503    0 -0.41511733525E+02  0.94117528236E+02 -0.41366268734E+03  0.42626066208E+03  0.00000000000E+00 0. -1.
<mgrwt>
<rscale>  0 0.81865322E+02</rscale>
<asrwt>0</asrwt>
<pdfrwt beam="1">  1        2 0.72700574E+00 0.65131502E+02</pdfrwt>
<pdfrwt beam="2">  1        2 0.78099886E-01 0.10289845E+03</pdfrwt>
<totfact> 0.14311425E+00</totfact>
</mgrwt>
</event>
<event>
13    1  0.1675423E-008  0.4327996E+02  0.7546771E-02  0.1499418E+00
          2   -1    0    0  503    0  0.00000000000E+00  0.00000000000E+00  0.30002467268E+04  0.30002467268E+04  0.00000000000E+00 0. -1.
          2   -1    0    0  502    0 -0.00000000000E+00 -0.00000000000E+00 -0.59042918720E+03  0.59042918720E+03  0.00000000000E+00 0. -1.
         24    2    1    2    0    0 -0.11156737831E+03  0.19275773095E+03  0.70317870155E+01  0.23666837059E+03  0.79747406614E+02 0.  0.
         25    2    1    2    0    0  0.49209976805E+02 -0.18970413950E+03 -0.16413209083E+03  0.28456198428E+03  0.12500758895E+03 0.  0.
         24    2    1    2    0    0 -0.98775035117E+01 -0.42660753405E+02  0.13648941131E+02  0.92142305222E+02  0.79914991466E+02 0.  0.
        -11    1    3    3    0    0 -0.10342665842E+03  0.10592849992E+03 -0.75883322039E+01  0.14824136924E+03  0.00000000000E+00 0.  1.
         12    1    3    3    0    0 -0.81407198940E+01  0.86829231029E+02  0.14620119219E+02  0.88427001348E+02  0.00000000000E+00 0. -1.
        -13    1    5    5    0    0 -0.40062692685E+02 -0.22260024724E+02  0.27172099662E+02  0.53280869418E+02  0.00000000000E+00 0.  1.
         14    1    5    5    0    0  0.30185189173E+02 -0.20400728681E+02 -0.13523158532E+02  0.38861435804E+02  0.00000000000E+00 0. -1.
          5    1    4    4  501    0  0.85546047351E+02 -0.81976551686E+02 -0.87773586110E+02  0.14752821311E+03  0.47000000000E+01 0.  1.
         -5    1    4    4    0  501 -0.36336070546E+02 -0.10772758781E+03 -0.76358504720E+02  0.13703377117E+03  0.47000000000E+01 0.  1.
          1    1    1    2  502    0  0.35514727519E+02  0.16731978730E+02 -0.21002903245E+03  0.21366667839E+03  0.00000000000E+00 0. -1.
          1    1    1    2  503    0  0.36720177502E+02  0.22875183220E+02  0.27632979347E+04  0.27636365755E+04  0.00000000000E+00 0. -1.
<mgrwt>
<rscale>  0 0.41220384E+02</rscale>
<asrwt>0</asrwt>
<pdfrwt beam="1">  1        2 0.44121275E+00 0.43279957E+02</pdfrwt>
<pdfrwt beam="2">  1        2 0.86827823E-01 0.39258820E+02</pdfrwt>
<totfact> 0.29025791E+01</totfact>
</mgrwt>
</event>
<event>
13    1  0.1675423E-008  0.8291033E+02  0.7546771E-02  0.1333744E+00
          2   -1    0    0  502    0  0.00000000000E+00  0.00000000000E+00  0.16686680985E+04  0.16686680985E+04  0.00000000000E+00 0. -1.
          2   -1    0    0  503    0 -0.00000000000E+00 -0.00000000000E+00 -0.14067655546E+04  0.14067655546E+04  0.00000000000E+00 0. -1.
         24    2    1    2    0    0 -0.10399238211E+03 -0.91925944211E+02  0.15417257428E+03  0.22254393387E+03  0.80571862854E+02 0.  0.
         25    2    1    2    0    0  0.11905889064E+02  0.42986855265E+03  0.22244921844E+03  0.50003706087E+03  0.12499873882E+03 0.  0.
         24    2    1    2    0    0  0.38516850978E+02 -0.22667149394E+03  0.62654382571E+03  0.67216489587E+03  0.79905993111E+02 0.  0.
        -11    1    5    5    0    0 -0.19502386416E+02 -0.20453748747E+02  0.55960690302E+02  0.62692087003E+02  0.00000000000E+00 0.  1.
         12    1    5    5    0    0  0.58019237394E+02 -0.20621774519E+03  0.57058313541E+03  0.60947280887E+03  0.00000000000E+00 0. -1.
        -11    1    3    3    0    0 -0.10740634185E+03 -0.98798785566E+02  0.12428684101E+03  0.19168865680E+03  0.00000000000E+00 0.  1.
         12    1    3    3    0    0  0.34139597392E+01  0.68728413552E+01  0.29885733271E+02  0.30855277062E+02  0.00000000000E+00 0. -1.
          5    1    4    4  501    0  0.22334111729E+02  0.42391601217E+03  0.18997803216E+03  0.46509928039E+03  0.47000000000E+01 0. -1.
         -5    1    4    4    0  501 -0.10428222664E+02  0.59525404816E+01  0.32471186281E+02  0.34937780477E+02  0.47000000000E+01 0. -1.
          1    1    1    2  502    0 -0.14193345504E+02 -0.81345704852E+02  0.46493817036E+03  0.47221401611E+03  0.00000000000E+00 0. -1.
          1    1    1    2  503    0  0.67762987576E+02 -0.29925409647E+02 -0.12062012449E+04  0.12084737464E+04  0.00000000000E+00 0. -1.
<mgrwt>
<rscale>  0 0.78369134E+02</rscale>
<asrwt>0</asrwt>
<pdfrwt beam="1">  1        2 0.24539237E+00 0.82910334E+02</pdfrwt>
<pdfrwt beam="2">  1        2 0.20687729E+00 0.74076667E+02</pdfrwt>
<totfact> 0.38190276E+01</totfact>
</mgrwt>
</event>
<event>
13    1  0.1675423E-008  0.1013068E+03  0.7546771E-02  0.1366456E+00
          2   -1    0    0  502    0  0.00000000000E+00  0.00000000000E+00  0.26690667943E+04  0.26690667943E+04  0.00000000000E+00 0. -1.
          2   -1    0    0  503    0 -0.00000000000E+00 -0.00000000000E+00 -0.32190727920E+03  0.32190727920E+03  0.00000000000E+00 0. -1.
         24    2    1    2    0    0  0.27630686893E+02 -0.86379568409E+02  0.10058294338E+04  0.10130514054E+04  0.79720859756E+02 0.  0.
         25    2    1    2    0    0  0.13665868069E+02  0.12042629737E+03  0.32949891431E+02  0.17719327781E+03  0.12499005283E+03 0.  0.
         24    2    1    2    0    0  0.23108176974E+02 -0.46550257391E+02  0.30679436562E+03  0.32083895606E+03  0.78191678864E+02 0.  0.
        -11    1    3    3    0    0 -0.27354728644E+01  0.10270094491E+02  0.27823949431E+03  0.27844240670E+03  0.00000000000E+00 0.  1.
         12    1    3    3    0    0  0.30366159757E+02 -0.96649662900E+02  0.72758993946E+03  0.73460899872E+03  0.00000000000E+00 0. -1.
        -11    1    5    5    0    0  0.48061901921E+02 -0.43805218741E+02  0.17537692609E+03  0.18704520793E+03  0.00000000000E+00 0.  1.
         12    1    5    5    0    0 -0.24953724947E+02 -0.27450386498E+01  0.13141743953E+03  0.13379374813E+03  0.00000000000E+00 0. -1.
          5    1    4    4  501    0 -0.52558390098E+02  0.35234308319E+02  0.27197680926E+02  0.69033649043E+02  0.47000000000E+01 0.  1.
         -5    1    4    4    0  501  0.66224258167E+02  0.85191989055E+02  0.57522105047E+01  0.10815962877E+03  0.47000000000E+01 0.  1.
          1    1    1    2  502    0  0.23577486936E+02 -0.39336903478E+02  0.12293897254E+04  0.12302448483E+04  0.00000000000E+00 0. -1.
          1    1    1    2  503    0 -0.87982218872E+02  0.51840431903E+02 -0.22780390110E+03  0.24964558593E+03  0.00000000000E+00 0. -1.
<mgrwt>
<rscale>  0 0.68162288E+02</rscale>
<asrwt>0</asrwt>
<pdfrwt beam="1">  1        2 0.39250981E+00 0.45861638E+02</pdfrwt>
<pdfrwt beam="2">  1        2 0.47339307E-01 0.10130684E+03</pdfrwt>
<totfact> 0.79095240E+01</totfact>
</mgrwt>
</event>
<event>
13    1  0.1675423E-008  0.5895167E+02  0.7546771E-02  0.1464905E+00
          2   -1    0    0  503    0  0.00000000000E+00  0.00000000000E+00  0.40155916001E+03  0.40155916001E+03  0.00000000000E+00 0. -1.
          2   -1    0    0  502    0 -0.00000000000E+00 -0.00000000000E+00 -0.38241016143E+04  0.38241016143E+04  0.00000000000E+00 0. -1.
         24    2    1    2    0    0 -0.75506806313E+02  0.39530251630E+01 -0.60774457361E+02  0.12562685488E+03  0.79822727292E+02 0.  0.
         25    2    1    2    0    0 -0.14181259851E+02 -0.80768692368E+02 -0.15232961139E+03  0.21344669465E+03  0.12502196269E+03 0.  0.
         24    2    1    2    0    0  0.80847981956E+02  0.51975132019E+02 -0.61691378424E+03  0.62970310693E+03  0.81887576346E+02 0.  0.
        -13    1    3    3    0    0 -0.20351874251E+02  0.39340224050E+02 -0.21595748432E+02  0.49277057178E+02  0.00000000000E+00 0.  1.
         14    1    3    3    0    0 -0.55154932063E+02 -0.35387198887E+02 -0.39178708929E+02  0.76349797703E+02  0.00000000000E+00 0. -1.
        -13    1    5    5    0    0 -0.94802886332E+01  0.30420063740E+02 -0.11833730674E+03  0.12255192498E+03  0.00000000000E+00 0.  1.
         14    1    5    5    0    0  0.90328270589E+02  0.21555068279E+02 -0.49857647751E+03  0.50715118196E+03  0.00000000000E+00 0. -1.
          5    1    4    4  501    0 -0.50217459486E+02 -0.61228741578E+02 -0.30788569794E+02  0.85092761516E+02  0.47000000000E+01 0.  1.
         -5    1    4    4    0  501  0.36036199635E+02 -0.19539950790E+02 -0.12154104159E+03  0.12835393314E+03  0.47000000000E+01 0.  1.
          1    1    1    2  502    0 -0.49949956022E+01  0.58890650288E+02 -0.29233881254E+04  0.29239854976E+04  0.00000000000E+00 0. -1.
          1    1    1    2  503    0  0.13835079811E+02 -0.34050115102E+02  0.33086352408E+03  0.33289862021E+03  0.00000000000E+00 0. -1.
<mgrwt>
<rscale>  0 0.46547613E+02</rscale>
<asrwt>0</asrwt>
<pdfrwt beam="1">  1        2 0.59052821E-01 0.36753500E+02</pdfrwt>
<pdfrwt beam="2">  1        2 0.56236785E+00 0.58951671E+02</pdfrwt>
<totfact> 0.13970005E+01</totfact>
</mgrwt>
</event>
<event>
13    1  0.1675423E-008  0.7680712E+02  0.7546771E-02  0.1492409E+00
          2   -1    0    0  503    0  0.00000000000E+00  0.00000000000E+00  0.12790398601E+04  0.12790398601E+04  0.00000000000E+00 0. -1.
          2   -1    0    0  502    0 -0.00000000000E+00 -0.00000000000E+00 -0.79678771177E+03  0.79678771177E+03  0.00000000000E+00 0. -1.
         24    2    1    2    0    0 -0.10554296936E+03  0.53423324269E+02  0.15092417958E+03  0.20775679659E+03  0.79946285640E+02 0.  0.
         25    2    1    2    0    0 -0.28658804881E+02  0.17307564799E+02 -0.43372599466E+03  0.45261744952E+03  0.12499375289E+03 0.  0.
         24    2    1    2    0    0  0.37341414954E+02 -0.46371716923E+02  0.38789398591E+03  0.40042086992E+03  0.79563882283E+02 0.  0.
        -11    1    3    3    0    0 -0.11669963135E+03  0.52414548385E+02  0.12215647447E+03  0.17688497136E+03  0.00000000000E+00 0.  1.
         12    1    3    3    0    0  0.11156661983E+02  0.10087758842E+01  0.28767705109E+02  0.30871825223E+02  0.00000000000E+00 0. -1.
        -13    1    5    5    0    0  0.22982860110E+02  0.19051982738E+02  0.81616340005E+02  0.86904642344E+02  0.00000000000E+00 0.  1.
         14    1    5    5    0    0  0.14358554843E+02 -0.65423699661E+02  0.30627764590E+03  0.31351622758E+03  0.00000000000E+00 0. -1.
          5    1    4    4  501    0  0.18228587297E+02 -0.46276674970E+02 -0.18304016752E+03  0.18973561861E+03  0.47000000000E+01 0. -1.
         -5    1    4    4    0  501 -0.46887392177E+02  0.63584239769E+02 -0.25068582714E+03  0.26288183091E+03  0.47000000000E+01 0. -1.
          1    1    1    2  502    0  0.22162398969E+02 -0.69267715104E+01 -0.31639641252E+03  0.31724728832E+03  0.00000000000E+00 0. -1.
          1    1    1    2  503    0  0.74697960321E+02 -0.17432400635E+02  0.69355638999E+03  0.69778516748E+03  0.00000000000E+00 0. -1.
<mgrwt>
<rscale>  0 0.42230728E+02</rscale>
<asrwt>0</asrwt>
<pdfrwt beam="1">  1        2 0.18809410E+00 0.76807122E+02</pdfrwt>
<pdfrwt beam="2">  1        2 0.11717466E+00 0.23219649E+02</pdfrwt>
<totfact> 0.13503455E+02</totfact>
</mgrwt>
</event>
<event>
13    1  0.1675423E-008  0.1020704E+03  0.7546771E-02  0.1447071E+00
         -1   -1    0    0    0  501 -0.00000000000E+00  0.00000000000E+00  0.10772392565E+04  0.10772392565E+04  0.00000000000E+00 0.  1.
          2   -1    0    0  503    0  0.00000000000E+00 -0.00000000000E+00 -0.17464440044E+04  0.17464440044E+04  0.00000000000E+00 0. -1.
         24    2    1    2    0    0 -0.16365091519E+02  0.25523646365E+02 -0.18616198561E+03  0.20562999782E+03  0.81903225660E+02 0.  0.
         25    2    1    2    0    0  0.37459540893E+02 -0.92306005309E+02  0.11629297729E+03  0.19766904381E+03  0.12500151397E+03 0.  0.
         24    2    1    2    0    0 -0.47667147486E+02 -0.91369342254E+01 -0.41997320210E+02  0.94999815263E+02  0.70039627917E+02 0.  0.
        -11    1    3    3    0    0  0.16236110466E+02  0.37274661962E+02 -0.15053499627E+03  0.15592881968E+03  0.00000000000E+00 0.  1.
         12    1    3    3    0    0 -0.32601201985E+02 -0.11751015598E+02 -0.35626989345E+02  0.49701178137E+02  0.00000000000E+00 0. -1.
        -13    1    5    5    0    0 -0.47529058055E+02 -0.82550139956E+01  0.45401466852E+01  0.48453787753E+02  0.00000000000E+00 0.  1.
         14    1    5    5    0    0 -0.13808943033E+00 -0.88192022979E+00 -0.46537466895E+02  0.46546027510E+02  0.00000000000E+00 0. -1.
          5    1    4    4  502    0  0.23797752583E+02  0.10609224410E+01 -0.20256798660E+02  0.31620981585E+02  0.47000000000E+01 0.  1.
         -5    1    4    4    0  502  0.13661788310E+02 -0.93366927750E+02  0.13654977595E+03  0.16604806223E+03  0.47000000000E+01 0.  1.
          1    1    1    2  503    0  0.16132616108E+02  0.97730638521E+02 -0.14394937533E+04  0.14428977111E+04  0.00000000000E+00 0. -1.
         -2    1    1    2    0  501  0.10440082003E+02 -0.21811345352E+02  0.88215533392E+03  0.88248669296E+03  0.00000000000E+00 0.  1.
<mgrwt>
<rscale>  0 0.49680830E+02</rscale>
<asrwt>0</asrwt>
<pdfrwt beam="2">  1        2 0.25683000E+00 0.10207043E+03</pdfrwt>
<pdfrwt beam="1">  1       -1 0.15841754E+00 0.24181193E+02</pdfrwt>
<totfact> 0.54253461E+00</totfact>
</mgrwt>
</event>
<event>
13    1  0.1675423E-008  0.4303031E+02  0.7546771E-02  0.1511243E+00
          2   -1    0    0  502    0  0.00000000000E+00  0.00000000000E+00  0.10576417850E+04  0.10576417850E+04  0.00000000000E+00 0. -1.
          4   -1    0    0  503    0 -0.00000000000E+00 -0.00000000000E+00 -0.14981067496E+04  0.14981067496E+04  0.00000000000E+00 0. -1.
         24    2    1    2    0    0 -0.24712419556E+03 -0.33889312604E+03 -0.56501479682E+02  0.43580506501E+03  0.10399383913E+03 0.  0.
         25    2    1    2    0    0 -0.64301922936E+02 -0.65182315423E+02 -0.18602107645E+03  0.24209862940E+03  0.12499773572E+03 0.  0.
         24    2    1    2    0    0  0.26080188427E+03  0.34701422288E+03 -0.57623395800E+02  0.44515479620E+03  0.80036511167E+02 0.  0.
        -13    1    5    5    0    0  0.21721786055E+03  0.22914572520E+03 -0.41773296729E+02  0.31849077010E+03  0.00000000000E+00 0.  1.
         14    1    5    5    0    0  0.43584023727E+02  0.11786849767E+03 -0.15850099071E+02  0.12666402610E+03  0.00000000000E+00 0. -1.
        -13    1    3    3    0    0 -0.13398304079E+03 -0.26402915347E+03 -0.30236823017E+02  0.29761907628E+03  0.00000000000E+00 0.  1.
         14    1    3    3    0    0 -0.11314115477E+03 -0.74863972567E+02 -0.26264656666E+02  0.13818598873E+03  0.00000000000E+00 0. -1.
          5    1    4    4  501    0  0.13301290828E+02 -0.66053174716E+02 -0.12922876977E+03  0.14581533240E+03  0.47000000000E+01 0.  1.
         -5    1    4    4    0  501 -0.77603213764E+02  0.87085929359E+00 -0.56792306684E+02  0.96283296998E+02  0.47000000000E+01 0.  1.
          1    1    1    2  502    0  0.35829127912E+02  0.23774437387E+02  0.64504755840E+03  0.64647915889E+03  0.00000000000E+00 0. -1.
          3    1    1    2  503    0  0.14795106312E+02  0.33286781196E+02 -0.78536657101E+03  0.78621088509E+03  0.00000000000E+00 0. -1.
<mgrwt>
<rscale>  0 0.39591065E+02</rscale>
<asrwt>0</asrwt>
<pdfrwt beam="1">  1        2 0.15553556E+00 0.43030309E+02</pdfrwt>
<pdfrwt beam="2">  1        4 0.22030982E+00 0.36426707E+02</pdfrwt>
<totfact> 0.16859243E+00</totfact>
</mgrwt>
</event>
<event>
13    1  0.1675423E-008  0.1031983E+03  0.7546771E-02  0.1284679E+00
         -1   -1    0    0    0  501 -0.00000000000E+00  0.00000000000E+00  0.11768944545E+04  0.11768944545E+04  0.00000000000E+00 0.  1.
          2   -1    0    0  503    0  0.00000000000E+00 -0.00000000000E+00 -0.16596185356E+04  0.16596185356E+04  0.00000000000E+00 0. -1.
         24    2    1    2    0    0 -0.86443926217E+02  0.27071123377E+02 -0.84521085336E+03  0.85387065431E+03  0.80674094771E+02 0.  0.
         25    2    1    2    0    0 -0.21830847153E+02  0.55935562505E+02  0.14406979143E+03  0.19995381357E+03  0.12498019730E+03 0.  0.
         24    2    1    2    0    0  0.11545393493E+03 -0.23677595167E+01  0.43005745014E+03  0.45225625999E+03  0.79063878644E+02 0.  0.
        -11    1    5    5    0    0  0.16786663997E+02 -0.23233319855E+02  0.38975738009E+02  0.48380651018E+02  0.00000000000E+00 0.  1.
         12    1    5    5    0    0  0.98667270933E+02  0.20865560338E+02  0.39108171213E+03  0.40387560898E+03  0.00000000000E+00 0. -1.
        -13    1    3    3    0    0 -0.36713357009E+01 -0.16690677657E+02 -0.31449992937E+03  0.31496390746E+03  0.00000000000E+00 0.  1.
         14    1    3    3    0    0 -0.82772590516E+02  0.43761801035E+02 -0.53071092399E+03  0.53890674686E+03  0.00000000000E+00 0. -1.
          5    1    4    4  502    0 -0.55116402576E+02  0.80029096565E+02  0.10226063554E+03  0.14114461276E+03  0.47000000000E+01 0.  1.
         -5    1    4    4    0  502  0.33285555423E+02 -0.24093534060E+02  0.41809155892E+02  0.58809200808E+02  0.47000000000E+01 0.  1.
          1    1    1    2  503    0  0.79087425133E+02 -0.11526915932E+03 -0.76076158315E+03  0.77349853672E+03  0.00000000000E+00 0. -1.
         -2    1    1    2    0  501 -0.86266586693E+02  0.34630232952E+02  0.54912111381E+03  0.55693372554E+03  0.00000000000E+00 0.  1.
<mgrwt>
<rscale>  0 0.97944377E+02</rscale>
<asrwt>0</asrwt>
<pdfrwt beam="2">  1        2 0.24406155E+00 0.10319831E+03</pdfrwt>
<pdfrwt beam="1">  1       -1 0.17307272E+00 0.92957931E+02</pdfrwt>
<totfact> 0.42704759E+00</totfact>
</mgrwt>
</event>
<event>
13    1  0.1675423E-008  0.2250105E+03  0.7546771E-02  0.1190142E+00
          2   -1    0    0  503    0  0.00000000000E+00  0.00000000000E+00  0.38606880388E+04  0.38606880388E+04  0.00000000000E+00 0. -1.
          2   -1    0    0  502    0 -0.00000000000E+00 -0.00000000000E+00 -0.55683480580E+03  0.55683480580E+03  0.00000000000E+00 0. -1.
         24    2    1    2    0    0 -0.19441138820E+03  0.80616297207E+02  0.26590706363E+04  0.26686024115E+04  0.80544435478E+02 0.  0.
         25    2    1    2    0    0  0.24459054323E+03 -0.61534217522E+02  0.16175227670E+01  0.28149321745E+03  0.12499928529E+03 0.  0.
         24    2    1    2    0    0  0.19850453421E+03 -0.16358324909E+03  0.27211523923E+03  0.38326615119E+03  0.81747842429E+02 0.  0.
        -13    1    3    3    0    0 -0.46563879494E+02  0.19925654394E+02  0.31082197220E+03  0.31492145843E+03  0.00000000000E+00 0.  1.
         14    1    3    3    0    0 -0.14784750870E+03  0.60690642813E+02  0.23482486641E+04  0.23536809530E+04  0.00000000000E+00 0. -1.
        -13    1    5    5    0    0  0.96350328623E+02 -0.10981060727E+03  0.10398054359E+03  0.17931455251E+03  0.00000000000E+00 0.  1.
         14    1    5    5    0    0  0.10215420558E+03 -0.53772641820E+02  0.16813469565E+03  0.20395159869E+03  0.00000000000E+00 0. -1.
          5    1    4    4  501    0  0.21190154338E+03 -0.90309607003E+02  0.25166082089E+02  0.23176175460E+03  0.47000000000E+01 0. -1.
         -5    1    4    4    0  501  0.32688999850E+02  0.28775389481E+02 -0.23548559322E+02  0.49731462849E+02  0.47000000000E+01 0. -1.
          1    1    1    2  502    0 -0.22162903743E+03  0.35850122995E+02 -0.31622888889E+03  0.38782131417E+03  0.00000000000E+00 0. -1.
          1    1    1    2  503    0 -0.27054651810E+02  0.10865104641E+03  0.68727872358E+03  0.69633975037E+03  0.00000000000E+00 0. -1.
<mgrwt>
<rscale>  0 0.15872665E+03</rscale>
<asrwt>0</asrwt>
<pdfrwt beam="1">  1        2 0.56774823E+00 0.11196876E+03</pdfrwt>
<pdfrwt beam="2">  1        2 0.81887474E-01 0.22501051E+03</pdfrwt>
<totfact> 0.80660865E+00</totfact>
</mgrwt>
</event>
<event>
13    1  0.1675423E-008  0.1976904E+03  0.7546771E-02  0.1250595E+00
          2   -1    0    0  503    0  0.00000000000E+00  0.00000000000E+00  0.25369944060E+04  0.25369944060E+04  0.00000000000E+00 0. -1.
          2   -1    0    0  502    0 -0.00000000000E+00 -0.00000000000E+00 -0.20663316011E+04  0.20663316011E+04  0.00000000000E+00 0. -1.
         24    2    1    2    0    0 -0.94749495546E+02 -0.69631797848E+02  0.67567152711E+03  0.68916708727E+03  0.67773206033E+02 0.  0.
         25    2    1    2    0    0 -0.19732468138E+03 -0.13610804530E+03 -0.68428054632E+03  0.73574825622E+03  0.12499280212E+03 0.  0.
         24    2    1    2    0    0  0.10503607503E+03 -0.85858045148E+02  0.15133675870E+03  0.21795875998E+03  0.78733890697E+02 0.  0.
        -11    1    3    3    0    0 -0.92213933583E+02 -0.77678006871E+02  0.66344872675E+03  0.67431557547E+03  0.00000000000E+00 0.  1.
         12    1    3    3    0    0 -0.25355619621E+01  0.80462090231E+01  0.12222800354E+02  0.14851511795E+02  0.00000000000E+00 0. -1.
        -13    1    5    5    0    0  0.47221528152E+02 -0.78063451184E+02  0.58712226888E+02  0.10849378193E+03  0.00000000000E+00 0.  1.
         14    1    5    5    0    0  0.57814546879E+02 -0.77945939644E+01  0.92624531815E+02  0.10946497805E+03  0.00000000000E+00 0. -1.
          5    1    4    4  501    0  0.10637551035E+02  0.74602859146E+01 -0.15307845331E+02  0.20621190233E+02  0.47000000000E+01 0.  1.
         -5    1    4    4    0  501 -0.20796223241E+03 -0.14356833121E+03 -0.66897270099E+03  0.71512706598E+03  0.47000000000E+01 0.  1.
          1    1    1    2  502    0  0.40178502522E+02 -0.54312769997E+02 -0.12938928060E+04  0.12956553486E+04  0.00000000000E+00 0. -1.
          1    1    1    2  503    0  0.14685959937E+03  0.34591065829E+03  0.16218278714E+04  0.16647965551E+04  0.00000000000E+00 0. -1.
<mgrwt>
<rscale>  0 0.11556695E+03</rscale>
<asrwt>0</asrwt>
<pdfrwt beam="1">  1        2 0.37308741E+00 0.19769036E+03</pdfrwt>
<pdfrwt beam="2">  1        2 0.30387229E+00 0.67558782E+02</pdfrwt>
<totfact> 0.63635928E+00</totfact>
</mgrwt>
</event>
<event>
13    1  0.1675423E-008  0.1040452E+03  0.7546771E-02  0.1277625E+00
          2   -1    0    0  502    0  0.00000000000E+00  0.00000000000E+00  0.95173633783E+03  0.95173633783E+03  0.00000000000E+00 0. -1.
          2   -1    0    0  503    0 -0.00000000000E+00 -0.00000000000E+00 -0.66556452438E+03  0.66556452438E+03  0.00000000000E+00 0. -1.
         24    2    1    2    0    0 -0.35753932953E+02  0.55672518919E+02  0.17178426604E+03  0.20028035056E+03  0.78896208245E+02 0.  0.
         25    2    1    2    0    0  0.30214103494E+02 -0.54255352995E+02 -0.15011094561E+03  0.20497530224E+03  0.12500017263E+03 0.  0.
         24    2    1    2    0    0 -0.12751784474E+02 -0.50944251207E+01  0.10690063870E+03  0.13414890726E+03  0.79872533385E+02 0.  0.
        -11    1    3    3    0    0 -0.33027239938E+02 -0.11280133199E+02  0.45771676442E+02  0.57559415799E+02  0.00000000000E+00 0.  1.
         12    1    3    3    0    0 -0.27266930154E+01  0.66952652118E+02  0.12601258960E+03  0.14272093476E+03  0.00000000000E+00 0. -1.
        -11    1    5    5    0    0  0.23424680566E+02  0.15408566738E+02  0.79629155934E+02  0.84421218088E+02  0.00000000000E+00 0.  1.
         12    1    5    5    0    0 -0.36176465041E+02 -0.20502991859E+02  0.27271482766E+02  0.49727689171E+02  0.00000000000E+00 0. -1.
          5    1    4    4  501    0 -0.29644425762E+02  0.20236368426E+02 -0.14467259324E+02  0.38983255100E+02  0.47000000000E+01 0. -1.
         -5    1    4    4    0  501  0.59858529257E+02 -0.74491721421E+02 -0.13564368628E+03  0.16599204714E+03  0.47000000000E+01 0. -1.
          1    1    1    2  502    0  0.56353785819E+02 -0.12314718686E+03  0.60052182130E+03  0.61560331112E+03  0.00000000000E+00 0. -1.
          1    1    1    2  503    0 -0.38062171886E+02  0.12682444605E+03 -0.44292396697E+03  0.46229299104E+03  0.00000000000E+00 0. -1.
<mgrwt>
<rscale>  0 0.10128087E+03</rscale>
<asrwt>0</asrwt>
<pdfrwt beam="1">  1        2 0.13996123E+00 0.10404516E+03</pdfrwt>
<pdfrwt beam="2">  1        2 0.97877136E-01 0.98590019E+02</pdfrwt>
<totfact> 0.23524509E+02</totfact>
</mgrwt>
</event>
<event>
13    1  0.1675423E-008  0.4042127E+02  0.7546771E-02  0.1611326E+00
          2   -1    0    0  502    0  0.00000000000E+00  0.00000000000E+00  0.15315660370E+04  0.15315660370E+04  0.00000000000E+00 0. -1.
          2   -1    0    0  503    0 -0.00000000000E+00 -0.00000000000E+00 -0.23421290074E+04  0.23421290074E+04  0.00000000000E+00 0. -1.
         24    2    1    2    0    0 -0.54444872634E+03 -0.13277616733E+03  0.42451250506E+03  0.70762350747E+03  0.80412904174E+02 0.  0.
         25    2    1    2    0    0 -0.65784839669E+03  0.67239768061E+02 -0.95691671292E+03  0.11698720242E+04  0.12500103258E+03 0.  0.
         24    2    1    2    0    0  0.11517880347E+04  0.56420142566E+02 -0.18686660602E+03  0.11699686596E+04  0.64098568945E+02 0.  0.
        -11    1    3    3    0    0 -0.47191287844E+03 -0.12772873645E+03  0.39735597316E+03  0.63000647962E+03  0.00000000000E+00 0.  1.
         12    1    3    3    0    0 -0.72535847893E+02 -0.50474308868E+01  0.27156531891E+02  0.77617027851E+02  0.00000000000E+00 0. -1.
        -13    1    5    5    0    0  0.88763684911E+03  0.25277482483E+02 -0.12349538098E+03  0.89654293603E+03  0.00000000000E+00 0.  1.
         14    1    5    5    0    0  0.26415118561E+03  0.31142660083E+02 -0.63371225041E+02  0.27342572355E+03  0.00000000000E+00 0. -1.
          5    1    4    4  501    0 -0.63577120522E+03  0.39311455485E+02 -0.90184384546E+03  0.11041262734E+04  0.47000000000E+01 0. -1.
         -5    1    4    4    0  501 -0.22077191478E+02  0.27928312575E+02 -0.55072867461E+02  0.65745750869E+02  0.47000000000E+01 0. -1.
          1    1    1    2  502    0  0.39556393985E+02 -0.82963697157E+01  0.36612614565E+03  0.36835023087E+03  0.00000000000E+00 0. -1.
          1    1    1    2  503    0  0.10952694331E+02  0.17412626424E+02 -0.45741830213E+03  0.45788062221E+03  0.00000000000E+00 0. -1.
<mgrwt>
<rscale>  0 0.28835760E+02</rscale>
<asrwt>0</asrwt>
<pdfrwt beam="1">  1        2 0.22523030E+00 0.40421270E+02</pdfrwt>
<pdfrwt beam="2">  1        2 0.34443073E+00 0.20570879E+02</pdfrwt>
<totfact> 0.20073733E+01</totfact>
</mgrwt>
</event>
<event>
13    1  0.1839435E-008  0.9742659E+02  0.7546771E-02  0.1365259E+00
          2   -1    0    0  502    0  0.00000000000E+00  0.00000000000E+00  0.31955493968E+04  0.31955493968E+04  0.00000000000E+00 0. -1.
          2   -1    0    0  503    0 -0.00000000000E+00 -0.00000000000E+00 -0.28401922072E+04  0.28401922072E+04  0.00000000000E+00 0. -1.
         24    2    1    2    0    0 -0.14138792090E+03  0.14035432596E+03  0.19900381680E+04  0.20015343475E+04  0.78727080680E+02 0.  0.
         25    2    1    2    0    0  0.17896340625E+03 -0.94134378005E+02 -0.87214746396E+03  0.90396738058E+03  0.12500657726E+03 0.  0.
         24    2    1    2    0    0  0.46906005463E+02  0.48088610776E+02  0.17903453997E+03  0.20714504739E+03  0.79643055714E+02 0.  0.
        -11    1    3    3    0    0 -0.98940585660E+01  0.33009525194E+02  0.16157783591E+03  0.16521173749E+03  0.00000000000E+00 0.  1.
         12    1    3    3    0    0 -0.13149386233E+03  0.10734480077E+03  0.18284603321E+04  0.18363226100E+04  0.00000000000E+00 0. -1.
        -11    1    5    5    0    0  0.61001306665E+02  0.80714246032E+01  0.11266795676E+03  0.12837591593E+03  0.00000000000E+00 0.  1.
         12    1    5    5    0    0 -0.14095301202E+02  0.40017186173E+02  0.66366583206E+02  0.78769131464E+02  0.00000000000E+00 0. -1.
          5    1    4    4  501    0  0.18185833979E+03 -0.11506093654E+03 -0.76799220881E+03  0.79758736052E+03  0.47000000000E+01 0. -1.
         -5    1    4    4    0  501 -0.28949335394E+01  0.20926558533E+02 -0.10415525515E+03  0.10638002006E+03  0.47000000000E+01 0. -1.
          1    1    1    2  502    0 -0.48001059887E+02 -0.39826589697E+01  0.98894915165E+03  0.99012140057E+03  0.00000000000E+00 0. -1.
          1    1    1    2  503    0 -0.36480430927E+02 -0.90325899762E+02 -0.19305172061E+04  0.19329734279E+04  0.00000000000E+00 0. -1.
<mgrwt>
<rscale>  0 0.68502913E+02</rscale>
<asrwt>0</asrwt>
<pdfrwt beam="1">  1        2 0.46993374E+00 0.48165998E+02</pdfrwt>
<pdfrwt beam="2">  1        2 0.41767532E+00 0.97426593E+02</pdfrwt>
<totfact> 0.14117960E+00</totfact>
</mgrwt>
</event>
<event>
13    1  0.1675423E-008  0.3444207E+02  0.7546771E-02  0.1605744E+00
          2   -1    0    0  503    0  0.00000000000E+00  0.00000000000E+00  0.36416249663E+04  0.36416249663E+04  0.00000000000E+00 0. -1.
          2   -1    0    0  502    0 -0.00000000000E+00 -0.00000000000E+00 -0.20952399358E+04  0.20952399358E+04  0.00000000000E+00 0. -1.
         24    2    1    2    0    0  0.10543790143E+04 -0.22450531546E+03  0.19690663655E+04  0.22475804376E+04  0.11080491602E+03 0.  0.
         25    2    1    2    0    0 -0.51238802362E+03  0.16355361224E+03  0.83023871660E+03  0.99710220105E+03  0.12500080791E+03 0.  0.
         24    2    1    2    0    0 -0.59028275077E+03  0.74152095993E+02 -0.25050445448E+03  0.65028070318E+03  0.78614578880E+02 0.  0.
        -11    1    5    5    0    0 -0.34278179641E+03  0.51025906301E+01 -0.13263216990E+03  0.36758222057E+03  0.00000000000E+00 0.  1.
         12    1    5    5    0    0 -0.24750095436E+03  0.69049505363E+02 -0.11787228458E+03  0.28269848261E+03  0.00000000000E+00 0. -1.
        -13    1    3    3    0    0  0.46134210846E+03 -0.15442222670E+03  0.89247075183E+03  0.10164579716E+04  0.00000000000E+00 0.  1.
         14    1    3    3    0    0  0.59303690580E+03 -0.70083088757E+02  0.10765956137E+04  0.12311224660E+04  0.00000000000E+00 0. -1.
          5    1    4    4  501    0 -0.26807761949E+03  0.14980977061E+03  0.44519682859E+03  0.54086124249E+03  0.47000000000E+01 0. -1.
         -5    1    4    4    0  501 -0.24431040413E+03  0.13743841636E+02  0.38504188801E+03  0.45624095856E+03  0.47000000000E+01 0. -1.
          1    1    1    2  502    0  0.14589524827E+02 -0.20249023346E+02 -0.14213427439E+04  0.14215618428E+04  0.00000000000E+00 0. -1.
          1    1    1    2  503    0  0.33702235307E+02  0.70486305642E+01  0.41892714675E+03  0.42033971754E+03  0.00000000000E+00 0. -1.
<mgrwt>
<rscale>  0 0.29318735E+02</rscale>
<asrwt>0</asrwt>
<pdfrwt beam="1">  1        2 0.53553309E+00 0.34442069E+02</pdfrwt>
<pdfrwt beam="2">  1        2 0.30812352E+00 0.24957508E+02</pdfrwt>
<totfact> 0.23481766E+00</totfact>
</mgrwt>
</event>
<event>
13    1  0.1675423E-008  0.5925219E+02  0.7546771E-02  0.1488465E+00
         -1   -1    0    0    0  501 -0.00000000000E+00  0.00000000000E+00  0.44745471038E+03  0.44745471038E+03  0.00000000000E+00 0.  1.
          2   -1    0    0  503    0  0.00000000000E+00 -0.00000000000E+00 -0.57540071291E+03  0.57540071291E+03  0.00000000000E+00 0. -1.
         24    2    1    2    0    0  0.43350056880E+02  0.15963772075E+03 -0.29421400862E+03  0.34692949316E+03  0.80216962305E+02 0.  0.
         25    2    1    2    0    0 -0.76940755831E+02 -0.27037880650E+02  0.14604944612E+03  0.20882227923E+03  0.12500150676E+03 0.  0.
         24    2    1    2    0    0 -0.42282171973E+02 -0.12733566553E+03 -0.16971047002E+03  0.23017743580E+03  0.78599329104E+02 0.  0.
        -11    1    3    3    0    0  0.28006272138E+02  0.15702621807E+03 -0.22384826490E+03  0.27486292973E+03  0.00000000000E+00 0.  1.
         12    1    3    3    0    0  0.15343784742E+02  0.26115026833E+01 -0.70365743717E+02  0.72066563435E+02  0.00000000000E+00 0. -1.
        -11    1    5    5    0    0 -0.19555999826E+02 -0.12591132412E+03 -0.16206355602E+03  0.20615696656E+03  0.00000000000E+00 0.  1.
         12    1    5    5    0    0 -0.22726172147E+02 -0.14243414054E+01 -0.76469140020E+01  0.24020469243E+02  0.00000000000E+00 0. -1.
          5    1    4    4  502    0  0.11494957454E+02 -0.19026215663E+00  0.10808617389E+03  0.10879743211E+03  0.47000000000E+01 0. -1.
         -5    1    4    4    0  502 -0.88435713285E+02 -0.26847618493E+02  0.37963272225E+02  0.10002484712E+03  0.47000000000E+01 0. -1.
          1    1    1    2  503    0  0.19704197970E+02 -0.23850564093E+02 -0.66441574203E+01  0.31642529182E+02  0.00000000000E+00 0. -1.
         -2    1    1    2    0  501  0.56168672955E+02  0.18586389520E+02  0.19657318741E+03  0.20528368592E+03  0.00000000000E+00 0.  1.
<mgrwt>
<rscale>  0 0.42814617E+02</rscale>
<asrwt>0</asrwt>
<pdfrwt beam="2">  1        2 0.84617752E-01 0.30937111E+02</pdfrwt>
<pdfrwt beam="1">  1       -1 0.65802163E-01 0.59252187E+02</pdfrwt>
<totfact> 0.16704941E+02</totfact>
</mgrwt>
</event>
<event>
13    1  0.1675423E-008  0.7171754E+02  0.7546771E-02  0.1359503E+00
          2   -1    0    0  503    0  0.00000000000E+00  0.00000000000E+00  0.22786418875E+04  0.22786418875E+04  0.00000000000E+00 0. -1.
          2   -1    0    0  502    0 -0.00000000000E+00 -0.00000000000E+00 -0.17476012863E+04  0.17476012863E+04  0.00000000000E+00 0. -1.
         24    2    1    2    0    0 -0.21802705302E+03  0.95054797452E+02  0.80916594205E+03  0.84736510503E+03  0.81895598724E+02 0.  0.
         25    2    1    2    0    0  0.19312540168E+03 -0.10670120327E+02  0.41634732906E+03  0.47579337752E+03  0.12499186946E+03 0.  0.
         24    2    1    2    0    0  0.21389486044E+02 -0.86987217781E+02 -0.49923174147E+02  0.13770477072E+03  0.91902091337E+02 0.  0.
        -11    1    3    3    0    0 -0.12348451514E+03  0.78556066870E+02  0.37125513828E+03  0.39906122189E+03  0.00000000000E+00 0.  1.
         12    1    3    3    0    0 -0.94542537882E+02  0.16498730582E+02  0.43791080377E+03  0.44830388314E+03  0.00000000000E+00 0. -1.
        -13    1    5    5    0    0  0.36001451228E+02 -0.40870973400E+02  0.15230543626E+02  0.56555374779E+02  0.00000000000E+00 0.  1.
         14    1    5    5    0    0 -0.14611965184E+02 -0.46116244381E+02 -0.65153717772E+02  0.81149395943E+02  0.00000000000E+00 0. -1.
          5    1    4    4  501    0  0.20373427289E+03 -0.69537984757E+01  0.32523247303E+03  0.38386750420E+03  0.47000000000E+01 0.  1.
         -5    1    4    4    0  501 -0.10608871212E+02 -0.37163218509E+01  0.91114856026E+02  0.91925873317E+02  0.47000000000E+01 0.  1.
          1    1    1    2  502    0 -0.68534547051E+02 -0.42059913381E+01 -0.16028654155E+04  0.16043354434E+04  0.00000000000E+00 0. -1.
          1    1    1    2  503    0  0.72046712350E+02  0.68085319940E+01  0.95831591982E+03  0.96104447715E+03  0.00000000000E+00 0. -1.
<mgrwt>
<rscale>  0 0.70173900E+02</rscale>
<asrwt>0</asrwt>
<pdfrwt beam="1">  1        2 0.33509440E+00 0.71717537E+02</pdfrwt>
<pdfrwt beam="2">  1        2 0.25700019E+00 0.68663487E+02</pdfrwt>
<totfact> 0.13668179E+01</totfact>
</mgrwt>
</event>
<event>
13    1  0.1675423E-008  0.5791496E+02  0.7546771E-02  0.1481554E+00
          2   -1    0    0  503    0  0.00000000000E+00  0.00000000000E+00  0.11126699399E+04  0.11126699399E+04  0.00000000000E+00 0. -1.
          2   -1    0    0  502    0 -0.00000000000E+00 -0.00000000000E+00 -0.96376533187E+03  0.96376533187E+03  0.00000000000E+00 0. -1.
         24    2    1    2    0    0  0.63888249138E+02 -0.47449126832E+01  0.19944810704E+03  0.22457082529E+03  0.80921477964E+02 0.  0.
         25    2    1    2    0    0 -0.23862510319E+02  0.21426527745E+02 -0.94828431393E+02  0.16014828187E+03  0.12500610103E+03 0.  0.
         24    2    1    2    0    0 -0.31157430151E+00 -0.46470015486E+02  0.20125624455E+03  0.22051845316E+03  0.77231812087E+02 0.  0.
        -11    1    3    3    0    0  0.69460373265E+02  0.91033915209E+01  0.89710537710E+02  0.11382265050E+03  0.00000000000E+00 0.  1.
         12    1    3    3    0    0 -0.55721241266E+01 -0.13848304204E+02  0.10973756933E+03  0.11074817479E+03  0.00000000000E+00 0. -1.
        -11    1    5    5    0    0 -0.26594879234E+02 -0.47734574607E+02  0.17505296206E+03  0.18338325098E+03  0.00000000000E+00 0.  1.
         12    1    5    5    0    0  0.26283304933E+02  0.12645591203E+01  0.26203282486E+02  0.37135202181E+02  0.00000000000E+00 0. -1.
          5    1    4    4  501    0 -0.35943388666E+02  0.69380963108E+02 -0.68002084010E+02  0.10369194115E+03  0.47000000000E+01 0.  1.
         -5    1    4    4    0  501  0.12080878347E+02 -0.47954435363E+02 -0.26826347384E+02  0.56456340712E+02  0.47000000000E+01 0.  1.
          1    1    1    2  502    0  0.18310680924E+02  0.27722263033E+02 -0.81246178122E+03  0.81314079398E+03  0.00000000000E+00 0. -1.
          1    1    1    2  503    0 -0.58024845442E+02  0.20661373912E+01  0.65549046907E+03  0.65805691749E+03  0.00000000000E+00 0. -1.
<mgrwt>
<rscale>  0 0.43865033E+02</rscale>
<asrwt>0</asrwt>
<pdfrwt beam="1">  1        2 0.16362793E+00 0.57914960E+02</pdfrwt>
<pdfrwt beam="2">  1        2 0.14173020E+00 0.33223559E+02</pdfrwt>
<totfact> 0.13234288E+02</totfact>
</mgrwt>
</event>
<event>
13    1  0.1675423E-008  0.9755419E+02  0.7546771E-02  0.1369412E+00
         -1   -1    0    0    0  501 -0.00000000000E+00  0.00000000000E+00  0.57423835090E+03  0.57423835090E+03  0.00000000000E+00 0.  1.
          2   -1    0    0  503    0  0.00000000000E+00 -0.00000000000E+00 -0.12595646834E+04  0.12595646834E+04  0.00000000000E+00 0. -1.
         24    2    1    2    0    0  0.93381480148E+02 -0.56864498483E+02  0.14007244173E+03  0.19505851129E+03  0.80460312414E+02 0.  0.
         25    2    1    2    0    0 -0.12842904098E+03  0.14716786867E+02 -0.65732401339E+02  0.19145803002E+03  0.12499930516E+03 0.  0.
         24    2    1    2    0    0 -0.16218241047E+02 -0.44110581292E+02  0.12258727319E+03  0.15355733727E+03  0.79645725295E+02 0.  0.
        -11    1    3    3    0    0  0.83246478263E+02 -0.49470064301E+02  0.15035291238E+03  0.17883864702E+03  0.00000000000E+00 0.  1.
         12    1    3    3    0    0  0.10135001885E+02 -0.73944341824E+01 -0.10280470658E+02  0.16219864273E+02  0.00000000000E+00 0. -1.
        -13    1    5    5    0    0  0.28715347335E+02  0.60846815558E+00  0.32109405472E+02  0.43080799967E+02  0.00000000000E+00 0.  1.
         14    1    5    5    0    0 -0.44933588382E+02 -0.44719049448E+02  0.90477867716E+02  0.11047653730E+03  0.00000000000E+00 0. -1.
          5    1    4    4  502    0 -0.22568463378E+02  0.56400440819E+02 -0.44931133162E+02  0.75704966753E+02  0.47000000000E+01 0. -1.
         -5    1    4    4    0  502 -0.10586057760E+03 -0.41683653952E+02 -0.20801268177E+02  0.11575306327E+03  0.47000000000E+01 0. -1.
          1    1    1    2  503    0 -0.45754141641E+02  0.81312454500E+01 -0.10685850511E+04  0.10695950496E+04  0.00000000000E+00 0. -1.
         -2    1    1    2    0  501  0.97019943522E+02  0.78127047459E+02  0.18633140510E+03  0.22413410609E+03  0.00000000000E+00 0.  1.
<mgrwt>
<rscale>  0 0.67330869E+02</rscale>
<asrwt>0</asrwt>
<pdfrwt beam="2">  1        2 0.18523010E+00 0.46471052E+02</pdfrwt>
<pdfrwt beam="1">  1       -1 0.84446818E-01 0.97554193E+02</pdfrwt>
<totfact> 0.38745421E+01</totfact>
</mgrwt>
</event>
<event>
13    1  0.1675423E-008  0.1842393E+03  0.7546771E-02  0.1187284E+00
          2   -1    0    0  502    0  0.00000000000E+00  0.00000000000E+00  0.38008208017E+04  0.38008208017E+04  0.00000000000E+00 0. -1.
          2   -1    0    0  503    0 -0.00000000000E+00 -0.00000000000E+00 -0.19867008942E+04  0.19867008942E+04  0.00000000000E+00 0. -1.
         24    2    1    2    0    0 -0.37456728134E+02  0.52303947018E+02 -0.48150636985E+01  0.10297294142E+03  0.80259158164E+02 0.  0.
         25    2    1    2    0    0  0.74229562939E+02  0.13707598775E+02  0.17650489840E+02  0.14707369207E+03  0.12498481840E+03 0.  0.
         24    2    1    2    0    0 -0.51547421263E+02  0.83543429228E+02 -0.18047392675E+03  0.22098306921E+03  0.81400475657E+02 0.  0.
        -13    1    5    5    0    0 -0.32441597195E+02  0.14338878343E+02 -0.12590327468E+03  0.13080403371E+03  0.00000000000E+00 0.  1.
         14    1    5    5    0    0 -0.19105824068E+02  0.69204550885E+02 -0.54570652069E+02  0.90179035500E+02  0.00000000000E+00 0. -1.
        -13    1    3    3    0    0 -0.39653553008E+02  0.62018462537E+02 -0.27196775143E+02  0.78475209715E+02  0.00000000000E+00 0.  1.
         14    1    3    3    0    0  0.21968248743E+01 -0.97145155191E+01  0.22381711444E+02  0.24497731701E+02  0.00000000000E+00 0. -1.
          5    1    4    4  501    0  0.81759513863E+02 -0.34520015309E+02  0.34336268879E+02  0.95274964836E+02  0.47000000000E+01 0.  1.
         -5    1    4    4    0  501 -0.75299509232E+01  0.48227614084E+02 -0.16685779039E+02  0.51798727236E+02  0.47000000000E+01 0.  1.
          1    1    1    2  502    0  0.52680486964E+02  0.16997082833E+03  0.36314027146E+04  0.36357600294E+04  0.00000000000E+00 0. -1.
          1    1    1    2  503    0 -0.37905900507E+02 -0.31952580335E+03 -0.16496443064E+04  0.16807319638E+04  0.00000000000E+00 0. -1.
<mgrwt>
<rscale>  0 0.16125762E+03</rscale>
<asrwt>0</asrwt>
<pdfrwt beam="1">  1        2 0.55894424E+00 0.18423929E+03</pdfrwt>
<pdfrwt beam="2">  1        2 0.29216190E+00 0.14114264E+03</pdfrwt>
<totfact> 0.12417713E+00</totfact>
</mgrwt>
</event>
<event>
13    1  0.1675423E-008  0.9633463E+02  0.7546771E-02  0.1351317E+00
          2   -1    0    0  502    0  0.00000000000E+00  0.00000000000E+00  0.70318985615E+03  0.70318985615E+03  0.00000000000E+00 0. -1.
          2   -1    0    0  503    0 -0.00000000000E+00 -0.00000000000E+00 -0.16256393359E+04  0.16256393359E+04  0.00000000000E+00 0. -1.
         24    2    1    2    0    0  0.10036449258E+03  0.32357452192E+01  0.99442244007E+02  0.16292534517E+03  0.81070381701E+02 0.  0.
         25    2    1    2    0    0 -0.62889266592E+02  0.10252545330E+03  0.26909477441E+02  0.17553385621E+03  0.12498594430E+03 0.  0.
         24    2    1    2    0    0 -0.66032985678E+01  0.18205369429E+02 -0.94614927105E+03  0.94972000634E+03  0.79966294806E+02 0.  0.
        -11    1    3    3    0    0  0.10259876899E+03 -0.16706077924E+02  0.97909809637E+02  0.14280031954E+03  0.00000000000E+00 0.  1.
         12    1    3    3    0    0 -0.22342764185E+01  0.19941823144E+02  0.15324343693E+01  0.20125025627E+02  0.00000000000E+00 0. -1.
        -11    1    5    5    0    0  0.17912356821E+02  0.22051742921E+02 -0.12467420154E+03  0.12787020147E+03  0.00000000000E+00 0.  1.
         12    1    5    5    0    0 -0.24515655389E+02 -0.38463734912E+01 -0.82147506951E+03  0.82184980487E+03  0.00000000000E+00 0. -1.
          5    1    4    4  501    0 -0.23831035754E+02  0.31612684799E+01  0.59056567417E+02  0.63934967261E+02  0.47000000000E+01 0. -1.
         -5    1    4    4    0  501 -0.39058230838E+02  0.99364184819E+02 -0.32147089976E+02  0.11159888895E+03  0.47000000000E+01 0. -1.
          1    1    1    2  502    0  0.15590048989E+02 -0.94940229835E+02  0.46272678061E+03  0.47262328589E+03  0.00000000000E+00 0. -1.
          1    1    1    2  503    0 -0.46461976404E+02 -0.29026338112E+02 -0.56537871081E+03  0.56802669848E+03  0.00000000000E+00 0. -1.
<mgrwt>
<rscale>  0 0.72646807E+02</rscale>
<asrwt>0</asrwt>
<pdfrwt beam="1">  1        2 0.10341027E+00 0.96334633E+02</pdfrwt>
<pdfrwt beam="2">  1        2 0.23906461E+00 0.54783607E+02</pdfrwt>
<totfact> 0.10343589E+02</totfact>
</mgrwt>
</event>
<event>
13    1  0.1675423E-008  0.1380306E+03  0.7546771E-02  0.1254916E+00
          2   -1    0    0  503    0  0.00000000000E+00  0.00000000000E+00  0.83878762391E+03  0.83878762391E+03  0.00000000000E+00 0. -1.
          2   -1    0    0  502    0 -0.00000000000E+00 -0.00000000000E+00 -0.27740289774E+04  0.27740289774E+04  0.00000000000E+00 0. -1.
         24    2    1    2    0    0 -0.92325425128E+02  0.33894847588E+02  0.18935374931E+03  0.22798661224E+03  0.80313188002E+02 0.  0.
         25    2    1    2    0    0 -0.22034018546E+03 -0.11261501745E+03 -0.59887550970E+02  0.28362563525E+03  0.12500017091E+03 0.  0.
         24    2    1    2    0    0  0.17287244609E+02  0.45544434822E+02 -0.22080852118E+02  0.98156722040E+02  0.82304517992E+02 0.  0.
        -11    1    3    3    0    0 -0.84768821829E+02 -0.60621461780E+01  0.11198008756E+03  0.14057753299E+03  0.00000000000E+00 0.  1.
         12    1    3    3    0    0 -0.75566032985E+01  0.39956993766E+02  0.77373661746E+02  0.87409079255E+02  0.00000000000E+00 0. -1.
        -13    1    5    5    0    0  0.40355665732E+02  0.30791665308E+02 -0.40683774835E+02  0.65052870374E+02  0.00000000000E+00 0.  1.
         14    1    5    5    0    0 -0.23068421123E+02  0.14752769514E+02  0.18602922718E+02  0.33103851665E+02  0.00000000000E+00 0. -1.
          5    1    4    4  501    0 -0.30594792765E+02  0.80445703675E+01  0.27654202305E+02  0.42280035026E+02  0.47000000000E+01 0. -1.
         -5    1    4    4    0  501 -0.18974539270E+03 -0.12065958782E+03 -0.87541753275E+02  0.24134560023E+03  0.47000000000E+01 0. -1.
          1    1    1    2  502    0  0.12820616013E+03  0.54938855816E+01 -0.25061962929E+04  0.25094794004E+04  0.00000000000E+00 0. -1.
          1    1    1    2  503    0  0.16717220585E+03  0.27681849460E+02  0.46356959326E+03  0.49356823135E+03  0.00000000000E+00 0. -1.
<mgrwt>
<rscale>  0 0.11311055E+03</rscale>
<asrwt>0</asrwt>
<pdfrwt beam="1">  1        2 0.12335112E+00 0.13803062E+03</pdfrwt>
<pdfrwt beam="2">  1        2 0.40794543E+00 0.92689552E+02</pdfrwt>
<totfact> 0.21715021E+01</totfact>
</mgrwt>
</event>
<event>
13    1  0.1675423E-008  0.6165885E+02  0.7546771E-02  0.1492236E+00
          2   -1    0    0  502    0  0.00000000000E+00  0.00000000000E+00  0.30999138896E+04  0.30999138896E+04  0.00000000000E+00 0. -1.
          2   -1    0    0  503    0 -0.00000000000E+00 -0.00000000000E+00 -0.12816171092E+04  0.12816171092E+04  0.00000000000E+00 0. -1.
         24    2    1    2    0    0 -0.10008742895E+03  0.11420451451E+03  0.21534528241E+04  0.21602565247E+04  0.79303355875E+02 0.  0.
         25    2    1    2    0    0  0.16406285140E+03 -0.66172419720E+01 -0.28586871833E+02  0.20832722114E+03  0.12499045855E+03 0.  0.
         24    2    1    2    0    0 -0.14682886850E+01 -0.12451841069E+03  0.35745213954E+02  0.15584234366E+03  0.86614809849E+02 0.  0.
        -11    1    5    5    0    0  0.32119501294E+02 -0.10064704412E+03  0.75591419205E+01  0.10591803662E+03  0.00000000000E+00 0.  1.
         12    1    5    5    0    0 -0.33587789979E+02 -0.23871366570E+02  0.28186072033E+02  0.49924307048E+02  0.00000000000E+00 0. -1.
        -13    1    3    3    0    0 -0.45786409990E+02  0.33940434511E+01  0.44849490471E+03  0.45083876765E+03  0.00000000000E+00 0.  1.
         14    1    3    3    0    0 -0.54301018957E+02  0.11081047106E+03  0.17049579194E+04  0.17094177570E+04  0.00000000000E+00 0. -1.
          5    1    4    4  501    0  0.10378923630E+03  0.18246843102E+02  0.40704664022E+02  0.11306684982E+03  0.47000000000E+01 0. -1.
         -5    1    4    4    0  501  0.60273615100E+02 -0.24864085075E+02 -0.69291535855E+02  0.95260371325E+02  0.47000000000E+01 0. -1.
          1    1    1    2  502    0 -0.60513110344E+02 -0.11959195215E+02  0.75594817701E+03  0.75846061546E+03  0.00000000000E+00 0. -1.
          1    1    1    2  503    0 -0.19940234188E+01  0.28890333368E+02 -0.10982625629E+04  0.10986442939E+04  0.00000000000E+00 0. -1.
<mgrwt>
<rscale>  0 0.42256157E+02</rscale>
<asrwt>0</asrwt>
<pdfrwt beam="1">  1        2 0.45586969E+00 0.61658853E+02</pdfrwt>
<pdfrwt beam="2">  1        2 0.18847310E+00 0.28959066E+02</pdfrwt>
<totfact> 0.96913076E+00</totfact>
</mgrwt>
</event>
<event>
13    1  0.1675423E-008  0.1795299E+03  0.7546771E-02  0.1290577E+00
          2   -1    0    0  502    0  0.00000000000E+00  0.00000000000E+00  0.18660462775E+04  0.18660462775E+04  0.00000000000E+00 0. -1.
          2   -1    0    0  503    0 -0.00000000000E+00 -0.00000000000E+00 -0.92147433240E+03  0.92147433240E+03  0.00000000000E+00 0. -1.
         24    2    1    2    0    0 -0.23680788460E+02 -0.17019884046E+03 -0.20958580954E+03  0.28265957445E+03  0.80260815072E+02 0.  0.
         25    2    1    2    0    0  0.14402055058E+03  0.38488237770E+03  0.98876220727E+03  0.10780315862E+04  0.12500013864E+03 0.  0.
         24    2    1    2    0    0 -0.83056009170E+02 -0.15724440554E+02 -0.12522047388E+03  0.16983697114E+03  0.77581383060E+02 0.  0.
        -11    1    3    3    0    0  0.25746903368E+02 -0.62549438607E+02 -0.10351090380E+03  0.12365210272E+03  0.00000000000E+00 0.  1.
         12    1    3    3    0    0 -0.49427691829E+02 -0.10764940185E+03 -0.10607490574E+03  0.15900747173E+03  0.00000000000E+00 0. -1.
        -13    1    5    5    0    0 -0.32559692466E+02 -0.45593122991E+02 -0.63467034474E+02  0.84657727954E+02  0.00000000000E+00 0.  1.
         14    1    5    5    0    0 -0.50496316704E+02  0.29868682437E+02 -0.61753439410E+02  0.85179243189E+02  0.00000000000E+00 0. -1.
          5    1    4    4  501    0  0.10190688592E+03  0.11455670974E+03  0.41270770717E+03  0.44029307819E+03  0.47000000000E+01 0. -1.
         -5    1    4    4    0  501  0.42113664658E+02  0.27032566797E+03  0.57605450010E+03  0.63773850801E+03  0.47000000000E+01 0. -1.
          1    1    1    2  502    0  0.32767192022E+02  0.38494963434E+02  0.74117459324E+03  0.74289658011E+03  0.00000000000E+00 0. -1.
          1    1    1    2  503    0 -0.70050944971E+02 -0.23745406012E+03 -0.45055857197E+03  0.51409589800E+03  0.00000000000E+00 0. -1.
<mgrwt>
<rscale>  0 0.95266360E+02</rscale>
<asrwt>0</asrwt>
<pdfrwt beam="1">  1        2 0.27441857E+00 0.50552459E+02</pdfrwt>
<pdfrwt beam="2">  1        2 0.13551093E+00 0.17952993E+03</pdfrwt>
<totfact> 0.56493877E+01</totfact>
</mgrwt>
</event>
<event>
13    1  0.1675423E-008  0.8366161E+02  0.7546771E-02  0.1338627E+00
          2   -1    0    0  502    0  0.00000000000E+00  0.00000000000E+00  0.24194657984E+04  0.24194657984E+04  0.00000000000E+00 0. -1.
          2   -1    0    0  503    0 -0.00000000000E+00 -0.00000000000E+00 -0.17315752932E+04  0.17315752932E+04  0.00000000000E+00 0. -1.
         24    2    1    2    0    0  0.27904511987E+02  0.20011740867E+02  0.47242304885E+03  0.48048609436E+03  0.80648733608E+02 0.  0.
         25    2    1    2    0    0 -0.44706016592E+02  0.15274988694E+03 -0.46350166556E+03  0.50575709143E+03  0.12500114269E+03 0.  0.
         24    2    1    2    0    0 -0.83476938389E+02 -0.57056038829E+02  0.14985093133E+03  0.19018513471E+03  0.59087164712E+02 0.  0.
        -11    1    3    3    0    0  0.12822976459E+02 -0.13388737879E+02  0.22862778569E+02  0.29434565924E+02  0.00000000000E+00 0.  1.
         12    1    3    3    0    0  0.15081535528E+02  0.33400478746E+02  0.44956027028E+03  0.45105152844E+03  0.00000000000E+00 0. -1.
        -13    1    5    5    0    0 -0.15197937866E+02 -0.10358382178E+02 -0.69986601612E+00  0.18405521160E+02  0.00000000000E+00 0.  1.
         14    1    5    5    0    0 -0.68279000523E+02 -0.46697656650E+02  0.15055079735E+03  0.17177961355E+03  0.00000000000E+00 0. -1.
          5    1    4    4  501    0 -0.10030778462E+02  0.74100784577E+01  0.48062328419E+01  0.14167415199E+02  0.47000000000E+01 0.  1.
         -5    1    4    4    0  501 -0.34675238130E+02  0.14533980849E+03 -0.46830789841E+03  0.49158967623E+03  0.47000000000E+01 0.  1.
          1    1    1    2  502    0  0.60254389596E+02 -0.57845914596E+02  0.17498564666E+04  0.17518488505E+04  0.00000000000E+00 0. -1.
          1    1    1    2  503    0  0.40024053398E+02 -0.57859674386E+02 -0.12207382761E+04  0.12227639206E+04  0.00000000000E+00 0. -1.
<mgrwt>
<rscale>  0 0.76719735E+02</rscale>
<asrwt>0</asrwt>
<pdfrwt beam="1">  1        2 0.35580379E+00 0.83661608E+02</pdfrwt>
<pdfrwt beam="2">  1        2 0.25464342E+00 0.70353868E+02</pdfrwt>
<totfact> 0.11633371E+01</totfact>
</mgrwt>
</event>
<event>
13    1  0.1675423E-008  0.1249932E+03  0.7546771E-02  0.1272664E+00
          2   -1    0    0  503    0  0.00000000000E+00  0.00000000000E+00  0.76697850001E+03  0.76697850001E+03  0.00000000000E+00 0. -1.
          2   -1    0    0  502    0 -0.00000000000E+00 -0.00000000000E+00 -0.13543406207E+04  0.13543406207E+04  0.00000000000E+00 0. -1.
         24    2    1    2    0    0 -0.30747994600E+02 -0.86238543738E+02  0.41071816526E+03  0.42837844262E+03  0.80225639438E+02 0.  0.
         25    2    1    2    0    0  0.16373515208E+03  0.64575809623E+02 -0.50738373939E+03  0.55139984551E+03  0.12499718165E+03 0.  0.
         24    2    1    2    0    0 -0.78923930954E+02  0.23783660929E+02  0.40577395567E+00  0.11455623462E+03  0.79550718621E+02 0.  0.
        -11    1    5    5    0    0  0.16263690708E+02 -0.28058334151E+00 -0.16727903660E+01  0.16351898668E+02  0.00000000000E+00 0.  1.
         12    1    5    5    0    0 -0.95187621661E+02  0.24064244271E+02  0.20785643217E+01  0.98204335950E+02  0.00000000000E+00 0. -1.
        -13    1    3    3    0    0 -0.77597048348E+01 -0.12309826191E+02  0.24538634659E+03  0.24581741991E+03  0.00000000000E+00 0.  1.
         14    1    3    3    0    0 -0.22988289765E+02 -0.73928717548E+02  0.16533181867E+03  0.18256102270E+03  0.00000000000E+00 0. -1.
          5    1    4    4  501    0  0.13045384927E+03  0.40318940384E+02 -0.20605695932E+03  0.24723548335E+03  0.47000000000E+01 0.  1.
         -5    1    4    4    0  501  0.33281302806E+02  0.24256869239E+02 -0.30132678007E+03  0.30416436217E+03  0.47000000000E+01 0.  1.
          1    1    1    2  502    0  0.48337469045E+02 -0.71209604075E+02 -0.74218590695E+03  0.74715944690E+03  0.00000000000E+00 0. -1.
          1    1    1    2  503    0 -0.10240069557E+03  0.69088677260E+02  0.25108358644E+03  0.27982515105E+03  0.00000000000E+00 0. -1.
<mgrwt>
<rscale>  0 0.10371903E+03</rscale>
<asrwt>0</asrwt>
<pdfrwt beam="1">  1        2 0.11279096E+00 0.12499320E+03</pdfrwt>
<pdfrwt beam="2">  1        2 0.19916774E+00 0.86065781E+02</pdfrwt>
<totfact> 0.12118437E+02</totfact>
</mgrwt>
</event>
<event>
13    1  0.1675423E-008  0.1122032E+03  0.7546771E-02  0.1270908E+00
          2   -1    0    0  502    0  0.00000000000E+00  0.00000000000E+00  0.25899467750E+04  0.25899467750E+04  0.00000000000E+00 0. -1.
          2   -1    0    0  503    0 -0.00000000000E+00 -0.00000000000E+00 -0.77322311611E+03  0.77322311611E+03  0.00000000000E+00 0. -1.
         24    2    1    2    0    0 -0.20103758094E+03  0.19466963812E+03  0.10523090746E+04  0.10915859374E+04  0.76766486234E+02 0.  0.
         25    2    1    2    0    0  0.30357882335E+02 -0.11866629156E+03  0.14229318116E+03  0.22555790872E+03  0.12500292399E+03 0.  0.
         24    2    1    2    0    0 -0.51211540596E+02  0.35655110284E+01  0.79227911701E+02  0.12378683257E+03  0.80067366423E+02 0.  0.
        -11    1    3    3    0    0 -0.28127937268E+01  0.30678054586E+02  0.77461390500E+02  0.83362592690E+02  0.00000000000E+00 0.  1.
         12    1    3    3    0    0 -0.19822478722E+03  0.16399158353E+03  0.97484768405E+03  0.10082233447E+04  0.00000000000E+00 0. -1.
        -13    1    5    5    0    0 -0.66331442273E+02  0.51586325697E+01  0.84631035101E+02  0.10765167823E+03  0.00000000000E+00 0.  1.
         14    1    5    5    0    0  0.15119901678E+02 -0.15931215413E+01 -0.54031233998E+01  0.16135154336E+02  0.00000000000E+00 0. -1.
          5    1    4    4  501    0  0.41392463902E+02 -0.10493844413E+03  0.37170091368E+02  0.11886596997E+03  0.47000000000E+01 0.  1.
         -5    1    4    4    0  501 -0.11034581567E+02 -0.13727847427E+02  0.10512308979E+03  0.10669193874E+03  0.47000000000E+01 0.  1.
          1    1    1    2  502    0  0.12055756682E+03 -0.32026228186E+02  0.12248361140E+04  0.12311715203E+04  0.00000000000E+00 0. -1.
          1    1    1    2  503    0  0.10133367239E+03 -0.47542629397E+02 -0.68194262249E+03  0.69106769216E+03  0.00000000000E+00 0. -1.
<mgrwt>
<rscale>  0 0.10460090E+03</rscale>
<asrwt>0</asrwt>
<pdfrwt beam="1">  1        2 0.38087452E+00 0.97513701E+02</pdfrwt>
<pdfrwt beam="2">  1        2 0.11370928E+00 0.11220320E+03</pdfrwt>
<totfact> 0.29745171E+01</totfact>
</mgrwt>
</event>
<event>
13    1  0.1675423E-008  0.1340673E+03  0.7546771E-02  0.1397624E+00
          2   -1    0    0  503    0  0.00000000000E+00  0.00000000000E+00  0.20595379010E+04  0.20595379010E+04  0.00000000000E+00 0. -1.
          2   -1    0    0  502    0 -0.00000000000E+00 -0.00000000000E+00 -0.16311600978E+04  0.16311600978E+04  0.00000000000E+00 0. -1.
         24    2    1    2    0    0  0.21235292453E+03  0.19664629388E+03 -0.17059558453E+03  0.34558513518E+03  0.81010510050E+02 0.  0.
         25    2    1    2    0    0 -0.31642480088E+03 -0.12916482594E+02  0.36965047258E+02  0.34246411795E+03  0.12499506883E+03 0.  0.
         24    2    1    2    0    0  0.10142023927E+01 -0.68945802671E+02 -0.18588097918E+03  0.21388080195E+03  0.80241552264E+02 0.  0.
        -11    1    5    5    0    0 -0.23771062362E+02 -0.64639822274E+02 -0.82431857746E+02  0.10741685715E+03  0.00000000000E+00 0.  1.
         12    1    5    5    0    0  0.24785264754E+02 -0.43059803967E+01 -0.10344912144E+03  0.10646394480E+03  0.00000000000E+00 0. -1.
        -13    1    3    3    0    0  0.11923132886E+03  0.15849255539E+03 -0.96170535898E+02  0.22041953605E+03  0.00000000000E+00 0.  1.
         14    1    3    3    0    0  0.93121595672E+02  0.38153738491E+02 -0.74425048636E+02  0.12516559913E+03  0.00000000000E+00 0. -1.
          5    1    4    4  501    0 -0.57169859197E+02 -0.46179643527E+02  0.33787481954E+02  0.81022442654E+02  0.47000000000E+01 0.  1.
         -5    1    4    4    0  501 -0.25925494168E+03  0.33263160933E+02  0.31775653036E+01  0.26144167530E+03  0.47000000000E+01 0.  1.
          1    1    1    2  502    0  0.89265432226E+02 -0.91692874364E+02 -0.10163244277E+04  0.10243491802E+04  0.00000000000E+00 0. -1.
          1    1    1    2  503    0  0.13792241732E+02 -0.23091134254E+02  0.17642137474E+04  0.17644187635E+04  0.00000000000E+00 0. -1.
<mgrwt>
<rscale>  0 0.60049592E+02</rscale>
<asrwt>0</asrwt>
<pdfrwt beam="1">  1        2 0.30287322E+00 0.26896587E+02</pdfrwt>
<pdfrwt beam="2">  1        2 0.23987649E+00 0.13406733E+03</pdfrwt>
<totfact> 0.20964348E+01</totfact>
</mgrwt>
</event>
<event>
13    1  0.1675423E-008  0.5806222E+02  0.7546771E-02  0.1529603E+00
          2   -1    0    0  502    0  0.00000000000E+00  0.00000000000E+00  0.20092046192E+04  0.20092046192E+04  0.00000000000E+00 0. -1.
          2   -1    0    0  503    0 -0.00000000000E+00 -0.00000000000E+00 -0.23831799229E+04  0.23831799229E+04  0.00000000000E+00 0. -1.
         24    2    1    2    0    0 -0.65775839500E+03  0.27013498690E+03  0.12544632559E+04  0.14442191557E+04  0.80448069821E+02 0.  0.
         25    2    1    2    0    0  0.20569135279E+03 -0.67680096352E+03 -0.37754060921E+03  0.81150100930E+03  0.12501399784E+03 0.  0.
         24    2    1    2    0    0  0.46301691070E+03  0.44982267468E+03 -0.28092687739E+03  0.70849306025E+03  0.79482122032E+02 0.  0.
        -13    1    5    5    0    0  0.25145777677E+03  0.29781018934E+03 -0.17548049774E+03  0.42745213470E+03  0.00000000000E+00 0.  1.
         14    1    5    5    0    0  0.21155913393E+03  0.15201248533E+03 -0.10544637965E+03  0.28104092554E+03  0.00000000000E+00 0. -1.
        -13    1    3    3    0    0 -0.48112338171E+03  0.19279353762E+03  0.83900641472E+03  0.98619512294E+03  0.00000000000E+00 0.  1.
         14    1    3    3    0    0 -0.17663501330E+03  0.77341449273E+02  0.41545684118E+03  0.45802403276E+03  0.00000000000E+00 0. -1.
          5    1    4    4  501    0  0.15173502937E+03 -0.39104327130E+03 -0.28163672629E+03  0.50525211011E+03  0.47000000000E+01 0.  1.
         -5    1    4    4    0  501  0.53956323423E+02 -0.28575769222E+03 -0.95903882916E+02  0.30624889919E+03  0.47000000000E+01 0.  1.
          1    1    1    2  502    0  0.23620779328E+02  0.35001988787E+01  0.22777258726E+03  0.22902083773E+03  0.00000000000E+00 0. -1.
          1    1    1    2  503    0 -0.34570647824E+02 -0.46656896932E+02 -0.11977436603E+04  0.11991504791E+04  0.00000000000E+00 0. -1.
<mgrwt>
<rscale>  0 0.37235074E+02</rscale>
<asrwt>0</asrwt>
<pdfrwt beam="1">  1        2 0.29547127E+00 0.23878706E+02</pdfrwt>
<pdfrwt beam="2">  1        2 0.35046764E+00 0.58062223E+02</pdfrwt>
<totfact> 0.10643068E+01</totfact>
</mgrwt>
</event>
<event>
13    1  0.1675423E-008  0.8185086E+02  0.7546771E-02  0.1337881E+00
          4   -1    0    0  503    0 -0.00000000000E+00  0.00000000000E+00  0.26154808581E+03  0.26154808581E+03  0.00000000000E+00 0. -1.
          2   -1    0    0  502    0  0.00000000000E+00 -0.00000000000E+00 -0.38526262574E+04  0.38526262574E+04  0.00000000000E+00 0. -1.
         24    2    1    2    0    0 -0.39709988443E+02  0.84173280964E+01 -0.55198690462E+03  0.55923039407E+03  0.80008475697E+02 0.  0.
         25    2    1    2    0    0 -0.51393222068E+02 -0.17073575267E+03 -0.47600607832E+02  0.22289837759E+03  0.12500363335E+03 0.  0.
         24    2    1    2    0    0  0.16525439318E+03  0.33620985209E+02 -0.68642486896E+03  0.71156184114E+03  0.81864326327E+02 0.  0.
        -11    1    3    3    0    0 -0.21326883634E+02 -0.34601166195E+02 -0.32021439747E+03  0.32278373103E+03  0.00000000000E+00 0.  1.
         12    1    3    3    0    0 -0.18383104808E+02  0.43018494291E+02 -0.23177250715E+03  0.23644666304E+03  0.00000000000E+00 0. -1.
        -11    1    5    5    0    0  0.29334245658E+02  0.11460957645E+02 -0.41498391586E+02  0.52095758203E+02  0.00000000000E+00 0.  1.
         12    1    5    5    0    0  0.13592014752E+03  0.22160027564E+02 -0.64492647737E+03  0.65946608293E+03  0.00000000000E+00 0. -1.
          5    1    4    4  501    0  0.67670036085E+01  0.15691966353E+01  0.25499930105E+02  0.26843828923E+02  0.47000000000E+01 0. -1.
         -5    1    4    4    0  501 -0.58160225677E+02 -0.17230494930E+03 -0.73100537937E+02  0.19605454866E+03  0.47000000000E+01 0. -1.
          1    1    1    2  502    0 -0.17562288601E+02  0.70214645249E+02 -0.24517069945E+04  0.24527751053E+04  0.00000000000E+00 0. -1.
          3    1    1    2  503    0 -0.56588894067E+02  0.58482794114E+02  0.14664120430E+03  0.16770862512E+03  0.00000000000E+00 0. -1.
<mgrwt>
<rscale>  0 0.76968673E+02</rscale>
<asrwt>0</asrwt>
<pdfrwt beam="2">  1        2 0.56656265E+00 0.72377693E+02</pdfrwt>
<pdfrwt beam="1">  1        4 0.38462956E-01 0.81850863E+02</pdfrwt>
<totfact> 0.31719646E+00</totfact>
</mgrwt>
</event>
<event>
13    1  0.1675423E-008  0.2042087E+03  0.7546771E-02  0.1253535E+00
          2   -1    0    0  503    0  0.00000000000E+00  0.00000000000E+00  0.55025843522E+03  0.55025843522E+03  0.00000000000E+00 0. -1.
          2   -1    0    0  502    0 -0.00000000000E+00 -0.00000000000E+00 -0.44975686887E+04  0.44975686887E+04  0.00000000000E+00 0. -1.
         24    2    1    2    0    0 -0.12531665082E+03  0.14983644877E+02  0.12099057145E+03  0.19709165655E+03  0.90981482272E+02 0.  0.
         25    2    1    2    0    0 -0.13435918650E+02 -0.91571697680E+02 -0.93955830441E+03  0.95234527354E+03  0.12500325162E+03 0.  0.
         24    2    1    2    0    0 -0.20984972188E+02 -0.13040467206E+03 -0.14848270821E+03  0.21450479726E+03  0.80743085510E+02 0.  0.
        -11    1    5    5    0    0  0.13454510812E+02 -0.40027651961E+02 -0.65221093911E+01  0.42729084867E+02  0.00000000000E+00 0.  1.
         12    1    5    5    0    0 -0.34439482999E+02 -0.90377020103E+02 -0.14196059882E+03  0.17177571240E+03  0.00000000000E+00 0. -1.
        -13    1    3    3    0    0 -0.45073004955E+01  0.25523777701E+02  0.50658423573E+02  0.56903909047E+02  0.00000000000E+00 0.  1.
         14    1    3    3    0    0 -0.12080935032E+03 -0.10540132825E+02  0.70332147876E+02  0.14018774750E+03  0.00000000000E+00 0. -1.
          5    1    4    4  501    0  0.37084444676E+02 -0.67309715563E+02 -0.76696415873E+03  0.77081902197E+03  0.47000000000E+01 0. -1.
         -5    1    4    4    0  501 -0.50520363326E+02 -0.24261982117E+02 -0.17259414568E+03  0.18152625157E+03  0.47000000000E+01 0. -1.
          1    1    1    2  502    0  0.51843477840E+01 -0.63303531569E+02 -0.32628120834E+04  0.32634302361E+04  0.00000000000E+00 0. -1.
          1    1    1    2  503    0  0.15455319387E+03  0.27029625644E+03  0.28255227112E+03  0.42045516039E+03  0.00000000000E+00 0. -1.
<mgrwt>
<rscale>  0 0.11388770E+03</rscale>
<asrwt>0</asrwt>
<pdfrwt beam="1">  1        2 0.80920360E-01 0.20420866E+03</pdfrwt>
<pdfrwt beam="2">  1        2 0.66140715E+00 0.63515467E+02</pdfrwt>
<totfact> 0.32948164E+00</totfact>
</mgrwt>
</event>
<event>
13    1  0.1675423E-008  0.1219373E+03  0.7546771E-02  0.1388001E+00
          2   -1    0    0  503    0  0.00000000000E+00  0.00000000000E+00  0.14718230321E+04  0.14718230321E+04  0.00000000000E+00 0. -1.
          2   -1    0    0  502    0 -0.00000000000E+00 -0.00000000000E+00 -0.93469647792E+03  0.93469647792E+03  0.00000000000E+00 0. -1.
         24    2    1    2    0    0 -0.31851209630E+03 -0.51583286044E+02  0.61305571916E+03  0.69781068446E+03  0.83616061006E+02 0.  0.
         25    2    1    2    0    0  0.27533593274E+03 -0.46862564451E+02  0.12352661889E+03  0.32998378520E+03  0.12499798846E+03 0.  0.
         24    2    1    2    0    0 -0.10306385391E+03  0.10308771961E+03 -0.85405086597E+02  0.18633588684E+03  0.78598969389E+02 0.  0.
        -13    1    5    5    0    0 -0.28158104181E+02  0.78596663853E+02 -0.62425159663E+02  0.10424593498E+03  0.00000000000E+00 0.  1.
         14    1    5    5    0    0 -0.74905749730E+02  0.24491055760E+02 -0.22979926933E+02  0.82089951862E+02  0.00000000000E+00 0. -1.
        -13    1    3    3    0    0 -0.12102805747E+03 -0.60966169851E+02  0.24107462078E+03  0.27655313657E+03  0.00000000000E+00 0.  1.
         14    1    3    3    0    0 -0.19748403883E+03  0.93828838069E+01  0.37198109838E+03  0.42125754789E+03  0.00000000000E+00 0. -1.
          5    1    4    4  501    0  0.21694723387E+03 -0.44946533186E+02  0.35795247649E+02  0.22447646398E+03  0.47000000000E+01 0. -1.
         -5    1    4    4    0  501  0.58388698871E+02 -0.19160312650E+01  0.87731371239E+02  0.10550732122E+03  0.47000000000E+01 0. -1.
          1    1    1    2  502    0  0.26853951691E+02  0.17290921132E+02 -0.64598853283E+03  0.64677762425E+03  0.00000000000E+00 0. -1.
          1    1    1    2  503    0  0.11938606578E+03 -0.21932790250E+02  0.53193783555E+03  0.54561152927E+03  0.00000000000E+00 0. -1.
<mgrwt>
<rscale>  0 0.62406553E+02</rscale>
<asrwt>0</asrwt>
<pdfrwt beam="1">  1        2 0.21644456E+00 0.12193735E+03</pdfrwt>
<pdfrwt beam="2">  1        2 0.13745536E+00 0.31939171E+02</pdfrwt>
<totfact> 0.85678005E+01</totfact>
</mgrwt>
</event>
<event>
13    1  0.1675423E-008  0.1608614E+03  0.7546771E-02  0.1222505E+00
          2   -1    0    0  502    0  0.00000000000E+00  0.00000000000E+00  0.21826507967E+04  0.21826507967E+04  0.00000000000E+00 0. -1.
          2   -1    0    0  503    0 -0.00000000000E+00 -0.00000000000E+00 -0.25006567876E+04  0.25006567876E+04  0.00000000000E+00 0. -1.
         24    2    1    2    0    0  0.26003399262E+02  0.42275709027E+01  0.87564756058E+02  0.12193631528E+03  0.80664920203E+02 0.  0.
         25    2    1    2    0    0 -0.26602109748E+03 -0.33024817199E+03 -0.22386556809E+02  0.44267141160E+03  0.12500296523E+03 0.  0.
         24    2    1    2    0    0 -0.14131112189E+02 -0.11696125543E+02 -0.16748149713E+03  0.18741870256E+03  0.82092816409E+02 0.  0.
        -11    1    3    3    0    0  0.18888827751E+02 -0.20783371731E+02 -0.24975365762E+01  0.28195284061E+02  0.00000000000E+00 0.  1.
         12    1    3    3    0    0  0.71145715112E+01  0.25010942634E+02  0.90062292634E+02  0.93741031218E+02  0.00000000000E+00 0. -1.
        -13    1    5    5    0    0 -0.41667405075E+02  0.73220698386E+01 -0.51198420477E+02  0.66415838561E+02  0.00000000000E+00 0.  1.
         14    1    5    5    0    0  0.27536292886E+02 -0.19018195382E+02 -0.11628307665E+03  0.12100286400E+03  0.00000000000E+00 0. -1.
          5    1    4    4  501    0 -0.87021093302E+02 -0.33392645682E+02 -0.22466003187E+02  0.95992451600E+02  0.47000000000E+01 0. -1.
         -5    1    4    4    0  501 -0.17900000418E+03 -0.29685552631E+03  0.79446377814E-01  0.34667896000E+03  0.47000000000E+01 0. -1.
          1    1    1    2  502    0  0.19547690908E+03  0.18944004364E+03  0.18447205801E+04  0.18646964286E+04  0.00000000000E+00 0. -1.
          1    1    1    2  503    0  0.58671901329E+02  0.14827668299E+03 -0.20604232731E+04  0.20665847263E+04  0.00000000000E+00 0. -1.
<mgrwt>
<rscale>  0 0.13339386E+03</rscale>
<asrwt>0</asrwt>
<pdfrwt beam="1">  1        2 0.32097806E+00 0.16086138E+03</pdfrwt>
<pdfrwt beam="2">  1        2 0.36774364E+00 0.11061650E+03</pdfrwt>
<totfact> 0.56979740E+00</totfact>
</mgrwt>
</event>
<event>
13    1  0.1675423E-008  0.1361279E+03  0.7546771E-02  0.1231798E+00
          2   -1    0    0  502    0  0.00000000000E+00  0.00000000000E+00  0.33201069100E+04  0.33201069100E+04  0.00000000000E+00 0. -1.
          2   -1    0    0  503    0 -0.00000000000E+00 -0.00000000000E+00 -0.12670901682E+04  0.12670901682E+04  0.00000000000E+00 0. -1.
         24    2    1    2    0    0  0.22767691501E+03 -0.18077484216E+03  0.47943996185E+03  0.56656303412E+03  0.81330642613E+02 0.  0.
         25    2    1    2    0    0 -0.17672189524E+03  0.71951992861E+02 -0.26646552126E+03  0.35076478160E+03  0.12499736180E+03 0.  0.
         24    2    1    2    0    0 -0.13579551002E+03 -0.34995373864E+02  0.79623361764E+02  0.17971339987E+03  0.79321684443E+02 0.  0.
        -11    1    3    3    0    0  0.15236404398E+03 -0.15879592186E+03  0.31373553192E+03  0.38322438686E+03  0.00000000000E+00 0.  1.
         12    1    3    3    0    0  0.75312871027E+02 -0.21978920302E+02  0.16570442993E+03  0.18333864726E+03  0.00000000000E+00 0. -1.
        -11    1    5    5    0    0 -0.16147875797E+02 -0.29151138658E+02  0.43096384050E+02  0.54477895481E+02  0.00000000000E+00 0.  1.
         12    1    5    5    0    0 -0.11964763422E+03 -0.58442352060E+01  0.36526977713E+02  0.12523550439E+03  0.00000000000E+00 0. -1.
          5    1    4    4  501    0 -0.16875386409E+03  0.93633233733E+02 -0.19045507266E+03  0.27118310015E+03  0.47000000000E+01 0.  1.
         -5    1    4    4    0  501 -0.79680311521E+01 -0.21681240872E+02 -0.76010448601E+02  0.79581681452E+02  0.47000000000E+01 0.  1.
          1    1    1    2  502    0  0.11812554578E+03  0.11686728189E+02  0.26185676192E+04  0.26212566834E+04  0.00000000000E+00 0. -1.
          1    1    1    2  503    0 -0.33285055533E+02  0.13213149498E+03 -0.85814867980E+03  0.86889917915E+03  0.00000000000E+00 0. -1.
<mgrwt>
<rscale>  0 0.12711682E+03</rscale>
<asrwt>0</asrwt>
<pdfrwt beam="1">  1        2 0.48825101E+00 0.11870225E+03</pdfrwt>
<pdfrwt beam="2">  1        2 0.18633679E+00 0.13612788E+03</pdfrwt>
<totfact> 0.60196825E+00</totfact>
</mgrwt>
</event>
<event>
13    1  0.1675423E-008  0.1032376E+03  0.7546771E-02  0.1365480E+00
          2   -1    0    0  503    0  0.00000000000E+00  0.00000000000E+00  0.10968495933E+04  0.10968495933E+04  0.00000000000E+00 0. -1.
          2   -1    0    0  502    0 -0.00000000000E+00 -0.00000000000E+00 -0.11625324271E+04  0.11625324271E+04  0.00000000000E+00 0. -1.
         24    2    1    2    0    0  0.13807911011E+02  0.46323311563E+02 -0.11005511511E+02  0.95891788856E+02  0.82082923228E+02 0.  0.
         25    2    1    2    0    0  0.11371367943E+03  0.61141830295E+02 -0.14797126133E+03  0.23278821594E+03  0.12500293996E+03 0.  0.
         24    2    1    2    0    0 -0.18150299141E+02 -0.36899463298E+02 -0.32569349764E+03  0.33814992373E+03  0.81105565542E+02 0.  0.
        -11    1    5    5    0    0  0.71314845736E+01 -0.57686270218E+02 -0.21505795181E+03  0.22277451937E+03  0.00000000000E+00 0.  1.
         12    1    5    5    0    0 -0.25281783715E+02  0.20786806920E+02 -0.11063554583E+03  0.11537540436E+03  0.00000000000E+00 0. -1.
        -13    1    3    3    0    0  0.26244392582E+02 -0.14949972925E+02 -0.14014478636E+02  0.33296778281E+02  0.00000000000E+00 0.  1.
         14    1    3    3    0    0 -0.12436481570E+02  0.61273284488E+02  0.30089671249E+01  0.62595010575E+02  0.00000000000E+00 0. -1.
          5    1    4    4  501    0  0.91133863417E+02  0.29417427735E+02 -0.18684599354E+02  0.97683009622E+02  0.47000000000E+01 0. -1.
         -5    1    4    4    0  501  0.22579816017E+02  0.31724402559E+02 -0.12928666197E+03  0.13510520632E+03  0.47000000000E+01 0. -1.
          1    1    1    2  502    0 -0.89140626085E+02 -0.29954268315E+02 -0.58249769888E+03  0.59003972630E+03  0.00000000000E+00 0. -1.
          1    1    1    2  503    0 -0.20230665218E+02 -0.40611410245E+02  0.10014851355E+04  0.10025123655E+04  0.00000000000E+00 0. -1.
<mgrwt>
<rscale>  0 0.68440017E+02</rscale>
<asrwt>0</asrwt>
<pdfrwt beam="1">  1        2 0.16130141E+00 0.45371428E+02</pdfrwt>
<pdfrwt beam="2">  1        2 0.17096065E+00 0.10323757E+03</pdfrwt>
<totfact> 0.10037049E+02</totfact>
</mgrwt>
</event>
<event>
13    1  0.1675423E-008  0.7720897E+02  0.7546771E-02  0.1416363E+00
          2   -1    0    0  503    0  0.00000000000E+00  0.00000000000E+00  0.45078598474E+04  0.45078598474E+04  0.00000000000E+00 0. -1.
          2   -1    0    0  502    0 -0.00000000000E+00 -0.00000000000E+00 -0.26127449415E+04  0.26127449415E+04  0.00000000000E+00 0. -1.
         24    2    1    2    0    0  0.11589549878E+04  0.14591283176E+04 -0.53928364931E+03  0.19415159523E+04  0.80157519514E+02 0.  0.
         25    2    1    2    0    0 -0.25129048939E+03 -0.11429335066E+04 -0.30842617149E+03  0.12166325867E+04  0.12499694924E+03 0.  0.
         24    2    1    2    0    0 -0.84323870625E+03 -0.22587390217E+03  0.18705415365E+04  0.20665847958E+04  0.98876402722E+02 0.  0.
        -11    1    3    3    0    0  0.87281582528E+03  0.11068460487E+04 -0.37223481941E+03  0.14579006829E+04  0.00000000000E+00 0.  1.
         12    1    3    3    0    0  0.28613916250E+03  0.35228226892E+03 -0.16704882990E+03  0.48361526949E+03  0.00000000000E+00 0. -1.
        -13    1    5    5    0    0 -0.76700398132E+03 -0.22633153715E+03  0.16579872750E+04  0.18407723586E+04  0.00000000000E+00 0.  1.
         14    1    5    5    0    0 -0.76234724935E+02  0.45763497474E+00  0.21255426148E+03  0.22581243719E+03  0.00000000000E+00 0. -1.
          5    1    4    4  501    0 -0.20265658144E+03 -0.77688615768E+03 -0.26128383253E+03  0.84434182838E+03  0.47000000000E+01 0. -1.
         -5    1    4    4    0  501 -0.48633907955E+02 -0.36604734889E+03 -0.47142338953E+02  0.37229075835E+03  0.47000000000E+01 0. -1.
          1    1    1    2  502    0 -0.59952750300E+01 -0.39876095966E+02 -0.50992123688E+03  0.51151316129E+03  0.00000000000E+00 0. -1.
          1    1    1    2  503    0 -0.58430517103E+02 -0.50444812876E+02  0.13822044271E+04  0.13843582928E+04  0.00000000000E+00 0. -1.
<mgrwt>
<rscale>  0 0.55797804E+02</rscale>
<asrwt>0</asrwt>
<pdfrwt beam="1">  1        2 0.66292056E+00 0.77208970E+02</pdfrwt>
<pdfrwt beam="2">  1        2 0.38422720E+00 0.40324265E+02</pdfrwt>
<totfact> 0.27320984E-01</totfact>
</mgrwt>
</event>
<event>
13    1  0.1675423E-008  0.8135813E+02  0.7546771E-02  0.1330205E+00
          2   -1    0    0  502    0  0.00000000000E+00  0.00000000000E+00  0.69589753614E+03  0.69589753614E+03  0.00000000000E+00 0. -1.
          2   -1    0    0  503    0 -0.00000000000E+00 -0.00000000000E+00 -0.10853822009E+04  0.10853822009E+04  0.00000000000E+00 0. -1.
         24    2    1    2    0    0  0.37346748067E+02  0.39180993226E+02  0.74375026871E+02  0.12567931380E+03  0.85637115046E+02 0.  0.
         25    2    1    2    0    0 -0.12701800500E+03 -0.11542100720E+03 -0.52602341292E+03  0.56725095840E+03  0.12496974178E+03 0.  0.
         24    2    1    2    0    0  0.90914059097E+02  0.97246687048E+02  0.79551730747E+01  0.17171168257E+03  0.10816345440E+03 0.  0.
        -11    1    5    5    0    0  0.14276889888E+01  0.68439629109E+02 -0.23816285886E+02  0.72479214965E+02  0.00000000000E+00 0.  1.
         12    1    5    5    0    0  0.89486370108E+02  0.28807057939E+02  0.31771458961E+02  0.99232467603E+02  0.00000000000E+00 0. -1.
        -13    1    3    3    0    0  0.60433097514E+02  0.61648026195E+01  0.40138495019E+02  0.72809771657E+02  0.00000000000E+00 0.  1.
         14    1    3    3    0    0 -0.23086349446E+02  0.33016190607E+02  0.34236531853E+02  0.52869542141E+02  0.00000000000E+00 0. -1.
          5    1    4    4  501    0 -0.10191411509E+03 -0.13131103045E+02 -0.20503265246E+03  0.22938916996E+03  0.47000000000E+01 0.  1.
         -5    1    4    4    0  501 -0.25103889911E+02 -0.10228990415E+03 -0.32099076046E+03  0.33786178843E+03  0.47000000000E+01 0.  1.
          1    1    1    2  502    0  0.77788354510E+02  0.35638391310E+01  0.47827396725E+03  0.48457168385E+03  0.00000000000E+00 0. -1.
          1    1    1    2  503    0 -0.79031156674E+02 -0.24570512207E+02 -0.42406541903E+03  0.43206609842E+03  0.00000000000E+00 0. -1.
<mgrwt>
<rscale>  0 0.79594934E+02</rscale>
<asrwt>0</asrwt>
<pdfrwt beam="1">  1        2 0.10233787E+00 0.77869950E+02</pdfrwt>
<pdfrwt beam="2">  1        2 0.15961503E+00 0.81358130E+02</pdfrwt>
<totfact> 0.19116457E+02</totfact>
</mgrwt>
</event>
<event>
13    1  0.1675423E-008  0.1346750E+03  0.7546771E-02  0.1357910E+00
         -1   -1    0    0    0  501 -0.00000000000E+00  0.00000000000E+00  0.37557694064E+03  0.37557694064E+03  0.00000000000E+00 0.  1.
          2   -1    0    0  503    0  0.00000000000E+00 -0.00000000000E+00 -0.24031779510E+04  0.24031779510E+04  0.00000000000E+00 0. -1.
         24    2    1    2    0    0  0.13986948689E+03  0.18533576735E+03 -0.77234925065E+03  0.81043454450E+03  0.79799535818E+02 0.  0.
         25    2    1    2    0    0 -0.13314071558E+03  0.61510677726E+02 -0.38184720377E+02  0.19645407656E+03  0.12500447075E+03 0.  0.
         24    2    1    2    0    0 -0.34492013839E+02 -0.23714286613E+02 -0.24886603147E+03  0.26460332348E+03  0.79552188981E+02 0.  0.
        -11    1    3    3    0    0  0.10843378716E+03  0.14098985281E+03 -0.68360998653E+03  0.70637004359E+03  0.00000000000E+00 0.  1.
         12    1    3    3    0    0  0.31435699727E+02  0.44345914538E+02 -0.88739264120E+02  0.10406450091E+03  0.00000000000E+00 0. -1.
        -13    1    5    5    0    0  0.25594260684E+02 -0.12252237982E+01 -0.65202615648E+02  0.70056751571E+02  0.00000000000E+00 0.  1.
         14    1    5    5    0    0 -0.60086274523E+02 -0.22489062815E+02 -0.18366341582E+03  0.19454657191E+03  0.00000000000E+00 0. -1.
          5    1    4    4  502    0  0.13106754114E+02 -0.16293712083E+02  0.10307692503E+02  0.23782568860E+02  0.47000000000E+01 0. -1.
         -5    1    4    4    0  502 -0.14624746969E+03  0.77804389808E+02 -0.48492412880E+02  0.17267150770E+03  0.47000000000E+01 0. -1.
          1    1    1    2  503    0  0.98782265792E+01 -0.19067513023E+03 -0.12290513640E+04  0.12437933269E+04  0.00000000000E+00 0. -1.
         -2    1    1    2    0  501  0.17885015948E+02 -0.32457028236E+02  0.26085035614E+03  0.26346962021E+03  0.00000000000E+00 0.  1.
<mgrwt>
<rscale>  0 0.70645975E+02</rscale>
<asrwt>0</asrwt>
<pdfrwt beam="2">  1        2 0.35340854E+00 0.13467500E+03</pdfrwt>
<pdfrwt beam="1">  1       -1 0.55231901E-01 0.37058501E+02</pdfrwt>
<totfact> 0.22527979E+01</totfact>
</mgrwt>
</event>
<event>
13    1  0.1675423E-008  0.1432865E+03  0.7546771E-02  0.1304948E+00
          2   -1    0    0  503    0  0.00000000000E+00  0.00000000000E+00  0.22041342385E+04  0.22041342385E+04  0.00000000000E+00 0. -1.
          2   -1    0    0  502    0 -0.00000000000E+00 -0.00000000000E+00 -0.84197014909E+03  0.84197014909E+03  0.00000000000E+00 0. -1.
         24    2    1    2    0    0  0.53863134213E+02 -0.12083888101E+03  0.11203902471E+04  0.11310016496E+04  0.79919667048E+02 0.  0.
         25    2    1    2    0    0 -0.11281791941E+03 -0.14053948065E+02 -0.20906868948E+03  0.26880295750E+03  0.12497966492E+03 0.  0.
         24    2    1    2    0    0  0.14588387390E+03  0.15767909286E+03  0.32664773384E+03  0.39961976325E+03  0.82779297900E+02 0.  0.
        -11    1    5    5    0    0  0.76372031128E+02  0.25057951952E+02  0.10853979162E+03  0.13506100273E+03  0.00000000000E+00 0.  1.
         12    1    5    5    0    0  0.69511842773E+02  0.13262114091E+03  0.21810794222E+03  0.26455876051E+03  0.00000000000E+00 0. -1.
        -11    1    3    3    0    0 -0.11872765557E+02 -0.69351098744E+02  0.56656460698E+03  0.57091679897E+03  0.00000000000E+00 0.  1.
         12    1    3    3    0    0  0.65735899770E+02 -0.51487782264E+02  0.55382564016E+03  0.56008485066E+03  0.00000000000E+00 0. -1.
          5    1    4    4  501    0 -0.10299928469E+03 -0.24245243703E+02 -0.22395101500E+03  0.24773540645E+03  0.47000000000E+01 0. -1.
         -5    1    4    4    0  501 -0.98186347221E+01  0.10191295638E+02  0.14882325518E+02  0.21067551054E+02  0.47000000000E+01 0. -1.
          1    1    1    2  502    0 -0.13354976256E+03 -0.52815725581E+02 -0.55089983081E+03  0.56931156983E+03  0.00000000000E+00 0. -1.
          1    1    1    2  503    0  0.46620673860E+02  0.30029461790E+02  0.67509462875E+03  0.67736844743E+03  0.00000000000E+00 0. -1.
<mgrwt>
<rscale>  0 0.89140056E+02</rscale>
<asrwt>0</asrwt>
<pdfrwt beam="1">  1        2 0.32413739E+00 0.55454989E+02</pdfrwt>
<pdfrwt beam="2">  1        2 0.12381914E+00 0.14328647E+03</pdfrwt>
<totfact> 0.43998490E+01</totfact>
</mgrwt>
</event>
<event>
13    1  0.2727384E-008  0.1188611E+03  0.7546771E-02  0.1273663E+00
          2   -1    0    0  502    0  0.00000000000E+00  0.00000000000E+00  0.11932128855E+04  0.11932128855E+04  0.00000000000E+00 0. -1.
          2   -1    0    0  503    0 -0.00000000000E+00 -0.00000000000E+00 -0.22257486752E+04  0.22257486752E+04  0.00000000000E+00 0. -1.
         24    2    1    2    0    0 -0.33322041257E+02  0.60795611465E+01  0.94775066800E+03  0.95183031432E+03  0.81254532524E+02 0.  0.
         25    2    1    2    0    0  0.16216599307E+03 -0.21209086722E+03 -0.85159900499E+03  0.90118061122E+03  0.12500113392E+03 0.  0.
         24    2    1    2    0    0  0.33213741163E+02  0.60026039700E+02 -0.10606164299E+03  0.15359046824E+03  0.87376666095E+02 0.  0.
        -11    1    5    5    0    0  0.66256195271E+01 -0.22675167511E+02 -0.16467592351E+02  0.28796591007E+02  0.00000000000E+00 0.  1.
         12    1    5    5    0    0  0.26588121636E+02  0.82701207211E+02 -0.89594050637E+02  0.12479387724E+03  0.00000000000E+00 0. -1.
        -13    1    3    3    0    0  0.19166922032E+01 -0.32016037772E+02  0.51136615383E+03  0.51237100197E+03  0.00000000000E+00 0.  1.
         14    1    3    3    0    0 -0.35238733460E+02  0.38095598919E+02  0.43638451418E+03  0.43945931235E+03  0.00000000000E+00 0. -1.
          5    1    4    4  501    0  0.13190569390E+03 -0.72755846942E+02 -0.48158425301E+03  0.50461669423E+03  0.47000000000E+01 0. -1.
         -5    1    4    4    0  501  0.30260299179E+02 -0.13933502028E+03 -0.37001475198E+03  0.39656391700E+03  0.47000000000E+01 0. -1.
          1    1    1    2  502    0 -0.80520776713E+02  0.10928844284E+03  0.16934661815E+03  0.21703878985E+03  0.00000000000E+00 0. -1.
          1    1    1    2  503    0 -0.81536916268E+02  0.36696823533E+02 -0.11919724279E+04  0.11953213771E+04  0.00000000000E+00 0. -1.
<mgrwt>
<rscale>  0 0.10322197E+03</rscale>
<asrwt>0</asrwt>
<pdfrwt beam="1">  1        2 0.17547248E+00 0.11886112E+03</pdfrwt>
<pdfrwt beam="2">  1        2 0.32731598E+00 0.89640553E+02</pdfrwt>
<totfact> 0.25563507E+01</totfact>
</mgrwt>
</event>
<event>
13    1  0.1675423E-008  0.1364679E+03  0.7546771E-02  0.1321132E+00
          2   -1    0    0  503    0  0.00000000000E+00  0.00000000000E+00  0.17301664091E+04  0.17301664091E+04  0.00000000000E+00 0. -1.
          2   -1    0    0  502    0 -0.00000000000E+00 -0.00000000000E+00 -0.29541941070E+04  0.29541941070E+04  0.00000000000E+00 0. -1.
         24    2    1    2    0    0 -0.34905677972E+03  0.16290209447E+03 -0.41735260401E+03  0.57368187288E+03  0.80931868533E+02 0.  0.
         25    2    1    2    0    0  0.36593244982E+03 -0.31517238931E+03 -0.42322410088E+03  0.65419052397E+03  0.12492561496E+03 0.  0.
         24    2    1    2    0    0  0.79152408674E+02  0.96862574133E+01 -0.75992490575E+02  0.13768984883E+03  0.82611793739E+02 0.  0.
        -11    1    3    3    0    0 -0.86025279878E+02  0.39812780859E+02 -0.56006207619E+02  0.11010041594E+03  0.00000000000E+00 0.  1.
         12    1    3    3    0    0 -0.26303149984E+03  0.12308931361E+03 -0.36134639639E+03  0.46358145694E+03  0.00000000000E+00 0. -1.
        -11    1    5    5    0    0  0.84123457780E+02  0.18520920074E+02 -0.87204834008E+02  0.12257431910E+03  0.00000000000E+00 0.  1.
         12    1    5    5    0    0 -0.49710491068E+01 -0.88346626605E+01  0.11212343433E+02  0.15115529723E+02  0.00000000000E+00 0. -1.
          5    1    4    4  501    0  0.73075478744E+02 -0.10018060266E+03 -0.51371784150E+02  0.13430312338E+03  0.47000000000E+01 0. -1.
         -5    1    4    4    0  501  0.29285697107E+03 -0.21499178665E+03 -0.37185231673E+03  0.51988740059E+03  0.47000000000E+01 0. -1.
          1    1    1    2  502    0 -0.48062555789E+02  0.14861799582E+02 -0.18096875118E+04  0.18103866363E+04  0.00000000000E+00 0. -1.
          1    1    1    2  503    0 -0.47965522981E+02  0.12772223785E+03  0.15022290094E+04  0.15084116342E+04  0.00000000000E+00 0. -1.
<mgrwt>
<rscale>  0 0.82857756E+02</rscale>
<asrwt>0</asrwt>
<pdfrwt beam="1">  1        2 0.25443624E+00 0.13646785E+03</pdfrwt>
<pdfrwt beam="2">  1        2 0.43444031E+00 0.50307876E+02</pdfrwt>
<totfact> 0.63943383E+00</totfact>
</mgrwt>
</event>
<event>
13    1  0.1675423E-008  0.6885558E+02  0.7546771E-02  0.1490606E+00
          2   -1    0    0  503    0  0.00000000000E+00  0.00000000000E+00  0.56759961795E+03  0.56759961795E+03  0.00000000000E+00 0. -1.
          2   -1    0    0  502    0 -0.00000000000E+00 -0.00000000000E+00 -0.49845148633E+04  0.49845148633E+04  0.00000000000E+00 0. -1.
         24    2    1    2    0    0  0.14417844820E+03 -0.83455550632E+02  0.29697392725E+03  0.35226537145E+03  0.90250344060E+02 0.  0.
         25    2    1    2    0    0  0.38691298233E+02 -0.17326836643E+03 -0.28609097306E+04  0.28691372605E+04  0.12500075780E+03 0.  0.
         24    2    1    2    0    0 -0.14917739037E+03  0.28656658291E+03 -0.65264522731E+01  0.34075867949E+03  0.10816460989E+03 0.  0.
        -11    1    3    3    0    0  0.10475848460E+02  0.15733544761E+02  0.12507217450E+02  0.22665355061E+02  0.00000000000E+00 0.  1.
         12    1    3    3    0    0  0.13370259974E+03 -0.99189095393E+02  0.28446670980E+03  0.32960001639E+03  0.00000000000E+00 0. -1.
        -11    1    5    5    0    0 -0.50949833404E+02  0.16697733423E+03 -0.47002962459E+02  0.18079434214E+03  0.00000000000E+00 0.  1.
         12    1    5    5    0    0 -0.98227556962E+02  0.11958924868E+03  0.40476510186E+02  0.15996433735E+03  0.00000000000E+00 0. -1.
          5    1    4    4  501    0  0.47895356709E+02 -0.11330510917E+03 -0.10477678112E+04  0.10549746391E+04  0.47000000000E+01 0. -1.
         -5    1    4    4    0  501 -0.92040584764E+01 -0.59963257257E+02 -0.18131419194E+04  0.18141626214E+04  0.47000000000E+01 0. -1.
          1    1    1    2  502    0 -0.59446274646E+02 -0.34806325653E+02 -0.19151661024E+04  0.19164045866E+04  0.00000000000E+00 0. -1.
          1    1    1    2  503    0  0.25753918578E+02  0.49636598056E+01  0.68713112663E+02  0.73548583213E+02  0.00000000000E+00 0. -1.
<mgrwt>
<rscale>  0 0.42496313E+02</rscale>
<asrwt>0</asrwt>
<pdfrwt beam="1">  1        2 0.83470528E-01 0.26227891E+02</pdfrwt>
<pdfrwt beam="2">  1        2 0.73301692E+00 0.68855579E+02</pdfrwt>
<totfact> 0.12236766E+00</totfact>
</mgrwt>
</event>
<event>
13    1  0.1675423E-008  0.1629734E+03  0.7546771E-02  0.1202971E+00
          2   -1    0    0  502    0  0.00000000000E+00  0.00000000000E+00  0.36352702681E+04  0.36352702681E+04  0.00000000000E+00 0. -1.
          2   -1    0    0  503    0 -0.00000000000E+00 -0.00000000000E+00 -0.26091655157E+04  0.26091655157E+04  0.00000000000E+00 0. -1.
         24    2    1    2    0    0  0.31864456150E+02  0.14916392725E+03 -0.15592046948E+03  0.23115092708E+03  0.76513642782E+02 0.  0.
         25    2    1    2    0    0  0.25422753194E+03  0.25526447390E+03  0.84392363262E+03  0.92608777713E+03  0.12505952034E+03 0.  0.
         24    2    1    2    0    0 -0.53350798834E+02 -0.15754296120E+02  0.25886113523E+03  0.27671397345E+03  0.80417847422E+02 0.  0.
        -11    1    5    5    0    0  0.18877335574E+01 -0.35285073119E+02  0.13724067941E+03  0.14171663279E+03  0.00000000000E+00 0.  1.
         12    1    5    5    0    0 -0.55238532392E+02  0.19530776999E+02  0.12162045582E+03  0.13499734066E+03  0.00000000000E+00 0. -1.
        -11    1    3    3    0    0 -0.55154523700E+01  0.93019425272E+02 -0.12758665056E+03  0.15799173110E+03  0.00000000000E+00 0.  1.
         12    1    3    3    0    0  0.37379908520E+02  0.56144501977E+02 -0.28333818911E+02  0.73159195986E+02  0.00000000000E+00 0. -1.
          5    1    4    4  501    0  0.25530085482E+03  0.22207614654E+03  0.81238929071E+03  0.88005385687E+03  0.47000000000E+01 0.  1.
         -5    1    4    4    0  501 -0.10733228778E+01  0.33188327360E+02  0.31534341910E+02  0.46033920261E+02  0.47000000000E+01 0.  1.
          1    1    1    2  502    0 -0.11820802300E+03 -0.17848966011E+03  0.24340965398E+04  0.24434929221E+04  0.00000000000E+00 0. -1.
          1    1    1    2  503    0 -0.11453316626E+03 -0.21018444492E+03 -0.23548560857E+04  0.23669901840E+04  0.00000000000E+00 0. -1.
<mgrwt>
<rscale>  0 0.14798469E+03</rscale>
<asrwt>0</asrwt>
<pdfrwt beam="1">  1        2 0.53459857E+00 0.16297344E+03</pdfrwt>
<pdfrwt beam="2">  1        2 0.38370081E+00 0.13437447E+03</pdfrwt>
<totfact> 0.79727462E-01</totfact>
</mgrwt>
</event>
<event>
13    1  0.1675423E-008  0.1783654E+03  0.7546771E-02  0.1355146E+00
          2   -1    0    0  503    0  0.00000000000E+00  0.00000000000E+00  0.85482623190E+03  0.85482623190E+03  0.00000000000E+00 0. -1.
          2   -1    0    0  502    0 -0.00000000000E+00 -0.00000000000E+00 -0.58957132910E+03  0.58957132910E+03  0.00000000000E+00 0. -1.
         24    2    1    2    0    0 -0.14169548973E+03 -0.11276946864E+02  0.28431836430E+03  0.32749240358E+03  0.78800766398E+02 0.  0.
         25    2    1    2    0    0 -0.11374436811E+03  0.17335151658E+03 -0.37074637209E+03  0.44279403366E+03  0.12500061701E+03 0.  0.
         24    2    1    2    0    0  0.10478096161E+03 -0.20734156698E+02  0.16199288404E+03  0.21007338444E+03  0.80499547833E+02 0.  0.
        -11    1    3    3    0    0 -0.29515599334E+02  0.30794663032E+02  0.70786101512E+02  0.82644746007E+02  0.00000000000E+00 0.  1.
         12    1    3    3    0    0 -0.11217989039E+03 -0.42071609895E+02  0.21353226278E+03  0.24484765757E+03  0.00000000000E+00 0. -1.
        -13    1    5    5    0    0  0.20124469249E+02 -0.41550275502E+02  0.64008700800E+02  0.78921058248E+02  0.00000000000E+00 0.  1.
         14    1    5    5    0    0  0.84656492358E+02  0.20816118804E+02  0.97984183240E+02  0.13115232619E+03  0.00000000000E+00 0. -1.
          5    1    4    4  501    0 -0.83321192227E+02  0.51657063906E+02 -0.81826786141E+02  0.12778335672E+03  0.47000000000E+01 0. -1.
         -5    1    4    4    0  501 -0.30423175887E+02  0.12169445267E+03 -0.28891958595E+03  0.31501067694E+03  0.47000000000E+01 0. -1.
          1    1    1    2  502    0 -0.11002989055E+02 -0.26444449507E+02 -0.10499222635E+03  0.10882895879E+03  0.00000000000E+00 0. -1.
          1    1    1    2  503    0  0.16166188529E+03 -0.11489596351E+03  0.29468225291E+03  0.35520878053E+03  0.00000000000E+00 0. -1.
<mgrwt>
<rscale>  0 0.71475700E+02</rscale>
<asrwt>0</asrwt>
<pdfrwt beam="1">  1        2 0.12570974E+00 0.17836544E+03</pdfrwt>
<pdfrwt beam="2">  1        2 0.86701666E-01 0.28642184E+02</pdfrwt>
<totfact> 0.30932769E+02</totfact>
</mgrwt>
</event>
<event>
13    1  0.1675423E-008  0.7316539E+02  0.7546771E-02  0.1515621E+00
          2   -1    0    0  502    0  0.00000000000E+00  0.00000000000E+00  0.27067775690E+04  0.27067775690E+04  0.00000000000E+00 0. -1.
          2   -1    0    0  503    0 -0.00000000000E+00 -0.00000000000E+00 -0.51979260844E+04  0.51979260844E+04  0.00000000000E+00 0. -1.
         24    2    1    2    0    0 -0.94399769571E+03 -0.59392933489E+03  0.83293760294E+03  0.13946581089E+04  0.86037700792E+02 0.  0.
         25    2    1    2    0    0  0.84387979595E+02 -0.35072058940E+03  0.11911049227E+03  0.39992943322E+03  0.12501991546E+03 0.  0.
         24    2    1    2    0    0  0.91649202690E+03  0.87672945056E+03 -0.12251638454E+04  0.17652445697E+04  0.80310509770E+02 0.  0.
        -11    1    5    5    0    0  0.43241135616E+03  0.44291269906E+03 -0.55024769799E+03  0.82820514915E+03  0.00000000000E+00 0.  1.
         12    1    5    5    0    0  0.48408067073E+03  0.43381675149E+03 -0.67491614744E+03  0.93703942059E+03  0.00000000000E+00 0. -1.
        -13    1    3    3    0    0 -0.68520682541E+03 -0.43729138661E+03  0.55864650217E+03  0.98631539823E+03  0.00000000000E+00 0.  1.
         14    1    3    3    0    0 -0.25879087030E+03 -0.15663794827E+03  0.27429110077E+03  0.40834271066E+03  0.00000000000E+00 0. -1.
          5    1    4    4  501    0 -0.15822593022E+02 -0.16629792598E+03  0.84113742427E+02  0.18708972794E+03  0.47000000000E+01 0. -1.
         -5    1    4    4    0  501  0.10021057262E+03 -0.18442266341E+03  0.34996749847E+02  0.21283970528E+03  0.47000000000E+01 0. -1.
          1    1    1    2  502    0 -0.93286159615E+00  0.20778974956E+02  0.10629098311E+04  0.10631133265E+04  0.00000000000E+00 0. -1.
          1    1    1    2  503    0 -0.55949449188E+02  0.47141498774E+02 -0.32809425963E+04  0.32817582150E+04  0.00000000000E+00 0. -1.
<mgrwt>
<rscale>  0 0.39010679E+02</rscale>
<asrwt>0</asrwt>
<pdfrwt beam="1">  1        2 0.39805553E+00 0.20799905E+02</pdfrwt>
<pdfrwt beam="2">  1        2 0.76440088E+00 0.73165386E+02</pdfrwt>
<totfact> 0.64910090E-02</totfact>
</mgrwt>
</event>
<event>
13    1  0.1675423E-008  0.2969803E+03  0.7546771E-02  0.1232696E+00
          2   -1    0    0  503    0  0.00000000000E+00  0.00000000000E+00  0.23089223570E+04  0.23089223570E+04  0.00000000000E+00 0. -1.
          2   -1    0    0  502    0 -0.00000000000E+00 -0.00000000000E+00 -0.36439283774E+04  0.36439283774E+04  0.00000000000E+00 0. -1.
         24    2    1    2    0    0  0.13212025924E+03 -0.71654401274E+02 -0.34997598505E+03  0.38752186136E+03  0.71413491710E+02 0.  0.
         25    2    1    2    0    0 -0.24978700565E+03  0.48411315492E+03  0.59470599039E+03  0.81612584584E+03  0.12500834483E+03 0.  0.
         24    2    1    2    0    0 -0.10000543410E+02 -0.51294071157E+02 -0.40104558486E+02  0.98541495297E+02  0.73286820641E+02 0.  0.
        -13    1    5    5    0    0 -0.41722256836E+02 -0.23930475607E+02 -0.20390232466E+02  0.52241515658E+02  0.00000000000E+00 0.  1.
         14    1    5    5    0    0  0.31721713426E+02 -0.27363595550E+02 -0.19714326020E+02  0.46299979638E+02  0.00000000000E+00 0. -1.
        -13    1    3    3    0    0  0.11311608212E+03 -0.85832262801E+02 -0.28637808715E+03  0.31964798478E+03  0.00000000000E+00 0.  1.
         14    1    3    3    0    0  0.19004177115E+02  0.14177861527E+02 -0.63597897900E+02  0.67873876585E+02  0.00000000000E+00 0. -1.
          5    1    4    4  501    0 -0.18329354622E+03  0.22179396281E+03  0.28938147993E+03  0.40810882979E+03  0.47000000000E+01 0.  1.
         -5    1    4    4    0  501 -0.66493459428E+02  0.26231919211E+03  0.30532451047E+03  0.40801701605E+03  0.47000000000E+01 0.  1.
          1    1    1    2  502    0  0.10279084752E+03 -0.40899112590E+03 -0.30803084754E+04  0.31090416535E+04  0.00000000000E+00 0. -1.
          1    1    1    2  503    0  0.24876442304E+02  0.47826443409E+02  0.15406770082E+04  0.15416198784E+04  0.00000000000E+00 0. -1.
<mgrwt>
<rscale>  0 0.12653055E+03</rscale>
<asrwt>0</asrwt>
<pdfrwt beam="1">  1        2 0.33954741E+00 0.53909239E+02</pdfrwt>
<pdfrwt beam="2">  1        2 0.53587181E+00 0.29698028E+03</pdfrwt>
<totfact> 0.11250643E+00</totfact>
</mgrwt>
</event>
<event>
13    1  0.1675423E-008  0.1570400E+03  0.7546771E-02  0.1354786E+00
          2   -1    0    0  503    0  0.00000000000E+00  0.00000000000E+00  0.26326348435E+04  0.26326348435E+04  0.00000000000E+00 0. -1.
          2   -1    0    0  502    0 -0.00000000000E+00 -0.00000000000E+00 -0.57130428676E+03  0.57130428676E+03  0.00000000000E+00 0. -1.
         24    2    1    2    0    0  0.62493755790E+02  0.95891166786E+02  0.78912154213E+03  0.80101873781E+03  0.76273355056E+02 0.  0.
         25    2    1    2    0    0  0.47797568651E+02  0.90681412281E+01  0.48837820785E+02  0.14274849914E+03  0.12500065005E+03 0.  0.
         24    2    1    2    0    0 -0.76304635374E+01 -0.32852072533E+02  0.36195927054E+03  0.37527937588E+03  0.93180544044E+02 0.  0.
        -13    1    5    5    0    0 -0.69282409373E+01 -0.65780695726E+02  0.23846690119E+03  0.24747032835E+03  0.00000000000E+00 0.  1.
         14    1    5    5    0    0 -0.70222260009E+00  0.32928623193E+02  0.12349236935E+03  0.12780904753E+03  0.00000000000E+00 0. -1.
        -13    1    3    3    0    0 -0.64016935943E+01  0.49903173871E+02  0.20663655672E+03  0.21267339988E+03  0.00000000000E+00 0.  1.
         14    1    3    3    0    0  0.68895449384E+02  0.45987992915E+02  0.58248498541E+03  0.58834533793E+03  0.00000000000E+00 0. -1.
          5    1    4    4  501    0  0.27623108485E+01 -0.53769827297E+02  0.34106815355E+02  0.63907664192E+02  0.47000000000E+01 0. -1.
         -5    1    4    4    0  501  0.45035257802E+02  0.62837968525E+02  0.14731005430E+02  0.78840834944E+02  0.47000000000E+01 0. -1.
          1    1    1    2  502    0 -0.12627825806E+03 -0.94623799036E+02 -0.49937575059E+03  0.52371366421E+03  0.00000000000E+00 0. -1.
          1    1    1    2  503    0  0.23617397159E+02  0.22516563555E+02  0.13607876739E+04  0.13611788532E+04  0.00000000000E+00 0. -1.
<mgrwt>
<rscale>  0 0.71584634E+02</rscale>
<asrwt>0</asrwt>
<pdfrwt beam="1">  1        2 0.38715218E+00 0.32630922E+02</pdfrwt>
<pdfrwt beam="2">  1        2 0.84015337E-01 0.15703999E+03</pdfrwt>
<totfact> 0.46763961E+01</totfact>
</mgrwt>
</event>
<event>
13    1  0.1675423E-008  0.1137981E+03  0.7546771E-02  0.1416107E+00
          2   -1    0    0  502    0  0.00000000000E+00  0.00000000000E+00  0.30581681147E+04  0.30581681147E+04  0.00000000000E+00 0. -1.
          2   -1    0    0  503    0 -0.00000000000E+00 -0.00000000000E+00 -0.17650129324E+04  0.17650129324E+04  0.00000000000E+00 0. -1.
         24    2    1    2    0    0  0.34859248546E+03  0.48287119284E+03  0.29610253681E+03  0.66860726633E+03  0.68393380421E+02 0.  0.
         25    2    1    2    0    0  0.88058948938E+02  0.18824652177E+03 -0.36255452399E+03  0.43618793580E+03  0.12499200384E+03 0.  0.
         24    2    1    2    0    0 -0.38833665299E+03 -0.76174028134E+03 -0.73113245187E+03  0.11275459624E+04  0.75839455081E+02 0.  0.
        -13    1    3    3    0    0  0.44842497783E+02  0.96804315085E+02  0.34925039560E+02  0.11225721988E+03  0.00000000000E+00 0.  1.
         14    1    3    3    0    0  0.30374998768E+03  0.38606687775E+03  0.26117749725E+03  0.55635004645E+03  0.00000000000E+00 0. -1.
        -13    1    5    5    0    0 -0.20877503383E+03 -0.32783286375E+03 -0.34025039400E+03  0.51655757851E+03  0.00000000000E+00 0.  1.
         14    1    5    5    0    0 -0.17956161916E+03 -0.43390741760E+03 -0.39088205787E+03  0.61098838392E+03  0.00000000000E+00 0. -1.
          5    1    4    4  501    0  0.43769713701E+02  0.32527173975E+01 -0.12028175555E+03  0.12812555844E+03  0.47000000000E+01 0.  1.
         -5    1    4    4    0  501  0.44289235237E+02  0.18499380438E+03 -0.24227276844E+03  0.30806237736E+03  0.47000000000E+01 0.  1.
          1    1    1    2  502    0 -0.28982839738E+02  0.11005858650E+03  0.23386504022E+04  0.23414180749E+04  0.00000000000E+00 0. -1.
          1    1    1    2  503    0 -0.19331941676E+02 -0.19436019766E+02 -0.24791078087E+03  0.24942180759E+03  0.00000000000E+00 0. -1.
<mgrwt>
<rscale>  0 0.55853108E+02</rscale>
<asrwt>0</asrwt>
<pdfrwt beam="1">  1        2 0.44973060E+00 0.11379814E+03</pdfrwt>
<pdfrwt beam="2">  1        2 0.25956073E+00 0.27413187E+02</pdfrwt>
<totfact> 0.55534475E+00</totfact>
</mgrwt>
</event>
<event>
13    1  0.1675423E-008  0.8817565E+02  0.7546771E-02  0.1317843E+00
          2   -1    0    0  503    0  0.00000000000E+00  0.00000000000E+00  0.28203126732E+04  0.28203126732E+04  0.00000000000E+00 0. -1.
         -1   -1    0    0    0  501 -0.00000000000E+00 -0.00000000000E+00 -0.28110382216E+03  0.28110382216E+03  0.00000000000E+00 0.  1.
         24    2    1    2    0    0 -0.14206036430E+01  0.61618559189E+02  0.63957798490E+03  0.64805351239E+03  0.84347443403E+02 0.  0.
         25    2    1    2    0    0 -0.16654242619E+03  0.65605831878E+02 -0.68509475193E+02  0.22882748175E+03  0.12501185270E+03 0.  0.
         24    2    1    2    0    0  0.30845145481E+02 -0.41390282456E+02  0.54938348166E+03  0.55755269584E+03  0.79863760464E+02 0.  0.
        -11    1    5    5    0    0  0.43988749240E+02 -0.76905182572E+01  0.14924623789E+03  0.15578380421E+03  0.00000000000E+00 0.  1.
         12    1    5    5    0    0 -0.13143603759E+02 -0.33699764199E+02  0.40013724377E+03  0.40176889163E+03  0.00000000000E+00 0. -1.
        -11    1    3    3    0    0  0.20654952957E+02  0.68095268448E+02  0.57717129830E+03  0.58154131430E+03  0.00000000000E+00 0.  1.
         12    1    3    3    0    0 -0.22075556600E+02 -0.64767092587E+01  0.62406686602E+02  0.66512198089E+02  0.00000000000E+00 0. -1.
          5    1    4    4  502    0 -0.74932761928E+02  0.95165909175E+02 -0.47481736529E+02  0.13018477017E+03  0.47000000000E+01 0. -1.
         -5    1    4    4    0  502 -0.91609664258E+02 -0.29560077297E+02 -0.21027738664E+02  0.98642711584E+02  0.47000000000E+01 0. -1.
          1    1    1    2  503    0  0.76959248050E+02 -0.22511168695E+02  0.15263192862E+04  0.15284240386E+04  0.00000000000E+00 0. -1.
         -2    1    1    2    0  501  0.60158636298E+02 -0.63322939916E+02 -0.10756242650E+03  0.13855876672E+03  0.00000000000E+00 0.  1.
<mgrwt>
<rscale>  0 0.84084951E+02</rscale>
<asrwt>0</asrwt>
<pdfrwt beam="1">  1        2 0.41475185E+00 0.80184029E+02</pdfrwt>
<pdfrwt beam="2">  1       -1 0.41338799E-01 0.88175651E+02</pdfrwt>
<totfact> 0.24824309E+01</totfact>
</mgrwt>
</event>
<event>
13    1  0.1675423E-008  0.2397424E+03  0.7546771E-02  0.1231397E+00
          2   -1    0    0  502    0  0.00000000000E+00  0.00000000000E+00  0.48004820800E+04  0.48004820800E+04  0.00000000000E+00 0. -1.
          2   -1    0    0  503    0 -0.00000000000E+00 -0.00000000000E+00 -0.13073829917E+04  0.13073829917E+04  0.00000000000E+00 0. -1.
         24    2    1    2    0    0 -0.50621261830E+03 -0.11479492953E+03  0.51280205215E+03  0.73395310239E+03  0.79322891094E+02 0.  0.
         25    2    1    2    0    0  0.40213882239E+03 -0.85108405044E+02  0.18574669735E+03  0.46806455479E+03  0.12499407502E+03 0.  0.
         24    2    1    2    0    0 -0.13796117635E+03  0.16468033864E+03 -0.32014188621E+03  0.39129679710E+03  0.66853990122E+02 0.  0.
        -11    1    3    3    0    0 -0.31731524603E+03 -0.43505158259E+02  0.27632527883E+03  0.42300983899E+03  0.00000000000E+00 0.  1.
         12    1    3    3    0    0 -0.18889737227E+03 -0.71289771273E+02  0.23647677332E+03  0.31094326341E+03  0.00000000000E+00 0. -1.
        -11    1    5    5    0    0 -0.75580362843E+02  0.11080155988E+03 -0.14380004220E+03  0.19664137168E+03  0.00000000000E+00 0.  1.
         12    1    5    5    0    0 -0.62380813505E+02  0.53878778763E+02 -0.17634184401E+03  0.19465542542E+03  0.00000000000E+00 0. -1.
          5    1    4    4  501    0  0.31835994901E+03 -0.11166865755E+03  0.11965222232E+03  0.35799677445E+03  0.47000000000E+01 0. -1.
         -5    1    4    4    0  501  0.83778873382E+02  0.26560252510E+02  0.66094475026E+02  0.11006778033E+03  0.47000000000E+01 0. -1.
          1    1    1    2  502    0  0.23758411517E+03 -0.32309291894E+02  0.38092071615E+04  0.38167459048E+04  0.00000000000E+00 0. -1.
          1    1    1    2  503    0  0.44508570864E+01  0.67532287829E+02 -0.69451493652E+03  0.69780471271E+03  0.00000000000E+00 0. -1.
<mgrwt>
<rscale>  0 0.12737926E+03</rscale>
<asrwt>0</asrwt>
<pdfrwt beam="1">  1        2 0.70595324E+00 0.23974238E+03</pdfrwt>
<pdfrwt beam="2">  1        2 0.19226221E+00 0.67678800E+02</pdfrwt>
<totfact> 0.46360064E-01</totfact>
</mgrwt>
</event>
<event>
13    1  0.1675423E-008  0.1537605E+03  0.7546771E-02  0.1211898E+00
          2   -1    0    0  503    0  0.00000000000E+00  0.00000000000E+00  0.64504736352E+03  0.64504736352E+03  0.00000000000E+00 0. -1.
          2   -1    0    0  502    0 -0.00000000000E+00 -0.00000000000E+00 -0.13761445667E+04  0.13761445667E+04  0.00000000000E+00 0. -1.
         24    2    1    2    0    0  0.59506843808E+02  0.48487368019E+02  0.99485587552E+02  0.14988885018E+03  0.81714111155E+02 0.  0.
         25    2    1    2    0    0 -0.16965069806E+01  0.35544248235E+02 -0.12935198641E+03  0.18336981207E+03  0.12500511939E+03 0.  0.
         24    2    1    2    0    0 -0.82486981726E+02 -0.62689569835E+02 -0.19089596070E+03  0.23130282529E+03  0.79533922669E+02 0.  0.
        -11    1    5    5    0    0  0.61109711624E+01 -0.34081198282E+02 -0.75276876133E+02  0.82858192867E+02  0.00000000000E+00 0.  1.
         12    1    5    5    0    0 -0.88597952888E+02 -0.28608371554E+02 -0.11561908456E+03  0.14844463242E+03  0.00000000000E+00 0. -1.
        -13    1    3    3    0    0  0.29502929261E+02  0.45483968898E+02  0.10598149403E+03  0.11904323307E+03  0.00000000000E+00 0.  1.
         14    1    3    3    0    0  0.30003914546E+02  0.30033991209E+01 -0.64959064806E+01  0.30845617118E+02  0.00000000000E+00 0. -1.
          5    1    4    4  501    0 -0.60043243025E+02  0.20705947553E+02 -0.93539169265E+02  0.11316180223E+03  0.47000000000E+01 0.  1.
         -5    1    4    4    0  501  0.58346736044E+02  0.14838300681E+02 -0.35812817144E+02  0.70208009842E+02  0.47000000000E+01 0.  1.
          1    1    1    2  502    0 -0.97915455887E+02 -0.10126611996E+03 -0.96693996177E+03  0.97714643387E+03  0.00000000000E+00 0. -1.
          1    1    1    2  503    0  0.12259210079E+03  0.79924073543E+02  0.45660511819E+03  0.47948400877E+03  0.00000000000E+00 0. -1.
<mgrwt>
<rscale>  0 0.14106871E+03</rscale>
<asrwt>0</asrwt>
<pdfrwt beam="1">  1        2 0.94859908E-01 0.15376055E+03</pdfrwt>
<pdfrwt beam="2">  1        2 0.20237420E+00 0.12942449E+03</pdfrwt>
<totfact> 0.13991464E+02</totfact>
</mgrwt>
</event>
<event>
13    1  0.1675423E-008  0.7230005E+02  0.7546771E-02  0.1413776E+00
          2   -1    0    0  502    0  0.00000000000E+00  0.00000000000E+00  0.20711477957E+04  0.20711477957E+04  0.00000000000E+00 0. -1.
          2   -1    0    0  503    0 -0.00000000000E+00 -0.00000000000E+00 -0.52436803934E+03  0.52436803934E+03  0.00000000000E+00 0. -1.
         24    2    1    2    0    0 -0.15786402159E+02 -0.10517988793E+03  0.15114638725E+04  0.15172335826E+04  0.78502782883E+02 0.  0.
         25    2    1    2    0    0  0.15650881575E+03  0.10104720390E+03 -0.11266128865E+03  0.25104411707E+03  0.12500014372E+03 0.  0.
         24    2    1    2    0    0 -0.37072854580E+02  0.11521850753E+02  0.18742871246E+01  0.90074008072E+02  0.81256780557E+02 0.  0.
        -13    1    5    5    0    0  0.20946299066E+02 -0.37762564010E+01  0.18074889969E+02  0.27923273525E+02  0.00000000000E+00 0.  1.
         14    1    5    5    0    0 -0.58019153646E+02  0.15298107154E+02 -0.16200602844E+02  0.62150734547E+02  0.00000000000E+00 0. -1.
        -13    1    3    3    0    0 -0.10330411937E+02 -0.46573282803E+02  0.11516144692E+04  0.11526021316E+04  0.00000000000E+00 0.  1.
         14    1    3    3    0    0 -0.54559902221E+01 -0.58606605127E+02  0.35984940325E+03  0.36463145094E+03  0.00000000000E+00 0. -1.
          5    1    4    4  501    0  0.76183337239E+02 -0.18636628170E+02 -0.25843047330E+02  0.82711413226E+02  0.47000000000E+01 0. -1.
         -5    1    4    4    0  501  0.80325478510E+02  0.11968383207E+03 -0.86818241319E+02  0.16833270384E+03  0.47000000000E+01 0. -1.
          1    1    1    2  502    0 -0.37824153857E+02  0.22349719953E+02  0.43609968076E+03  0.43830709344E+03  0.00000000000E+00 0. -1.
          1    1    1    2  503    0 -0.65825405154E+02 -0.29738886677E+02 -0.28999679540E+03  0.29885703386E+03  0.00000000000E+00 0. -1.
<mgrwt>
<rscale>  0 0.56359683E+02</rscale>
<asrwt>0</asrwt>
<pdfrwt beam="1">  1        2 0.30458056E+00 0.43933775E+02</pdfrwt>
<pdfrwt beam="2">  1        2 0.77112948E-01 0.72300045E+02</pdfrwt>
<totfact> 0.91433858E+01</totfact>
</mgrwt>
</event>
<event>
13    1  0.1675423E-008  0.1276807E+03  0.7546771E-02  0.1260054E+00
          2   -1    0    0  502    0  0.00000000000E+00  0.00000000000E+00  0.23173855544E+04  0.23173855544E+04  0.00000000000E+00 0. -1.
          2   -1    0    0  503    0 -0.00000000000E+00 -0.00000000000E+00 -0.25472804846E+04  0.25472804846E+04  0.00000000000E+00 0. -1.
         24    2    1    2    0    0 -0.11193010060E+03 -0.80341084623E+01 -0.97885933790E+02  0.17084844060E+03  0.83753443530E+02 0.  0.
         25    2    1    2    0    0  0.25371683960E+03 -0.14860250111E+03  0.14607681119E+03  0.35131415680E+03  0.12501305519E+03 0.  0.
         24    2    1    2    0    0 -0.58419889815E+02 -0.36850527366E+02 -0.48125776080E+02  0.10953857753E+03  0.70083983557E+02 0.  0.
        -13    1    3    3    0    0 -0.87556297736E+02 -0.32400380103E+02 -0.99377595355E+02  0.13635173766E+03  0.00000000000E+00 0.  1.
         14    1    3    3    0    0 -0.24373802861E+02  0.24366271641E+02  0.14916615650E+01  0.34496702941E+02  0.00000000000E+00 0. -1.
        -13    1    5    5    0    0 -0.72199346058E+02 -0.16914773310E+02 -0.36992166367E+02  0.82869026179E+02  0.00000000000E+00 0.  1.
         14    1    5    5    0    0  0.13779456242E+02 -0.19935754056E+02 -0.11133609713E+02  0.26669551353E+02  0.00000000000E+00 0. -1.
          5    1    4    4  501    0  0.13208518779E+03 -0.14327668721E+03  0.11194207594E+03  0.22478395026E+03  0.47000000000E+01 0.  1.
         -5    1    4    4    0  501  0.12163165181E+03 -0.53258139074E+01  0.34134735245E+02  0.12653020654E+03  0.47000000000E+01 0.  1.
          1    1    1    2  502    0 -0.80387197534E+02  0.98284433164E+02  0.19984703226E+04  0.20024998281E+04  0.00000000000E+00 0. -1.
          1    1    1    2  503    0 -0.29796516558E+01  0.95202703778E+02 -0.22284303542E+04  0.22304650359E+04  0.00000000000E+00 0. -1.
<mgrwt>
<rscale>  0 0.11027917E+03</rscale>
<asrwt>0</asrwt>
<pdfrwt beam="1">  1        2 0.34079200E+00 0.12768066E+03</pdfrwt>
<pdfrwt beam="2">  1        2 0.37460007E+00 0.95249321E+02</pdfrwt>
<totfact> 0.48480690E+00</totfact>
</mgrwt>
</event>
<event>
13    1  0.1675423E-008  0.1426511E+03  0.7546771E-02  0.1265946E+00
          2   -1    0    0  503    0  0.00000000000E+00  0.00000000000E+00  0.21008714585E+04  0.21008714585E+04  0.00000000000E+00 0. -1.
          2   -1    0    0  502    0 -0.00000000000E+00 -0.00000000000E+00 -0.18775373966E+04  0.18775373966E+04  0.00000000000E+00 0. -1.
         24    2    1    2    0    0  0.22015930350E+03  0.12711745893E+03  0.27173686674E+03  0.38070587855E+03  0.80418119448E+02 0.  0.
         25    2    1    2    0    0 -0.37611145895E+03 -0.12928674214E+03  0.98219188784E+03  0.10670052350E+04  0.12499750311E+03 0.  0.
         24    2    1    2    0    0 -0.44738788450E+02  0.39604757473E+02 -0.65898439345E+03  0.66702044701E+03  0.84176896585E+02 0.  0.
        -11    1    3    3    0    0  0.10684685436E+02  0.33550558414E+02  0.21682941257E+02  0.41351570880E+02  0.00000000000E+00 0.  1.
         12    1    3    3    0    0  0.20947461806E+03  0.93566900515E+02  0.25005392548E+03  0.33935430767E+03  0.00000000000E+00 0. -1.
        -13    1    5    5    0    0  0.13577095353E+02 -0.10624232623E+01 -0.33723414098E+03  0.33750901041E+03  0.00000000000E+00 0.  1.
         14    1    5    5    0    0 -0.58315883803E+02  0.40667180735E+02 -0.32175025246E+03  0.32951143661E+03  0.00000000000E+00 0. -1.
          5    1    4    4  501    0 -0.13097294023E+02 -0.36846423076E+02  0.13610456564E+03  0.14168888732E+03  0.47000000000E+01 0. -1.
         -5    1    4    4    0  501 -0.36301416493E+03 -0.92440319066E+02  0.84608732220E+03  0.92531634770E+03  0.47000000000E+01 0. -1.
          1    1    1    2  502    0  0.74642457598E+02  0.30092007885E+02 -0.11093203133E+04  0.11122358486E+04  0.00000000000E+00 0. -1.
          1    1    1    2  503    0  0.12604848630E+03 -0.67527482144E+02  0.73771001408E+03  0.75144144590E+03  0.00000000000E+00 0. -1.
<mgrwt>
<rscale>  0 0.10714737E+03</rscale>
<asrwt>0</asrwt>
<pdfrwt beam="1">  1        2 0.30895168E+00 0.14265113E+03</pdfrwt>
<pdfrwt beam="2">  1        2 0.27610844E+00 0.80479969E+02</pdfrwt>
<totfact> 0.13169766E+01</totfact>
</mgrwt>
</event>
<event>
13    1  0.1675423E-008  0.9514022E+02  0.7546771E-02  0.1334763E+00
         -3   -1    0    0    0  501 -0.00000000000E+00  0.00000000000E+00  0.10713021260E+04  0.10713021260E+04  0.00000000000E+00 0.  1.
          2   -1    0    0  503    0  0.00000000000E+00 -0.00000000000E+00 -0.39418219355E+03  0.39418219355E+03  0.00000000000E+00 0. -1.
         24    2    1    2    0    0 -0.11884824734E+03  0.18531707279E+03 -0.19852587958E+03  0.30697067200E+03  0.79694072835E+02 0.  0.
         25    2    1    2    0    0  0.15482130948E+03 -0.16735259801E+03  0.45357619882E+03  0.52281282983E+03  0.12500142785E+03 0.  0.
         24    2    1    2    0    0  0.19994937462E+02  0.23060830733E+02  0.14154654852E+03  0.16482547719E+03  0.78742701849E+02 0.  0.
        -11    1    5    5    0    0  0.48457100680E+02  0.27038482424E+02  0.98799890220E+02  0.11331632030E+03  0.00000000000E+00 0.  1.
         12    1    5    5    0    0 -0.28462163218E+02 -0.39776516907E+01  0.42746658303E+02  0.51509156896E+02  0.00000000000E+00 0. -1.
        -13    1    3    3    0    0 -0.27418675339E+02  0.35163205773E+02 -0.89813134170E+02  0.10027279724E+03  0.00000000000E+00 0.  1.
         14    1    3    3    0    0 -0.91429572005E+02  0.15015386701E+03 -0.10871274541E+03  0.20669787476E+03  0.00000000000E+00 0. -1.
          5    1    4    4  502    0  0.91138518601E+02 -0.16593064349E+03  0.28153896651E+03  0.33930147021E+03  0.47000000000E+01 0.  1.
         -5    1    4    4    0  502  0.63682790882E+02 -0.14219545239E+01  0.17203723231E+03  0.18351135962E+03  0.47000000000E+01 0.  1.
          1    1    1    2  503    0  0.32833811446E+01  0.63898018535E+02 -0.73182457790E+02  0.97208073187E+02  0.00000000000E+00 0. -1.
         -4    1    1    2    0  501 -0.59251380746E+02 -0.10492332404E+03  0.35370552243E+03  0.37366726729E+03  0.00000000000E+00 0.  1.
<mgrwt>
<rscale>  0 0.78021099E+02</rscale>
<asrwt>0</asrwt>
<pdfrwt beam="2">  1        2 0.57967970E-01 0.63982321E+02</pdfrwt>
<pdfrwt beam="1">  1       -3 0.15754443E+00 0.95140217E+02</pdfrwt>
<totfact> 0.16132965E+01</totfact>
</mgrwt>
</event>
<event>
13    1  0.1675423E-008  0.1600043E+03  0.7546771E-02  0.1303684E+00
          2   -1    0    0  503    0  0.00000000000E+00  0.00000000000E+00  0.18038395649E+04  0.18038395649E+04  0.00000000000E+00 0. -1.
          2   -1    0    0  502    0 -0.00000000000E+00 -0.00000000000E+00 -0.16361688181E+04  0.16361688181E+04  0.00000000000E+00 0. -1.
         24    2    1    2    0    0 -0.27242796300E+02 -0.16585451382E+03  0.17132770044E+03  0.25347273091E+03  0.81519044857E+02 0.  0.
         25    2    1    2    0    0 -0.40085619324E+02  0.12697550331E+03 -0.22786527808E+03  0.29202475114E+03  0.12500493992E+03 0.  0.
         24    2    1    2    0    0 -0.49540563356E+02  0.48028835901E+02  0.23830720911E+02  0.11087390518E+03  0.83451082046E+02 0.  0.
        -11    1    5    5    0    0 -0.16583095348E+02 -0.23118963306E+02  0.14430978803E+02  0.31902016627E+02  0.00000000000E+00 0.  1.
         12    1    5    5    0    0 -0.32957468008E+02  0.71147799207E+02  0.93997421082E+01  0.78971888551E+02  0.00000000000E+00 0. -1.
        -11    1    3    3    0    0  0.17216151788E+02 -0.12492106651E+02  0.45326544868E+02  0.50069394650E+02  0.00000000000E+00 0.  1.
         12    1    3    3    0    0 -0.44458948088E+02 -0.15336240717E+03  0.12600115557E+03  0.20340333626E+03  0.00000000000E+00 0. -1.
          5    1    4    4  501    0 -0.85118693829E+02  0.81474322140E+02 -0.15792243165E+03  0.19709094760E+03  0.47000000000E+01 0. -1.
         -5    1    4    4    0  501  0.45033074505E+02  0.45501181175E+02 -0.69942846431E+02  0.94933803540E+02  0.47000000000E+01 0. -1.
          1    1    1    2  502    0 -0.39603460677E+02  0.30910836017E+02 -0.12867667137E+04  0.12877470596E+04  0.00000000000E+00 0. -1.
          1    1    1    2  503    0  0.15647243966E+03 -0.40060661412E+02  0.14871443172E+04  0.14958899362E+04  0.00000000000E+00 0. -1.
<mgrwt>
<rscale>  0 0.89657050E+02</rscale>
<asrwt>0</asrwt>
<pdfrwt beam="1">  1        2 0.26527053E+00 0.16000429E+03</pdfrwt>
<pdfrwt beam="2">  1        2 0.24061306E+00 0.50238570E+02</pdfrwt>
<totfact> 0.24782314E+01</totfact>
</mgrwt>
</event>
<event>
13    1  0.1675423E-008  0.1296027E+03  0.7546771E-02  0.1296076E+00
          2   -1    0    0  503    0  0.00000000000E+00  0.00000000000E+00  0.10528567175E+04  0.10528567175E+04  0.00000000000E+00 0. -1.
          2   -1    0    0  502    0 -0.00000000000E+00 -0.00000000000E+00 -0.65538958894E+03  0.65538958894E+03  0.00000000000E+00 0. -1.
         24    2    1    2    0    0  0.61732719885E+01 -0.11834231527E+03 -0.40011841910E+02  0.14408016403E+03  0.71520160123E+02 0.  0.
         25    2    1    2    0    0 -0.19653464283E+03 -0.67331495656E+02 -0.21887500191E+03  0.32663376410E+03  0.12499581296E+03 0.  0.
         24    2    1    2    0    0  0.88238329608E+01  0.15802730175E+03  0.65822523415E+02  0.19052555923E+03  0.83167878434E+02 0.  0.
        -11    1    5    5    0    0 -0.12914699030E+02  0.74779830541E+02 -0.91089870589E+01  0.76431578238E+02  0.00000000000E+00 0.  1.
         12    1    5    5    0    0  0.21738531991E+02  0.83247471213E+02  0.74931510474E+02  0.11409398099E+03  0.00000000000E+00 0. -1.
        -11    1    3    3    0    0 -0.28813945351E+02 -0.65495262286E+02 -0.37183376768E+02  0.80637933607E+02  0.00000000000E+00 0.  1.
         12    1    3    3    0    0  0.34987217339E+02 -0.52847052987E+02 -0.28284651423E+01  0.63442230428E+02  0.00000000000E+00 0. -1.
          5    1    4    4  501    0 -0.19872459428E+03 -0.90659858655E+02 -0.19969129066E+03  0.29598881045E+03  0.47000000000E+01 0.  1.
         -5    1    4    4    0  501  0.21899514568E+01  0.23328362999E+02 -0.19183711245E+02  0.30644953658E+02  0.47000000000E+01 0.  1.
          1    1    1    2  502    0  0.62633051605E+02 -0.22436787238E+02 -0.21816441903E+03  0.22808336700E+03  0.00000000000E+00 0. -1.
          1    1    1    2  503    0  0.11890448627E+03  0.50083296413E+02  0.80869586795E+03  0.81892345202E+03  0.00000000000E+00 0. -1.
<mgrwt>
<rscale>  0 0.92857589E+02</rscale>
<asrwt>0</asrwt>
<pdfrwt beam="1">  1        2 0.15483187E+00 0.12960267E+03</pdfrwt>
<pdfrwt beam="2">  1        2 0.96380822E-01 0.66530509E+02</pdfrwt>
<totfact> 0.20900074E+02</totfact>
</mgrwt>
</event>
<event>
13    1  0.1675423E-008  0.1155321E+03  0.7546771E-02  0.1277187E+00
          2   -1    0    0  503    0  0.00000000000E+00  0.00000000000E+00  0.25108451932E+04  0.25108451932E+04  0.00000000000E+00 0. -1.
          2   -1    0    0  502    0 -0.00000000000E+00 -0.00000000000E+00 -0.20840519084E+04  0.20840519084E+04  0.00000000000E+00 0. -1.
         24    2    1    2    0    0  0.11190360284E+02  0.14458292858E+02  0.95240069988E+03  0.95592075864E+03  0.79894538506E+02 0.  0.
         25    2    1    2    0    0 -0.43900550186E+02  0.16429862532E+03 -0.28710893631E+03  0.35634289418E+03  0.12500968097E+03 0.  0.
         24    2    1    2    0    0  0.11134637990E+02 -0.88303515417E+01  0.65097405683E+02  0.10422974631E+03  0.80151185385E+02 0.  0.
        -13    1    3    3    0    0 -0.28613171870E+02  0.25102271456E+02  0.33711607883E+03  0.33925814396E+03  0.00000000000E+00 0.  1.
         14    1    3    3    0    0  0.39803532154E+02 -0.10643978598E+02  0.61528462104E+03  0.61666261468E+03  0.00000000000E+00 0. -1.
        -13    1    5    5    0    0 -0.37810139748E+01  0.29151490198E+02  0.54734767706E+02  0.62128900226E+02  0.00000000000E+00 0.  1.
         14    1    5    5    0    0  0.14915651965E+02 -0.37981841740E+02  0.10362637977E+02  0.42100846088E+02  0.00000000000E+00 0. -1.
          5    1    4    4  501    0 -0.49890626274E+02  0.18164176974E+03 -0.23702162438E+03  0.30279390272E+03  0.47000000000E+01 0.  1.
         -5    1    4    4    0  501  0.59900760877E+01 -0.17343144416E+02 -0.50087311932E+02  0.53548991459E+02  0.47000000000E+01 0.  1.
          1    1    1    2  502    0 -0.65263825314E+02 -0.14693854846E+03 -0.17358776732E+04  0.17433076608E+04  0.00000000000E+00 0. -1.
          1    1    1    2  503    0  0.86839377227E+02 -0.22988018178E+02  0.14322817887E+04  0.14350960416E+04  0.00000000000E+00 0. -1.
<mgrwt>
<rscale>  0 0.10149332E+03</rscale>
<asrwt>0</asrwt>
<pdfrwt beam="1">  1        2 0.36924194E+00 0.89160470E+02</pdfrwt>
<pdfrwt beam="2">  1        2 0.30647822E+00 0.11553208E+03</pdfrwt>
<totfact> 0.67069767E+00</totfact>
</mgrwt>
</event>
<event>
13    1  0.1675423E-008  0.8611271E+02  0.7546771E-02  0.1431817E+00
          2   -1    0    0  503    0  0.00000000000E+00  0.00000000000E+00  0.27354054864E+04  0.27354054864E+04  0.00000000000E+00 0. -1.
          2   -1    0    0  502    0 -0.00000000000E+00 -0.00000000000E+00 -0.21008755531E+04  0.21008755531E+04  0.00000000000E+00 0. -1.
         24    2    1    2    0    0  0.27445566558E+01  0.90107257662E+02  0.52879839799E+03  0.54243249698E+03  0.80488617791E+02 0.  0.
         25    2    1    2    0    0  0.26008732725E+03 -0.98607867316E+02 -0.92460394820E+03  0.97359436879E+03  0.12499841850E+03 0.  0.
         24    2    1    2    0    0 -0.20182151826E+03  0.91563389387E+01 -0.13510119395E+03  0.25616435613E+03  0.80944925524E+02 0.  0.
        -13    1    5    5    0    0 -0.35326088792E+02  0.24342839278E+02 -0.57774967028E+02  0.71961470166E+02  0.00000000000E+00 0.  1.
         14    1    5    5    0    0 -0.16649542947E+03 -0.15186500339E+02 -0.77326226924E+02  0.18420288596E+03  0.00000000000E+00 0. -1.
        -13    1    3    3    0    0 -0.48524037174E+00  0.42289535489E+02  0.74936874562E+02  0.86047518495E+02  0.00000000000E+00 0.  1.
         14    1    3    3    0    0  0.32297970276E+01  0.47817722173E+02  0.45386152343E+03  0.45638497849E+03  0.00000000000E+00 0. -1.
          5    1    4    4  501    0  0.10454444208E+03  0.21377086829E+02 -0.27890879273E+03  0.29866155574E+03  0.47000000000E+01 0. -1.
         -5    1    4    4    0  501  0.15554288517E+03 -0.11998495415E+03 -0.64569515546E+03  0.67493281305E+03  0.47000000000E+01 0. -1.
          1    1    1    2  502    0  0.22085003461E+02 -0.23330743110E+02 -0.94817736743E+03  0.94872145072E+03  0.00000000000E+00 0. -1.
          1    1    1    2  503    0 -0.83095369106E+02  0.22675013826E+02  0.21136140450E+04  0.21153683669E+04  0.00000000000E+00 0. -1.
<mgrwt>
<rscale>  0 0.52597004E+02</rscale>
<asrwt>0</asrwt>
<pdfrwt beam="1">  1        2 0.40226552E+00 0.86112707E+02</pdfrwt>
<pdfrwt beam="2">  1        2 0.30895228E+00 0.32125861E+02</pdfrwt>
<totfact> 0.59202012E+00</totfact>
</mgrwt>
</event>
<event>
13    1  0.1675423E-008  0.8812800E+02  0.7546771E-02  0.1391879E+00
          2   -1    0    0  502    0  0.00000000000E+00  0.00000000000E+00  0.37152871800E+04  0.37152871800E+04  0.00000000000E+00 0. -1.
          2   -1    0    0  503    0 -0.00000000000E+00 -0.00000000000E+00 -0.98866075192E+03  0.98866075192E+03  0.00000000000E+00 0. -1.
         24    2    1    2    0    0 -0.35183686787E+03  0.79120630043E+02  0.10788770148E+04  0.11404202161E+04  0.80829452403E+02 0.  0.
         25    2    1    2    0    0  0.37002480127E+03  0.44423196753E+03  0.12488209623E+03  0.60455052457E+03  0.12500161706E+03 0.  0.
         24    2    1    2    0    0  0.63082415928E+01 -0.61814077226E+03  0.20477847195E+03  0.65662075645E+03  0.84135527512E+02 0.  0.
        -13    1    3    3    0    0 -0.13092225157E+03  0.60156393929E+02  0.34791153051E+03  0.37656587837E+03  0.00000000000E+00 0.  1.
         14    1    3    3    0    0 -0.22091461630E+03  0.18964236114E+02  0.73096548434E+03  0.76385433771E+03  0.00000000000E+00 0. -1.
        -13    1    5    5    0    0 -0.35283258262E+02 -0.17626733755E+03  0.50132316804E+02  0.18662350277E+03  0.00000000000E+00 0.  1.
         14    1    5    5    0    0  0.41591499855E+02 -0.44187343471E+03  0.15464615514E+03  0.46999725368E+03  0.00000000000E+00 0. -1.
          5    1    4    4  501    0  0.20625490553E+03  0.27509208205E+03  0.13362034551E+03  0.36890815442E+03  0.47000000000E+01 0. -1.
         -5    1    4    4    0  501  0.16376989574E+03  0.16913988548E+03 -0.87382492777E+01  0.23564237016E+03  0.47000000000E+01 0. -1.
          1    1    1    2  502    0  0.32664776424E+02  0.27712128863E+02  0.18060212790E+04  0.18065292165E+04  0.00000000000E+00 0. -1.
          1    1    1    2  503    0 -0.57160951419E+02  0.67076045822E+02 -0.48793243398E+03  0.49582721832E+03  0.00000000000E+00 0. -1.
<mgrwt>
<rscale>  0 0.61441667E+02</rscale>
<asrwt>0</asrwt>
<pdfrwt beam="1">  1        2 0.54636576E+00 0.42836313E+02</pdfrwt>
<pdfrwt beam="2">  1        2 0.14539129E+00 0.88127996E+02</pdfrwt>
<totfact> 0.62498394E+00</totfact>
</mgrwt>
</event>
<event>
13    1  0.1675423E-008  0.8395711E+02  0.7546771E-02  0.1409497E+00
          2   -1    0    0  503    0  0.00000000000E+00  0.00000000000E+00  0.97164058421E+03  0.97164058421E+03  0.00000000000E+00 0. -1.
          2   -1    0    0  502    0 -0.00000000000E+00 -0.00000000000E+00 -0.68747007524E+03  0.68747007524E+03  0.00000000000E+00 0. -1.
         24    2    1    2    0    0 -0.66918174616E+02  0.11679942147E+02  0.30039100228E+02  0.10976442127E+03  0.80817185626E+02 0.  0.
         25    2    1    2    0    0  0.22456220456E+03  0.32243889623E+01  0.21384731966E+02  0.25794529734E+03  0.12505954283E+03 0.  0.
         24    2    1    2    0    0 -0.96393480787E+02 -0.19713285870E+02  0.22106242713E+02  0.12965992675E+03  0.81502723022E+02 0.  0.
        -11    1    5    5    0    0 -0.50920551555E+02 -0.50435500002E+02  0.36580622846E+01  0.71763665255E+02  0.00000000000E+00 0.  1.
         12    1    5    5    0    0 -0.45472929231E+02  0.30722214131E+02  0.18448180429E+02  0.57896261495E+02  0.00000000000E+00 0. -1.
        -13    1    3    3    0    0 -0.51477236750E+02  0.43990049249E+02  0.29732342261E+02  0.73952975009E+02  0.00000000000E+00 0.  1.
         14    1    3    3    0    0 -0.15440937866E+02 -0.32310107102E+02  0.30675796673E+00  0.35811446265E+02  0.00000000000E+00 0. -1.
          5    1    4    4  501    0  0.19876807444E+03  0.31914303524E+02 -0.18548228113E+02  0.20222115852E+03  0.47000000000E+01 0.  1.
         -5    1    4    4    0  501  0.25794130123E+02 -0.28689914562E+02  0.39932960079E+02  0.55724138818E+02  0.47000000000E+01 0.  1.
          1    1    1    2  502    0 -0.73072079647E+02  0.42095154784E+02 -0.47124681279E+03  0.47873279546E+03  0.00000000000E+00 0. -1.
          1    1    1    2  503    0  0.11821530485E+02 -0.37286200023E+02  0.68188724685E+03  0.68300821863E+03  0.00000000000E+00 0. -1.
<mgrwt>
<rscale>  0 0.57306287E+02</rscale>
<asrwt>0</asrwt>
<pdfrwt beam="1">  1        2 0.14288832E+00 0.39115333E+02</pdfrwt>
<pdfrwt beam="2">  1        2 0.10109854E+00 0.83957114E+02</pdfrwt>
<totfact> 0.23208829E+02</totfact>
</mgrwt>
</event>
<event>
13    1  0.1675423E-008  0.1317483E+03  0.7546771E-02  0.1373785E+00
         -1   -1    0    0    0  501 -0.00000000000E+00  0.00000000000E+00  0.10504654740E+04  0.10504654740E+04  0.00000000000E+00 0.  1.
          2   -1    0    0  503    0  0.00000000000E+00 -0.00000000000E+00 -0.31872584748E+04  0.31872584748E+04  0.00000000000E+00 0. -1.
         24    2    1    2    0    0 -0.11952224590E+03  0.59580906977E+02 -0.47682457111E+03  0.50144658631E+03  0.79066779158E+02 0.  0.
         25    2    1    2    0    0  0.12342491935E+03  0.78579199746E+02  0.71224769430E+03  0.73778776840E+03  0.12500244724E+03 0.  0.
         24    2    1    2    0    0  0.36274717010E+00 -0.30429593969E+02  0.16640353459E+03  0.18679384872E+03  0.79219403063E+02 0.  0.
        -13    1    5    5    0    0 -0.51614032250E+01 -0.22610192348E+02  0.33185077776E+01  0.23428046763E+02  0.00000000000E+00 0.  1.
         14    1    5    5    0    0  0.55241503951E+01 -0.78194016218E+01  0.16308502682E+03  0.16336580196E+03  0.00000000000E+00 0. -1.
        -13    1    3    3    0    0 -0.13850617395E+02  0.21618399819E+01 -0.18883420207E+03  0.18935381968E+03  0.00000000000E+00 0.  1.
         14    1    3    3    0    0 -0.10567162851E+03  0.57419066995E+02 -0.28799036904E+03  0.31209276664E+03  0.00000000000E+00 0. -1.
          5    1    4    4  502    0  0.14880639122E+03  0.61721453760E+02  0.57832334921E+03  0.60036061344E+03  0.47000000000E+01 0. -1.
         -5    1    4    4    0  502 -0.25381471871E+02  0.16857745987E+02  0.13392434509E+03  0.13742715497E+03  0.47000000000E+01 0. -1.
          1    1    1    2  503    0  0.20175087256E+02 -0.13018501366E+03 -0.26714933995E+04  0.26747396426E+04  0.00000000000E+00 0. -1.
         -2    1    1    2    0  501 -0.24440507873E+02  0.22454500904E+02  0.13287374099E+03  0.13695610275E+03  0.00000000000E+00 0.  1.
<mgrwt>
<rscale>  0 0.66126083E+02</rscale>
<asrwt>0</asrwt>
<pdfrwt beam="2">  1        2 0.46871449E+00 0.13174825E+03</pdfrwt>
<pdfrwt beam="1">  1       -1 0.15448021E+00 0.33189502E+02</pdfrwt>
<totfact> 0.10218368E+00</totfact>
</mgrwt>
</event>
<event>
13    1  0.1675423E-008  0.1258824E+03  0.7546771E-02  0.1363845E+00
          2   -1    0    0  502    0  0.00000000000E+00  0.00000000000E+00  0.30969134627E+04  0.30969134627E+04  0.00000000000E+00 0. -1.
          2   -1    0    0  503    0 -0.00000000000E+00 -0.00000000000E+00 -0.81308948179E+03  0.81308948179E+03  0.00000000000E+00 0. -1.
         24    2    1    2    0    0 -0.11347251669E+02 -0.13887412100E+03  0.81003526871E+03  0.82605598447E+03  0.82441320495E+02 0.  0.
         25    2    1    2    0    0  0.30389938025E+03 -0.87471708053E+01 -0.23040150777E+03  0.40142353966E+03  0.12499862839E+03 0.  0.
         24    2    1    2    0    0 -0.15873004879E+03  0.12004941661E+03 -0.42985782758E+03  0.48054195760E+03  0.80843863520E+02 0.  0.
        -11    1    3    3    0    0 -0.18082043580E+02 -0.14879951252E+03  0.75243169282E+03  0.76721685825E+03  0.00000000000E+00 0.  1.
         12    1    3    3    0    0  0.67347919105E+01  0.99253915244E+01  0.57603575885E+02  0.58839126215E+02  0.00000000000E+00 0. -1.
        -13    1    5    5    0    0 -0.34347609603E+02  0.69175905956E+02 -0.19836823119E+03  0.21287324726E+03  0.00000000000E+00 0.  1.
         14    1    5    5    0    0 -0.12438243919E+03  0.50873510650E+02 -0.23148959638E+03  0.26766871034E+03  0.00000000000E+00 0. -1.
          5    1    4    4  501    0  0.66566487471E+02 -0.42614359900E+02 -0.18234990234E+02  0.81250758721E+02  0.47000000000E+01 0. -1.
         -5    1    4    4    0  501  0.23733289278E+03  0.33867189095E+02 -0.21216651753E+03  0.32017278094E+03  0.47000000000E+01 0. -1.
          1    1    1    2  502    0 -0.11166007644E+03  0.58095632264E+02  0.21551075408E+04  0.21587801156E+04  0.00000000000E+00 0. -1.
          1    1    1    2  503    0 -0.22162003355E+02 -0.30523757067E+02 -0.21059493254E+02  0.43201347135E+02  0.00000000000E+00 0. -1.
<mgrwt>
<rscale>  0 0.68908472E+02</rscale>
<asrwt>0</asrwt>
<pdfrwt beam="1">  1        2 0.45542845E+00 0.12588241E+03</pdfrwt>
<pdfrwt beam="2">  1        2 0.11957198E+00 0.37720739E+02</pdfrwt>
<totfact> 0.15239407E+01</totfact>
</mgrwt>
</event>
<event>
13    1  0.1675423E-008  0.1988821E+03  0.7546771E-02  0.1192958E+00
          2   -1    0    0  502    0  0.00000000000E+00  0.00000000000E+00  0.21674202826E+04  0.21674202826E+04  0.00000000000E+00 0. -1.
          2   -1    0    0  503    0 -0.00000000000E+00 -0.00000000000E+00 -0.10921369713E+04  0.10921369713E+04  0.00000000000E+00 0. -1.
         24    2    1    2    0    0 -0.11355159689E+03  0.29803387713E+02  0.29892797403E+02  0.14481249143E+03  0.79340224742E+02 0.  0.
         25    2    1    2    0    0  0.13460349394E+03  0.22068945194E+02 -0.16561270810E+03  0.24830830115E+03  0.12499721761E+03 0.  0.
         24    2    1    2    0    0 -0.29884533332E+03 -0.10470222836E+03  0.42464713287E+03  0.53588223052E+03  0.81077047682E+02 0.  0.
        -11    1    3    3    0    0  0.29768875757E+01  0.16455746623E+02  0.21478061602E+02  0.27220591227E+02  0.00000000000E+00 0.  1.
         12    1    3    3    0    0 -0.11652848447E+03  0.13347641089E+02  0.84147358011E+01  0.11759190021E+03  0.00000000000E+00 0. -1.
        -11    1    5    5    0    0  0.14196724259E+01 -0.12761155545E+02  0.16102295507E+02  0.20594816854E+02  0.00000000000E+00 0.  1.
         12    1    5    5    0    0 -0.30026500575E+03 -0.91941072810E+02  0.40854483737E+03  0.51528741367E+03  0.00000000000E+00 0. -1.
          5    1    4    4  501    0 -0.92175577065E+01 -0.29890624973E+02 -0.22522831481E+02  0.38830152836E+02  0.47000000000E+01 0.  1.
         -5    1    4    4    0  501  0.14382105164E+03  0.51959570167E+02 -0.14308987662E+03  0.20947814831E+03  0.47000000000E+01 0.  1.
          1    1    1    2  502    0  0.16210349170E+03  0.94032379474E+02  0.15478842083E+04  0.15591873373E+04  0.00000000000E+00 0. -1.
          1    1    1    2  503    0  0.11568994457E+03 -0.41202484026E+02 -0.76152811924E+03  0.77136689348E+03  0.00000000000E+00 0. -1.
<mgrwt>
<rscale>  0 0.15628282E+03</rscale>
<asrwt>0</asrwt>
<pdfrwt beam="1">  1        2 0.31873828E+00 0.19888214E+03</pdfrwt>
<pdfrwt beam="2">  1        2 0.16060838E+00 0.12280801E+03</pdfrwt>
<totfact> 0.28347574E+01</totfact>
</mgrwt>
</event>
<event>
13    1  0.1675423E-008  0.4903401E+02  0.7546771E-02  0.1461371E+00
          2   -1    0    0  503    0  0.00000000000E+00  0.00000000000E+00  0.79532189545E+03  0.79532189545E+03  0.00000000000E+00 0. -1.
          2   -1    0    0  502    0 -0.00000000000E+00 -0.00000000000E+00 -0.28493467390E+04  0.28493467390E+04  0.00000000000E+00 0. -1.
         24    2    1    2    0    0  0.64707567950E+02 -0.97040080177E+02  0.51387660736E+02  0.15047989135E+03  0.79997871938E+02 0.  0.
         25    2    1    2    0    0  0.48315142291E+02  0.18391358130E+03 -0.25098659478E+03  0.33878915201E+03  0.12500104158E+03 0.  0.
         24    2    1    2    0    0 -0.10289798643E+03  0.67859246720E+01 -0.11745389523E+04  0.11817234010E+04  0.79337266197E+02 0.  0.
        -11    1    3    3    0    0  0.45863901872E+02 -0.95269380065E+02  0.67651912731E+02  0.12552503164E+03  0.00000000000E+00 0.  1.
         12    1    3    3    0    0  0.18843666079E+02 -0.17707001127E+01 -0.16264251995E+02  0.24954859710E+02  0.00000000000E+00 0. -1.
        -11    1    5    5    0    0  0.12866870021E+01 -0.29324406669E+01 -0.76199880185E+00  0.32917189856E+01  0.00000000000E+00 0.  1.
         12    1    5    5    0    0 -0.10418467343E+03  0.97183653388E+01 -0.11737769535E+04  0.11784316821E+04  0.00000000000E+00 0. -1.
          5    1    4    4  501    0  0.86505044020E+01  0.23049628459E+02 -0.13298595735E+03  0.13532727534E+03  0.47000000000E+01 0. -1.
         -5    1    4    4    0  501  0.39664637889E+02  0.16086395284E+03 -0.11800063743E+03  0.20346187667E+03  0.47000000000E+01 0. -1.
          1    1    1    2  502    0 -0.23791647969E+01 -0.45268862681E+02 -0.13254654020E+04  0.13262403486E+04  0.00000000000E+00 0. -1.
          1    1    1    2  503    0 -0.77455590166E+01 -0.48390563113E+02  0.64557844483E+03  0.64743584138E+03  0.00000000000E+00 0. -1.
<mgrwt>
<rscale>  0 0.47146340E+02</rscale>
<asrwt>0</asrwt>
<pdfrwt beam="1">  1        2 0.11695910E+00 0.49034011E+02</pdfrwt>
<pdfrwt beam="2">  1        2 0.41902158E+00 0.45331340E+02</pdfrwt>
<totfact> 0.24565994E+01</totfact>
</mgrwt>
</event>
<event>
13    1  0.1675423E-008  0.1649079E+03  0.7546771E-02  0.1224484E+00
          2   -1    0    0  503    0  0.00000000000E+00  0.00000000000E+00  0.10373986131E+04  0.10373986131E+04  0.00000000000E+00 0. -1.
          2   -1    0    0  502    0 -0.00000000000E+00 -0.00000000000E+00 -0.26956000278E+04  0.26956000278E+04  0.00000000000E+00 0. -1.
         24    2    1    2    0    0  0.16997910040E+03 -0.18094987156E+02 -0.67910343180E+02  0.20437509511E+03  0.89090076077E+02 0.  0.
         25    2    1    2    0    0 -0.37409839996E+03 -0.17409130224E+02  0.11708196332E+03  0.41180798681E+03  0.12499976478E+03 0.  0.
         24    2    1    2    0    0 -0.16788509404E+03 -0.87248513777E+02 -0.27792169605E+03  0.34566179495E+03  0.80273902334E+02 0.  0.
        -11    1    5    5    0    0 -0.83723624047E+02 -0.83104960640E+02 -0.13096346357E+03  0.17625977561E+03  0.00000000000E+00 0.  1.
         12    1    5    5    0    0 -0.84161469995E+02 -0.41435531362E+01 -0.14695823248E+03  0.16940201935E+03  0.00000000000E+00 0. -1.
        -13    1    3    3    0    0  0.14137114965E+02  0.71140523538E+01 -0.41367547767E+02  0.44291554146E+02  0.00000000000E+00 0.  1.
         14    1    3    3    0    0  0.15584198544E+03 -0.25209039509E+02 -0.26542795413E+02  0.16008354096E+03  0.00000000000E+00 0. -1.
          5    1    4    4  501    0 -0.14840435841E+03  0.48122962025E+02  0.19501542022E+02  0.15729613222E+03  0.47000000000E+01 0.  1.
         -5    1    4    4    0  501 -0.22569404155E+03 -0.65532092249E+02  0.97580421294E+02  0.25451185459E+03  0.47000000000E+01 0.  1.
          1    1    1    2  502    0  0.26634465889E+03  0.12555232458E+03 -0.20857329684E+04  0.21064151725E+04  0.00000000000E+00 0. -1.
          1    1    1    2  503    0  0.10565973471E+03 -0.27996934213E+01  0.65628162953E+03  0.66473859154E+03  0.00000000000E+00 0. -1.
<mgrwt>
<rscale>  0 0.13202363E+03</rscale>
<asrwt>0</asrwt>
<pdfrwt beam="1">  1        2 0.15255862E+00 0.10569682E+03</pdfrwt>
<pdfrwt beam="2">  1        2 0.39641177E+00 0.16490788E+03</pdfrwt>
<totfact> 0.16915241E+01</totfact>
</mgrwt>
</event>
<event>
13    1  0.1675423E-008  0.1164410E+03  0.7546771E-02  0.1349177E+00
          2   -1    0    0  502    0  0.00000000000E+00  0.00000000000E+00  0.43581486077E+04  0.43581486077E+04  0.00000000000E+00 0. -1.
          4   -1    0    0  503    0 -0.00000000000E+00 -0.00000000000E+00 -0.80705694334E+03  0.80705694334E+03  0.00000000000E+00 0. -1.
         24    2    1    2    0    0 -0.16531245310E+02  0.14452012558E+02  0.73556921811E+03  0.74051593698E+03  0.82581084715E+02 0.  0.
         25    2    1    2    0    0 -0.27602686154E+02 -0.20057528476E+03 -0.18280627008E+03  0.30006167726E+03  0.12500609843E+03 0.  0.
         24    2    1    2    0    0  0.44975788625E+02  0.13101110197E+02  0.27288448310E+02  0.97760405369E+02  0.81350948341E+02 0.  0.
        -13    1    5    5    0    0  0.27287564534E+02 -0.33435583313E+02  0.19545560798E+02  0.47376981295E+02  0.00000000000E+00 0.  1.
         14    1    5    5    0    0  0.17688224090E+02  0.46536693511E+02  0.77428875115E+01  0.50383424074E+02  0.00000000000E+00 0. -1.
        -13    1    3    3    0    0 -0.38329367683E+01 -0.32941298416E+02  0.20297025040E+03  0.20566172005E+03  0.00000000000E+00 0.  1.
         14    1    3    3    0    0 -0.12698308541E+02  0.47393310974E+02  0.53259896771E+03  0.53485421693E+03  0.00000000000E+00 0. -1.
          5    1    4    4  501    0 -0.48685741249E+02 -0.13839398277E+03 -0.55839997087E+02  0.15704582497E+03  0.47000000000E+01 0.  1.
         -5    1    4    4    0  501  0.21083055094E+02 -0.62181301990E+02 -0.12696627299E+03  0.14301585229E+03  0.47000000000E+01 0.  1.
          1    1    1    2  502    0  0.33974919108E+02  0.14271693055E+03  0.34964037522E+04  0.34994801922E+04  0.00000000000E+00 0. -1.
          3    1    1    2  503    0 -0.34816776269E+02  0.30305231445E+02 -0.52536348421E+03  0.52738733916E+03  0.00000000000E+00 0. -1.
<mgrwt>
<rscale>  0 0.73312712E+02</rscale>
<asrwt>0</asrwt>
<pdfrwt beam="1">  1        2 0.64090420E+00 0.11644104E+03</pdfrwt>
<pdfrwt beam="2">  1        4 0.11868485E+00 0.46158585E+02</pdfrwt>
<totfact> 0.11314929E-01</totfact>
</mgrwt>
</event>
<event>
13    1  0.1675423E-008  0.5777381E+02  0.7546771E-02  0.1409091E+00
          2   -1    0    0  503    0  0.00000000000E+00  0.00000000000E+00  0.89371546145E+03  0.89371546145E+03  0.00000000000E+00 0. -1.
         -1   -1    0    0    0  501 -0.00000000000E+00 -0.00000000000E+00 -0.37791723208E+03  0.37791723208E+03  0.00000000000E+00 0.  1.
         24    2    1    2    0    0 -0.85348472694E+02 -0.89623438355E+02  0.23192362958E+03  0.27367621625E+03  0.76114248931E+02 0.  0.
         25    2    1    2    0    0  0.13045873978E+03  0.11953458101E+03 -0.18446840469E+03  0.28453776515E+03  0.12500059451E+03 0.  0.
         24    2    1    2    0    0 -0.51037222895E+02 -0.96316800150E+02  0.50591383324E+03  0.52392659342E+03  0.81661156671E+02 0.  0.
        -11    1    5    5    0    0 -0.36522713205E+02  0.18726295608E+01  0.15403523324E+03  0.15831698709E+03  0.00000000000E+00 0.  1.
         12    1    5    5    0    0 -0.14514509690E+02 -0.98189429711E+02  0.35187860000E+03  0.36560960633E+03  0.00000000000E+00 0. -1.
        -11    1    3    3    0    0 -0.81543475526E+02 -0.52498658934E+02  0.20758390038E+03  0.22912119781E+03  0.00000000000E+00 0.  1.
         12    1    3    3    0    0 -0.38049971676E+01 -0.37124779421E+02  0.24339729203E+02  0.44555018440E+02  0.00000000000E+00 0. -1.
          5    1    4    4  502    0  0.77634263110E+02  0.80922424358E+02 -0.29192705864E+02  0.11597336612E+03  0.47000000000E+01 0. -1.
         -5    1    4    4    0  502  0.52824476666E+02  0.38612156655E+02 -0.15527569882E+03  0.16856439903E+03  0.47000000000E+01 0. -1.
          1    1    1    2  503    0 -0.44068890198E+02  0.37453476848E+02  0.55364437659E+02  0.80062793909E+02  0.00000000000E+00 0. -1.
         -2    1    1    2    0  501  0.49995846011E+02  0.28952180643E+02 -0.92935266430E+02  0.10942932481E+03  0.00000000000E+00 0.  1.
<mgrwt>
<rscale>  0 0.57397149E+02</rscale>
<asrwt>0</asrwt>
<pdfrwt beam="1">  1        2 0.13142874E+00 0.57022941E+02</pdfrwt>
<pdfrwt beam="2">  1       -1 0.55576063E-01 0.57773812E+02</pdfrwt>
<totfact> 0.13720154E+02</totfact>
</mgrwt>
</event>
<event>
13    1  0.1675423E-008  0.1244478E+03  0.7546771E-02  0.1308449E+00
          2   -1    0    0  502    0  0.00000000000E+00  0.00000000000E+00  0.18838610606E+04  0.18838610606E+04  0.00000000000E+00 0. -1.
          2   -1    0    0  503    0 -0.00000000000E+00 -0.00000000000E+00 -0.39059404214E+04  0.39059404214E+04  0.00000000000E+00 0. -1.
         24    2    1    2    0    0 -0.42953561789E+02 -0.27653917461E+03  0.13689263569E+04  0.13995453258E+04  0.80304575278E+02 0.  0.
         25    2    1    2    0    0  0.13163339568E+02  0.40501917130E+03 -0.67997491953E+03  0.80137604101E+03  0.12499546107E+03 0.  0.
         24    2    1    2    0    0  0.13374602454E+03  0.18618867737E+02 -0.37343767812E+03  0.40518245534E+03  0.80513733962E+02 0.  0.
        -11    1    5    5    0    0  0.40802504581E+02  0.37661692749E+02 -0.19913949938E+03  0.20673603385E+03  0.00000000000E+00 0.  1.
         12    1    5    5    0    0  0.92943519958E+02 -0.19042825012E+02 -0.17429817875E+03  0.19844642149E+03  0.00000000000E+00 0. -1.
        -11    1    3    3    0    0 -0.14183928373E+02 -0.47127775653E+02  0.12549227439E+03  0.13479807860E+03  0.00000000000E+00 0.  1.
         12    1    3    3    0    0 -0.28769633416E+02 -0.22941139895E+03  0.12434340825E+04  0.12647472472E+04  0.00000000000E+00 0. -1.
          5    1    4    4  501    0  0.34372213362E+02  0.30611602507E+02 -0.10699987773E+03  0.11657436722E+03  0.47000000000E+01 0.  1.
         -5    1    4    4    0  501 -0.21208873794E+02  0.37440756879E+03 -0.57297504180E+03  0.68480167378E+03  0.47000000000E+01 0.  1.
          1    1    1    2  502    0 -0.51437965064E+02 -0.34331303848E+02  0.41938217402E+03  0.42391733930E+03  0.00000000000E+00 0. -1.
          1    1    1    2  503    0 -0.52517837254E+02 -0.11276756058E+03 -0.27569752940E+04  0.27597803206E+04  0.00000000000E+00 0. -1.
<mgrwt>
<rscale>  0 0.87727828E+02</rscale>
<asrwt>0</asrwt>
<pdfrwt beam="1">  1        2 0.27703839E+00 0.61842564E+02</pdfrwt>
<pdfrwt beam="2">  1        2 0.57440300E+00 0.12444781E+03</pdfrwt>
<totfact> 0.13901233E+00</totfact>
</mgrwt>
</event>
<event>
13    1  0.1675423E-008  0.1667818E+03  0.7546771E-02  0.1324439E+00
          2   -1    0    0  503    0  0.00000000000E+00  0.00000000000E+00  0.10925748951E+04  0.10925748951E+04  0.00000000000E+00 0. -1.
          2   -1    0    0  502    0 -0.00000000000E+00 -0.00000000000E+00 -0.60963454865E+03  0.60963454865E+03  0.00000000000E+00 0. -1.
         24    2    1    2    0    0  0.70399425209E+02  0.69212042485E+02  0.11310915766E+03  0.17256441227E+03  0.85078839559E+02 0.  0.
         25    2    1    2    0    0  0.22550261636E+03 -0.11789822593E+03 -0.19696490881E+03  0.34521130471E+03  0.12499699171E+03 0.  0.
         24    2    1    2    0    0 -0.87220157910E+02 -0.58145822536E+02  0.19688500962E+03  0.23738455757E+03  0.81236866839E+02 0.  0.
        -11    1    5    5    0    0 -0.52575294088E+02  0.10642541556E+02  0.10134138688E+03  0.11466255681E+03  0.00000000000E+00 0.  1.
         12    1    5    5    0    0 -0.34644863822E+02 -0.68788364092E+02  0.95543622739E+02  0.12272200076E+03  0.00000000000E+00 0. -1.
        -11    1    3    3    0    0  0.61154038426E+02  0.76133667226E+02  0.52512612515E+02  0.11087707687E+03  0.00000000000E+00 0.  1.
         12    1    3    3    0    0  0.92453867826E+01 -0.69216247403E+01  0.60596545143E+02  0.61687335403E+02  0.00000000000E+00 0. -1.
          5    1    4    4  501    0  0.15198564309E+02  0.24404765046E+02 -0.26112615161E+02  0.39122213442E+02  0.47000000000E+01 0. -1.
         -5    1    4    4    0  501  0.21030405205E+03 -0.14230299097E+03 -0.17085229365E+03  0.30608909127E+03  0.47000000000E+01 0. -1.
          1    1    1    2  502    0 -0.34177994196E+02 -0.20724830030E+02 -0.26931551553E+03  0.27226549684E+03  0.00000000000E+00 0. -1.
          1    1    1    2  503    0 -0.17450388946E+03  0.12755683601E+03  0.63922660348E+03  0.67478367233E+03  0.00000000000E+00 0. -1.
<mgrwt>
<rscale>  0 0.81647895E+02</rscale>
<asrwt>0</asrwt>
<pdfrwt beam="1">  1        2 0.16067278E+00 0.16678179E+03</pdfrwt>
<pdfrwt beam="2">  1        2 0.89652139E-01 0.39970663E+02</pdfrwt>
<totfact> 0.21436709E+02</totfact>
</mgrwt>
</event>
<event>
13    1  0.1675423E-008  0.1599870E+03  0.7546771E-02  0.1347167E+00
          2   -1    0    0  502    0  0.00000000000E+00  0.00000000000E+00  0.18303331913E+04  0.18303331913E+04  0.00000000000E+00 0. -1.
          2   -1    0    0  503    0 -0.00000000000E+00 -0.00000000000E+00 -0.14235059649E+04  0.14235059649E+04  0.00000000000E+00 0. -1.
         24    2    1    2    0    0 -0.31625439965E+03 -0.23804067813E+03  0.10898489719E+04  0.11632468022E+04  0.93231600712E+02 0.  0.
         25    2    1    2    0    0  0.26135211256E+03  0.33193224059E+03 -0.36054677084E+03  0.56929895182E+03  0.12499353383E+03 0.  0.
         24    2    1    2    0    0 -0.89485157412E+02  0.15563776523E+02 -0.79919117308E+02  0.14510477043E+03  0.80115569980E+02 0.  0.
        -11    1    5    5    0    0 -0.67281683922E+02  0.46317935696E+02 -0.64823190530E+02  0.10427953869E+03  0.00000000000E+00 0.  1.
         12    1    5    5    0    0 -0.22203473491E+02 -0.30754159172E+02 -0.15095926778E+02  0.40825231741E+02  0.00000000000E+00 0. -1.
        -13    1    3    3    0    0 -0.27512170656E+03 -0.23832152441E+03  0.94521348328E+03  0.10128759210E+04  0.00000000000E+00 0.  1.
         14    1    3    3    0    0 -0.41132693087E+02  0.28084628408E+00  0.14463548865E+03  0.15037088113E+03  0.00000000000E+00 0. -1.
          5    1    4    4  501    0  0.78975169009E+02  0.10886947252E+03 -0.19510033562E+03  0.23701449392E+03  0.47000000000E+01 0.  1.
         -5    1    4    4    0  501  0.18237694356E+03  0.22306276807E+03 -0.16544643522E+03  0.33228445791E+03  0.47000000000E+01 0.  1.
          1    1    1    2  502    0  0.11103004441E+03 -0.11689848494E+03  0.55497854422E+03  0.57792223619E+03  0.00000000000E+00 0. -1.
          1    1    1    2  503    0  0.33357400092E+02  0.74431459627E+01 -0.79753440164E+03  0.79826639561E+03  0.00000000000E+00 0. -1.
<mgrwt>
<rscale>  0 0.73945862E+02</rscale>
<asrwt>0</asrwt>
<pdfrwt beam="1">  1        2 0.26916664E+00 0.15998699E+03</pdfrwt>
<pdfrwt beam="2">  1        2 0.20933911E+00 0.34177720E+02</pdfrwt>
<totfact> 0.31307930E+01</totfact>
</mgrwt>
</event>
<event>
13    1  0.1675423E-008  0.1521546E+03  0.7546771E-02  0.1276163E+00
          2   -1    0    0  503    0  0.00000000000E+00  0.00000000000E+00  0.12268159135E+04  0.12268159135E+04  0.00000000000E+00 0. -1.
          2   -1    0    0  502    0 -0.00000000000E+00 -0.00000000000E+00 -0.23420781263E+04  0.23420781263E+04  0.00000000000E+00 0. -1.
         24    2    1    2    0    0 -0.78867270919E+02  0.92770625641E+01  0.15354291947E+03  0.19077660363E+03  0.80710433405E+02 0.  0.
         25    2    1    2    0    0  0.12188292417E+03 -0.18438417761E+03  0.23106986908E+02  0.25497099446E+03  0.12499321187E+03 0.  0.
         24    2    1    2    0    0  0.25265043748E+02 -0.38176089050E+02 -0.31133874383E+03  0.32493302797E+03  0.80956303310E+02 0.  0.
        -13    1    3    3    0    0 -0.58325450239E+02 -0.23783704389E+02  0.13207485922E+03  0.14632597574E+03  0.00000000000E+00 0.  1.
         14    1    3    3    0    0 -0.20541820679E+02  0.33060766953E+02  0.21468060254E+02  0.44450627886E+02  0.00000000000E+00 0. -1.
        -13    1    5    5    0    0  0.57612550125E+01  0.25632664001E+02 -0.85999125598E+02  0.89922606317E+02  0.00000000000E+00 0.  1.
         14    1    5    5    0    0  0.19503788736E+02 -0.63808753052E+02 -0.22533961823E+03  0.23501042165E+03  0.00000000000E+00 0. -1.
          5    1    4    4  501    0  0.31266219297E+02 -0.14468418790E+03 -0.14985979311E+02  0.14885482952E+03  0.47000000000E+01 0. -1.
         -5    1    4    4    0  501  0.90616704874E+02 -0.39699989716E+02  0.38092966218E+02  0.10611616494E+03  0.47000000000E+01 0. -1.
          1    1    1    2  502    0  0.47918676008E+01  0.68198071368E+02 -0.18815083816E+04  0.18827500442E+04  0.00000000000E+00 0. -1.
          1    1    1    2  503    0 -0.73072564602E+02  0.14508513273E+03  0.90093500625E+03  0.91546336951E+03  0.00000000000E+00 0. -1.
<mgrwt>
<rscale>  0 0.10199135E+03</rscale>
<asrwt>0</asrwt>
<pdfrwt beam="1">  1        2 0.18041411E+00 0.15215462E+03</pdfrwt>
<pdfrwt beam="2">  1        2 0.34442325E+00 0.68366212E+02</pdfrwt>
<totfact> 0.21955920E+01</totfact>
</mgrwt>
</event>
<event>
13    1  0.1675423E-008  0.1431455E+03  0.7546771E-02  0.1312240E+00
          2   -1    0    0  503    0  0.00000000000E+00  0.00000000000E+00  0.15057848111E+04  0.15057848111E+04  0.00000000000E+00 0. -1.
          2   -1    0    0  502    0 -0.00000000000E+00 -0.00000000000E+00 -0.11005357928E+04  0.11005357928E+04  0.00000000000E+00 0. -1.
         24    2    1    2    0    0 -0.30836348007E+02  0.25323974246E+02  0.72132081751E+02  0.11486678050E+03  0.79994724918E+02 0.  0.
         25    2    1    2    0    0 -0.18377183333E+03  0.11369715666E+03  0.20149061710E+03  0.32081432592E+03  0.12499693107E+03 0.  0.
         24    2    1    2    0    0  0.20881702292E+03 -0.15072145193E+02 -0.29675600656E+03  0.37217311565E+03  0.81344833635E+02 0.  0.
        -11    1    5    5    0    0  0.22430308782E+02  0.20746367959E+02 -0.70602992933E+02  0.76930573549E+02  0.00000000000E+00 0.  1.
         12    1    5    5    0    0  0.18638671414E+03 -0.35818513152E+02 -0.22615301363E+03  0.29524254210E+03  0.00000000000E+00 0. -1.
        -11    1    3    3    0    0 -0.57291116295E+02  0.11889454578E+02  0.38623091569E+02  0.70109730700E+02  0.00000000000E+00 0.  1.
         12    1    3    3    0    0  0.26454768287E+02  0.13434519668E+02  0.33508990182E+02  0.44757049801E+02  0.00000000000E+00 0. -1.
          5    1    4    4  501    0  0.13068662500E+02  0.27598981545E+02  0.46607666643E+02  0.55918318213E+02  0.47000000000E+01 0.  1.
         -5    1    4    4    0  501 -0.19684049583E+03  0.86098175118E+02  0.15488295046E+03  0.26489600771E+03  0.47000000000E+01 0.  1.
          1    1    1    2  502    0 -0.44442316708E+02 -0.13718351167E+03 -0.67683644410E+03  0.69202746149E+03  0.00000000000E+00 0. -1.
          1    1    1    2  503    0  0.50233475121E+02  0.13234525955E+02  0.11052187701E+04  0.11064389203E+04  0.00000000000E+00 0. -1.
<mgrwt>
<rscale>  0 0.86232645E+02</rscale>
<asrwt>0</asrwt>
<pdfrwt beam="1">  1        2 0.22143894E+00 0.51947615E+02</pdfrwt>
<pdfrwt beam="2">  1        2 0.16184350E+00 0.14314553E+03</pdfrwt>
<totfact> 0.66045545E+01</totfact>
</mgrwt>
</event>
<event>
13    1  0.1675423E-008  0.1153324E+03  0.7546771E-02  0.1308396E+00
          2   -1    0    0  503    0  0.00000000000E+00  0.00000000000E+00  0.16259895500E+04  0.16259895500E+04  0.00000000000E+00 0. -1.
         -1   -1    0    0    0  501 -0.00000000000E+00 -0.00000000000E+00 -0.20454792824E+03  0.20454792824E+03  0.00000000000E+00 0.  1.
         24    2    1    2    0    0  0.42623060576E+02  0.40517231996E+02  0.19277913631E+03  0.21735139634E+03  0.81360080582E+02 0.  0.
         25    2    1    2    0    0 -0.50683676376E+02  0.16550839654E+03  0.25901952870E+03  0.33567499915E+03  0.12499889771E+03 0.  0.
         24    2    1    2    0    0  0.18480297420E+02 -0.83808885061E+02  0.24876577007E+03  0.27495515927E+03  0.79689903006E+02 0.  0.
        -13    1    3    3    0    0 -0.50258749143E+01 -0.18317129519E+02  0.74764776469E+02  0.77139798113E+02  0.00000000000E+00 0.  1.
         14    1    3    3    0    0  0.47648935490E+02  0.58834361515E+02  0.11801435984E+03  0.14021159823E+03  0.00000000000E+00 0. -1.
        -13    1    5    5    0    0  0.25693349125E+02 -0.27213328265E+02  0.18765702570E+03  0.19135274422E+03  0.00000000000E+00 0.  1.
         14    1    5    5    0    0 -0.72130517045E+01 -0.56595556796E+02  0.61108744373E+02  0.83602415053E+02  0.00000000000E+00 0. -1.
          5    1    4    4  502    0 -0.25933068744E+02  0.54513798807E+02  0.93265670387E+01  0.61264615951E+02  0.47000000000E+01 0. -1.
         -5    1    4    4    0  502 -0.24750607632E+02  0.11099459773E+03  0.24969296166E+03  0.27441038320E+03  0.47000000000E+01 0. -1.
          1    1    1    2  503    0  0.60783995215E+02 -0.27614291301E+02  0.83526121744E+03  0.83792514255E+03  0.00000000000E+00 0. -1.
         -2    1    1    2    0  501 -0.71203676835E+02 -0.94602452176E+02 -0.11438403073E+03  0.16463078096E+03  0.00000000000E+00 0.  1.
<mgrwt>
<rscale>  0 0.87749003E+02</rscale>
<asrwt>0</asrwt>
<pdfrwt beam="1">  1        2 0.23911610E+00 0.66762588E+02</pdfrwt>
<pdfrwt beam="2">  1       -1 0.30080578E-01 0.11533237E+03</pdfrwt>
<totfact> 0.16569799E+02</totfact>
</mgrwt>
</event>
<event>
13    1  0.1675423E-008  0.1543206E+03  0.7546771E-02  0.1255811E+00
          2   -1    0    0  503    0  0.00000000000E+00  0.00000000000E+00  0.20897705429E+04  0.20897705429E+04  0.00000000000E+00 0. -1.
         -1   -1    0    0    0  501 -0.00000000000E+00 -0.00000000000E+00 -0.86163244177E+03  0.86163244177E+03  0.00000000000E+00 0.  1.
         24    2    1    2    0    0 -0.13928508861E+03 -0.10252467398E+03  0.10735005397E+04  0.10902946002E+04  0.80170205453E+02 0.  0.
         25    2    1    2    0    0  0.45037124246E+02  0.14827928741E+03  0.13400636134E+02  0.19955136610E+03  0.12500432404E+03 0.  0.
         24    2    1    2    0    0  0.52880886195E+02  0.16440774342E+02  0.10323714073E+03  0.14255512802E+03  0.81224196594E+02 0.  0.
        -13    1    3    3    0    0 -0.17143222993E+01 -0.13988028815E+02  0.21886278583E+02  0.26031001542E+02  0.00000000000E+00 0.  1.
         14    1    3    3    0    0 -0.13757076631E+03 -0.88536645166E+02  0.10516142611E+04  0.10642635986E+04  0.00000000000E+00 0. -1.
        -13    1    5    5    0    0  0.29127855548E+02 -0.28057041113E+02  0.19736016626E+02  0.45001554163E+02  0.00000000000E+00 0.  1.
         14    1    5    5    0    0  0.23753030647E+02  0.44497815455E+02  0.83501124102E+02  0.97553573853E+02  0.00000000000E+00 0. -1.
          5    1    4    4  502    0  0.52400254253E+02  0.16729748568E+03  0.13063023035E+01  0.17537967895E+03  0.47000000000E+01 0. -1.
         -5    1    4    4    0  502 -0.73631300069E+01 -0.19018198274E+02  0.12094333831E+02  0.24171687154E+02  0.47000000000E+01 0. -1.
          1    1    1    2  503    0 -0.65381833073E+02  0.49776996800E+02  0.76820555369E+03  0.77258805726E+03  0.00000000000E+00 0. -1.
         -2    1    1    2    0  501  0.10674891125E+03 -0.11197238457E+03 -0.73020576912E+03  0.74641383308E+03  0.00000000000E+00 0.  1.
<mgrwt>
<rscale>  0 0.11261042E+03</rscale>
<asrwt>0</asrwt>
<pdfrwt beam="1">  1        2 0.30731920E+00 0.82173801E+02</pdfrwt>
<pdfrwt beam="2">  1       -1 0.12671065E+00 0.15432056E+03</pdfrwt>
<totfact> 0.58536283E+00</totfact>
</mgrwt>
</event>
<event>
13    1  0.1675423E-008  0.1469073E+03  0.7546771E-02  0.1421477E+00
          4   -1    0    0  503    0 -0.00000000000E+00  0.00000000000E+00  0.58507907956E+03  0.58507907956E+03  0.00000000000E+00 0. -1.
          2   -1    0    0  502    0  0.00000000000E+00 -0.00000000000E+00 -0.30706469566E+04  0.30706469566E+04  0.00000000000E+00 0. -1.
         24    2    1    2    0    0 -0.57047513846E+02 -0.66550219248E+02 -0.14503006629E+04  0.14552085025E+04  0.81095144542E+02 0.  0.
         25    2    1    2    0    0  0.53848441915E+02 -0.29887528472E+02  0.33923868024E+03  0.36675748779E+03  0.12504100776E+03 0.  0.
         24    2    1    2    0    0  0.85583453614E+02  0.15913327561E+03 -0.27548909909E+03  0.33892697869E+03  0.79557062705E+02 0.  0.
        -13    1    3    3    0    0  0.15433734374E+02 -0.10450496808E+01 -0.83503169784E+02  0.84923916829E+02  0.00000000000E+00 0.  1.
         14    1    3    3    0    0 -0.72481248220E+02 -0.65505169567E+02 -0.13667974931E+04  0.13702845857E+04  0.00000000000E+00 0. -1.
        -13    1    5    5    0    0 -0.15255458177E+01 -0.83747013112E+01 -0.14332372877E+02  0.16669727783E+02  0.00000000000E+00 0.  1.
         14    1    5    5    0    0  0.87108999432E+02  0.16750797692E+03 -0.26115672621E+03  0.32225725090E+03  0.00000000000E+00 0. -1.
          5    1    4    4  501    0  0.20800710290E+02  0.42330949295E+02  0.60326497965E+02  0.76719978972E+02  0.47000000000E+01 0.  1.
         -5    1    4    4    0  501  0.33047731625E+02 -0.72218477768E+02  0.27891218228E+03  0.29003750881E+03  0.47000000000E+01 0.  1.
          1    1    1    2  502    0 -0.10245514503E+03 -0.66200070004E+02 -0.12935234298E+04  0.12992622405E+04  0.00000000000E+00 0. -1.
          3    1    1    2  503    0  0.20070763342E+02  0.35045421135E+01  0.19450663456E+03  0.19557082667E+03  0.00000000000E+00 0. -1.
<mgrwt>
<rscale>  0 0.54709709E+02</rscale>
<asrwt>0</asrwt>
<pdfrwt beam="2">  1        2 0.45156573E+00 0.14690729E+03</pdfrwt>
<pdfrwt beam="1">  1        4 0.86041041E-01 0.20374429E+02</pdfrwt>
<totfact> 0.13374390E+00</totfact>
</mgrwt>
</event>
<event>
13    1  0.1675423E-008  0.1496664E+03  0.7546771E-02  0.1244094E+00
          2   -1    0    0  502    0  0.00000000000E+00  0.00000000000E+00  0.18721534081E+04  0.18721534081E+04  0.00000000000E+00 0. -1.
          2   -1    0    0  503    0 -0.00000000000E+00 -0.00000000000E+00 -0.80490307924E+03  0.80490307924E+03  0.00000000000E+00 0. -1.
         24    2    1    2    0    0 -0.34560161509E+02  0.25714076628E+02  0.16440655334E+03  0.18848782569E+03  0.81501700304E+02 0.  0.
         25    2    1    2    0    0  0.73475038142E+01 -0.28396111720E+03  0.65706140137E+03  0.72666525976E+03  0.12499925073E+03 0.  0.
         24    2    1    2    0    0  0.88988454288E+02  0.11230351433E+02 -0.15913002447E+03  0.19993690665E+03  0.81285522454E+02 0.  0.
        -13    1    5    5    0    0  0.62953620565E+02 -0.29091507697E+02 -0.69028203518E+02  0.97848694643E+02  0.00000000000E+00 0.  1.
         14    1    5    5    0    0  0.26034833722E+02  0.40321859130E+02 -0.90101820955E+02  0.10208821200E+03  0.00000000000E+00 0. -1.
        -13    1    3    3    0    0  0.74338055572E+01  0.39307304053E+02  0.11729681041E+03  0.12393089747E+03  0.00000000000E+00 0.  1.
         14    1    3    3    0    0 -0.41993967066E+02 -0.13593227425E+02  0.47109742936E+02  0.64556928220E+02  0.00000000000E+00 0. -1.
          5    1    4    4  501    0  0.55000792285E+02 -0.19816845628E+03  0.37120135268E+03  0.42439175116E+03  0.47000000000E+01 0. -1.
         -5    1    4    4    0  501 -0.47653288470E+02 -0.85792660920E+02  0.28586004869E+03  0.30227350861E+03  0.47000000000E+01 0. -1.
          1    1    1    2  502    0  0.46094005385E+02  0.80157425079E+02  0.96410232588E+03  0.96852628508E+03  0.00000000000E+00 0. -1.
          1    1    1    2  503    0 -0.10786980198E+03  0.16685926406E+03 -0.55918992730E+03  0.59344021011E+03  0.00000000000E+00 0. -1.
<mgrwt>
<rscale>  0 0.11939769E+03</rscale>
<asrwt>0</asrwt>
<pdfrwt beam="1">  1        2 0.27531668E+00 0.95250555E+02</pdfrwt>
<pdfrwt beam="2">  1        2 0.11836810E+00 0.14966641E+03</pdfrwt>
<totfact> 0.62925952E+01</totfact>
</mgrwt>
</event>
<event>
13    1  0.1675423E-008  0.9963073E+02  0.7546771E-02  0.1387277E+00
          2   -1    0    0  503    0  0.00000000000E+00  0.00000000000E+00  0.39653164027E+04  0.39653164027E+04  0.00000000000E+00 0. -1.
          2   -1    0    0  502    0 -0.00000000000E+00 -0.00000000000E+00 -0.39677064050E+03  0.39677064050E+03  0.00000000000E+00 0. -1.
         24    2    1    2    0    0  0.16061641628E+02  0.66771169578E+02  0.19985745849E+03  0.22658285011E+03  0.81733829183E+02 0.  0.
         25    2    1    2    0    0 -0.67818987505E+02  0.27016866029E+02  0.41853916631E+01  0.14481781442E+03  0.12500142301E+03 0.  0.
         24    2    1    2    0    0  0.29729240459E+02  0.37618212040E+02  0.28319123400E+02  0.96028165496E+02  0.78233485178E+02 0.  0.
        -11    1    3    3    0    0  0.12441199862E+02 -0.73022642148E+01  0.10592545701E+03  0.10690326917E+03  0.00000000000E+00 0.  1.
         12    1    3    3    0    0  0.36204417662E+01  0.74073433792E+02  0.93932001476E+02  0.11967958094E+03  0.00000000000E+00 0. -1.
        -13    1    5    5    0    0  0.50120196547E+02  0.46588703504E+02  0.27464304242E+02  0.73734858809E+02  0.00000000000E+00 0.  1.
         14    1    5    5    0    0 -0.20390956088E+02 -0.89704914638E+01  0.85481915761E+00  0.22293306688E+02  0.00000000000E+00 0. -1.
          5    1    4    4  501    0  0.26917872126E+02  0.21531344310E+02 -0.27836576007E+02  0.44554860469E+02  0.47000000000E+01 0.  1.
         -5    1    4    4    0  501 -0.94736859631E+02  0.54855217194E+01  0.32021967670E+02  0.10026295395E+03  0.47000000000E+01 0.  1.
          1    1    1    2  502    0 -0.11439831596E+02 -0.37618165445E+02 -0.27716372091E+03  0.27993878671E+03  0.00000000000E+00 0. -1.
          1    1    1    2  503    0  0.33467937014E+02 -0.93788082202E+02  0.36133475095E+04  0.36147194264E+04  0.00000000000E+00 0. -1.
<mgrwt>
<rscale>  0 0.62589108E+02</rscale>
<asrwt>0</asrwt>
<pdfrwt beam="1">  1        2 0.58313474E+00 0.99630734E+02</pdfrwt>
<pdfrwt beam="2">  1        2 0.58348626E-01 0.39319157E+02</pdfrwt>
<totfact> 0.10283220E+01</totfact>
</mgrwt>
</event>
<event>
13    1  0.1675423E-008  0.7098537E+02  0.7546771E-02  0.1481369E+00
          2   -1    0    0  502    0  0.00000000000E+00  0.00000000000E+00  0.10966736063E+04  0.10966736063E+04  0.00000000000E+00 0. -1.
          2   -1    0    0  503    0 -0.00000000000E+00 -0.00000000000E+00 -0.19477307227E+04  0.19477307227E+04  0.00000000000E+00 0. -1.
         24    2    1    2    0    0 -0.15595929092E+03  0.91727628292E+03 -0.96357250856E+03  0.13418111928E+04  0.79159448630E+02 0.  0.
         25    2    1    2    0    0  0.23205289447E+03 -0.65612416219E+03 -0.93002701213E+02  0.71317747515E+03  0.12500058631E+03 0.  0.
         24    2    1    2    0    0 -0.34220172191E+01 -0.19541227847E+03  0.95001803046E+01  0.21002799072E+03  0.76314052961E+02 0.  0.
        -11    1    3    3    0    0 -0.16211134656E+02  0.63737776799E+02 -0.42462407796E+02  0.78283849893E+02  0.00000000000E+00 0.  1.
         12    1    3    3    0    0 -0.13974815627E+03  0.85353850612E+03 -0.92111010077E+03  0.12635273429E+04  0.00000000000E+00 0. -1.
        -13    1    5    5    0    0 -0.35317654436E+02 -0.10934346839E+03 -0.12663058570E+02  0.11560140072E+03  0.00000000000E+00 0.  1.
         14    1    5    5    0    0  0.31895637217E+02 -0.86068810077E+02  0.22163238874E+02  0.94426589999E+02  0.00000000000E+00 0. -1.
          5    1    4    4  501    0  0.14314496492E+02 -0.85450000307E+01  0.13165980543E+02  0.21756720318E+02  0.47000000000E+01 0. -1.
         -5    1    4    4    0  501  0.21773839798E+03 -0.64757916216E+03 -0.10616868176E+03  0.69142075483E+03  0.47000000000E+01 0. -1.
          1    1    1    2  502    0 -0.51327808874E+02 -0.48973534979E+02  0.48448245971E+03  0.48964906296E+03  0.00000000000E+00 0. -1.
          1    1    1    2  503    0 -0.21343777453E+02 -0.16766307279E+02 -0.28846454664E+03  0.28973860730E+03  0.00000000000E+00 0. -1.
<mgrwt>
<rscale>  0 0.43893688E+02</rscale>
<asrwt>0</asrwt>
<pdfrwt beam="1">  1        2 0.16127553E+00 0.70985373E+02</pdfrwt>
<pdfrwt beam="2">  1        2 0.28643098E+00 0.27141590E+02</pdfrwt>
<totfact> 0.46041941E+01</totfact>
</mgrwt>
</event>
<event>
13    1  0.1675423E-008  0.5085420E+02  0.7546771E-02  0.1512085E+00
          2   -1    0    0  503    0  0.00000000000E+00  0.00000000000E+00  0.30409337509E+04  0.30409337509E+04  0.00000000000E+00 0. -1.
          2   -1    0    0  502    0 -0.00000000000E+00 -0.00000000000E+00 -0.30636788205E+04  0.30636788205E+04  0.00000000000E+00 0. -1.
         24    2    1    2    0    0 -0.59902781957E+03 -0.23295050565E+03  0.74926876810E+03  0.98891278050E+03  0.58690151436E+02 0.  0.
         25    2    1    2    0    0 -0.96663774562E+02 -0.20597862185E+03  0.11960343984E+03  0.28583303049E+03  0.12499784209E+03 0.  0.
         24    2    1    2    0    0  0.66142679275E+03  0.39836000969E+03 -0.27662431899E+03  0.82430355509E+03  0.82336125677E+02 0.  0.
        -11    1    5    5    0    0  0.32103724204E+03  0.15595288665E+03 -0.10024755491E+03  0.37072332796E+03  0.00000000000E+00 0.  1.
         12    1    5    5    0    0  0.34038955071E+03  0.24240712304E+03 -0.17637676409E+03  0.45358022713E+03  0.00000000000E+00 0. -1.
        -13    1    3    3    0    0 -0.24148687005E+03 -0.12479676041E+03  0.32064983246E+03  0.42036466891E+03  0.00000000000E+00 0.  1.
         14    1    3    3    0    0 -0.35754094952E+03 -0.10815374525E+03  0.42861893564E+03  0.56854811159E+03  0.00000000000E+00 0. -1.
          5    1    4    4  501    0 -0.69566050522E+02 -0.12327302419E+03  0.48183730300E+01  0.14170737665E+03  0.47000000000E+01 0.  1.
         -5    1    4    4    0  501 -0.27097724040E+02 -0.82705597658E+02  0.11478506681E+03  0.14412565384E+03  0.47000000000E+01 0.  1.
          1    1    1    2  502    0  0.48979675048E+02  0.13685301723E+02 -0.23098596622E+04  0.23104194327E+04  0.00000000000E+00 0. -1.
          1    1    1    2  503    0 -0.14714873666E+02  0.26883816093E+02  0.16948667035E+04  0.16951437726E+04  0.00000000000E+00 0. -1.
<mgrwt>
<rscale>  0 0.39478503E+02</rscale>
<asrwt>0</asrwt>
<pdfrwt beam="1">  1        2 0.44719614E+00 0.30647464E+02</pdfrwt>
<pdfrwt beam="2">  1        2 0.45054100E+00 0.50854197E+02</pdfrwt>
<totfact> 0.15664709E+00</totfact>
</mgrwt>
</event>
<event>
13    1  0.1675423E-008  0.2441029E+03  0.7546771E-02  0.1295736E+00
          2   -1    0    0  502    0  0.00000000000E+00  0.00000000000E+00  0.39116997173E+04  0.39116997173E+04  0.00000000000E+00 0. -1.
          2   -1    0    0  503    0 -0.00000000000E+00 -0.00000000000E+00 -0.28485605214E+04  0.28485605214E+04  0.00000000000E+00 0. -1.
         24    2    1    2    0    0  0.10596626662E+03  0.44591106530E+02  0.18110160409E+03  0.22972194272E+03  0.82201967847E+02 0.  0.
         25    2    1    2    0    0  0.12361265720E+03  0.14151843612E+03 -0.39552968029E+02  0.22912269979E+03  0.12500086999E+03 0.  0.
         24    2    1    2    0    0 -0.13302081752E+03  0.73291789895E+02  0.39779551817E+02  0.17642604004E+03  0.80482982684E+02 0.  0.
        -11    1    5    5    0    0 -0.13244995906E+03  0.40428843491E+02  0.26600842406E+02  0.14101449521E+03  0.00000000000E+00 0.  1.
         12    1    5    5    0    0 -0.57085845744E+00  0.32862946404E+02  0.13178709411E+02  0.35411544833E+02  0.00000000000E+00 0. -1.
        -11    1    3    3    0    0  0.10058885816E+02 -0.21926147564E+02  0.38657429580E+02  0.45566808014E+02  0.00000000000E+00 0.  1.
         12    1    3    3    0    0  0.95907380801E+02  0.66517254095E+02  0.14244417451E+03  0.18415513470E+03  0.00000000000E+00 0. -1.
          5    1    4    4  501    0  0.89960978085E+02  0.15880098229E+02  0.48600611564E+01  0.91601666427E+02  0.47000000000E+01 0. -1.
         -5    1    4    4    0  501  0.33651679112E+02  0.12563833790E+03 -0.44413029186E+02  0.13752103336E+03  0.47000000000E+01 0. -1.
          1    1    1    2  502    0 -0.10141860312E+03 -0.22430136042E+03  0.34989560523E+04  0.35076046370E+04  0.00000000000E+00 0. -1.
          1    1    1    2  503    0  0.48604968274E+01 -0.35099972129E+02 -0.26171450443E+04  0.26173849192E+04  0.00000000000E+00 0. -1.
<mgrwt>
<rscale>  0 0.93004105E+02</rscale>
<asrwt>0</asrwt>
<pdfrwt beam="1">  1        2 0.57524996E+00 0.24410291E+03</pdfrwt>
<pdfrwt beam="2">  1        2 0.41890596E+00 0.35434905E+02</pdfrwt>
<totfact> 0.45452695E-01</totfact>
</mgrwt>
</event>
<event>
13    1  0.1675423E-008  0.1998313E+03  0.7546771E-02  0.1291229E+00
         -3   -1    0    0    0  501 -0.00000000000E+00  0.00000000000E+00  0.29445574815E+03  0.29445574815E+03  0.00000000000E+00 0.  1.
          2   -1    0    0  503    0  0.00000000000E+00 -0.00000000000E+00 -0.39762021449E+04  0.39762021449E+04  0.00000000000E+00 0. -1.
         24    2    1    2    0    0 -0.10312214375E+03  0.22365518189E+02 -0.39806374591E+03  0.41985292334E+03  0.81776148712E+02 0.  0.
         25    2    1    2    0    0  0.37144647178E+03 -0.15500340174E+03 -0.86356132290E+02  0.43020785240E+03  0.12499151465E+03 0.  0.
         24    2    1    2    0    0  0.41150807681E+02  0.83831740269E+02 -0.30919642397E+03  0.33295556841E+03  0.80844494501E+02 0.  0.
        -11    1    5    5    0    0  0.44753768281E+02  0.62853332529E+01 -0.97198279049E+02  0.10719100074E+03  0.00000000000E+00 0.  1.
         12    1    5    5    0    0 -0.36029606001E+01  0.77546407016E+02 -0.21199814492E+03  0.22576456767E+03  0.00000000000E+00 0. -1.
        -13    1    3    3    0    0 -0.84126106671E+02  0.49453163738E+01 -0.37775006863E+03  0.38703587990E+03  0.00000000000E+00 0.  1.
         14    1    3    3    0    0 -0.18996037075E+02  0.17420201815E+02 -0.20313677274E+02  0.32817043441E+02  0.00000000000E+00 0. -1.
          5    1    4    4  502    0  0.23818916279E+03 -0.43135546392E+02 -0.16532690530E+02  0.24267297437E+03  0.47000000000E+01 0.  1.
         -5    1    4    4    0  502  0.13325730899E+03 -0.11186785534E+03 -0.69823441760E+02  0.18753487803E+03  0.47000000000E+01 0.  1.
          1    1    1    2  503    0 -0.30957854356E+03  0.93946932865E+02 -0.29735127434E+04  0.29910605036E+04  0.00000000000E+00 0. -1.
         -4    1    1    2    0  501  0.10340784486E+00 -0.45140789587E+02  0.85382648874E+02  0.96581045275E+02  0.00000000000E+00 0.  1.
<mgrwt>
<rscale>  0 0.94976663E+02</rscale>
<asrwt>0</asrwt>
<pdfrwt beam="2">  1        2 0.58473565E+00 0.19983130E+03</pdfrwt>
<pdfrwt beam="1">  1       -3 0.43302313E-01 0.45140908E+02</pdfrwt>
<totfact> 0.20080878E+00</totfact>
</mgrwt>
</event>
<event>
13    1  0.1675423E-008  0.1650956E+03  0.7546771E-02  0.1346076E+00
          2   -1    0    0  503    0  0.00000000000E+00  0.00000000000E+00  0.14422850295E+04  0.14422850295E+04  0.00000000000E+00 0. -1.
          2   -1    0    0  502    0 -0.00000000000E+00 -0.00000000000E+00 -0.20807731296E+04  0.20807731296E+04  0.00000000000E+00 0. -1.
         24    2    1    2    0    0  0.24647654028E+03  0.24052632168E+03  0.16601353514E+03  0.38995160309E+03  0.76799495926E+02 0.  0.
         25    2    1    2    0    0 -0.10058383195E+03 -0.39516099427E+03 -0.10870506494E+04  0.11677210831E+04  0.12499637973E+03 0.  0.
         24    2    1    2    0    0 -0.11558475108E+03 -0.73131683899E+01  0.21893754456E+03  0.26066637507E+03  0.81240344408E+02 0.  0.
        -11    1    3    3    0    0  0.58196394721E+02  0.40846617163E+02  0.39146987246E+01  0.71208084922E+02  0.00000000000E+00 0.  1.
         12    1    3    3    0    0  0.18828014556E+03  0.19967970452E+03  0.16209883641E+03  0.31874351817E+03  0.00000000000E+00 0. -1.
        -11    1    5    5    0    0 -0.15220098445E+02  0.27108444672E+02  0.26213460255E+02  0.40665275946E+02  0.00000000000E+00 0.  1.
         12    1    5    5    0    0 -0.10036465264E+03 -0.34421613061E+02  0.19272408430E+03  0.22000109912E+03  0.00000000000E+00 0. -1.
          5    1    4    4  501    0 -0.23262993294E+02 -0.33285754605E+02 -0.39999664930E+02  0.57194156267E+02  0.47000000000E+01 0. -1.
         -5    1    4    4    0  501 -0.77320838656E+02 -0.36187523966E+03 -0.10470509844E+04  0.11105269268E+04  0.47000000000E+01 0. -1.
          1    1    1    2  502    0  0.24276230142E+02  0.22985329696E+02 -0.81390565171E+03  0.81459196572E+03  0.00000000000E+00 0. -1.
          1    1    1    2  503    0 -0.54584187392E+02  0.13896251128E+03  0.87751712137E+03  0.89012713213E+03  0.00000000000E+00 0. -1.
<mgrwt>
<rscale>  0 0.74292553E+02</rscale>
<asrwt>0</asrwt>
<pdfrwt beam="1">  1        2 0.21210074E+00 0.16509563E+03</pdfrwt>
<pdfrwt beam="2">  1        2 0.30599605E+00 0.33431433E+02</pdfrwt>
<totfact> 0.24436161E+01</totfact>
</mgrwt>
</event>
<event>
13    1  0.1675423E-008  0.1314007E+03  0.7546771E-02  0.1284487E+00
          2   -1    0    0  502    0  0.00000000000E+00  0.00000000000E+00  0.14343623676E+04  0.14343623676E+04  0.00000000000E+00 0. -1.
          2   -1    0    0  503    0 -0.00000000000E+00 -0.00000000000E+00 -0.50079650572E+04  0.50079650572E+04  0.00000000000E+00 0. -1.
         24    2    1    2    0    0 -0.50834343451E+02 -0.31253573504E+02  0.11107147991E+03  0.14902300759E+03  0.79435928956E+02 0.  0.
         25    2    1    2    0    0  0.25572774516E+03  0.12523320878E+03 -0.10021038056E+04  0.10492464500E+04  0.12500415719E+03 0.  0.
         24    2    1    2    0    0 -0.81761150182E+02 -0.25787919231E+02 -0.46034082923E+03  0.47381284902E+03  0.72353537462E+02 0.  0.
        -13    1    5    5    0    0 -0.32456031486E+02 -0.47158671279E+02 -0.20279445275E+03  0.21072001405E+03  0.00000000000E+00 0.  1.
         14    1    5    5    0    0 -0.49305118696E+02  0.21370752048E+02 -0.25754637648E+03  0.26309283497E+03  0.00000000000E+00 0. -1.
        -13    1    3    3    0    0 -0.33077970956E+02 -0.20148065501E+02  0.12011912399E+03  0.12620895631E+03  0.00000000000E+00 0.  1.
         14    1    3    3    0    0 -0.17756372496E+02 -0.11105508003E+02 -0.90476440749E+01  0.22814051273E+02  0.00000000000E+00 0. -1.
          5    1    4    4  501    0  0.13907748758E+03  0.33305678372E+02 -0.31083788999E+03  0.34219015126E+03  0.47000000000E+01 0.  1.
         -5    1    4    4    0  501  0.11665025758E+03  0.91927530411E+02 -0.69126591565E+03  0.70705629874E+03  0.47000000000E+01 0.  1.
          1    1    1    2  502    0 -0.58416258299E+02 -0.10226772626E+03  0.12709022181E+04  0.12763477563E+04  0.00000000000E+00 0. -1.
          1    1    1    2  503    0 -0.64715993227E+02  0.34076010210E+02 -0.34931317527E+04  0.34938973620E+04  0.00000000000E+00 0. -1.
<mgrwt>
<rscale>  0 0.98033336E+02</rscale>
<asrwt>0</asrwt>
<pdfrwt beam="1">  1        2 0.21093564E+00 0.13140071E+03</pdfrwt>
<pdfrwt beam="2">  1        2 0.73646545E+00 0.73139143E+02</pdfrwt>
<totfact> 0.32789240E-01</totfact>
</mgrwt>
</event>
<event>
13    1  0.1675423E-008  0.1529706E+03  0.7546771E-02  0.1417584E+00
          2   -1    0    0  503    0  0.00000000000E+00  0.00000000000E+00  0.44712777397E+03  0.44712777397E+03  0.00000000000E+00 0. -1.
          2   -1    0    0  502    0 -0.00000000000E+00 -0.00000000000E+00 -0.13026669356E+04  0.13026669356E+04  0.00000000000E+00 0. -1.
         24    2    1    2    0    0  0.26169413563E+02 -0.12889556185E+03  0.12277253920E+03  0.19690338870E+03  0.79993399916E+02 0.  0.
         25    2    1    2    0    0 -0.15539402813E+03  0.13378131668E+03 -0.15844483257E+03  0.28770514112E+03  0.12499895435E+03 0.  0.
         24    2    1    2    0    0  0.33590473238E+01 -0.60552640464E+02  0.14372749327E+03  0.17516329285E+03  0.79666061626E+02 0.  0.
        -13    1    3    3    0    0  0.19381201024E+02  0.46645025193E+01  0.12134421430E+02  0.23337367468E+02  0.00000000000E+00 0.  1.
         14    1    3    3    0    0  0.67882125392E+01 -0.13356006437E+03  0.11063811777E+03  0.17356602123E+03  0.00000000000E+00 0. -1.
        -13    1    5    5    0    0  0.40326304807E+02 -0.21562115259E+02  0.56117289600E+02  0.72389818800E+02  0.00000000000E+00 0.  1.
         14    1    5    5    0    0 -0.36967257484E+02 -0.38990525205E+02  0.87610203670E+02  0.10277347405E+03  0.00000000000E+00 0. -1.
          5    1    4    4  501    0 -0.11738575227E+03  0.15391096801E+03 -0.14655860219E+03  0.24283639510E+03  0.47000000000E+01 0. -1.
         -5    1    4    4    0  501 -0.38008275861E+02 -0.20129651335E+02 -0.11886230379E+02  0.44868746020E+02  0.47000000000E+01 0. -1.
          1    1    1    2  502    0  0.13540965126E+03  0.73426670313E+02 -0.10192520853E+04  0.10308259131E+04  0.00000000000E+00 0. -1.
          1    1    1    2  503    0 -0.95440840090E+01 -0.17759784678E+02  0.55657723806E+02  0.59196973830E+02  0.00000000000E+00 0. -1.
<mgrwt>
<rscale>  0 0.55535288E+02</rscale>
<asrwt>0</asrwt>
<pdfrwt beam="1">  1        2 0.65754084E-01 0.20161833E+02</pdfrwt>
<pdfrwt beam="2">  1        2 0.19156867E+00 0.15297063E+03</pdfrwt>
<totfact> 0.22888178E+02</totfact>
</mgrwt>
</event>
<event>
13    1  0.2064994E-008  0.6165456E+02  0.7546771E-02  0.1479718E+00
          2   -1    0    0  502    0  0.00000000000E+00  0.00000000000E+00  0.16851685146E+04  0.16851685146E+04  0.00000000000E+00 0. -1.
          2   -1    0    0  503    0 -0.00000000000E+00 -0.00000000000E+00 -0.19041227425E+04  0.19041227425E+04  0.00000000000E+00 0. -1.
         24    2    1    2    0    0  0.63709551911E+02 -0.87949482473E+02  0.80897052267E+03  0.82031944942E+03  0.81833208851E+02 0.  0.
         25    2    1    2    0    0 -0.16828322042E+03 -0.14655732622E+02 -0.94142049955E+03  0.96458959736E+03  0.12500600627E+03 0.  0.
         24    2    1    2    0    0  0.65985953130E+02  0.12591877487E+03  0.27751685431E+03  0.32159636928E+03  0.78733324798E+02 0.  0.
        -11    1    3    3    0    0 -0.79787830755E+01 -0.31486950437E+02  0.92016293977E+02  0.97581183558E+02  0.00000000000E+00 0.  1.
         12    1    3    3    0    0  0.71688334986E+02 -0.56462532036E+02  0.71695422869E+03  0.72273826586E+03  0.00000000000E+00 0. -1.
        -13    1    5    5    0    0  0.93401188854E+01 -0.67085415250E+01  0.36282727036E+01  0.12058470591E+02  0.00000000000E+00 0.  1.
         14    1    5    5    0    0  0.56645834244E+02  0.13262731639E+03  0.27388858160E+03  0.30953789869E+03  0.00000000000E+00 0. -1.
          5    1    4    4  501    0 -0.14472808768E+03 -0.48354666559E+02 -0.85791534805E+03  0.87139269424E+03  0.47000000000E+01 0. -1.
         -5    1    4    4    0  501 -0.23555132736E+02  0.33698933937E+02 -0.83505151493E+02  0.93196903128E+02  0.47000000000E+01 0. -1.
          1    1    1    2  502    0  0.61669802593E+02 -0.17091402868E+01  0.55740941053E+03  0.56081310315E+03  0.00000000000E+00 0. -1.
          1    1    1    2  503    0 -0.23082087215E+02 -0.21604419486E+02 -0.92143051588E+03  0.92197273782E+03  0.00000000000E+00 0. -1.
<mgrwt>
<rscale>  0 0.44150128E+02</rscale>
<asrwt>0</asrwt>
<pdfrwt beam="1">  1        2 0.24781890E+00 0.61654561E+02</pdfrwt>
<pdfrwt beam="2">  1        2 0.28001805E+00 0.31615403E+02</pdfrwt>
<totfact> 0.24331651E+01</totfact>
</mgrwt>
</event>
<event>
13    1  0.1675423E-008  0.9178387E+02  0.7546771E-02  0.1345903E+00
          2   -1    0    0  502    0  0.00000000000E+00  0.00000000000E+00  0.56515392374E+03  0.56515392374E+03  0.00000000000E+00 0. -1.
          2   -1    0    0  503    0 -0.00000000000E+00 -0.00000000000E+00 -0.80103161883E+03  0.80103161883E+03  0.00000000000E+00 0. -1.
         24    2    1    2    0    0 -0.25492833570E+02 -0.42377849437E+02  0.77455939725E+02  0.12159802116E+03  0.79629702159E+02 0.  0.
         25    2    1    2    0    0  0.52105213312E+02 -0.26849875158E+02 -0.36639694981E+02  0.14284921837E+03  0.12501025114E+03 0.  0.
         24    2    1    2    0    0 -0.59581094436E+02 -0.39252252095E+02 -0.66559407946E+02  0.12687590967E+03  0.81096828290E+02 0.  0.
        -11    1    5    5    0    0 -0.44416578480E+02 -0.64505449094E+02 -0.44527608584E+02  0.90091583030E+02  0.00000000000E+00 0.  1.
         12    1    5    5    0    0 -0.15164515955E+02  0.25253196999E+02 -0.22031799363E+02  0.36784326635E+02  0.00000000000E+00 0. -1.
        -11    1    3    3    0    0  0.25588578419E+02 -0.27389801812E+01  0.85766694551E+01  0.27126308574E+02  0.00000000000E+00 0.  1.
         12    1    3    3    0    0 -0.51081411989E+02 -0.39638869256E+02  0.68879270270E+02  0.94471712590E+02  0.00000000000E+00 0. -1.
          5    1    4    4  501    0  0.35492054396E+01 -0.53896320754E+02 -0.61322394200E+02  0.81853138489E+02  0.47000000000E+01 0. -1.
         -5    1    4    4    0  501  0.48556007873E+02  0.27046445597E+02  0.24682699219E+02  0.60996079880E+02  0.47000000000E+01 0. -1.
          1    1    1    2  502    0  0.69055320794E+02  0.60265386315E+02  0.37530442438E+03  0.38633400715E+03  0.00000000000E+00 0. -1.
          1    1    1    2  503    0 -0.36086606101E+02  0.48214590374E+02 -0.58543895628E+03  0.58852838623E+03  0.00000000000E+00 0. -1.
<mgrwt>
<rscale>  0 0.74347570E+02</rscale>
<asrwt>0</asrwt>
<pdfrwt beam="1">  1        2 0.83110871E-01 0.91783871E+02</pdfrwt>
<pdfrwt beam="2">  1        2 0.11779877E+00 0.60223665E+02</pdfrwt>
<totfact> 0.35761443E+02</totfact>
</mgrwt>
</event>
<event>
13    1  0.1675423E-008  0.1814593E+03  0.7546771E-02  0.1256875E+00
          2   -1    0    0  503    0  0.00000000000E+00  0.00000000000E+00  0.42461196269E+04  0.42461196269E+04  0.00000000000E+00 0. -1.
          2   -1    0    0  502    0 -0.00000000000E+00 -0.00000000000E+00 -0.14663449492E+04  0.14663449492E+04  0.00000000000E+00 0. -1.
         24    2    1    2    0    0 -0.23302446311E+03  0.23087287289E+02  0.13791836313E+04  0.14012409808E+04  0.80593882684E+02 0.  0.
         25    2    1    2    0    0 -0.42731718464E+02 -0.16364985850E-01 -0.92276224073E+02  0.16114021827E+03  0.12500107354E+03 0.  0.
         24    2    1    2    0    0  0.92975013623E+01  0.81322197694E+02  0.37365662363E+03  0.39059596115E+03  0.79032835664E+02 0.  0.
        -11    1    3    3    0    0 -0.10360976142E+03 -0.29146693601E+02  0.64302843654E+03  0.65197398921E+03  0.00000000000E+00 0.  1.
         12    1    3    3    0    0 -0.12941470170E+03  0.52233980890E+02  0.73615519481E+03  0.74926699154E+03  0.00000000000E+00 0. -1.
        -11    1    5    5    0    0 -0.16238271665E+02  0.26947899142E+02  0.36760378789E+02  0.48385908936E+02  0.00000000000E+00 0.  1.
         12    1    5    5    0    0  0.25535773027E+02  0.54374298552E+02  0.33689624484E+03  0.34221005221E+03  0.00000000000E+00 0. -1.
          5    1    4    4  501    0 -0.62897319060E+02 -0.45446763157E+02 -0.35285738571E+02  0.85373616375E+02  0.47000000000E+01 0.  1.
         -5    1    4    4    0  501  0.20165600596E+02  0.45430398171E+02 -0.56990485502E+02  0.75766601897E+02  0.47000000000E+01 0.  1.
          1    1    1    2  502    0 -0.68103874221E+02  0.11999511655E+02 -0.13063591173E+04  0.13081881628E+04  0.00000000000E+00 0. -1.
          1    1    1    2  503    0  0.33456255444E+03 -0.11639263165E+03  0.24255697642E+04  0.24512992531E+04  0.00000000000E+00 0. -1.
<mgrwt>
<rscale>  0 0.11201983E+03</rscale>
<asrwt>0</asrwt>
<pdfrwt beam="1">  1        2 0.62442935E+00 0.18145933E+03</pdfrwt>
<pdfrwt beam="2">  1        2 0.21563896E+00 0.69152917E+02</pdfrwt>
<totfact> 0.11699954E+00</totfact>
</mgrwt>
</event>
<event>
13    1  0.1675423E-008  0.6905594E+02  0.7546771E-02  0.1461626E+00
          2   -1    0    0  502    0  0.00000000000E+00  0.00000000000E+00  0.22483834868E+04  0.22483834868E+04  0.00000000000E+00 0. -1.
          2   -1    0    0  503    0 -0.00000000000E+00 -0.00000000000E+00 -0.24023439553E+04  0.24023439553E+04  0.00000000000E+00 0. -1.
         24    2    1    2    0    0  0.11242764276E+04  0.64039319314E+03  0.83469003819E+02  0.12991934080E+04  0.82677139217E+02 0.  0.
         25    2    1    2    0    0 -0.11463586672E+04  0.24112830669E+03  0.46113269660E+03  0.12651247776E+04  0.12496513500E+03 0.  0.
         24    2    1    2    0    0 -0.65741872474E+01 -0.93476149291E+03 -0.22509569820E+03  0.96491402841E+03  0.81047765620E+02 0.  0.
        -11    1    3    3    0    0  0.80592837984E+03  0.47401644011E+03  0.25483140982E+02  0.93534032811E+03  0.00000000000E+00 0.  1.
         12    1    3    3    0    0  0.31834804779E+03  0.16637675303E+03  0.57985862837E+02  0.36385307993E+03  0.00000000000E+00 0. -1.
        -11    1    5    5    0    0  0.29743692394E+02 -0.70929556643E+03 -0.17068360935E+03  0.73014915072E+03  0.00000000000E+00 0.  1.
         12    1    5    5    0    0 -0.36317879642E+02 -0.22546592648E+03 -0.54412088850E+02  0.23476487770E+03  0.00000000000E+00 0. -1.
          5    1    4    4  501    0 -0.94441574570E+03  0.19385652301E+03  0.32690679179E+03  0.10180331983E+04  0.47000000000E+01 0.  1.
         -5    1    4    4    0  501 -0.20194292148E+03  0.47271783681E+02  0.13422590481E+03  0.24709157936E+03  0.47000000000E+01 0.  1.
          1    1    1    2  502    0 -0.28607601186E+02  0.14623652316E+02  0.32171727302E+03  0.32331756806E+03  0.00000000000E+00 0. -1.
          1    1    1    2  503    0  0.57264027994E+02  0.38616340761E+02 -0.79518374368E+03  0.79817765997E+03  0.00000000000E+00 0. -1.
<mgrwt>
<rscale>  0 0.47102756E+02</rscale>
<asrwt>0</asrwt>
<pdfrwt beam="1">  1        2 0.33064463E+00 0.32128586E+02</pdfrwt>
<pdfrwt beam="2">  1        2 0.35328588E+00 0.69055937E+02</pdfrwt>
<totfact> 0.76421106E+00</totfact>
</mgrwt>
</event>
<event>
13    1  0.1675423E-008  0.3470869E+02  0.7546771E-02  0.1557897E+00
          2   -1    0    0  502    0  0.00000000000E+00  0.00000000000E+00  0.12684450910E+04  0.12684450910E+04  0.00000000000E+00 0. -1.
          2   -1    0    0  503    0 -0.00000000000E+00 -0.00000000000E+00 -0.70631132440E+03  0.70631132440E+03  0.00000000000E+00 0. -1.
         24    2    1    2    0    0  0.63766957481E+02  0.19343099643E+02  0.98483569108E+02  0.14320960432E+03  0.79809755144E+02 0.  0.
         25    2    1    2    0    0 -0.15280346200E+03 -0.30530851871E+02  0.12418532760E+03  0.23521849629E+03  0.12499885795E+03 0.  0.
         24    2    1    2    0    0  0.27761314391E+02 -0.15015566797E+02 -0.59369382881E+03  0.60022698386E+03  0.82485828830E+02 0.  0.
        -13    1    3    3    0    0  0.15714766930E+02  0.46124813810E+02  0.51035581352E+02  0.70562616963E+02  0.00000000000E+00 0.  1.
         14    1    3    3    0    0  0.48052190551E+02 -0.26781714168E+02  0.47447987756E+02  0.72646987361E+02  0.00000000000E+00 0. -1.
        -13    1    5    5    0    0  0.40947392029E+02 -0.32487618700E+02 -0.22955090176E+03  0.23542674186E+03  0.00000000000E+00 0.  1.
         14    1    5    5    0    0 -0.13186077638E+02  0.17472051902E+02 -0.36414292705E+03  0.36480024200E+03  0.00000000000E+00 0. -1.
          5    1    4    4  501    0 -0.75457941491E+02 -0.60037725400E+01  0.13336767960E+03  0.15342416426E+03  0.47000000000E+01 0.  1.
         -5    1    4    4    0  501 -0.77345520511E+02 -0.24527079331E+02 -0.91823519942E+01  0.81794332027E+02  0.47000000000E+01 0.  1.
          1    1    1    2  502    0  0.29018417228E+02  0.16246075973E+02  0.95520356472E+03  0.95578232541E+03  0.00000000000E+00 0. -1.
          1    1    1    2  503    0  0.32256772902E+02  0.99572430525E+01 -0.22044866022E+02  0.40319005508E+02  0.00000000000E+00 0. -1.
<mgrwt>
<rscale>  0 0.33974902E+02</rscale>
<asrwt>0</asrwt>
<pdfrwt beam="1">  1        2 0.18653604E+00 0.33256631E+02</pdfrwt>
<pdfrwt beam="2">  1        2 0.10386931E+00 0.34708685E+02</pdfrwt>
<totfact> 0.16336551E+02</totfact>
</mgrwt>
</event>
<event>
13    1  0.1675423E-008  0.8525540E+02  0.7546771E-02  0.1395196E+00
          2   -1    0    0  503    0  0.00000000000E+00  0.00000000000E+00  0.16455462479E+04  0.16455462479E+04  0.00000000000E+00 0. -1.
          2   -1    0    0  502    0 -0.00000000000E+00 -0.00000000000E+00 -0.42349045059E+03  0.42349045059E+03  0.00000000000E+00 0. -1.
         24    2    1    2    0    0 -0.50822701725E+02 -0.45751480793E+02  0.83474593158E+03  0.84150113534E+03  0.81530641420E+02 0.  0.
         25    2    1    2    0    0  0.22701283135E+01  0.86078007837E+02 -0.88693766007E+02  0.17578221638E+03  0.12497290327E+03 0.  0.
         24    2    1    2    0    0  0.34216163164E+02 -0.15651545209E+03  0.22816785995E+02  0.18013649904E+03  0.79124711683E+02 0.  0.
        -11    1    5    5    0    0 -0.19502209205E+02 -0.10635191246E+02 -0.34395359153E+01  0.22478297623E+02  0.00000000000E+00 0.  1.
         12    1    5    5    0    0  0.53718372369E+02 -0.14588026084E+03  0.26256321910E+02  0.15765820142E+03  0.00000000000E+00 0. -1.
        -13    1    3    3    0    0  0.22156983229E+02 -0.46813948785E+01  0.17064189807E+03  0.17213803979E+03  0.00000000000E+00 0.  1.
         14    1    3    3    0    0 -0.72979684954E+02 -0.41070085915E+02  0.66410403351E+03  0.66936309556E+03  0.00000000000E+00 0. -1.
          5    1    4    4  501    0  0.23425434786E+02  0.16510085597E+02 -0.98103591097E+02  0.10231196659E+03  0.47000000000E+01 0.  1.
         -5    1    4    4    0  501 -0.21155306472E+02  0.69567922240E+02  0.94098250896E+01  0.73470249795E+02  0.47000000000E+01 0.  1.
          1    1    1    2  502    0  0.28397357328E+02  0.32450360978E+02 -0.20423331655E+03  0.20873591790E+03  0.00000000000E+00 0. -1.
          1    1    1    2  503    0 -0.14060947081E+02  0.83738564066E+02  0.65742016231E+03  0.66288092985E+03  0.00000000000E+00 0. -1.
<mgrwt>
<rscale>  0 0.60632608E+02</rscale>
<asrwt>0</asrwt>
<pdfrwt beam="1">  1        2 0.24199209E+00 0.85255402E+02</pdfrwt>
<pdfrwt beam="2">  1        2 0.62278008E-01 0.43121176E+02</pdfrwt>
<totfact> 0.17005879E+02</totfact>
</mgrwt>
</event>
<event>
13    1  0.1675423E-008  0.2715791E+03  0.7546771E-02  0.1215624E+00
          2   -1    0    0  502    0  0.00000000000E+00  0.00000000000E+00  0.15584974279E+04  0.15584974279E+04  0.00000000000E+00 0. -1.
          2   -1    0    0  503    0 -0.00000000000E+00 -0.00000000000E+00 -0.14132066020E+04  0.14132066020E+04  0.00000000000E+00 0. -1.
         24    2    1    2    0    0 -0.30111541652E+03 -0.25208644484E+03  0.76398147796E+03  0.86294802953E+03  0.82422892829E+02 0.  0.
         25    2    1    2    0    0 -0.16175353521E+03  0.50184889354E+03 -0.16352821037E+03  0.56602341404E+03  0.12499804623E+03 0.  0.
         24    2    1    2    0    0  0.21376532991E+03 -0.14443670333E+03 -0.80822535668E+02  0.28213901610E+03  0.80700462138E+02 0.  0.
        -11    1    5    5    0    0  0.20632878066E+03 -0.14528384538E+03 -0.92078863689E+02  0.26862144106E+03  0.00000000000E+00 0.  1.
         12    1    5    5    0    0  0.74365492505E+01  0.84714204413E+00  0.11256328022E+02  0.13517575039E+02  0.00000000000E+00 0. -1.
        -13    1    3    3    0    0 -0.22455717571E+03 -0.13804971223E+03  0.51825587521E+03  0.58144028103E+03  0.00000000000E+00 0.  1.
         14    1    3    3    0    0 -0.76558240815E+02 -0.11403673261E+03  0.24572560275E+03  0.28150774850E+03  0.00000000000E+00 0. -1.
          5    1    4    4  501    0 -0.10076112210E+03  0.43108499313E+03 -0.10282529066E+03  0.45451315210E+03  0.47000000000E+01 0.  1.
         -5    1    4    4    0  501 -0.60992413106E+02  0.70763900401E+02 -0.60702919717E+02  0.11151026194E+03  0.47000000000E+01 0.  1.
          1    1    1    2  502    0  0.26960215050E+03 -0.37938301476E+02  0.39955688099E+03  0.48349802008E+03  0.00000000000E+00 0. -1.
          1    1    1    2  503    0 -0.20498528677E+02 -0.67387443882E+02 -0.77389678699E+03  0.77709555023E+03  0.00000000000E+00 0. -1.
<mgrwt>
<rscale>  0 0.13830762E+03</rscale>
<asrwt>0</asrwt>
<pdfrwt beam="1">  1        2 0.22919080E+00 0.27157909E+03</pdfrwt>
<pdfrwt beam="2">  1        2 0.20782450E+00 0.70436193E+02</pdfrwt>
<totfact> 0.39251383E+01</totfact>
</mgrwt>
</event>
<event>
13    1  0.1675423E-008  0.1928777E+03  0.7546771E-02  0.1301627E+00
          2   -1    0    0  503    0  0.00000000000E+00  0.00000000000E+00  0.10261752931E+04  0.10261752931E+04  0.00000000000E+00 0. -1.
          2   -1    0    0  502    0 -0.00000000000E+00 -0.00000000000E+00 -0.30465715649E+04  0.30465715649E+04  0.00000000000E+00 0. -1.
         24    2    1    2    0    0  0.74810539845E+02 -0.15257140160E+03  0.94610061156E+02  0.21135700934E+03  0.82740995086E+02 0.  0.
         25    2    1    2    0    0  0.31584002157E+03  0.80314572644E+02 -0.27958905631E+03  0.44720569209E+03  0.12497015973E+03 0.  0.
         24    2    1    2    0    0 -0.11653647096E+03 -0.42947672742E+02 -0.20876936876E+02  0.14967918151E+03  0.80887324263E+02 0.  0.
        -11    1    5    5    0    0 -0.98637542222E+02 -0.65880388466E+02 -0.21664893150E+02  0.12057760122E+03  0.00000000000E+00 0.  1.
         12    1    5    5    0    0 -0.17898928741E+02  0.22932715724E+02  0.78795627461E+00  0.29101580295E+02  0.00000000000E+00 0. -1.
        -13    1    3    3    0    0  0.56710688040E+02 -0.15596090948E+03  0.68792005082E+02  0.17964478113E+03  0.00000000000E+00 0.  1.
         14    1    3    3    0    0  0.18099851804E+02  0.33895078747E+01  0.25818056075E+02  0.31712228216E+02  0.00000000000E+00 0. -1.
          5    1    4    4  501    0  0.22391738925E+03  0.11335142432E+03 -0.20829092092E+03  0.32618206624E+03  0.47000000000E+01 0.  1.
         -5    1    4    4    0  501  0.91922632328E+02 -0.33036851675E+02 -0.71298135394E+02  0.12102362585E+03  0.47000000000E+01 0.  1.
          1    1    1    2  502    0 -0.36776578713E+02  0.21242713390E+02 -0.25168691548E+04  0.25172274653E+04  0.00000000000E+00 0. -1.
          1    1    1    2  503    0 -0.23733751174E+03  0.93961788313E+02  0.70232881501E+03  0.74727750972E+03  0.00000000000E+00 0. -1.
<mgrwt>
<rscale>  0 0.90507850E+02</rscale>
<asrwt>0</asrwt>
<pdfrwt beam="1">  1        2 0.15090813E+00 0.19287767E+03</pdfrwt>
<pdfrwt beam="2">  1        2 0.44802523E+00 0.42470809E+02</pdfrwt>
<totfact> 0.13479755E+01</totfact>
</mgrwt>
</event>
<event>
13    1  0.1675423E-008  0.6979819E+02  0.7546771E-02  0.1382849E+00
         -3   -1    0    0    0  502 -0.00000000000E+00  0.00000000000E+00  0.82775607869E+03  0.82775607869E+03  0.00000000000E+00 0.  1.
         -1   -1    0    0    0  501  0.00000000000E+00 -0.00000000000E+00 -0.17740501887E+04  0.17740501887E+04  0.00000000000E+00 0.  1.
         24    2    1    2    0    0  0.17605222146E+02 -0.14251332141E+03 -0.17788416634E+03  0.24156080228E+03  0.78031108771E+02 0.  0.
         25    2    1    2    0    0  0.89287869999E+01  0.21132642477E+03  0.25617411826E+02  0.24702525675E+03  0.12500657840E+03 0.  0.
         24    2    1    2    0    0 -0.10221893783E+02  0.19646735155E+02  0.53256520802E+03  0.53649201934E+03  0.60889282378E+02 0.  0.
        -13    1    5    5    0    0 -0.32921511434E+02  0.70865590821E+01  0.39980872740E+03  0.40122445556E+03  0.00000000000E+00 0.  1.
         14    1    5    5    0    0  0.22699617651E+02  0.12560176072E+02  0.13275648062E+03  0.13526756378E+03  0.00000000000E+00 0. -1.
        -13    1    3    3    0    0  0.13508596481E+01 -0.88427216712E+01  0.80189521043E+01  0.12013415051E+02  0.00000000000E+00 0.  1.
         14    1    3    3    0    0  0.16254362498E+02 -0.13367059974E+03 -0.18590311844E+03  0.22954738723E+03  0.00000000000E+00 0. -1.
          5    1    4    4  503    0  0.49952824756E+01  0.21958027506E+03  0.45767535807E+02  0.22440411622E+03  0.47000000000E+01 0. -1.
         -5    1    4    4    0  503  0.39335045244E+01 -0.82538502934E+01 -0.20150123981E+02  0.22621140532E+02  0.47000000000E+01 0. -1.
         -2    1    1    2    0  501  0.34726625211E+02 -0.60547844987E+02 -0.14440070873E+04  0.14456930684E+04  0.00000000000E+00 0.  1.
         -4    1    1    2    0  502 -0.51038740574E+02 -0.27911993526E+02  0.11741452378E+03  0.13103512055E+03  0.00000000000E+00 0.  1.
<mgrwt>
<rscale>  0 0.63720725E+02</rscale>
<asrwt>0</asrwt>
<pdfrwt beam="2">  1       -1 0.26088973E+00 0.69798191E+02</pdfrwt>
<pdfrwt beam="1">  1       -3 0.12172883E+00 0.58172437E+02</pdfrwt>
<totfact> 0.20448101E-01</totfact>
</mgrwt>
</event>
<event>
13    1  0.1675423E-008  0.1432655E+03  0.7546771E-02  0.1402016E+00
          2   -1    0    0  503    0  0.00000000000E+00  0.00000000000E+00  0.15375238552E+04  0.15375238552E+04  0.00000000000E+00 0. -1.
          2   -1    0    0  502    0 -0.00000000000E+00 -0.00000000000E+00 -0.12079327999E+04  0.12079327999E+04  0.00000000000E+00 0. -1.
         24    2    1    2    0    0  0.16542024146E+02  0.37094915770E+02  0.41946277188E+03  0.42910341943E+03  0.80814950603E+02 0.  0.
         25    2    1    2    0    0  0.14589481959E+03  0.46302276287E+02 -0.71604656474E+03  0.74281706679E+03  0.12500125063E+03 0.  0.
         24    2    1    2    0    0  0.59510071499E+02 -0.48273223059E+02 -0.98415361256E+02  0.14683791717E+03  0.77485727150E+02 0.  0.
        -13    1    5    5    0    0 -0.44385497864E+01 -0.42595967131E+02 -0.26173051440E+02  0.50191092454E+02  0.00000000000E+00 0.  1.
         14    1    5    5    0    0  0.63948621285E+02 -0.56772559273E+01 -0.72242309817E+02  0.96646824711E+02  0.00000000000E+00 0. -1.
        -13    1    3    3    0    0  0.38987081754E+02  0.49031147729E+02  0.33836124531E+03  0.34411099709E+03  0.00000000000E+00 0.  1.
         14    1    3    3    0    0 -0.22445057607E+02 -0.11936231959E+02  0.81101526571E+02  0.84992422347E+02  0.00000000000E+00 0. -1.
          5    1    4    4  501    0  0.14649989854E+03  0.30981587624E+02 -0.41276380633E+03  0.43911061119E+03  0.47000000000E+01 0. -1.
         -5    1    4    4    0  501 -0.60507894929E+00  0.15320688664E+02 -0.30328275841E+03  0.30370645560E+03  0.47000000000E+01 0. -1.
          1    1    1    2  502    0  0.22693201823E+02 -0.87155454053E+01 -0.33653779141E+03  0.33741462207E+03  0.00000000000E+00 0. -1.
          1    1    1    2  503    0 -0.24464011705E+03 -0.26408423593E+02  0.10611280008E+04  0.10892836297E+04  0.00000000000E+00 0. -1.
<mgrwt>
<rscale>  0 0.59014272E+02</rscale>
<asrwt>0</asrwt>
<pdfrwt beam="1">  1        2 0.22610645E+00 0.14326550E+03</pdfrwt>
<pdfrwt beam="2">  1        2 0.17763718E+00 0.24309302E+02</pdfrwt>
<totfact> 0.57426837E+01</totfact>
</mgrwt>
</event>
<event>
13    1  0.1675423E-008  0.1028960E+03  0.7546771E-02  0.1363890E+00
          2   -1    0    0  503    0  0.00000000000E+00  0.00000000000E+00  0.65120596690E+03  0.65120596690E+03  0.00000000000E+00 0. -1.
         -1   -1    0    0    0  501 -0.00000000000E+00 -0.00000000000E+00 -0.23615847960E+04  0.23615847960E+04  0.00000000000E+00 0.  1.
         24    2    1    2    0    0 -0.10076770700E+02 -0.82729684214E+02  0.20172787159E+03  0.23215599725E+03  0.79098235915E+02 0.  0.
         25    2    1    2    0    0 -0.83108666324E+02  0.11103725379E+03 -0.11073661422E+04  0.11229961907E+04  0.12499739680E+03 0.  0.
         24    2    1    2    0    0  0.13445998572E+03  0.11885139416E+02  0.53344964416E+02  0.16582728669E+03  0.80201368348E+02 0.  0.
        -13    1    5    5    0    0  0.45120884918E+02  0.24311840088E+02 -0.14149556324E+02  0.53171136610E+02  0.00000000000E+00 0.  1.
         14    1    5    5    0    0  0.89339100801E+02 -0.12426700672E+02  0.67494520740E+02  0.11265615008E+03  0.00000000000E+00 0. -1.
        -13    1    3    3    0    0 -0.31457650550E+02 -0.85173178592E+02  0.17983996314E+03  0.20146083111E+03  0.00000000000E+00 0.  1.
         14    1    3    3    0    0  0.21380879850E+02  0.24434943778E+01  0.21887908443E+02  0.30695166133E+02  0.00000000000E+00 0. -1.
          5    1    4    4  502    0 -0.81868711053E+02  0.89651258282E+02 -0.10846025244E+04  0.10913865309E+04  0.47000000000E+01 0. -1.
         -5    1    4    4    0  502 -0.12399552706E+01  0.21385995507E+02 -0.22763617787E+02  0.31609659721E+02  0.47000000000E+01 0. -1.
          1    1    1    2  503    0 -0.80107625250E+02 -0.65091511790E+02  0.30798877082E+03  0.32482490589E+03  0.00000000000E+00 0. -1.
         -2    1    1    2    0  501  0.38833076554E+02  0.24898802800E+02 -0.11660742938E+04  0.11669863824E+04  0.00000000000E+00 0.  1.
<mgrwt>
<rscale>  0 0.68895362E+02</rscale>
<asrwt>0</asrwt>
<pdfrwt beam="1">  1        2 0.95765584E-01 0.10289598E+03</pdfrwt>
<pdfrwt beam="2">  1       -1 0.34729188E+00 0.46129797E+02</pdfrwt>
<totfact> 0.14331405E+00</totfact>
</mgrwt>
</event>
<event>
13    1  0.1675423E-008  0.1004121E+03  0.7546771E-02  0.1294483E+00
          2   -1    0    0  502    0  0.00000000000E+00  0.00000000000E+00  0.15877305489E+04  0.15877305489E+04  0.00000000000E+00 0. -1.
          2   -1    0    0  503    0 -0.00000000000E+00 -0.00000000000E+00 -0.11398951029E+04  0.11398951029E+04  0.00000000000E+00 0. -1.
         24    2    1    2    0    0  0.96874199162E+02  0.10252920847E+03  0.31648799756E+03  0.35612657516E+03  0.82247406506E+02 0.  0.
         25    2    1    2    0    0 -0.20373846432E+03 -0.77064780285E+02 -0.39702027908E+03  0.46978411563E+03  0.12499468427E+03 0.  0.
         24    2    1    2    0    0  0.13097802102E+02  0.51907628492E+02  0.69743141146E+02  0.11856331088E+03  0.79543690099E+02 0.  0.
        -11    1    5    5    0    0 -0.19794084707E+02 -0.11837321941E+02  0.97039637895E+01  0.25021888285E+02  0.00000000000E+00 0.  1.
         12    1    5    5    0    0  0.32891886810E+02  0.63744950433E+02  0.60039177357E+02  0.93541422596E+02  0.00000000000E+00 0. -1.
        -11    1    3    3    0    0  0.61035695883E+02  0.96166723081E+02  0.28862755411E+03  0.31028899399E+03  0.00000000000E+00 0.  1.
         12    1    3    3    0    0  0.35838503279E+02  0.63624853933E+01  0.27860443453E+02  0.45837581165E+02  0.00000000000E+00 0. -1.
          5    1    4    4  501    0 -0.14538522771E+03 -0.36774102812E+02 -0.14772215274E+03  0.21055432430E+03  0.47000000000E+01 0. -1.
         -5    1    4    4    0  501 -0.58353236615E+02 -0.40290677473E+02 -0.24929812634E+03  0.25922979133E+03  0.47000000000E+01 0. -1.
          1    1    1    2  502    0  0.28865972495E+02 -0.13553710309E+03  0.11137080856E+04  0.11222964184E+04  0.00000000000E+00 0. -1.
          1    1    1    2  503    0  0.64900490565E+02  0.58165046406E+02 -0.65508349929E+03  0.66085523176E+03  0.00000000000E+00 0. -1.
<mgrwt>
<rscale>  0 0.93546726E+02</rscale>
<asrwt>0</asrwt>
<pdfrwt beam="1">  1        2 0.23348979E+00 0.10041215E+03</pdfrwt>
<pdfrwt beam="2">  1        2 0.16763163E+00 0.87150710E+02</pdfrwt>
<totfact> 0.55827924E+01</totfact>
</mgrwt>
</event>
<event>
13    1  0.1675423E-008  0.1222701E+03  0.7546771E-02  0.1264428E+00
         -1   -1    0    0    0  501 -0.00000000000E+00  0.00000000000E+00  0.45429220889E+03  0.45429220889E+03  0.00000000000E+00 0.  1.
          2   -1    0    0  503    0  0.00000000000E+00 -0.00000000000E+00 -0.38462168979E+04  0.38462168979E+04  0.00000000000E+00 0. -1.
         24    2    1    2    0    0 -0.94365118185E+02  0.11355558838E+03 -0.14843197848E+04  0.14937907509E+04  0.80037094885E+02 0.  0.
         25    2    1    2    0    0  0.22868599350E+03 -0.27241392993E+03 -0.57334289447E+03  0.68618778468E+03  0.12499987344E+03 0.  0.
         24    2    1    2    0    0  0.39198948594E+02 -0.11703019300E+02 -0.20124544968E+01  0.93031605857E+02  0.83530302786E+02 0.  0.
        -11    1    5    5    0    0  0.38835661400E+02  0.21400936732E+02  0.24461891434E+02  0.50641809031E+02  0.00000000000E+00 0.  1.
         12    1    5    5    0    0  0.36328719402E+00 -0.33103956031E+02 -0.26474345930E+02  0.42389796826E+02  0.00000000000E+00 0. -1.
        -13    1    3    3    0    0 -0.95329678626E+02  0.69455487727E+02 -0.88097108999E+03  0.88883174662E+03  0.00000000000E+00 0.  1.
         14    1    3    3    0    0  0.96456044143E+00  0.44100100649E+02 -0.60334869485E+03  0.60495900426E+03  0.00000000000E+00 0. -1.
          5    1    4    4  502    0  0.21084111650E+03 -0.17277478209E+03 -0.37714083189E+03  0.46536265301E+03  0.47000000000E+01 0.  1.
         -5    1    4    4    0  502  0.17844876995E+02 -0.99639147835E+02 -0.19620206258E+03  0.22082513167E+03  0.47000000000E+01 0.  1.
          1    1    1    2  503    0 -0.92336575126E+02  0.75681225705E+02 -0.16664554227E+04  0.16707265985E+04  0.00000000000E+00 0. -1.
         -2    1    1    2    0  501 -0.81183248779E+02  0.94880135145E+02  0.33420586748E+03  0.35677236691E+03  0.00000000000E+00 0.  1.
<mgrwt>
<rscale>  0 0.10794241E+03</rscale>
<asrwt>0</asrwt>
<pdfrwt beam="2">  1        2 0.56562012E+00 0.12227010E+03</pdfrwt>
<pdfrwt beam="1">  1       -1 0.66807679E-01 0.95293645E+02</pdfrwt>
<totfact> 0.24857825E+00</totfact>
</mgrwt>
</event>
<event>
13    1  0.1675423E-008  0.5999077E+02  0.7546771E-02  0.1519920E+00
         -1   -1    0    0    0  501 -0.00000000000E+00  0.00000000000E+00  0.19391047534E+03  0.19391047534E+03  0.00000000000E+00 0.  1.
          2   -1    0    0  503    0  0.00000000000E+00 -0.00000000000E+00 -0.26093374212E+04  0.26093374212E+04  0.00000000000E+00 0. -1.
         24    2    1    2    0    0  0.18302327970E+03 -0.35751818405E+02 -0.91116413810E+03  0.93338401798E+03  0.78803077612E+02 0.  0.
         25    2    1    2    0    0 -0.12743143125E+03  0.87513066052E+02 -0.27863903910E+03  0.34228869763E+03  0.12499812804E+03 0.  0.
         24    2    1    2    0    0 -0.37405765357E+02 -0.80832885293E+01 -0.50100872365E+02  0.10378682728E+03  0.82444388958E+02 0.  0.
        -11    1    3    3    0    0  0.14373238677E+02 -0.30468213593E+02 -0.14594291795E+03  0.14978063069E+03  0.00000000000E+00 0.  1.
         12    1    3    3    0    0  0.16865004103E+03 -0.52836048116E+01 -0.76522122015E+03  0.78360338730E+03  0.00000000000E+00 0. -1.
        -13    1    5    5    0    0  0.24592334455E+02 -0.55997600408E+01 -0.28568419614E+02  0.38108986154E+02  0.00000000000E+00 0.  1.
         14    1    5    5    0    0 -0.61998099812E+02 -0.24835284885E+01 -0.21532452751E+02  0.65677841130E+02  0.00000000000E+00 0. -1.
          5    1    4    4  502    0 -0.10286672776E+03  0.43664708951E+02 -0.80462673285E+02  0.13778425991E+03  0.47000000000E+01 0.  1.
         -5    1    4    4    0  502 -0.24564703491E+02  0.43848357102E+02 -0.19817636581E+03  0.20450443771E+03  0.47000000000E+01 0.  1.
          1    1    1    2  503    0  0.24601063468E+02 -0.14989588403E+01 -0.12922611715E+04  0.12924961875E+04  0.00000000000E+00 0. -1.
         -2    1    1    2    0  501 -0.42787146564E+02 -0.42179000278E+02  0.11673827527E+03  0.13129216613E+03  0.00000000000E+00 0.  1.
<mgrwt>
<rscale>  0 0.38452228E+02</rscale>
<asrwt>0</asrwt>
<pdfrwt beam="2">  1        2 0.38372605E+00 0.24646687E+02</pdfrwt>
<pdfrwt beam="1">  1       -1 0.28516249E-01 0.59990772E+02</pdfrwt>
<totfact> 0.70417121E+01</totfact>
</mgrwt>
</event>
<event>
13    1  0.1675423E-008  0.1422661E+03  0.7546771E-02  0.1243671E+00
          2   -1    0    0  502    0  0.00000000000E+00  0.00000000000E+00  0.25842666437E+04  0.25842666437E+04  0.00000000000E+00 0. -1.
          2   -1    0    0  503    0 -0.00000000000E+00 -0.00000000000E+00 -0.39159398076E+03  0.39159398076E+03  0.00000000000E+00 0. -1.
         24    2    1    2    0    0  0.43207599521E+02 -0.97872502694E+02  0.17678786559E+03  0.22198271557E+03  0.81095333746E+02 0.  0.
         25    2    1    2    0    0  0.45797896867E+02  0.15891609491E+02 -0.12946676189E+03  0.18636848960E+03  0.12498632274E+03 0.  0.
         24    2    1    2    0    0  0.34439314710E+02  0.48951575486E+02  0.18523098054E+03  0.21084298459E+03  0.81005708811E+02 0.  0.
        -11    1    5    5    0    0 -0.21495744379E+02 -0.59648618400E+01  0.42952059149E+02  0.48399648639E+02  0.00000000000E+00 0.  1.
         12    1    5    5    0    0  0.55935059089E+02  0.54916437326E+02  0.14227892139E+03  0.16244333596E+03  0.00000000000E+00 0. -1.
        -13    1    3    3    0    0 -0.21566816297E+02 -0.73966052803E+01  0.34474448535E+02  0.41331887649E+02  0.00000000000E+00 0.  1.
         14    1    3    3    0    0  0.64774415817E+02 -0.90475897413E+02  0.14231341705E+03  0.18065082793E+03  0.00000000000E+00 0. -1.
          5    1    4    4  501    0  0.76901923840E+02 -0.19786052648E+02 -0.10812964729E+03  0.13423674755E+03  0.47000000000E+01 0. -1.
         -5    1    4    4    0  501 -0.31104026972E+02  0.35677662139E+02 -0.21337114594E+02  0.52131742047E+02  0.47000000000E+01 0. -1.
          1    1    1    2  502    0 -0.22165467051E+03  0.54982908476E+02  0.21391425904E+04  0.21512984300E+04  0.00000000000E+00 0. -1.
          1    1    1    2  503    0  0.98209859408E+02 -0.21953590760E+02 -0.17902201172E+03  0.20536800460E+03  0.00000000000E+00 0. -1.
<mgrwt>
<rscale>  0 0.11965265E+03</rscale>
<asrwt>0</asrwt>
<pdfrwt beam="1">  1        2 0.38003920E+00 0.14226606E+03</pdfrwt>
<pdfrwt beam="2">  1        2 0.57587351E-01 0.10063368E+03</pdfrwt>
<totfact> 0.60591921E+01</totfact>
</mgrwt>
</event>
<event>
13    1  0.1675423E-008  0.4077746E+02  0.7546771E-02  0.1603265E+00
          2   -1    0    0  502    0  0.00000000000E+00  0.00000000000E+00  0.28913658373E+04  0.28913658373E+04  0.00000000000E+00 0. -1.
          2   -1    0    0  503    0 -0.00000000000E+00 -0.00000000000E+00 -0.16659582834E+03  0.16659582834E+03  0.00000000000E+00 0. -1.
         24    2    1    2    0    0 -0.49316547577E+02 -0.13697673210E+03  0.13928608444E+04  0.14028082884E+04  0.81332744532E+02 0.  0.
         25    2    1    2    0    0 -0.10509335359E+03 -0.18910525422E+02 -0.65975735792E+01  0.16453670547E+03  0.12500631397E+03 0.  0.
         24    2    1    2    0    0  0.12819206728E+03  0.13689884856E+03  0.92010800031E+03  0.94251135749E+03  0.80959409070E+02 0.  0.
        -11    1    5    5    0    0  0.30118736596E+02  0.10009422997E+02  0.63158387142E+02  0.70684571932E+02  0.00000000000E+00 0.  1.
         12    1    5    5    0    0  0.98073330683E+02  0.12688942556E+03  0.85694961317E+03  0.87182678556E+03  0.00000000000E+00 0. -1.
        -13    1    3    3    0    0 -0.46448163766E+01 -0.74058147435E+02  0.97950796704E+03  0.98231463443E+03  0.00000000000E+00 0.  1.
         14    1    3    3    0    0 -0.44671731201E+02 -0.62918584670E+02  0.41335287731E+03  0.42049365399E+03  0.00000000000E+00 0. -1.
          5    1    4    4  501    0 -0.68609049067E+01  0.41742946147E+02  0.18315667136E+02  0.46336802132E+02  0.47000000000E+01 0. -1.
         -5    1    4    4    0  501 -0.98232448681E+02 -0.60653471570E+02 -0.24913240716E+02  0.11819990334E+03  0.47000000000E+01 0. -1.
          1    1    1    2  502    0  0.15838621769E+02  0.37696934941E+02  0.48059543079E+03  0.48233172085E+03  0.00000000000E+00 0. -1.
          1    1    1    2  503    0  0.10379212116E+02 -0.18708525975E+02 -0.62196692882E+02  0.65773593438E+02  0.00000000000E+00 0. -1.
<mgrwt>
<rscale>  0 0.29536845E+02</rscale>
<asrwt>0</asrwt>
<pdfrwt beam="1">  1        2 0.42520083E+00 0.40777465E+02</pdfrwt>
<pdfrwt beam="2">  1        2 0.24499388E-01 0.21394789E+02</pdfrwt>
<totfact> 0.11869279E+02</totfact>
</mgrwt>
</event>
<event>
13    1  0.1675423E-008  0.6425032E+02  0.7546771E-02  0.1460377E+00
          2   -1    0    0  503    0  0.00000000000E+00  0.00000000000E+00  0.32882426310E+04  0.32882426310E+04  0.00000000000E+00 0. -1.
         -3   -1    0    0    0  501 -0.00000000000E+00 -0.00000000000E+00 -0.21214056132E+04  0.21214056132E+04  0.00000000000E+00 0.  1.
         24    2    1    2    0    0 -0.38783811995E+03 -0.12213229932E+04 -0.93385880645E+02  0.12869605315E+04  0.74150023389E+02 0.  0.
         25    2    1    2    0    0  0.20096696771E+03  0.10508190478E+04  0.14277411061E+03  0.10865623608E+04  0.12499969510E+03 0.  0.
         24    2    1    2    0    0  0.16995854098E+03  0.13815709985E+03  0.10623055161E+04  0.10876292536E+04  0.80443108589E+02 0.  0.
        -11    1    5    5    0    0  0.13249480131E+03  0.13820520844E+03  0.95415183544E+03  0.97317073378E+03  0.00000000000E+00 0.  1.
         12    1    5    5    0    0  0.37463739674E+02 -0.48108582259E-01  0.10815368069E+03  0.11445851979E+03  0.00000000000E+00 0. -1.
        -13    1    3    3    0    0 -0.27180198758E+03 -0.86952406936E+03 -0.99786962370E+02  0.91646378298E+03  0.00000000000E+00 0.  1.
         14    1    3    3    0    0 -0.11603613237E+03 -0.35179892380E+03  0.64010817250E+01  0.37049674850E+03  0.00000000000E+00 0. -1.
          5    1    4    4  502    0  0.45443980535E+02  0.15705684582E+03 -0.20286155729E+02  0.16481998150E+03  0.47000000000E+01 0.  1.
         -5    1    4    4    0  502  0.15552298718E+03  0.89376220201E+03  0.16306026634E+03  0.92174237926E+03  0.47000000000E+01 0.  1.
          1    1    1    2  503    0  0.28196751211E+01  0.64215828223E+02  0.10004673158E+04  0.10025300360E+04  0.00000000000E+00 0. -1.
         -4    1    1    2    0  501  0.14092936133E+02 -0.31868982750E+02 -0.94532404405E+03  0.94596606238E+03  0.00000000000E+00 0.  1.
<mgrwt>
<rscale>  0 0.47316655E+02</rscale>
<asrwt>0</asrwt>
<pdfrwt beam="1">  1        2 0.48356509E+00 0.64250319E+02</pdfrwt>
<pdfrwt beam="2">  1       -3 0.31197141E+00 0.34845988E+02</pdfrwt>
<totfact> 0.60289012E-02</totfact>
</mgrwt>
</event>
<event>
13    1  0.1675423E-008  0.8361579E+02  0.7546771E-02  0.1325304E+00
          2   -1    0    0  503    0  0.00000000000E+00  0.00000000000E+00  0.43290801731E+04  0.43290801731E+04  0.00000000000E+00 0. -1.
          2   -1    0    0  502    0 -0.00000000000E+00 -0.00000000000E+00 -0.11547606695E+04  0.11547606695E+04  0.00000000000E+00 0. -1.
         24    2    1    2    0    0 -0.62840924364E+02  0.14469030937E+03  0.57055145041E+03  0.59715606455E+03  0.78626588793E+02 0.  0.
         25    2    1    2    0    0  0.12481622118E+02 -0.51293706800E+02 -0.32032884539E+03  0.34788253272E+03  0.12499940856E+03 0.  0.
         24    2    1    2    0    0 -0.27591220836E+02 -0.24868212331E+02 -0.56707471739E+01  0.87796777537E+02  0.79349942158E+02 0.  0.
        -11    1    5    5    0    0 -0.49279423047E+02  0.27071116954E+00 -0.17877020394E+02  0.52422539795E+02  0.00000000000E+00 0.  1.
         12    1    5    5    0    0  0.21688202211E+02 -0.25138923500E+02  0.12206273220E+02  0.35374237742E+02  0.00000000000E+00 0. -1.
        -11    1    3    3    0    0 -0.75430294865E+02  0.10125763313E+03  0.35162309187E+03  0.37360625849E+03  0.00000000000E+00 0.  1.
         12    1    3    3    0    0  0.12589370501E+02  0.43432676244E+02  0.21892835854E+03  0.22354980606E+03  0.00000000000E+00 0. -1.
          5    1    4    4  501    0 -0.27020660746E+02  0.49257935666E+01 -0.24193066742E+03  0.24353011597E+03  0.47000000000E+01 0. -1.
         -5    1    4    4    0  501  0.39502282864E+02 -0.56219500366E+02 -0.78398177969E+02  0.10435241675E+03  0.47000000000E+01 0. -1.
          1    1    1    2  502    0  0.29526826172E+00 -0.83668193685E+02 -0.75789241049E+03  0.76249679323E+03  0.00000000000E+00 0. -1.
          1    1    1    2  503    0  0.77655254821E+02  0.15139803447E+02  0.36876600562E+04  0.36885086746E+04  0.00000000000E+00 0. -1.
<mgrwt>
<rscale>  0 0.81335467E+02</rscale>
<asrwt>0</asrwt>
<pdfrwt beam="1">  1        2 0.63662943E+00 0.79117332E+02</pdfrwt>
<pdfrwt beam="2">  1        2 0.16981775E+00 0.83615789E+02</pdfrwt>
<totfact> 0.17305142E+00</totfact>
</mgrwt>
</event>
<event>
13    1  0.1675423E-008  0.1560514E+03  0.7546771E-02  0.1355745E+00
          2   -1    0    0  502    0  0.00000000000E+00  0.00000000000E+00  0.20625721475E+04  0.20625721475E+04  0.00000000000E+00 0. -1.
          2   -1    0    0  503    0 -0.00000000000E+00 -0.00000000000E+00 -0.18557082409E+04  0.18557082409E+04  0.00000000000E+00 0. -1.
         24    2    1    2    0    0 -0.10531123592E+03 -0.26575994928E+03  0.44468631500E+03  0.53508137428E+03  0.82748723884E+02 0.  0.
         25    2    1    2    0    0  0.34240693307E+03  0.43088238474E+03  0.44611461252E+02  0.56614323329E+03  0.12500336329E+03 0.  0.
         24    2    1    2    0    0 -0.40978905389E+02 -0.33705215180E+02 -0.28127453319E+03  0.29767158302E+03  0.81717171391E+02 0.  0.
        -13    1    5    5    0    0 -0.49113660285E+02 -0.47966247552E+02 -0.14521138535E+03  0.16062147728E+03  0.00000000000E+00 0.  1.
         14    1    5    5    0    0  0.81347548951E+01  0.14261032372E+02 -0.13606314785E+03  0.13705010574E+03  0.00000000000E+00 0. -1.
        -13    1    3    3    0    0 -0.32767288973E+02 -0.26676820184E+02  0.33425992728E+02  0.53876200233E+02  0.00000000000E+00 0.  1.
         14    1    3    3    0    0 -0.72543946943E+02 -0.23908312909E+03  0.41126032227E+03  0.48120517405E+03  0.00000000000E+00 0. -1.
          5    1    4    4  501    0  0.76551689741E+02  0.13167267583E+03  0.64261676019E+02  0.16537686588E+03  0.47000000000E+01 0. -1.
         -5    1    4    4    0  501  0.26585524333E+03  0.29920970891E+03 -0.19650214767E+02  0.40076636742E+03  0.47000000000E+01 0. -1.
          1    1    1    2  502    0 -0.17670178146E+02 -0.27362556248E+02  0.12504343701E+04  0.12508585286E+04  0.00000000000E+00 0. -1.
          1    1    1    2  503    0 -0.17844661362E+03 -0.10405466403E+03 -0.12515937066E+04  0.12685256692E+04  0.00000000000E+00 0. -1.
<mgrwt>
<rscale>  0 0.71294654E+02</rscale>
<asrwt>0</asrwt>
<pdfrwt beam="1">  1        2 0.30331944E+00 0.32572146E+02</pdfrwt>
<pdfrwt beam="2">  1        2 0.27289827E+00 0.15605136E+03</pdfrwt>
<totfact> 0.15612629E+01</totfact>
</mgrwt>
</event>
<event>
13    1  0.1675423E-008  0.5791157E+02  0.7546771E-02  0.1438961E+00
          2   -1    0    0  502    0  0.00000000000E+00  0.00000000000E+00  0.13960943240E+04  0.13960943240E+04  0.00000000000E+00 0. -1.
          2   -1    0    0  503    0 -0.00000000000E+00 -0.00000000000E+00 -0.20010004143E+04  0.20010004143E+04  0.00000000000E+00 0. -1.
         24    2    1    2    0    0  0.68615397498E+03 -0.54520226930E+02  0.26856370920E+02  0.69357160376E+03  0.80873805173E+02 0.  0.
         25    2    1    2    0    0 -0.44014619423E+03  0.68381047182E+02 -0.33091927510E+03  0.56880305856E+03  0.12499885154E+03 0.  0.
         24    2    1    2    0    0 -0.18444044975E+03 -0.19306145515E+01  0.47105208945E+02  0.20934149791E+03  0.87080165720E+02 0.  0.
        -11    1    3    3    0    0  0.47429993201E+03 -0.33405500032E+02  0.55686947096E+02  0.47872475287E+03  0.00000000000E+00 0.  1.
         12    1    3    3    0    0  0.21185404297E+03 -0.21114726898E+02 -0.28830576177E+02  0.21484685089E+03  0.00000000000E+00 0. -1.
        -11    1    5    5    0    0 -0.18213411541E+03 -0.22243257211E+02  0.43658557810E+02  0.18860983049E+03  0.00000000000E+00 0.  1.
         12    1    5    5    0    0 -0.23063343355E+01  0.20312642660E+02  0.34466511347E+01  0.20731667418E+02  0.00000000000E+00 0. -1.
          5    1    4    4  501    0 -0.13660534369E+03  0.80798731578E+02 -0.11104119719E+03  0.19375678678E+03  0.47000000000E+01 0. -1.
         -5    1    4    4    0  501 -0.30354085054E+03 -0.12417684396E+02 -0.21987807791E+03  0.37504627178E+03  0.47000000000E+01 0. -1.
          1    1    1    2  502    0 -0.28195646721E+02  0.35418129980E+02  0.78732642451E+03  0.78862686814E+03  0.00000000000E+00 0. -1.
          1    1    1    2  503    0 -0.33371684277E+02 -0.47348335680E+02 -0.11352748196E+04  0.11367517100E+04  0.00000000000E+00 0. -1.
<mgrwt>
<rscale>  0 0.51202525E+02</rscale>
<asrwt>0</asrwt>
<pdfrwt beam="1">  1        2 0.20530799E+00 0.45270724E+02</pdfrwt>
<pdfrwt beam="2">  1        2 0.29426477E+00 0.57911567E+02</pdfrwt>
<totfact> 0.28929585E+01</totfact>
</mgrwt>
</event>
<event>
13    1  0.1675423E-008  0.1552532E+03  0.7546771E-02  0.1288735E+00
          4   -1    0    0  503    0 -0.00000000000E+00  0.00000000000E+00  0.56688643261E+03  0.56688643261E+03  0.00000000000E+00 0. -1.
          2   -1    0    0  502    0  0.00000000000E+00 -0.00000000000E+00 -0.12343895019E+04  0.12343895019E+04  0.00000000000E+00 0. -1.
         24    2    1    2    0    0 -0.25500618983E+02  0.42577884100E+02 -0.21935342673E+03  0.23867199951E+03  0.79907695179E+02 0.  0.
         25    2    1    2    0    0  0.23585132344E+03 -0.38703575144E+02 -0.28900851876E+02  0.27123215088E+03  0.12493120880E+03 0.  0.
         24    2    1    2    0    0 -0.69057624788E+02 -0.32481449882E+02 -0.19599944412E+03  0.22525207709E+03  0.80614614125E+02 0.  0.
        -11    1    5    5    0    0 -0.50197557600E+01 -0.41955301966E+02 -0.49465721413E+02  0.65056151945E+02  0.00000000000E+00 0.  1.
         12    1    5    5    0    0 -0.64037869028E+02  0.94738520847E+01 -0.14653372271E+03  0.16019592514E+03  0.00000000000E+00 0. -1.
        -11    1    3    3    0    0  0.28866085683E+02  0.19165734206E+02 -0.89057064310E+02  0.95560122299E+02  0.00000000000E+00 0.  1.
         12    1    3    3    0    0 -0.54366704666E+02  0.23412149895E+02 -0.13029636242E+03  0.14311187721E+03  0.00000000000E+00 0. -1.
          5    1    4    4  501    0  0.22102848938E+03 -0.70324600347E+02 -0.12407695052E+02  0.23232559788E+03  0.47000000000E+01 0.  1.
         -5    1    4    4    0  501  0.14822834062E+02  0.31621025203E+02 -0.16493156824E+02  0.38906553002E+02  0.47000000000E+01 0.  1.
          1    1    1    2  502    0 -0.18297242308E+02 -0.56590574095E+02 -0.62995958978E+03  0.63276090817E+03  0.00000000000E+00 0. -1.
          3    1    1    2  503    0 -0.12299583737E+03  0.85197715021E+02  0.40671024319E+03  0.43335879888E+03  0.00000000000E+00 0. -1.
<mgrwt>
<rscale>  0 0.96092101E+02</rscale>
<asrwt>0</asrwt>
<pdfrwt beam="2">  1        2 0.18152787E+00 0.59475055E+02</pdfrwt>
<pdfrwt beam="1">  1        4 0.83365653E-01 0.15525319E+03</pdfrwt>
<totfact> 0.15238493E+01</totfact>
</mgrwt>
</event>
<event>
13    1  0.1675423E-008  0.6219260E+02  0.7546771E-02  0.1465004E+00
          2   -1    0    0  503    0  0.00000000000E+00  0.00000000000E+00  0.27922917537E+04  0.27922917537E+04  0.00000000000E+00 0. -1.
          2   -1    0    0  502    0 -0.00000000000E+00 -0.00000000000E+00 -0.14437370973E+04  0.14437370973E+04  0.00000000000E+00 0. -1.
         24    2    1    2    0    0 -0.74186750056E+02  0.92777380698E+02  0.65788287324E+03  0.67325138061E+03  0.79663230820E+02 0.  0.
         25    2    1    2    0    0  0.85934399535E+02  0.11351505448E+03  0.34909975749E+01  0.18949284973E+03  0.12499985767E+03 0.  0.
         24    2    1    2    0    0 -0.68517294828E+01 -0.12729255523E+03 -0.40748876067E+03  0.43482450147E+03  0.82309879065E+02 0.  0.
        -11    1    5    5    0    0 -0.37177863400E+02 -0.42989030014E+02 -0.10561724800E+03  0.11993853969E+03  0.00000000000E+00 0.  1.
         12    1    5    5    0    0  0.30326133917E+02 -0.84303525218E+02 -0.30187151267E+03  0.31488596178E+03  0.00000000000E+00 0. -1.
        -13    1    3    3    0    0 -0.32833481263E+01 -0.92057197444E+01  0.15309095903E+03  0.15340263162E+03  0.00000000000E+00 0.  1.
         14    1    3    3    0    0 -0.70903401930E+02  0.10198310044E+03  0.50479191421E+03  0.51984874899E+03  0.00000000000E+00 0. -1.
          5    1    4    4  501    0 -0.13684586301E+02  0.47671695299E+02 -0.38355156702E+02  0.62873416327E+02  0.47000000000E+01 0. -1.
         -5    1    4    4    0  501  0.99618985835E+02  0.65843359184E+02  0.41846154277E+02  0.12661943340E+03  0.47000000000E+01 0. -1.
          1    1    1    2  502    0  0.22765872402E+02 -0.57862169621E+02 -0.92069631522E+03  0.92279359582E+03  0.00000000000E+00 0. -1.
          1    1    1    2  503    0 -0.27661792397E+02 -0.21137710329E+02  0.20153658615E+04  0.20156665233E+04  0.00000000000E+00 0. -1.
<mgrwt>
<rscale>  0 0.46531067E+02</rscale>
<asrwt>0</asrwt>
<pdfrwt beam="1">  1        2 0.41063114E+00 0.34813468E+02</pdfrwt>
<pdfrwt beam="2">  1        2 0.21231428E+00 0.62192603E+02</pdfrwt>
<totfact> 0.12070085E+01</totfact>
</mgrwt>
</event>
<event>
13    1  0.1675423E-008  0.1214018E+03  0.7546771E-02  0.1324989E+00
          2   -1    0    0  503    0  0.00000000000E+00  0.00000000000E+00  0.14294785756E+04  0.14294785756E+04  0.00000000000E+00 0. -1.
          2   -1    0    0  502    0 -0.00000000000E+00 -0.00000000000E+00 -0.10215976510E+04  0.10215976510E+04  0.00000000000E+00 0. -1.
         24    2    1    2    0    0  0.22390957669E+03  0.13322758718E+02  0.21215389464E+03  0.31879304400E+03  0.79414957372E+02 0.  0.
         25    2    1    2    0    0  0.96685585450E+01 -0.16823375064E+03 -0.46492138899E+03  0.51007203998E+03  0.12500204859E+03 0.  0.
         24    2    1    2    0    0 -0.33958367945E+03  0.87707412483E+02 -0.15459900110E+03  0.39166600892E+03  0.80571371145E+02 0.  0.
        -13    1    5    5    0    0 -0.31883091536E+03  0.10159927758E+03 -0.13995652105E+03  0.36271668500E+03  0.00000000000E+00 0.  1.
         14    1    5    5    0    0 -0.20752764091E+02 -0.13891865098E+02 -0.14642480048E+02  0.28949323917E+02  0.00000000000E+00 0. -1.
        -13    1    3    3    0    0  0.55703618928E+02  0.28237350441E+02  0.26536901466E+02  0.67856084923E+02  0.00000000000E+00 0.  1.
         14    1    3    3    0    0  0.16820595776E+03 -0.14914591722E+02  0.18561699318E+03  0.25093695908E+03  0.00000000000E+00 0. -1.
          5    1    4    4  501    0  0.50644015451E+02 -0.15173591197E+03 -0.30948926960E+03  0.34841684987E+03  0.47000000000E+01 0. -1.
         -5    1    4    4    0  501 -0.40975456906E+02 -0.16497838674E+02 -0.15543211939E+03  0.16165519010E+03  0.47000000000E+01 0. -1.
          1    1    1    2  502    0 -0.14559202212E+02  0.52669203521E+02 -0.20037290142E+03  0.20769043067E+03  0.00000000000E+00 0. -1.
          1    1    1    2  503    0  0.12056474643E+03  0.14534375918E+02  0.10156203215E+04  0.10228547030E+04  0.00000000000E+00 0. -1.
<mgrwt>
<rscale>  0 0.81448978E+02</rscale>
<asrwt>0</asrwt>
<pdfrwt beam="1">  1        2 0.21021744E+00 0.12140184E+03</pdfrwt>
<pdfrwt beam="2">  1        2 0.15023495E+00 0.54644445E+02</pdfrwt>
<totfact> 0.78452764E+01</totfact>
</mgrwt>
</event>
<event>
13    1  0.1675423E-008  0.1454796E+03  0.7546771E-02  0.1260523E+00
          2   -1    0    0  502    0  0.00000000000E+00  0.00000000000E+00  0.21778099705E+04  0.21778099705E+04  0.00000000000E+00 0. -1.
          2   -1    0    0  503    0 -0.00000000000E+00 -0.00000000000E+00 -0.19638348351E+04  0.19638348351E+04  0.00000000000E+00 0. -1.
         24    2    1    2    0    0  0.41575120312E+02  0.63259002060E+01  0.43530601951E+03  0.44459338354E+03  0.80021487265E+02 0.  0.
         25    2    1    2    0    0  0.11366214810E+03 -0.21697961555E+03  0.50306519239E+03  0.57332222805E+03  0.12499820760E+03 0.  0.
         24    2    1    2    0    0  0.32062574163E+02  0.74378820930E+02 -0.36321522412E+03  0.38004457097E+03  0.77125606787E+02 0.  0.
        -13    1    3    3    0    0  0.51075857392E+00  0.78715644274E+01  0.34810951047E+03  0.34819887087E+03  0.00000000000E+00 0.  1.
         14    1    3    3    0    0  0.41064361738E+02 -0.15456642214E+01  0.87196509046E+02  0.96394512669E+02  0.00000000000E+00 0. -1.
        -13    1    5    5    0    0  0.20817660918E+02  0.64958616764E+02 -0.13402304006E+03  0.15038341719E+03  0.00000000000E+00 0.  1.
         14    1    5    5    0    0  0.11244913245E+02  0.94202041662E+01 -0.22919218406E+03  0.22966115378E+03  0.00000000000E+00 0. -1.
          5    1    4    4  501    0  0.23228605231E+02  0.97791909644E+01  0.89059309421E+02  0.92676055545E+02  0.47000000000E+01 0.  1.
         -5    1    4    4    0  501  0.90433542873E+02 -0.22675880651E+03  0.41400588297E+03  0.48064617250E+03  0.47000000000E+01 0.  1.
          1    1    1    2  502    0 -0.96453002697E+02  0.30874510250E+02  0.11859713708E+04  0.11902875743E+04  0.00000000000E+00 0. -1.
          1    1    1    2  503    0 -0.90846839883E+02  0.10540038416E+03 -0.15471522232E+04  0.15533970488E+04  0.00000000000E+00 0. -1.
<mgrwt>
<rscale>  0 0.11002553E+03</rscale>
<asrwt>0</asrwt>
<pdfrwt beam="1">  1        2 0.32026617E+00 0.83211767E+02</pdfrwt>
<pdfrwt beam="2">  1        2 0.28879924E+00 0.14547963E+03</pdfrwt>
<totfact> 0.10987113E+01</totfact>
</mgrwt>
</event>
<event>
13    1  0.2217923E-008  0.1093770E+03  0.7546771E-02  0.1373260E+00
          2   -1    0    0  503    0  0.00000000000E+00  0.00000000000E+00  0.31715943121E+04  0.31715943121E+04  0.00000000000E+00 0. -1.
          2   -1    0    0  502    0 -0.00000000000E+00 -0.00000000000E+00 -0.26909164553E+04  0.26909164553E+04  0.00000000000E+00 0. -1.
         24    2    1    2    0    0  0.48080788197E+01  0.15709813271E+02  0.22917883988E+04  0.22932605719E+04  0.80498881815E+02 0.  0.
         25    2    1    2    0    0  0.13013230851E+02 -0.10939579104E+03 -0.37164043636E+03  0.40728138504E+03  0.12499891757E+03 0.  0.
         24    2    1    2    0    0  0.19149694252E+02  0.44695576569E+01  0.33680826644E+02  0.88401795832E+02  0.79333420998E+02 0.  0.
        -11    1    3    3    0    0  0.24005406846E+02 -0.26504585850E+02  0.10254614495E+04  0.10260847611E+04  0.00000000000E+00 0.  1.
         12    1    3    3    0    0 -0.19197328026E+02  0.42214399121E+02  0.12663269493E+04  0.12671758107E+04  0.00000000000E+00 0. -1.
        -13    1    5    5    0    0  0.38054005492E+02 -0.22168583302E+02  0.34157221409E+02  0.55733914217E+02  0.00000000000E+00 0.  1.
         14    1    5    5    0    0 -0.18904311240E+02  0.26638140959E+02 -0.47639476547E+00  0.32667881614E+02  0.00000000000E+00 0. -1.
          5    1    4    4  501    0 -0.23088696520E+02 -0.62310812570E+02 -0.58880224873E+02  0.88908358163E+02  0.47000000000E+01 0. -1.
         -5    1    4    4    0  501  0.36101927371E+02 -0.47084978465E+02 -0.31276021149E+03  0.31837302688E+03  0.47000000000E+01 0. -1.
          1    1    1    2  502    0  0.25893137162E+02 -0.30686500945E+02 -0.22674537684E+04  0.22678092309E+04  0.00000000000E+00 0. -1.
          1    1    1    2  503    0 -0.62864141085E+02  0.11990292105E+03  0.79430283611E+03  0.80575778381E+03  0.00000000000E+00 0. -1.
<mgrwt>
<rscale>  0 0.66269245E+02</rscale>
<asrwt>0</asrwt>
<pdfrwt beam="1">  1        2 0.46641093E+00 0.10937698E+03</pdfrwt>
<pdfrwt beam="2">  1        2 0.39572301E+00 0.40151163E+02</pdfrwt>
<totfact> 0.17194128E+00</totfact>
</mgrwt>
</event>
<event>
13    1  0.1860022E-008  0.1139940E+03  0.7546771E-02  0.1352240E+00
          2   -1    0    0  503    0  0.00000000000E+00  0.00000000000E+00  0.22717746167E+04  0.22717746167E+04  0.00000000000E+00 0. -1.
          2   -1    0    0  502    0 -0.00000000000E+00 -0.00000000000E+00 -0.17973628437E+04  0.17973628437E+04  0.00000000000E+00 0. -1.
         24    2    1    2    0    0 -0.97066084180E+02  0.63540834167E+02  0.73319429838E+03  0.74668725659E+03  0.80676624072E+02 0.  0.
         25    2    1    2    0    0  0.75088927406E+02  0.91258798758E+02 -0.14673786759E+04  0.14774272498E+04  0.12499833790E+03 0.  0.
         24    2    1    2    0    0 -0.14022592847E+02 -0.36722998856E+01  0.10461864287E+03  0.13318644173E+03  0.81138455292E+02 0.  0.
        -11    1    5    5    0    0 -0.32406151764E+02  0.28092822853E+02  0.38836921889E+02  0.57859069037E+02  0.00000000000E+00 0.  1.
         12    1    5    5    0    0  0.18383558917E+02 -0.31765122738E+02  0.65781720986E+02  0.75327372693E+02  0.00000000000E+00 0. -1.
        -13    1    3    3    0    0 -0.64341160157E+01  0.24168142235E+02  0.35221064403E+03  0.35309748614E+03  0.00000000000E+00 0.  1.
         14    1    3    3    0    0 -0.90631968164E+02  0.39372691932E+02  0.38098365435E+03  0.39358977045E+03  0.00000000000E+00 0. -1.
          5    1    4    4  501    0  0.69507404452E+02  0.24746726282E+02 -0.33442387821E+03  0.34249832124E+03  0.47000000000E+01 0.  1.
         -5    1    4    4    0  501  0.55815229540E+01  0.66512072476E+02 -0.11329547977E+04  0.11349289285E+04  0.47000000000E+01 0.  1.
          1    1    1    2  502    0 -0.44369714273E+02 -0.11887919360E+02 -0.29757192051E+03  0.30109639993E+03  0.00000000000E+00 0. -1.
          1    1    1    2  503    0  0.80369463894E+02 -0.13923941368E+03  0.14015494282E+04  0.14107401124E+04  0.00000000000E+00 0. -1.
<mgrwt>
<rscale>  0 0.72362135E+02</rscale>
<asrwt>0</asrwt>
<pdfrwt beam="1">  1        2 0.33408450E+00 0.11399403E+03</pdfrwt>
<pdfrwt beam="2">  1        2 0.26431807E+00 0.45934673E+02</pdfrwt>
<totfact> 0.12846595E+01</totfact>
</mgrwt>
</event>
<event>
13    1  0.1675423E-008  0.8395111E+02  0.7546771E-02  0.1344725E+00
          2   -1    0    0  502    0  0.00000000000E+00  0.00000000000E+00  0.14684061024E+04  0.14684061024E+04  0.00000000000E+00 0. -1.
          2   -1    0    0  503    0 -0.00000000000E+00 -0.00000000000E+00 -0.19078628925E+04  0.19078628925E+04  0.00000000000E+00 0. -1.
         24    2    1    2    0    0 -0.16842649298E+02 -0.14910872292E+03  0.13085733616E+03  0.21464270440E+03  0.80192032280E+02 0.  0.
         25    2    1    2    0    0  0.63635119048E+02  0.33274085144E+02 -0.73929372863E+03  0.75321767354E+03  0.12500021367E+03 0.  0.
         24    2    1    2    0    0  0.40934746427E+02  0.39416689201E+02 -0.21752976143E+03  0.23925885019E+03  0.81830748691E+02 0.  0.
        -11    1    5    5    0    0 -0.21516848423E+02  0.25814924560E+02 -0.53071022910E+02  0.62816546935E+02  0.00000000000E+00 0.  1.
         12    1    5    5    0    0  0.62451594850E+02  0.13601764641E+02 -0.16445873852E+03  0.17644230325E+03  0.00000000000E+00 0. -1.
        -11    1    3    3    0    0 -0.77167703955E+00 -0.13032419822E+03  0.67789196041E+02  0.14690257734E+03  0.00000000000E+00 0.  1.
         12    1    3    3    0    0 -0.16070972259E+02 -0.18784524697E+02  0.63068140116E+02  0.67740127068E+02  0.00000000000E+00 0. -1.
          5    1    4    4  501    0  0.86509027172E+01  0.62827456697E+02 -0.18982023924E+03  0.20018976162E+03  0.47000000000E+01 0. -1.
         -5    1    4    4    0  501  0.54984216330E+02 -0.29553371553E+02 -0.54947348939E+03  0.55302791192E+03  0.47000000000E+01 0. -1.
          1    1    1    2  502    0 -0.45119704337E+01  0.66359181767E+02  0.12749901385E+04  0.12767238355E+04  0.00000000000E+00 0. -1.
          1    1    1    2  503    0 -0.83215245743E+02  0.10058766808E+02 -0.88848077466E+03  0.89242593129E+03  0.00000000000E+00 0. -1.
<mgrwt>
<rscale>  0 0.74724760E+02</rscale>
<asrwt>0</asrwt>
<pdfrwt beam="1">  1        2 0.21594208E+00 0.66512396E+02</pdfrwt>
<pdfrwt beam="2">  1        2 0.28056807E+00 0.83951113E+02</pdfrwt>
<totfact> 0.27556431E+01</totfact>
</mgrwt>
</event>
<event>
13    1  0.1675423E-008  0.1731279E+03  0.7546771E-02  0.1339223E+00
          2   -1    0    0  503    0  0.00000000000E+00  0.00000000000E+00  0.23718036835E+04  0.23718036835E+04  0.00000000000E+00 0. -1.
          2   -1    0    0  502    0 -0.00000000000E+00 -0.00000000000E+00 -0.61417748098E+03  0.61417748098E+03  0.00000000000E+00 0. -1.
         24    2    1    2    0    0 -0.40194403860E+03 -0.52962317353E+03  0.63020864311E+03  0.92126415663E+03  0.97493570756E+02 0.  0.
         25    2    1    2    0    0  0.32503626903E+03  0.59405486916E+03  0.47810909465E+03  0.83830952612E+03  0.12499916574E+03 0.  0.
         24    2    1    2    0    0  0.24583636699E+03 -0.73443669700E+02  0.30625747782E+01  0.26880267622E+03  0.80099983905E+02 0.  0.
        -13    1    5    5    0    0  0.17679304991E+03 -0.83147952312E+02  0.21866020722E+02  0.19658964198E+03  0.00000000000E+00 0.  1.
         14    1    5    5    0    0  0.69043317080E+02  0.97042826124E+01 -0.18803445944E+02  0.72213034238E+02  0.00000000000E+00 0. -1.
        -13    1    3    3    0    0 -0.25519872845E+03 -0.25763830508E+03  0.35403449389E+03  0.50679809600E+03  0.00000000000E+00 0.  1.
         14    1    3    3    0    0 -0.14674531015E+03 -0.27198486846E+03  0.27617414922E+03  0.41446606063E+03  0.00000000000E+00 0. -1.
          5    1    4    4  501    0  0.11270249050E+03  0.13535017085E+03  0.73814960342E+02  0.19102947020E+03  0.47000000000E+01 0.  1.
         -5    1    4    4    0  501  0.21233377853E+03  0.45870469831E+03  0.40429413431E+03  0.64728005592E+03  0.47000000000E+01 0.  1.
          1    1    1    2  502    0 -0.17157744341E+03 -0.24706260151E+02 -0.10692706951E+03  0.20367281746E+03  0.00000000000E+00 0. -1.
          1    1    1    2  503    0  0.26488459792E+01  0.33718234229E+02  0.75317295947E+03  0.75393198803E+03  0.00000000000E+00 0. -1.
<mgrwt>
<rscale>  0 0.76521579E+02</rscale>
<asrwt>0</asrwt>
<pdfrwt beam="1">  1        2 0.34879466E+00 0.33822119E+02</pdfrwt>
<pdfrwt beam="2">  1        2 0.90320218E-01 0.17312789E+03</pdfrwt>
<totfact> 0.56756370E+01</totfact>
</mgrwt>
</event>
<event>
13    1  0.1675423E-008  0.1039940E+03  0.7546771E-02  0.1337762E+00
          2   -1    0    0  503    0  0.00000000000E+00  0.00000000000E+00  0.10913427258E+04  0.10913427258E+04  0.00000000000E+00 0. -1.
          2   -1    0    0  502    0 -0.00000000000E+00 -0.00000000000E+00 -0.13380820440E+04  0.13380820440E+04  0.00000000000E+00 0. -1.
         24    2    1    2    0    0  0.17397618745E+03 -0.12126412379E+02  0.21220846658E+03  0.28575849893E+03  0.78808138836E+02 0.  0.
         25    2    1    2    0    0 -0.11509265828E+03  0.64221364378E+02 -0.21078910424E+03  0.27825784941E+03  0.12499872264E+03 0.  0.
         24    2    1    2    0    0 -0.21299847420E+02 -0.86726264201E+01 -0.30230698956E+02  0.89685425903E+02  0.81244584502E+02 0.  0.
        -11    1    5    5    0    0 -0.45596810294E+02 -0.66763840303E+01 -0.42236645693E+02  0.62510618715E+02  0.00000000000E+00 0.  1.
         12    1    5    5    0    0  0.24296962875E+02 -0.19962423898E+01  0.12005946737E+02  0.27174807187E+02  0.00000000000E+00 0. -1.
        -11    1    3    3    0    0  0.18168759789E+03 -0.14468061769E+02  0.19594774583E+03  0.26761021493E+03  0.00000000000E+00 0.  1.
         12    1    3    3    0    0 -0.77114104434E+01  0.23416493909E+01  0.16260720745E+02  0.18148283997E+02  0.00000000000E+00 0. -1.
          5    1    4    4  501    0 -0.99521818545E+02  0.61528838543E+02 -0.69835142316E+02  0.13634305058E+03  0.47000000000E+01 0.  1.
         -5    1    4    4    0  501 -0.15570839735E+02  0.26925258353E+01 -0.14095396193E+03  0.14191479884E+03  0.47000000000E+01 0.  1.
          1    1    1    2  502    0  0.57022251534E+02  0.60686935981E+00 -0.99250841760E+03  0.99414529344E+03  0.00000000000E+00 0. -1.
          1    1    1    2  503    0 -0.94605933284E+02 -0.44029194939E+02  0.77458043602E+03  0.78157770214E+03  0.00000000000E+00 0. -1.
<mgrwt>
<rscale>  0 0.77008483E+02</rscale>
<asrwt>0</asrwt>
<pdfrwt beam="1">  1        2 0.16049158E+00 0.10399398E+03</pdfrwt>
<pdfrwt beam="2">  1        2 0.19677677E+00 0.57025481E+02</pdfrwt>
<totfact> 0.81429626E+01</totfact>
</mgrwt>
</event>
<event>
13    1  0.1675423E-008  0.1759715E+03  0.7546771E-02  0.1261237E+00
          2   -1    0    0  503    0  0.00000000000E+00  0.00000000000E+00  0.14634409746E+04  0.14634409746E+04  0.00000000000E+00 0. -1.
          2   -1    0    0  502    0 -0.00000000000E+00 -0.00000000000E+00 -0.14014617058E+04  0.14014617058E+04  0.00000000000E+00 0. -1.
         24    2    1    2    0    0 -0.85526836578E+02  0.85573577803E+01  0.11172542323E+03  0.16221466620E+03  0.80268048349E+02 0.  0.
         25    2    1    2    0    0  0.30592479128E+03  0.17765383348E+03 -0.45391063901E+03  0.58890752637E+03  0.12500537562E+03 0.  0.
         24    2    1    2    0    0 -0.89635840987E+02 -0.12882237322E+03 -0.10015829632E+03  0.20297435658E+03  0.80852441371E+02 0.  0.
        -11    1    3    3    0    0 -0.75940917297E+01  0.26760479563E+02  0.62103638728E+02  0.68048919454E+02  0.00000000000E+00 0.  1.
         12    1    3    3    0    0 -0.77932744848E+02 -0.18203121783E+02  0.49621784504E+02  0.94165746743E+02  0.00000000000E+00 0. -1.
        -13    1    5    5    0    0  0.28269852156E+01 -0.64008779170E+01 -0.36016207176E+02  0.36689647898E+02  0.00000000000E+00 0.  1.
         14    1    5    5    0    0 -0.92462826202E+02 -0.12242149530E+03 -0.64142089140E+02  0.16628470868E+03  0.00000000000E+00 0. -1.
          5    1    4    4  501    0  0.30807704551E+03  0.14345172233E+03 -0.40049059498E+03  0.52526628416E+03  0.47000000000E+01 0. -1.
         -5    1    4    4    0  501 -0.21522542258E+01  0.34202111151E+02 -0.53420044030E+02  0.63641242206E+02  0.47000000000E+01 0. -1.
          1    1    1    2  502    0  0.22718284539E+02  0.64424076229E+02 -0.69360389743E+03  0.69695978978E+03  0.00000000000E+00 0. -1.
          1    1    1    2  503    0 -0.15348039826E+03 -0.12181289427E+03  0.11979266783E+04  0.12138463414E+04  0.00000000000E+00 0. -1.
<mgrwt>
<rscale>  0 0.10964048E+03</rscale>
<asrwt>0</asrwt>
<pdfrwt beam="1">  1        2 0.21521191E+00 0.17597151E+03</pdfrwt>
<pdfrwt beam="2">  1        2 0.20609731E+00 0.68312386E+02</pdfrwt>
<totfact> 0.46023310E+01</totfact>
</mgrwt>
</event>
<event>
13    1  0.1675423E-008  0.1567432E+03  0.7546771E-02  0.1263944E+00
          2   -1    0    0  502    0  0.00000000000E+00  0.00000000000E+00  0.19467450531E+04  0.19467450531E+04  0.00000000000E+00 0. -1.
          2   -1    0    0  503    0 -0.00000000000E+00 -0.00000000000E+00 -0.23139032605E+04  0.23139032605E+04  0.00000000000E+00 0. -1.
         24    2    1    2    0    0 -0.13412135122E+03 -0.54144291470E+03  0.15028588834E+03  0.58318538689E+03  0.79814663481E+02 0.  0.
         25    2    1    2    0    0 -0.30311450290E+02  0.66156981083E+02  0.15399192887E+03  0.21126324313E+03  0.12499245408E+03 0.  0.
         24    2    1    2    0    0  0.34977014191E+03  0.44460147791E+03 -0.87206893194E+03  0.10448906805E+04  0.10621998801E+03 0.  0.
        -13    1    3    3    0    0 -0.22514647137E+02 -0.91359543174E+02  0.57524571845E+02  0.11028395999E+03  0.00000000000E+00 0.  1.
         14    1    3    3    0    0 -0.11160670408E+03 -0.45008337153E+03  0.92761316497E+02  0.47290142690E+03  0.00000000000E+00 0. -1.
        -13    1    5    5    0    0  0.24609539631E+03  0.31555378734E+03 -0.52275024927E+03  0.65833499064E+03  0.00000000000E+00 0.  1.
         14    1    5    5    0    0  0.10367474560E+03  0.12904769057E+03 -0.34931868267E+03  0.38655568988E+03  0.00000000000E+00 0. -1.
          5    1    4    4  501    0 -0.18778387922E+02 -0.25448660970E+02  0.98223091406E+02  0.10329631108E+03  0.47000000000E+01 0.  1.
         -5    1    4    4    0  501 -0.11533062368E+02  0.91605642053E+02  0.55768837463E+02  0.10796693205E+03  0.47000000000E+01 0.  1.
          1    1    1    2  502    0 -0.15235010823E+03 -0.36323303460E+02  0.13050273445E+04  0.13143919916E+04  0.00000000000E+00 0. -1.
          1    1    1    2  503    0 -0.32987232174E+02  0.67007759169E+02 -0.11043944371E+04  0.11069170114E+04  0.00000000000E+00 0. -1.
<mgrwt>
<rscale>  0 0.10819766E+03</rscale>
<asrwt>0</asrwt>
<pdfrwt beam="1">  1        2 0.28628604E+00 0.15674323E+03</pdfrwt>
<pdfrwt beam="2">  1        2 0.34027989E+00 0.74687330E+02</pdfrwt>
<totfact> 0.96871266E+00</totfact>
</mgrwt>
</event>
<event>
13    1  0.1675423E-008  0.1002210E+03  0.7546771E-02  0.1287571E+00
          2   -1    0    0  503    0  0.00000000000E+00  0.00000000000E+00  0.15695587949E+04  0.15695587949E+04  0.00000000000E+00 0. -1.
          2   -1    0    0  502    0 -0.00000000000E+00 -0.00000000000E+00 -0.12531994252E+04  0.12531994252E+04  0.00000000000E+00 0. -1.
         24    2    1    2    0    0  0.99879987688E+02  0.46910862799E+02  0.31045562083E+03  0.33914798187E+03  0.80386691110E+02 0.  0.
         25    2    1    2    0    0 -0.53404025195E+02 -0.65403996034E+02  0.10933076219E+03  0.18628930924E+03  0.12498327317E+03 0.  0.
         24    2    1    2    0    0 -0.47315418440E+02  0.10357345643E+02 -0.22840404399E+03  0.24774545163E+03  0.82845507186E+02 0.  0.
        -11    1    5    5    0    0  0.12466775400E+02  0.29687875776E+02 -0.61745078976E+02  0.69636522276E+02  0.00000000000E+00 0.  1.
         12    1    5    5    0    0 -0.59782193840E+02 -0.19330530133E+02 -0.16665896502E+03  0.17810892935E+03  0.00000000000E+00 0. -1.
        -13    1    3    3    0    0  0.40071697519E+02 -0.21002979469E+02  0.86925588056E+02  0.97994509783E+02  0.00000000000E+00 0.  1.
         14    1    3    3    0    0  0.59808290168E+02  0.67913842267E+02  0.22353003278E+03  0.24115347208E+03  0.00000000000E+00 0. -1.
          5    1    4    4  501    0 -0.11506905297E+02 -0.97133283333E+02  0.67165172058E+02  0.11874566913E+03  0.47000000000E+01 0.  1.
         -5    1    4    4    0  501 -0.41897119897E+02  0.31729287299E+02  0.42165590132E+02  0.67543640110E+02  0.47000000000E+01 0.  1.
          1    1    1    2  502    0  0.19125176173E+02 -0.91161405231E+02 -0.95769080520E+03  0.96220987967E+03  0.00000000000E+00 0. -1.
          1    1    1    2  503    0 -0.18285720226E+02  0.99297192824E+02  0.10826678359E+04  0.10873655977E+04  0.00000000000E+00 0. -1.
<mgrwt>
<rscale>  0 0.96618739E+02</rscale>
<asrwt>0</asrwt>
<pdfrwt beam="1">  1        2 0.23081747E+00 0.10022097E+03</pdfrwt>
<pdfrwt beam="2">  1        2 0.18429403E+00 0.93145983E+02</pdfrwt>
<totfact> 0.49454304E+01</totfact>
</mgrwt>
</event>
<event>
13    1  0.1675423E-008  0.9814953E+02  0.7546771E-02  0.1390887E+00
          2   -1    0    0  502    0  0.00000000000E+00  0.00000000000E+00  0.26478283192E+04  0.26478283192E+04  0.00000000000E+00 0. -1.
          2   -1    0    0  503    0 -0.00000000000E+00 -0.00000000000E+00 -0.29075697967E+04  0.29075697967E+04  0.00000000000E+00 0. -1.
         24    2    1    2    0    0 -0.17707638774E+02  0.64930837702E+02  0.89249491037E+03  0.89841828950E+03  0.77965913879E+02 0.  0.
         25    2    1    2    0    0  0.16226156603E+03 -0.15774165584E+02 -0.17073879126E+02  0.20614590388E+03  0.12500790466E+03 0.  0.
         24    2    1    2    0    0 -0.17707042543E+02  0.24340216894E+02  0.51988008350E+03  0.52697257116E+03  0.80739110849E+02 0.  0.
        -11    1    5    5    0    0  0.13537547186E+02 -0.74373279096E+01  0.37671798364E+03  0.37703450536E+03  0.00000000000E+00 0.  1.
         12    1    5    5    0    0 -0.31244589728E+02  0.31777544804E+02  0.14316209986E+03  0.14993806581E+03  0.00000000000E+00 0. -1.
        -13    1    3    3    0    0 -0.86025439304E+01 -0.17690464807E+02  0.14963978521E+03  0.15092720637E+03  0.00000000000E+00 0.  1.
         14    1    3    3    0    0 -0.91050948439E+01  0.82621302509E+02  0.74285512516E+03  0.74749108313E+03  0.00000000000E+00 0. -1.
          5    1    4    4  501    0  0.15557256876E+03  0.21804051129E+02  0.12460210049E+02  0.15765654959E+03  0.47000000000E+01 0.  1.
         -5    1    4    4    0  501  0.66889972786E+01 -0.37578216713E+02 -0.29534089175E+02  0.48489354288E+02  0.47000000000E+01 0.  1.
          1    1    1    2  502    0 -0.91703634404E+02 -0.57124718364E+02  0.11317017992E+04  0.11368472863E+04  0.00000000000E+00 0. -1.
          1    1    1    2  503    0 -0.35143250314E+02 -0.16372170649E+02 -0.27867443914E+04  0.27870140651E+04  0.00000000000E+00 0. -1.
<mgrwt>
<rscale>  0 0.61686594E+02</rscale>
<asrwt>0</asrwt>
<pdfrwt beam="1">  1        2 0.38938652E+00 0.98149530E+02</pdfrwt>
<pdfrwt beam="2">  1        2 0.42758379E+00 0.38769782E+02</pdfrwt>
<totfact> 0.25926003E+00</totfact>
</mgrwt>
</event>
<event>
13    1  0.1675423E-008  0.8872676E+02  0.7546771E-02  0.1374373E+00
          2   -1    0    0  503    0  0.00000000000E+00  0.00000000000E+00  0.15145372750E+04  0.15145372750E+04  0.00000000000E+00 0. -1.
          2   -1    0    0  502    0 -0.00000000000E+00 -0.00000000000E+00 -0.25753576055E+04  0.25753576055E+04  0.00000000000E+00 0. -1.
         24    2    1    2    0    0  0.27525705942E+02 -0.28982908849E+02  0.41013851183E+03  0.42018131111E+03  0.82103969586E+02 0.  0.
         25    2    1    2    0    0 -0.22470548928E+02 -0.18900420702E+02 -0.63019317300E+03  0.64314188214E+03  0.12500357513E+03 0.  0.
         24    2    1    2    0    0  0.29144985034E+02 -0.35220666910E+02  0.71246849558E+02  0.11736574022E+03  0.81293775136E+02 0.  0.
        -13    1    3    3    0    0 -0.15123719903E+02  0.17100071762E+02  0.55242838455E+02  0.59773828374E+02  0.00000000000E+00 0.  1.
         14    1    3    3    0    0  0.42649425845E+02 -0.46082980612E+02  0.35489567338E+03  0.36040748273E+03  0.00000000000E+00 0. -1.
        -13    1    5    5    0    0  0.25058934010E+02 -0.59449420241E+02  0.34498140912E+02  0.73159452343E+02  0.00000000000E+00 0.  1.
         14    1    5    5    0    0  0.40860510248E+01  0.24228753332E+02  0.36748708645E+02  0.44206287879E+02  0.00000000000E+00 0. -1.
          5    1    4    4  501    0 -0.40585241758E+02  0.21669910632E+02 -0.90779839083E+02  0.10188138230E+03  0.47000000000E+01 0. -1.
         -5    1    4    4    0  501  0.18114692831E+02 -0.40570331334E+02 -0.53941333391E+03  0.54126049984E+03  0.47000000000E+01 0. -1.
          1    1    1    2  502    0 -0.43418262607E+02 -0.22808423214E+02 -0.19074635597E+04  0.19080939707E+04  0.00000000000E+00 0. -1.
          1    1    1    2  503    0  0.92181205582E+01  0.10591241968E+03  0.99545104075E+03  0.10011119762E+04  0.00000000000E+00 0. -1.
<mgrwt>
<rscale>  0 0.65966397E+02</rscale>
<asrwt>0</asrwt>
<pdfrwt beam="1">  1        2 0.22272607E+00 0.88726756E+02</pdfrwt>
<pdfrwt beam="2">  1        2 0.37872906E+00 0.49044568E+02</pdfrwt>
<totfact> 0.13109287E+01</totfact>
</mgrwt>
</event>
<event>
13    1  0.1675423E-008  0.1180710E+03  0.7546771E-02  0.1390690E+00
          2   -1    0    0  503    0  0.00000000000E+00  0.00000000000E+00  0.47536354041E+03  0.47536354041E+03  0.00000000000E+00 0. -1.
          2   -1    0    0  502    0 -0.00000000000E+00 -0.00000000000E+00 -0.10967929840E+04  0.10967929840E+04  0.00000000000E+00 0. -1.
         24    2    1    2    0    0 -0.98125465620E+02 -0.14738164596E+03 -0.34339906691E+03  0.39466447094E+03  0.80542963075E+02 0.  0.
         25    2    1    2    0    0  0.88479831357E+01  0.11230025645E+03  0.35516199108E+02  0.17198312665E+03  0.12500864390E+03 0.  0.
         24    2    1    2    0    0 -0.52041454014E+01 -0.39842503224E+02 -0.75097533904E+02  0.12103389994E+03  0.85994518102E+02 0.  0.
        -11    1    3    3    0    0 -0.90718791068E+02 -0.11372582991E+03 -0.20079643788E+03  0.24795699810E+03  0.00000000000E+00 0.  1.
         12    1    3    3    0    0 -0.74066745520E+01 -0.33655816056E+02 -0.14260262903E+03  0.14670747285E+03  0.00000000000E+00 0. -1.
        -13    1    5    5    0    0 -0.43558959983E+02 -0.29269547663E+02 -0.28347391415E+02  0.59646156752E+02  0.00000000000E+00 0.  1.
         14    1    5    5    0    0  0.38354814582E+02 -0.10572955561E+02 -0.46750142490E+02  0.61387743188E+02  0.00000000000E+00 0. -1.
          5    1    4    4  501    0 -0.35687731884E+02 -0.26615131540E+01  0.32499948975E+02  0.48569893377E+02  0.47000000000E+01 0. -1.
         -5    1    4    4    0  501  0.44535715020E+02  0.11496176960E+03  0.30162501329E+01  0.12341323327E+03  0.47000000000E+01 0. -1.
          1    1    1    2  502    0 -0.14767526960E+02  0.28703356940E+02 -0.55008193352E+03  0.55102821718E+03  0.00000000000E+00 0. -1.
          1    1    1    2  503    0  0.10924915485E+03  0.46220535798E+02  0.31163289161E+03  0.33344680970E+03  0.00000000000E+00 0. -1.
<mgrwt>
<rscale>  0 0.61735460E+02</rscale>
<asrwt>0</asrwt>
<pdfrwt beam="1">  1        2 0.69906406E-01 0.11807102E+03</pdfrwt>
<pdfrwt beam="2">  1        2 0.16129308E+00 0.32279445E+02</pdfrwt>
<totfact> 0.30005191E+02</totfact>
</mgrwt>
</event>
<event>
13    1  0.1675423E-008  0.3607770E+02  0.7546771E-02  0.1578695E+00
          2   -1    0    0  502    0  0.00000000000E+00  0.00000000000E+00  0.14629531671E+04  0.14629531671E+04  0.00000000000E+00 0. -1.
          2   -1    0    0  503    0 -0.00000000000E+00 -0.00000000000E+00 -0.31949399567E+04  0.31949399567E+04  0.00000000000E+00 0. -1.
         24    2    1    2    0    0  0.69662253519E+03  0.12759721693E+03  0.19697424179E+03  0.74006409147E+03  0.85627105910E+02 0.  0.
         25    2    1    2    0    0  0.59456734617E+03 -0.14870750531E+03 -0.26872515606E+03  0.68078023114E+03  0.12499704935E+03 0.  0.
         24    2    1    2    0    0 -0.12457115776E+04  0.35436662630E+02 -0.12177546280E+04  0.17453046314E+04  0.10054268202E+03 0.  0.
        -13    1    5    5    0    0 -0.45701210706E+02  0.19186602403E+02 -0.59209591507E+02  0.77217239644E+02  0.00000000000E+00 0.  1.
         14    1    5    5    0    0 -0.12000103669E+04  0.16250060227E+02 -0.11585450365E+04  0.16680873918E+04  0.00000000000E+00 0. -1.
        -13    1    3    3    0    0  0.45332115966E+03  0.56949618471E+02  0.15967187891E+03  0.48398186098E+03  0.00000000000E+00 0.  1.
         14    1    3    3    0    0  0.24330137553E+03  0.70647598459E+02  0.37302362874E+02  0.25608223050E+03  0.00000000000E+00 0. -1.
          5    1    4    4  501    0  0.52334046601E+03 -0.96552357464E+02 -0.19897912523E+03  0.56817460641E+03  0.47000000000E+01 0. -1.
         -5    1    4    4    0  501  0.71226880162E+02 -0.52155147847E+02 -0.69746030830E+02  0.11260562473E+03  0.47000000000E+01 0. -1.
          1    1    1    2  502    0 -0.11251474143E+02 -0.25730689291E+02  0.52391882247E+03  0.52467094124E+03  0.00000000000E+00 0. -1.
          1    1    1    2  503    0 -0.34226829632E+02  0.11404315041E+02 -0.96640006986E+03  0.96707322851E+03  0.00000000000E+00 0. -1.
<mgrwt>
<rscale>  0 0.31830423E+02</rscale>
<asrwt>0</asrwt>
<pdfrwt beam="1">  1        2 0.21514017E+00 0.28083163E+02</pdfrwt>
<pdfrwt beam="2">  1        2 0.46984411E+00 0.36077695E+02</pdfrwt>
<totfact> 0.78207007E+00</totfact>
</mgrwt>
</event>
<event>
13    1  0.1675423E-008  0.4565427E+02  0.7546771E-02  0.1497044E+00
         -1   -1    0    0    0  501 -0.00000000000E+00  0.00000000000E+00  0.18800331120E+04  0.18800331120E+04  0.00000000000E+00 0.  1.
          2   -1    0    0  503    0  0.00000000000E+00 -0.00000000000E+00 -0.96226818688E+03  0.96226818688E+03  0.00000000000E+00 0. -1.
         24    2    1    2    0    0  0.43098414879E+02 -0.33556786459E+02 -0.14055104872E+03  0.17132817294E+03  0.81333967479E+02 0.  0.
         25    2    1    2    0    0 -0.73330435796E+02 -0.54351432888E+02  0.21338897839E+03  0.26361085954E+03  0.12499759236E+03 0.  0.
         24    2    1    2    0    0 -0.13707996829E+02  0.89760654514E+02 -0.11049263460E+03  0.16474486193E+03  0.81776298252E+02 0.  0.
        -11    1    3    3    0    0  0.49780839763E+02  0.12305168237E+02 -0.81004088297E+02  0.95870806263E+02  0.00000000000E+00 0.  1.
         12    1    3    3    0    0 -0.66824248838E+01 -0.45861954696E+02 -0.59546960421E+02  0.75457366680E+02  0.00000000000E+00 0. -1.
        -13    1    5    5    0    0 -0.31736400276E+00  0.39383094548E+02  0.33590880504E+01  0.39527361772E+02  0.00000000000E+00 0.  1.
         14    1    5    5    0    0 -0.13390632826E+02  0.50377559966E+02 -0.11385172265E+03  0.12521750016E+03  0.00000000000E+00 0. -1.
          5    1    4    4  502    0 -0.16880852241E+02 -0.87363840226E+02  0.12782581385E+03  0.15581698379E+03  0.47000000000E+01 0.  1.
         -5    1    4    4    0  502 -0.56449583555E+02  0.33012407337E+02  0.85563164544E+02  0.10779387575E+03  0.47000000000E+01 0.  1.
          1    1    1    2  503    0  0.30912505466E+02  0.33664294305E+02 -0.64256333492E+03  0.64418670204E+03  0.00000000000E+00 0. -1.
         -2    1    1    2    0  501  0.13027512281E+02 -0.35516729471E+02  0.15979829649E+04  0.15984307024E+04  0.00000000000E+00 0.  1.
<mgrwt>
<rscale>  0 0.41558732E+02</rscale>
<asrwt>0</asrwt>
<pdfrwt beam="2">  1        2 0.14151003E+00 0.45654268E+02</pdfrwt>
<pdfrwt beam="1">  1       -1 0.27647546E+00 0.37830598E+02</pdfrwt>
<totfact> 0.25268943E+00</totfact>
</mgrwt>
</event>
<event>
13    1  0.1675423E-008  0.1535994E+03  0.7546771E-02  0.1233751E+00
          2   -1    0    0  502    0  0.00000000000E+00  0.00000000000E+00  0.32463953969E+04  0.32463953969E+04  0.00000000000E+00 0. -1.
          2   -1    0    0  503    0 -0.00000000000E+00 -0.00000000000E+00 -0.10760483783E+03  0.10760483783E+03  0.00000000000E+00 0. -1.
         24    2    1    2    0    0  0.19809429297E+02 -0.47464469617E+02  0.14635962961E+03  0.17493603022E+03  0.80846670472E+02 0.  0.
         25    2    1    2    0    0  0.13240148900E+03 -0.14244204920E+03  0.59108545177E+03  0.63468584675E+03  0.12499688438E+03 0.  0.
         24    2    1    2    0    0  0.30497522008E+02 -0.72454081332E+02  0.10141669627E+04  0.10203887057E+04  0.80490930122E+02 0.  0.
        -11    1    3    3    0    0  0.46133952287E+02 -0.49690432301E+02  0.11860271733E+03  0.13661656259E+03  0.00000000000E+00 0.  1.
         12    1    3    3    0    0 -0.26324522990E+02  0.22259626841E+01  0.27756912279E+02  0.38319467635E+02  0.00000000000E+00 0. -1.
        -11    1    5    5    0    0  0.21295326378E+02 -0.29381253423E+00  0.56234598195E+03  0.56274912765E+03  0.00000000000E+00 0.  1.
         12    1    5    5    0    0  0.92021956303E+01 -0.72160268797E+02  0.45182098072E+03  0.45763957807E+03  0.00000000000E+00 0. -1.
          5    1    4    4  501    0  0.89769931976E+01 -0.24214347826E+02  0.85951575379E+01  0.27620423252E+02  0.47000000000E+01 0. -1.
         -5    1    4    4    0  501  0.12342449580E+03 -0.11822770137E+03  0.58249029423E+03  0.60706542350E+03  0.47000000000E+01 0. -1.
          1    1    1    2  502    0 -0.22079043388E+03  0.13470827458E+03  0.13645798459E+04  0.13888746851E+04  0.00000000000E+00 0. -1.
          1    1    1    2  503    0  0.38081993581E+02  0.12765232556E+03  0.22598669113E+02  0.13511496698E+03  0.00000000000E+00 0. -1.
<mgrwt>
<rscale>  0 0.12584755E+03</rscale>
<asrwt>0</asrwt>
<pdfrwt beam="1">  1        2 0.47741102E+00 0.15359942E+03</pdfrwt>
<pdfrwt beam="2">  1        2 0.15824243E-01 0.10310981E+03</pdfrwt>
<totfact> 0.10740435E+02</totfact>
</mgrwt>
</event>
<event>
13    1  0.1675423E-008  0.1144380E+03  0.7546771E-02  0.1299281E+00
          2   -1    0    0  503    0  0.00000000000E+00  0.00000000000E+00  0.10297310809E+04  0.10297310809E+04  0.00000000000E+00 0. -1.
          2   -1    0    0  502    0 -0.00000000000E+00 -0.00000000000E+00 -0.17102992642E+04  0.17102992642E+04  0.00000000000E+00 0. -1.
         24    2    1    2    0    0 -0.10514670079E+03 -0.97355815351E+02  0.12846903657E+03  0.20837427369E+03  0.79884673814E+02 0.  0.
         25    2    1    2    0    0  0.31708610098E+02 -0.17703961664E+01 -0.42438879598E+03  0.44355316662E+03  0.12499996481E+03 0.  0.
         24    2    1    2    0    0 -0.23686471788E+01 -0.62566384541E+01  0.72019683164E+02  0.11187517602E+03  0.85349072827E+02 0.  0.
        -11    1    5    5    0    0 -0.49146990647E+00 -0.43484564586E+02  0.19966576852E+02  0.47851991506E+02  0.00000000000E+00 0.  1.
         12    1    5    5    0    0 -0.18771772723E+01  0.37227926132E+02  0.52053106312E+02  0.64023184514E+02  0.00000000000E+00 0. -1.
        -11    1    3    3    0    0 -0.34787888003E+02 -0.56740402985E+02  0.14009617798E+02  0.68014262280E+02  0.00000000000E+00 0.  1.
         12    1    3    3    0    0 -0.70358812790E+02 -0.40615412365E+02  0.11445941877E+03  0.14036001141E+03  0.00000000000E+00 0. -1.
          5    1    4    4  501    0 -0.14031440680E+02  0.18981576458E+02 -0.36430720583E+03  0.36510137194E+03  0.47000000000E+01 0.  1.
         -5    1    4    4    0  501  0.45740050778E+02 -0.20751972624E+02 -0.60081590154E+02  0.78451794679E+02  0.47000000000E+01 0.  1.
          1    1    1    2  502    0 -0.67881880115E+02  0.27243608615E+02 -0.12065248913E+04  0.12087400370E+04  0.00000000000E+00 0. -1.
          1    1    1    2  503    0  0.14368861799E+03  0.78139241356E+02  0.74985678431E+03  0.76748769173E+03  0.00000000000E+00 0. -1.
<mgrwt>
<rscale>  0 0.91490701E+02</rscale>
<asrwt>0</asrwt>
<pdfrwt beam="1">  1        2 0.15143104E+00 0.11443803E+03</pdfrwt>
<pdfrwt beam="2">  1        2 0.25151460E+00 0.73144814E+02</pdfrwt>
<totfact> 0.56787839E+01</totfact>
</mgrwt>
</event>
<event>
13    1  0.1675423E-008  0.8316356E+02  0.7546771E-02  0.1342845E+00
          2   -1    0    0  502    0  0.00000000000E+00  0.00000000000E+00  0.51778653071E+03  0.51778653071E+03  0.00000000000E+00 0. -1.
          2   -1    0    0  503    0 -0.00000000000E+00 -0.00000000000E+00 -0.30670671382E+04  0.30670671382E+04  0.00000000000E+00 0. -1.
         24    2    1    2    0    0 -0.62514092593E+01 -0.54476189916E+03 -0.15144095759E+03  0.57115403804E+03  0.80485803971E+02 0.  0.
         25    2    1    2    0    0 -0.10087889121E+03  0.39298971337E+03 -0.23474632269E+03  0.48512850096E+03  0.12500544359E+03 0.  0.
         24    2    1    2    0    0  0.70604728014E+01  0.10123117854E+03 -0.88340023007E+03  0.89284732791E+03  0.80515729461E+02 0.  0.
        -13    1    5    5    0    0  0.16542238986E+02 -0.18111930344E+01 -0.43121543576E+02  0.46221138143E+02  0.00000000000E+00 0.  1.
         14    1    5    5    0    0 -0.94817661845E+01  0.10304237158E+03 -0.84027868649E+03  0.84662618977E+03  0.00000000000E+00 0. -1.
        -13    1    3    3    0    0 -0.42879019282E+02 -0.25723059569E+03 -0.76465922508E+02  0.27175950205E+03  0.00000000000E+00 0.  1.
         14    1    3    3    0    0  0.36627610023E+02 -0.28753130348E+03 -0.74975035083E+02  0.29939453599E+03  0.00000000000E+00 0. -1.
          5    1    4    4  501    0 -0.12297238797E+03  0.24246176511E+03 -0.16094581257E+03  0.31596765709E+03  0.47000000000E+01 0. -1.
         -5    1    4    4    0  501  0.22093496760E+02  0.15052794826E+03 -0.73800510118E+02  0.16916084387E+03  0.47000000000E+01 0. -1.
          1    1    1    2  502    0  0.81727400320E+02 -0.15185814519E+02  0.16746317103E+03  0.18695959611E+03  0.00000000000E+00 0. -1.
          1    1    1    2  503    0  0.18342427353E+02  0.65726821772E+02 -0.14471562681E+04  0.14487642059E+04  0.00000000000E+00 0. -1.
<mgrwt>
<rscale>  0 0.75332175E+02</rscale>
<asrwt>0</asrwt>
<pdfrwt beam="1">  1        2 0.76145078E-01 0.83163562E+02</pdfrwt>
<pdfrwt beam="2">  1        2 0.45103928E+00 0.68238257E+02</pdfrwt>
<totfact> 0.28213835E+01</totfact>
</mgrwt>
</event>
<event>
13    1  0.1675423E-008  0.4795548E+02  0.7546771E-02  0.1459100E+00
         -1   -1    0    0    0  501 -0.00000000000E+00  0.00000000000E+00  0.91922799210E+03  0.91922799210E+03  0.00000000000E+00 0.  1.
          2   -1    0    0  503    0  0.00000000000E+00 -0.00000000000E+00 -0.16751663240E+04  0.16751663240E+04  0.00000000000E+00 0. -1.
         24    2    1    2    0    0  0.64845060554E+02 -0.12060659357E+03  0.82012418486E+02  0.17647503638E+03  0.75276619141E+02 0.  0.
         25    2    1    2    0    0 -0.98603585876E+02 -0.12268416951E+02 -0.39015807460E+03  0.42156987927E+03  0.12499863492E+03 0.  0.
         24    2    1    2    0    0 -0.63080688254E+01  0.18264136296E+03  0.74156843566E+02  0.20937829858E+03  0.70302028931E+02 0.  0.
        -13    1    3    3    0    0  0.63687432605E+01 -0.10104165812E+02 -0.14318689916E+02  0.18646177581E+02  0.00000000000E+00 0.  1.
         14    1    3    3    0    0  0.58476317293E+02 -0.11050242775E+03  0.96331108401E+02  0.15782885880E+03  0.00000000000E+00 0. -1.
        -13    1    5    5    0    0 -0.14658312207E+02  0.18416945436E+03  0.77374618506E+02  0.20029998908E+03  0.00000000000E+00 0.  1.
         14    1    5    5    0    0  0.83502433816E+01 -0.15280913975E+01 -0.32177749401E+01  0.90783095021E+01  0.00000000000E+00 0. -1.
          5    1    4    4  502    0 -0.14557546739E+02 -0.30676689977E+02 -0.16386208479E+02  0.37994464114E+02  0.47000000000E+01 0.  1.
         -5    1    4    4    0  502 -0.84046039138E+02  0.18408273026E+02 -0.37377186612E+03  0.38357541516E+03  0.47000000000E+01 0.  1.
          1    1    1    2  503    0 -0.77836640848E+01 -0.46474016187E+02 -0.11530691363E+04  0.11540315648E+04  0.00000000000E+00 0. -1.
         -2    1    1    2    0  501  0.47850258233E+02 -0.32923362557E+01  0.63111961692E+03  0.63293953704E+03  0.00000000000E+00 0.  1.
<mgrwt>
<rscale>  0 0.47536573E+02</rscale>
<asrwt>0</asrwt>
<pdfrwt beam="2">  1        2 0.24634799E+00 0.47121329E+02</pdfrwt>
<pdfrwt beam="1">  1       -1 0.13518059E+00 0.47955477E+02</pdfrwt>
<totfact> 0.88962322E+00</totfact>
</mgrwt>
</event>
<event>
13    1  0.1675423E-008  0.1322176E+03  0.7546771E-02  0.1226164E+00
          2   -1    0    0  502    0  0.00000000000E+00  0.00000000000E+00  0.23878557539E+04  0.23878557539E+04  0.00000000000E+00 0. -1.
          2   -1    0    0  503    0 -0.00000000000E+00 -0.00000000000E+00 -0.93068286860E+03  0.93068286860E+03  0.00000000000E+00 0. -1.
         24    2    1    2    0    0 -0.58739059912E+02 -0.93198783693E+02  0.57863465672E+03  0.59438474895E+03  0.79617042032E+02 0.  0.
         25    2    1    2    0    0 -0.29228621118E+02  0.13222328668E+03 -0.10016653640E+03  0.20975731898E+03  0.12500995168E+03 0.  0.
         24    2    1    2    0    0  0.69349521954E+02 -0.31772952161E+02  0.22861907306E+03  0.25433950658E+03  0.81259013992E+02 0.  0.
        -11    1    3    3    0    0 -0.39178036362E+02 -0.33034031052E+02  0.10828045158E+03  0.11979491615E+03  0.00000000000E+00 0.  1.
         12    1    3    3    0    0 -0.19561023550E+02 -0.60164752642E+02  0.47035420514E+03  0.47458983280E+03  0.00000000000E+00 0. -1.
        -11    1    5    5    0    0  0.49692469922E+02  0.17016125751E+02  0.15647876067E+03  0.16505905805E+03  0.00000000000E+00 0.  1.
         12    1    5    5    0    0  0.19657052033E+02 -0.48789077913E+02  0.72140312394E+02  0.89280448534E+02  0.00000000000E+00 0. -1.
          5    1    4    4  501    0 -0.86714975131E+01  0.13446031851E+03 -0.32274889792E+02  0.13863091515E+03  0.47000000000E+01 0. -1.
         -5    1    4    4    0  501 -0.20557123604E+02 -0.22370318346E+01 -0.67891646612E+02  0.71126403832E+02  0.47000000000E+01 0. -1.
          1    1    1    2  502    0  0.11338122732E+03  0.81186683885E+02  0.14962416930E+04  0.15027261175E+04  0.00000000000E+00 0. -1.
          1    1    1    2  503    0 -0.94763068245E+02 -0.88438234709E+02 -0.74615600104E+03  0.75733093054E+03  0.00000000000E+00 0. -1.
<mgrwt>
<rscale>  0 0.13087431E+03</rscale>
<asrwt>0</asrwt>
<pdfrwt beam="1">  1        2 0.35115526E+00 0.13221763E+03</pdfrwt>
<pdfrwt beam="2">  1        2 0.13686513E+00 0.12954464E+03</pdfrwt>
<totfact> 0.28508181E+01</totfact>
</mgrwt>
</event>
<event>
13    1  0.1675423E-008  0.6676212E+02  0.7546771E-02  0.1394404E+00
          2   -1    0    0  503    0  0.00000000000E+00  0.00000000000E+00  0.19379262868E+04  0.19379262868E+04  0.00000000000E+00 0. -1.
          2   -1    0    0  502    0 -0.00000000000E+00 -0.00000000000E+00 -0.45943756587E+03  0.45943756587E+03  0.00000000000E+00 0. -1.
         24    2    1    2    0    0 -0.16728601353E+03  0.81138700709E+02  0.85603035239E+03  0.87980661022E+03  0.81875564705E+02 0.  0.
         25    2    1    2    0    0  0.13135635708E+03 -0.86568697416E+01 -0.29541260864E+03  0.34673163402E+03  0.12499913098E+03 0.  0.
         24    2    1    2    0    0 -0.35152331103E+02 -0.12024880697E+03  0.60579830379E+03  0.62371659882E+03  0.79594904446E+02 0.  0.
        -11    1    3    3    0    0 -0.12969460429E+03  0.21633601969E+02  0.50885107937E+03  0.52556457652E+03  0.00000000000E+00 0.  1.
         12    1    3    3    0    0 -0.37591409241E+02  0.59505098740E+02  0.34717927302E+03  0.35424203370E+03  0.00000000000E+00 0. -1.
        -13    1    5    5    0    0 -0.11477275913E+02 -0.87395070998E+02  0.23984128999E+03  0.25552587086E+03  0.00000000000E+00 0.  1.
         14    1    5    5    0    0 -0.23675055190E+02 -0.32853735971E+02  0.36595701380E+03  0.36819072795E+03  0.00000000000E+00 0. -1.
          5    1    4    4  501    0  0.86795297118E+02  0.37753823922E+02 -0.87299160572E+02  0.12884878059E+03  0.47000000000E+01 0.  1.
         -5    1    4    4    0  501  0.44561059965E+02 -0.46410693664E+02 -0.20811344807E+03  0.21788285343E+03  0.47000000000E+01 0.  1.
          1    1    1    2  502    0  0.66353985588E+02 -0.74459097067E+01 -0.10605598554E+03  0.12532423965E+03  0.00000000000E+00 0. -1.
          1    1    1    2  503    0  0.47280019621E+01  0.55212885708E+02  0.41812865893E+03  0.42178476996E+03  0.00000000000E+00 0. -1.
<mgrwt>
<rscale>  0 0.60824498E+02</rscale>
<asrwt>0</asrwt>
<pdfrwt beam="1">  1        2 0.28498916E+00 0.55414951E+02</pdfrwt>
<pdfrwt beam="2">  1        2 0.67564349E-01 0.66762119E+02</pdfrwt>
<totfact> 0.11824079E+02</totfact>
</mgrwt>
</event>
<event>
13    1  0.1675423E-008  0.1256096E+03  0.7546771E-02  0.1397440E+00
          2   -1    0    0  502    0  0.00000000000E+00  0.00000000000E+00  0.14113017878E+04  0.14113017878E+04  0.00000000000E+00 0. -1.
          2   -1    0    0  503    0 -0.00000000000E+00 -0.00000000000E+00 -0.96784652027E+03  0.96784652027E+03  0.00000000000E+00 0. -1.
         24    2    1    2    0    0  0.15304444552E+02 -0.11172623140E+03  0.69951311409E+03  0.71324685360E+03  0.81764910506E+02 0.  0.
         25    2    1    2    0    0 -0.42907813179E+01  0.16665000035E+03 -0.26312165682E+03  0.33563264938E+03  0.12500254246E+03 0.  0.
         24    2    1    2    0    0 -0.48694566700E+02 -0.17037331773E+03  0.25682173315E+03  0.32249651437E+03  0.81537543140E+02 0.  0.
        -13    1    5    5    0    0 -0.18822716823E+02 -0.45497784230E+02  0.20074959153E+02  0.53172803419E+02  0.00000000000E+00 0.  1.
         14    1    5    5    0    0 -0.29871849877E+02 -0.12487553350E+03  0.23674677400E+03  0.26932371095E+03  0.00000000000E+00 0. -1.
        -13    1    3    3    0    0 -0.12976266755E+02 -0.59362820570E+02  0.17260557569E+03  0.18298910548E+03  0.00000000000E+00 0.  1.
         14    1    3    3    0    0  0.28280711307E+02 -0.52363410825E+02  0.52690753839E+03  0.53025774812E+03  0.00000000000E+00 0. -1.
          5    1    4    4  501    0 -0.80347832270E+01  0.15518178964E+03 -0.27637929630E+03  0.31710179912E+03  0.47000000000E+01 0.  1.
         -5    1    4    4    0  501  0.37440019092E+01  0.11468210708E+02  0.13257639479E+02  0.18530850268E+02  0.47000000000E+01 0.  1.
          1    1    1    2  502    0  0.65323813356E+02  0.10755006652E+03  0.36821924053E+03  0.38912674863E+03  0.00000000000E+00 0. -1.
          1    1    1    2  503    0 -0.27642909891E+02  0.78994822527E+01 -0.61797716340E+03  0.61864554211E+03  0.00000000000E+00 0. -1.
<mgrwt>
<rscale>  0 0.60093337E+02</rscale>
<asrwt>0</asrwt>
<pdfrwt beam="1">  1        2 0.20754438E+00 0.12560957E+03</pdfrwt>
<pdfrwt beam="2">  1        2 0.14233037E+00 0.28749475E+02</pdfrwt>
<totfact> 0.88365178E+01</totfact>
</mgrwt>
</event>
<event>
13    1  0.1675423E-008  0.1832628E+03  0.7546771E-02  0.1239885E+00
         -1   -1    0    0    0  501 -0.00000000000E+00  0.00000000000E+00  0.48979913863E+03  0.48979913863E+03  0.00000000000E+00 0.  1.
          2   -1    0    0  503    0  0.00000000000E+00 -0.00000000000E+00 -0.30672761982E+04  0.30672761982E+04  0.00000000000E+00 0. -1.
         24    2    1    2    0    0 -0.87250778260E+02 -0.14859178089E+03 -0.57798660233E+03  0.60845476932E+03  0.80352213302E+02 0.  0.
         25    2    1    2    0    0  0.57111639942E+02 -0.23968615713E+02 -0.12685370830E+04  0.12761840124E+04  0.12499227400E+03 0.  0.
         24    2    1    2    0    0 -0.30208556884E+02  0.12563380609E+03  0.71216524498E+02  0.16819240638E+03  0.80749501915E+02 0.  0.
        -13    1    3    3    0    0 -0.44776359524E+01 -0.77218478851E+02 -0.29847463263E+03  0.30833398941E+03  0.00000000000E+00 0.  1.
         14    1    3    3    0    0 -0.82773142307E+02 -0.71373302037E+02 -0.27951196970E+03  0.30012077992E+03  0.00000000000E+00 0. -1.
        -13    1    5    5    0    0  0.71170993438E+01 -0.69019849379E+01  0.18048765735E+02  0.20592436566E+02  0.00000000000E+00 0.  1.
         14    1    5    5    0    0 -0.37325656227E+02  0.13253579103E+03  0.53167758763E+02  0.14759996981E+03  0.00000000000E+00 0. -1.
          5    1    4    4  502    0 -0.20651748287E+02 -0.52372832512E+02 -0.53557337241E+03  0.53854464580E+03  0.47000000000E+01 0. -1.
         -5    1    4    4    0  502  0.77763388229E+02  0.28404216799E+02 -0.73296371059E+03  0.73763936658E+03  0.47000000000E+01 0. -1.
          1    1    1    2  503    0 -0.62505448537E+02 -0.51790837164E+02 -0.11339937808E+04  0.11368953851E+04  0.00000000000E+00 0. -1.
         -2    1    1    2    0  501  0.12285314374E+03  0.98717427675E+02  0.33182388203E+03  0.36734876363E+03  0.00000000000E+00 0.  1.
<mgrwt>
<rscale>  0 0.12196793E+03</rscale>
<asrwt>0</asrwt>
<pdfrwt beam="2">  1        2 0.45107004E+00 0.81174022E+02</pdfrwt>
<pdfrwt beam="1">  1       -1 0.72029284E-01 0.18326275E+03</pdfrwt>
<totfact> 0.64904804E+00</totfact>
</mgrwt>
</event>
<event>
13    1  0.1675423E-008  0.4191167E+03  0.7546771E-02  0.1207146E+00
         -1   -1    0    0    0  501 -0.00000000000E+00  0.00000000000E+00  0.63128894178E+03  0.63128894178E+03  0.00000000000E+00 0.  1.
          2   -1    0    0  503    0  0.00000000000E+00 -0.00000000000E+00 -0.19392128312E+04  0.19392128312E+04  0.00000000000E+00 0. -1.
         24    2    1    2    0    0  0.62823651883E+02 -0.29572044830E+03 -0.56953162422E+03  0.65018755697E+03  0.83547552150E+02 0.  0.
         25    2    1    2    0    0 -0.41862510584E+02  0.43084873038E+03 -0.11698463137E+03  0.46550360336E+03  0.12500041000E+03 0.  0.
         24    2    1    2    0    0 -0.10518373605E+02  0.20601691558E+03 -0.27948760101E+02  0.22519222712E+03  0.85888301154E+02 0.  0.
        -11    1    5    5    0    0  0.35275174907E+02  0.10770559139E+03 -0.57099717055E+00  0.11333648318E+03  0.00000000000E+00 0.  1.
         12    1    5    5    0    0 -0.45793548512E+02  0.98311324183E+02 -0.27377762930E+02  0.11185574393E+03  0.00000000000E+00 0. -1.
        -13    1    3    3    0    0  0.19365146924E+02 -0.40269085769E+02 -0.15516890328E+03  0.16147444605E+03  0.00000000000E+00 0.  1.
         14    1    3    3    0    0  0.43458504959E+02 -0.25545136253E+03 -0.41436272094E+03  0.48871311092E+03  0.00000000000E+00 0. -1.
          5    1    4    4  502    0 -0.72801313057E+02  0.27020932278E+03 -0.11288907520E+03  0.30179321165E+03  0.47000000000E+01 0. -1.
         -5    1    4    4    0  502  0.30938802472E+02  0.16063940760E+03 -0.40955561736E+01  0.16371039171E+03  0.47000000000E+01 0. -1.
          1    1    1    2  503    0 -0.47472342760E+02 -0.37467571886E+03 -0.87008575616E+03  0.94851712726E+03  0.00000000000E+00 0. -1.
         -2    1    1    2    0  501  0.37029575067E+02  0.33530521209E+02  0.27662688247E+03  0.28110125825E+03  0.00000000000E+00 0.  1.
<mgrwt>
<rscale>  0 0.14469590E+03</rscale>
<asrwt>0</asrwt>
<pdfrwt beam="2">  1        2 0.28517836E+00 0.41911670E+03</pdfrwt>
<pdfrwt beam="1">  1       -1 0.92836609E-01 0.49954832E+02</pdfrwt>
<totfact> 0.12523292E+01</totfact>
</mgrwt>
</event>
<event>
13    1  0.1675423E-008  0.1235483E+03  0.7546771E-02  0.1372339E+00
         -3   -1    0    0    0  501 -0.00000000000E+00  0.00000000000E+00  0.12980784497E+04  0.12980784497E+04  0.00000000000E+00 0.  1.
          2   -1    0    0  503    0  0.00000000000E+00 -0.00000000000E+00 -0.28879917596E+04  0.28879917596E+04  0.00000000000E+00 0. -1.
         24    2    1    2    0    0  0.45871346233E+03 -0.22248677073E+03 -0.11863226330E+04  0.12924883343E+04  0.56976320181E+02 0.  0.
         25    2    1    2    0    0 -0.24314103624E+03 -0.26571078568E+03 -0.26433068618E+03  0.46391308620E+03  0.12499941903E+03 0.  0.
         24    2    1    2    0    0 -0.27571724043E+03  0.60686921770E+03 -0.86557664053E+03  0.10953547256E+04  0.79175818761E+02 0.  0.
        -11    1    3    3    0    0  0.41652092616E+03 -0.21919180593E+03 -0.10882886144E+04  0.11857094239E+04  0.00000000000E+00 0.  1.
         12    1    3    3    0    0  0.42192536174E+02 -0.32949648080E+01 -0.98034018530E+02  0.10677891033E+03  0.00000000000E+00 0. -1.
        -11    1    5    5    0    0 -0.84084190952E+02  0.27804355446E+03 -0.36209314886E+03  0.46420880840E+03  0.00000000000E+00 0.  1.
         12    1    5    5    0    0 -0.19163304948E+03  0.32882566324E+03 -0.50348349167E+03  0.63114591723E+03  0.00000000000E+00 0. -1.
          5    1    4    4  502    0 -0.20662969645E+03 -0.21838383935E+03 -0.26943432675E+03  0.40373788425E+03  0.47000000000E+01 0.  1.
         -5    1    4    4    0  502 -0.36511339794E+02 -0.47326946333E+02  0.51036405739E+01  0.60175201951E+02  0.47000000000E+01 0.  1.
          1    1    1    2  503    0 -0.23091134614E+02 -0.27379318851E+02 -0.29922351867E+03  0.30135948919E+03  0.00000000000E+00 0. -1.
         -4    1    1    2    0  501  0.83235948958E+02 -0.91292342432E+02  0.10255401684E+04  0.10329545740E+04  0.00000000000E+00 0.  1.
<mgrwt>
<rscale>  0 0.66521248E+02</rscale>
<asrwt>0</asrwt>
<pdfrwt beam="2">  1        2 0.42470467E+00 0.35816583E+02</pdfrwt>
<pdfrwt beam="1">  1       -3 0.19089389E+00 0.12354826E+03</pdfrwt>
<totfact> 0.44626704E-01</totfact>
</mgrwt>
</event>
<event>
13    1  0.1675423E-008  0.2002896E+03  0.7546771E-02  0.1192229E+00
          2   -1    0    0  502    0  0.00000000000E+00  0.00000000000E+00  0.20917812852E+04  0.20917812852E+04  0.00000000000E+00 0. -1.
          2   -1    0    0  503    0 -0.00000000000E+00 -0.00000000000E+00 -0.20091381821E+04  0.20091381821E+04  0.00000000000E+00 0. -1.
         24    2    1    2    0    0  0.24649021795E+02  0.23854233763E+03  0.72520364588E+03  0.76793604501E+03  0.79343683558E+02 0.  0.
         25    2    1    2    0    0 -0.36080780742E+02 -0.15993498248E+03 -0.16004932333E+03  0.26099929430E+03  0.12499529737E+03 0.  0.
         24    2    1    2    0    0 -0.12237786523E+03  0.19361696469E+03  0.25034538557E+03  0.34668720317E+03  0.71100870983E+02 0.  0.
        -11    1    5    5    0    0 -0.65705008579E+02  0.52619031763E+02  0.11940512186E+03  0.14609412644E+03  0.00000000000E+00 0.  1.
         12    1    5    5    0    0 -0.56672856649E+02  0.14099793293E+03  0.13094026371E+03  0.20059307673E+03  0.00000000000E+00 0. -1.
        -13    1    3    3    0    0  0.48344306853E+01  0.37623491921E+02  0.47438146808E+02  0.60739415843E+02  0.00000000000E+00 0.  1.
         14    1    3    3    0    0  0.19814591109E+02  0.20091884570E+03  0.67776549907E+03  0.70719662917E+03  0.00000000000E+00 0. -1.
          5    1    4    4  501    0 -0.39922470487E+02 -0.17691618959E+03 -0.12124690998E+03  0.21821101019E+03  0.47000000000E+01 0. -1.
         -5    1    4    4    0  501  0.38416897456E+01  0.16981207108E+02 -0.38802413350E+02  0.42788284106E+02  0.47000000000E+01 0. -1.
          1    1    1    2  502    0  0.39866426753E+02 -0.19294205902E+03  0.98426057481E+03  0.10037852605E+04  0.00000000000E+00 0. -1.
          1    1    1    2  503    0  0.93943197422E+02 -0.79282260807E+02 -0.17171171798E+04  0.17215116644E+04  0.00000000000E+00 0. -1.
<mgrwt>
<rscale>  0 0.15691069E+03</rscale>
<asrwt>0</asrwt>
<pdfrwt beam="1">  1        2 0.30761490E+00 0.20028962E+03</pdfrwt>
<pdfrwt beam="2">  1        2 0.29546150E+00 0.12292681E+03</pdfrwt>
<totfact> 0.10642620E+01</totfact>
</mgrwt>
</event>
<event>
13    1  0.1675423E-008  0.1372994E+03  0.7546771E-02  0.1394948E+00
         -1   -1    0    0    0  501 -0.00000000000E+00  0.00000000000E+00  0.53935823963E+03  0.53935823963E+03  0.00000000000E+00 0.  1.
          2   -1    0    0  503    0  0.00000000000E+00 -0.00000000000E+00 -0.69764914208E+03  0.69764914208E+03  0.00000000000E+00 0. -1.
         24    2    1    2    0    0  0.55810054046E+02 -0.23678790578E+03 -0.27373126773E+03  0.37562451799E+03  0.83556550476E+02 0.  0.
         25    2    1    2    0    0 -0.26064495481E+02  0.84755875324E+02  0.71189193898E+02  0.16897863148E+03  0.12499184070E+03 0.  0.
         24    2    1    2    0    0 -0.10472186304E+03  0.29431908435E+02  0.31108136948E+02  0.13823748127E+03  0.79429082893E+02 0.  0.
        -13    1    3    3    0    0  0.13552329844E+02 -0.79004548782E+02 -0.15223773193E+03  0.17205147891E+03  0.00000000000E+00 0.  1.
         14    1    3    3    0    0  0.42257724203E+02 -0.15778335700E+03 -0.12149353581E+03  0.20357303909E+03  0.00000000000E+00 0. -1.
        -13    1    5    5    0    0 -0.33492139167E+02  0.28197518446E+02 -0.22363193502E+02  0.49162341849E+02  0.00000000000E+00 0.  1.
         14    1    5    5    0    0 -0.71229723877E+02  0.12343899896E+01  0.53471330450E+02  0.89075139418E+02  0.00000000000E+00 0. -1.
          5    1    4    4  502    0 -0.75739653086E+01  0.11022525753E+03  0.79371531917E+02  0.13612091105E+03  0.47000000000E+01 0. -1.
         -5    1    4    4    0  502 -0.18490530173E+02 -0.25469382202E+02 -0.81823380189E+01  0.32857720422E+02  0.47000000000E+01 0. -1.
          1    1    1    2  503    0  0.91811538811E+02  0.10171088578E+03 -0.25244170487E+03  0.28723035582E+03  0.00000000000E+00 0. -1.
         -2    1    1    2    0  501 -0.16835234332E+02  0.20889236234E+02  0.26558473931E+03  0.26693639515E+03  0.00000000000E+00 0.  1.
<mgrwt>
<rscale>  0 0.60692516E+02</rscale>
<asrwt>0</asrwt>
<pdfrwt beam="2">  1        2 0.10259546E+00 0.13729945E+03</pdfrwt>
<pdfrwt beam="1">  1       -1 0.79317389E-01 0.26828815E+02</pdfrwt>
<totfact> 0.92746645E+01</totfact>
</mgrwt>
</event>
<event>
13    1  0.1675423E-008  0.6874700E+02  0.7546771E-02  0.1405187E+00
          2   -1    0    0  502    0  0.00000000000E+00  0.00000000000E+00  0.24747879690E+04  0.24747879690E+04  0.00000000000E+00 0. -1.
          2   -1    0    0  503    0 -0.00000000000E+00 -0.00000000000E+00 -0.28979305378E+04  0.28979305378E+04  0.00000000000E+00 0. -1.
         24    2    1    2    0    0 -0.85703685556E+03 -0.97093966109E+02  0.23289678915E+03  0.89604538918E+03  0.68680528781E+02 0.  0.
         25    2    1    2    0    0  0.57006680309E+03  0.12553188749E+03  0.32663625608E+01  0.59697818655E+03  0.12505147475E+03 0.  0.
         24    2    1    2    0    0  0.30794594318E+03  0.83481458954E+02 -0.71097734467E+03  0.78324298965E+03  0.78618943621E+02 0.  0.
        -11    1    5    5    0    0  0.24115494481E+03  0.94588852440E+02 -0.59508216966E+03  0.64901891117E+03  0.00000000000E+00 0.  1.
         12    1    5    5    0    0  0.66790998370E+02 -0.11107393486E+02 -0.11589517501E+03  0.13422407848E+03  0.00000000000E+00 0. -1.
        -13    1    3    3    0    0 -0.63367343626E+03 -0.82974735672E+02  0.14319143608E+03  0.65492794867E+03  0.00000000000E+00 0.  1.
         14    1    3    3    0    0 -0.22336341929E+03 -0.14119230437E+02  0.89705353069E+02  0.24111744050E+03  0.00000000000E+00 0. -1.
          5    1    4    4  501    0  0.11556232525E+03 -0.24471522077E+02 -0.39117765282E+01  0.11828312816E+03  0.47000000000E+01 0. -1.
         -5    1    4    4    0  501  0.45450447784E+03  0.15000340957E+03  0.71781390890E+01  0.47869505840E+03  0.47000000000E+01 0. -1.
          1    1    1    2  502    0 -0.27569446927E+02 -0.62951659934E+02  0.15729103655E+04  0.15744110022E+04  0.00000000000E+00 0. -1.
          1    1    1    2  503    0  0.65935562117E+01 -0.48967720401E+02 -0.15212387413E+04  0.15220409392E+04  0.00000000000E+00 0. -1.
<mgrwt>
<rscale>  0 0.58281767E+02</rscale>
<asrwt>0</asrwt>
<pdfrwt beam="1">  1        2 0.36393941E+00 0.68746996E+02</pdfrwt>
<pdfrwt beam="2">  1        2 0.42616626E+00 0.49409641E+02</pdfrwt>
<totfact> 0.32197378E+00</totfact>
</mgrwt>
</event>
<event>
13    1  0.1675423E-008  0.1414349E+03  0.7546771E-02  0.1363951E+00
          2   -1    0    0  503    0  0.00000000000E+00  0.00000000000E+00  0.33576027614E+04  0.33576027614E+04  0.00000000000E+00 0. -1.
          2   -1    0    0  502    0 -0.00000000000E+00 -0.00000000000E+00 -0.16813298671E+04  0.16813298671E+04  0.00000000000E+00 0. -1.
         24    2    1    2    0    0 -0.16905493358E+03 -0.57435691295E+03  0.13190593350E+04  0.14512909435E+04  0.88670398744E+02 0.  0.
         25    2    1    2    0    0  0.34223870225E+03  0.20401591567E+02 -0.63224649191E+01  0.36497543580E+03  0.12499416354E+03 0.  0.
         24    2    1    2    0    0 -0.11837994591E+03  0.38784099645E+03  0.56329252681E+03  0.69895858079E+03  0.82523795279E+02 0.  0.
        -11    1    3    3    0    0 -0.35267376664E+02 -0.12496070318E+03  0.20606384381E+03  0.24355958803E+03  0.00000000000E+00 0.  1.
         12    1    3    3    0    0 -0.13378755692E+03 -0.44939620977E+03  0.11129954912E+04  0.12077313555E+04  0.00000000000E+00 0. -1.
        -13    1    5    5    0    0 -0.66507360769E+02  0.23227826699E+03  0.40151838434E+03  0.46860797616E+03  0.00000000000E+00 0.  1.
         14    1    5    5    0    0 -0.51872585142E+02  0.15556272946E+03  0.16177414246E+03  0.23035060464E+03  0.00000000000E+00 0. -1.
          5    1    4    4  501    0  0.26071229292E+03  0.32465520883E+02  0.46671943682E+02  0.26688062885E+03  0.47000000000E+01 0.  1.
         -5    1    4    4    0  501  0.81526409327E+02 -0.12063929316E+02 -0.52994408601E+02  0.98094806954E+02  0.47000000000E+01 0.  1.
          1    1    1    2  502    0 -0.44098203891E+02  0.13432552097E+03 -0.13578189989E+04  0.13651594892E+04  0.00000000000E+00 0. -1.
          1    1    1    2  503    0 -0.10705618861E+02  0.31788803959E+02  0.11580624963E+04  0.11585481792E+04  0.00000000000E+00 0. -1.
<mgrwt>
<rscale>  0 0.68877878E+02</rscale>
<asrwt>0</asrwt>
<pdfrwt beam="1">  1        2 0.49376511E+00 0.33543082E+02</pdfrwt>
<pdfrwt beam="2">  1        2 0.24725439E+00 0.14143489E+03</pdfrwt>
<totfact> 0.44476342E+00</totfact>
</mgrwt>
</event>
<event>
13    1  0.1675423E-008  0.1461939E+03  0.7546771E-02  0.1211355E+00
         -3   -1    0    0    0  501 -0.00000000000E+00  0.00000000000E+00  0.11921887358E+04  0.11921887358E+04  0.00000000000E+00 0.  1.
          2   -1    0    0  503    0  0.00000000000E+00 -0.00000000000E+00 -0.16372331013E+04  0.16372331013E+04  0.00000000000E+00 0. -1.
         24    2    1    2    0    0 -0.12792387863E+03 -0.28513729745E+01 -0.30017609508E+03  0.33633015552E+03  0.81483964098E+02 0.  0.
         25    2    1    2    0    0  0.34190829949E+03 -0.10510975371E+03  0.36500374608E+03  0.52612055404E+03  0.12500302855E+03 0.  0.
         24    2    1    2    0    0 -0.43474697106E+02  0.26173405435E+02  0.22470260893E+03  0.24459876944E+03  0.82232591546E+02 0.  0.
        -13    1    5    5    0    0 -0.47348551340E+01 -0.27591252679E+02  0.44236316176E+02  0.52350241130E+02  0.00000000000E+00 0.  1.
         14    1    5    5    0    0 -0.38739841972E+02  0.53764658113E+02  0.18046629275E+03  0.19224852831E+03  0.00000000000E+00 0. -1.
        -13    1    3    3    0    0 -0.12437872766E+03  0.87259841310E+01 -0.29925056786E+03  0.32418684899E+03  0.00000000000E+00 0.  1.
         14    1    3    3    0    0 -0.35451509686E+01 -0.11577357105E+02 -0.92552722111E+00  0.12143306534E+02  0.00000000000E+00 0. -1.
          5    1    4    4  502    0  0.51900945664E+02 -0.51077529986E+02  0.12939761619E+03  0.14855455330E+03  0.47000000000E+01 0.  1.
         -5    1    4    4    0  502  0.29000735383E+03 -0.54032223728E+02  0.23560612988E+03  0.37756600074E+03  0.47000000000E+01 0.  1.
          1    1    1    2  503    0 -0.61494225412E+01  0.13666157721E+03 -0.12092991965E+04  0.12170122221E+04  0.00000000000E+00 0. -1.
         -4    1    1    2    0  501 -0.16436030122E+03 -0.54873855957E+02  0.47472457105E+03  0.50536013599E+03  0.00000000000E+00 0.  1.
<mgrwt>
<rscale>  0 0.14147744E+03</rscale>
<asrwt>0</asrwt>
<pdfrwt beam="2">  1        2 0.24076957E+00 0.13691315E+03</pdfrwt>
<pdfrwt beam="1">  1       -3 0.17532187E+00 0.14619390E+03</pdfrwt>
<totfact> 0.19045649E+00</totfact>
</mgrwt>
</event>
<event>
13    1  0.1675423E-008  0.1711886E+03  0.7546771E-02  0.1263303E+00
          2   -1    0    0  503    0  0.00000000000E+00  0.00000000000E+00  0.39734350822E+04  0.39734350822E+04  0.00000000000E+00 0. -1.
         -1   -1    0    0    0  501 -0.00000000000E+00 -0.00000000000E+00 -0.12388913979E+04  0.12388913979E+04  0.00000000000E+00 0.  1.
         24    2    1    2    0    0 -0.29320838498E+03  0.29362777003E+03  0.16419217354E+04  0.16949300044E+04  0.68500439281E+02 0.  0.
         25    2    1    2    0    0  0.30554886593E+03 -0.13550316941E+03 -0.67674437575E+03  0.76506767042E+03  0.12499748727E+03 0.  0.
         24    2    1    2    0    0  0.10088363021E+03  0.81893978159E+01 -0.12733336097E+03  0.18174476535E+03  0.81072818103E+02 0.  0.
        -11    1    3    3    0    0 -0.13892155195E+03  0.13281021953E+03  0.89836668950E+03  0.91869497703E+03  0.00000000000E+00 0.  1.
         12    1    3    3    0    0 -0.15428683303E+03  0.16081755050E+03  0.74355504591E+03  0.77623502736E+03  0.00000000000E+00 0. -1.
        -11    1    5    5    0    0  0.94410557040E+01  0.27875102272E+02 -0.58910069933E+02  0.65852495769E+02  0.00000000000E+00 0.  1.
         12    1    5    5    0    0  0.91442574507E+02 -0.19685704456E+02 -0.68423291035E+02  0.11589226958E+03  0.00000000000E+00 0. -1.
          5    1    4    4  502    0  0.19848624007E+03 -0.97463730591E+02 -0.55999192365E+03  0.60208721198E+03  0.47000000000E+01 0. -1.
         -5    1    4    4    0  502  0.10706262587E+03 -0.38039438819E+02 -0.11675245210E+03  0.16298045844E+03  0.47000000000E+01 0. -1.
          1    1    1    2  503    0 -0.44415680435E+02 -0.16539585023E+03  0.22268058828E+04  0.22333815124E+04  0.00000000000E+00 0. -1.
         -2    1    1    2    0  501 -0.68808430725E+02 -0.91814820135E+00 -0.33010619721E+03  0.33720252753E+03  0.00000000000E+00 0.  1.
<mgrwt>
<rscale>  0 0.10853695E+03</rscale>
<asrwt>0</asrwt>
<pdfrwt beam="1">  1        2 0.58432869E+00 0.17118863E+03</pdfrwt>
<pdfrwt beam="2">  1       -1 0.18218991E+00 0.68814556E+02</pdfrwt>
<totfact> 0.19654937E-01</totfact>
</mgrwt>
</event>
<event>
13    1  0.1675423E-008  0.4161413E+03  0.7546771E-02  0.1202018E+00
          2   -1    0    0  503    0  0.00000000000E+00  0.00000000000E+00  0.12394792077E+04  0.12394792077E+04  0.00000000000E+00 0. -1.
          2   -1    0    0  502    0 -0.00000000000E+00 -0.00000000000E+00 -0.22601156005E+04  0.22601156005E+04  0.00000000000E+00 0. -1.
         24    2    1    2    0    0  0.74827742625E+02 -0.28108385410E+01  0.56941400701E+03  0.57947538240E+03  0.77151251153E+02 0.  0.
         25    2    1    2    0    0 -0.28580307449E+03 -0.68726123523E+01  0.18176929024E+03  0.36110386526E+03  0.12500118578E+03 0.  0.
         24    2    1    2    0    0 -0.77912579704E+02  0.27360242969E+03 -0.28797486912E+03  0.41278123768E+03  0.80809438332E+02 0.  0.
        -11    1    5    5    0    0 -0.94728809354E+02  0.22073870397E+03 -0.23699400382E+03  0.33743929913E+03  0.00000000000E+00 0.  1.
         12    1    5    5    0    0  0.16816229650E+02  0.52863725727E+02 -0.50980865299E+02  0.75341938546E+02  0.00000000000E+00 0. -1.
        -13    1    3    3    0    0  0.23135784241E+02 -0.37091960979E+02  0.28864883005E+03  0.29194044799E+03  0.00000000000E+00 0.  1.
         14    1    3    3    0    0  0.51691958385E+02  0.34281122438E+02  0.28076517696E+03  0.28753493442E+03  0.00000000000E+00 0. -1.
          5    1    4    4  501    0 -0.17922996920E+03 -0.63064914917E+02  0.12761901427E+03  0.22893070602E+03  0.47000000000E+01 0. -1.
         -5    1    4    4    0  501 -0.10657310529E+03  0.56192302564E+02  0.54150275970E+02  0.13217315925E+03  0.47000000000E+01 0. -1.
          1    1    1    2  502    0  0.34188023326E+03 -0.26827049634E+03 -0.17866781696E+04  0.18387686192E+04  0.00000000000E+00 0. -1.
          1    1    1    2  503    0 -0.52992321693E+02  0.43515175426E+01  0.30283334866E+03  0.30746570365E+03  0.00000000000E+00 0. -1.
<mgrwt>
<rscale>  0 0.14874984E+03</rscale>
<asrwt>0</asrwt>
<pdfrwt beam="1">  1        2 0.18227636E+00 0.53170686E+02</pdfrwt>
<pdfrwt beam="2">  1        2 0.33236994E+00 0.41614126E+03</pdfrwt>
<totfact> 0.20691247E+01</totfact>
</mgrwt>
</event>
<event>
13    1  0.1675423E-008  0.5068940E+02  0.7546771E-02  0.1530213E+00
          2   -1    0    0  502    0  0.00000000000E+00  0.00000000000E+00  0.20296732549E+04  0.20296732549E+04  0.00000000000E+00 0. -1.
          2   -1    0    0  503    0 -0.00000000000E+00 -0.00000000000E+00 -0.21154663632E+04  0.21154663632E+04  0.00000000000E+00 0. -1.
         24    2    1    2    0    0 -0.92317928538E+02 -0.79240724137E+02  0.92043216651E+03  0.93148857362E+03  0.75325276944E+02 0.  0.
         25    2    1    2    0    0  0.28665626143E+03  0.12577443943E+03  0.73670944947E+02  0.34502664282E+03  0.12499981718E+03 0.  0.
         24    2    1    2    0    0 -0.16169498894E+03  0.24123408149E+02  0.75870064647E+03  0.78081776615E+03  0.85571634946E+02 0.  0.
        -11    1    5    5    0    0 -0.98391072121E+02  0.51098131086E+02  0.37699877247E+03  0.39296297093E+03  0.00000000000E+00 0.  1.
         12    1    5    5    0    0 -0.63303916823E+02 -0.26974722937E+02  0.38170187400E+03  0.38785479522E+03  0.00000000000E+00 0. -1.
        -11    1    3    3    0    0 -0.46888692062E+01 -0.49578916485E+02  0.36993109551E+03  0.37326809384E+03  0.00000000000E+00 0.  1.
         12    1    3    3    0    0 -0.87629059332E+02 -0.29661807652E+02  0.55050107100E+03  0.55822047978E+03  0.00000000000E+00 0. -1.
          5    1    4    4  501    0  0.18806834461E+03  0.87892781012E+02  0.10776532736E+03  0.23394507685E+03  0.47000000000E+01 0.  1.
         -5    1    4    4    0  501  0.98587916816E+02  0.37881658416E+02 -0.34094382415E+02  0.11108156597E+03  0.47000000000E+01 0.  1.
          1    1    1    2  502    0 -0.13052076500E+02 -0.23911793537E+02  0.12278460861E+03  0.12577038874E+03  0.00000000000E+00 0. -1.
          1    1    1    2  503    0 -0.19591267446E+02 -0.46745329903E+02 -0.19613814748E+04  0.19620362467E+04  0.00000000000E+00 0. -1.
<mgrwt>
<rscale>  0 0.37160254E+02</rscale>
<asrwt>0</asrwt>
<pdfrwt beam="1">  1        2 0.29848136E+00 0.27242074E+02</pdfrwt>
<pdfrwt beam="2">  1        2 0.31109799E+00 0.50689404E+02</pdfrwt>
<totfact> 0.13955060E+01</totfact>
</mgrwt>
</event>
<event>
13    1  0.1675423E-008  0.1563401E+03  0.7546771E-02  0.1274965E+00
          2   -1    0    0  503    0  0.00000000000E+00  0.00000000000E+00  0.15179527273E+04  0.15179527273E+04  0.00000000000E+00 0. -1.
          2   -1    0    0  502    0 -0.00000000000E+00 -0.00000000000E+00 -0.49719622289E+03  0.49719622289E+03  0.00000000000E+00 0. -1.
         24    2    1    2    0    0 -0.51512335512E+02 -0.54069010888E+02  0.21383458202E+03  0.24034636982E+03  0.80400064486E+02 0.  0.
         25    2    1    2    0    0  0.20295218312E+03 -0.50540122585E+02 -0.59715703660E+02  0.25086971567E+03  0.12500302537E+03 0.  0.
         24    2    1    2    0    0 -0.29334953490E+02  0.51665343131E+02  0.58042881047E+02  0.11606411094E+03  0.81068209736E+02 0.  0.
        -11    1    5    5    0    0  0.23994533133E+02  0.42868163082E+01  0.31772580628E+02  0.40045115733E+02  0.00000000000E+00 0.  1.
         12    1    5    5    0    0 -0.53329486623E+02  0.47378526823E+02  0.26270300420E+02  0.76018995202E+02  0.00000000000E+00 0. -1.
        -13    1    3    3    0    0 -0.61204021138E+02 -0.58655574215E+02  0.21339326805E+03  0.22961510282E+03  0.00000000000E+00 0.  1.
         14    1    3    3    0    0  0.96916856265E+01  0.45865633263E+01  0.44131396207E+00  0.10731267001E+02  0.00000000000E+00 0. -1.
          5    1    4    4  501    0  0.53805305017E+02  0.58282738028E+01 -0.72785100958E+02  0.90822577286E+02  0.47000000000E+01 0.  1.
         -5    1    4    4    0  501  0.14914687810E+03 -0.56368396388E+02  0.13069397298E+02  0.16004713838E+03  0.47000000000E+01 0.  1.
          1    1    1    2  502    0  0.61718758934E+02 -0.26845159333E+02 -0.28664842002E+03  0.29444385625E+03  0.00000000000E+00 0. -1.
          1    1    1    2  503    0 -0.18382365305E+03  0.79788949675E+02  0.10952431650E+04  0.11134248975E+04  0.00000000000E+00 0. -1.
<mgrwt>
<rscale>  0 0.10257854E+03</rscale>
<asrwt>0</asrwt>
<pdfrwt beam="1">  1        2 0.22322834E+00 0.15634005E+03</pdfrwt>
<pdfrwt beam="2">  1        2 0.73117092E-01 0.67304292E+02</pdfrwt>
<totfact> 0.15806047E+02</totfact>
</mgrwt>
</event>
<event>
13    1  0.1675423E-008  0.6895985E+02  0.7546771E-02  0.1487579E+00
          2   -1    0    0  502    0  0.00000000000E+00  0.00000000000E+00  0.15416492588E+04  0.15416492588E+04  0.00000000000E+00 0. -1.
          2   -1    0    0  503    0 -0.00000000000E+00 -0.00000000000E+00 -0.35820795411E+04  0.35820795411E+04  0.00000000000E+00 0. -1.
         24    2    1    2    0    0  0.92369875829E+03  0.73371927970E+03  0.36541172957E+03  0.12374026618E+04  0.77950227357E+02 0.  0.
         25    2    1    2    0    0 -0.10432434309E+04 -0.45941026147E+03 -0.39745379790E+02  0.11474408842E+04  0.12500497215E+03 0.  0.
         24    2    1    2    0    0  0.17219810124E+03 -0.23717384584E+03 -0.15700147242E+04  0.15997424243E+04  0.91246757923E+02 0.  0.
        -13    1    3    3    0    0  0.23196493082E+03  0.16437523163E+03  0.11921460504E+03  0.30828407023E+03  0.00000000000E+00 0.  1.
         14    1    3    3    0    0  0.69173382747E+03  0.56934404808E+03  0.24619712452E+03  0.92911859161E+03  0.00000000000E+00 0. -1.
        -13    1    5    5    0    0  0.15082702105E+03 -0.13557352832E+03 -0.10021152704E+04  0.10224304314E+04  0.00000000000E+00 0.  1.
         14    1    5    5    0    0  0.21371080195E+02 -0.10160031752E+03 -0.56789945381E+03  0.57731199297E+03  0.00000000000E+00 0. -1.
          5    1    4    4  501    0 -0.41005386570E+03 -0.11523808969E+03 -0.78406129319E+01  0.42603703513E+03  0.47000000000E+01 0.  1.
         -5    1    4    4    0  501 -0.63318956520E+03 -0.34417217178E+03 -0.31904766858E+02  0.72140384907E+03  0.47000000000E+01 0.  1.
          1    1    1    2  502    0 -0.36561423946E+02 -0.58499760566E+02  0.16440072548E+03  0.17828785221E+03  0.00000000000E+00 0. -1.
          1    1    1    2  503    0 -0.16092004692E+02  0.21364588166E+02 -0.96048263344E+03  0.96085497729E+03  0.00000000000E+00 0. -1.
<mgrwt>
<rscale>  0 0.42947225E+02</rscale>
<asrwt>0</asrwt>
<pdfrwt beam="1">  1        2 0.22671313E+00 0.68959847E+02</pdfrwt>
<pdfrwt beam="2">  1        2 0.52677639E+00 0.26746930E+02</pdfrwt>
<totfact> 0.43525373E+00</totfact>
</mgrwt>
</event>
<event>
13    1  0.1675423E-008  0.5306702E+02  0.7546771E-02  0.1561485E+00
          2   -1    0    0  502    0  0.00000000000E+00  0.00000000000E+00  0.25543870256E+03  0.25543870256E+03  0.00000000000E+00 0. -1.
          2   -1    0    0  503    0 -0.00000000000E+00 -0.00000000000E+00 -0.44259388409E+04  0.44259388409E+04  0.00000000000E+00 0. -1.
         24    2    1    2    0    0 -0.29802007350E+02  0.69233426188E+01  0.29745517804E+02  0.91264554027E+02  0.80674225607E+02 0.  0.
         25    2    1    2    0    0  0.49990455311E+02 -0.65914719637E+02 -0.23645284974E+04  0.23692752222E+04  0.12500506923E+03 0.  0.
         24    2    1    2    0    0 -0.16099871882E+02 -0.30616517311E+01 -0.15424835161E+03  0.17178154448E+03  0.73808979556E+02 0.  0.
        -11    1    3    3    0    0  0.13305807613E+02 -0.26558180863E+02  0.13458099770E+01  0.29735377776E+02  0.00000000000E+00 0.  1.
         12    1    3    3    0    0 -0.43107814963E+02  0.33481523482E+02  0.28399707827E+02  0.61529176251E+02  0.00000000000E+00 0. -1.
        -13    1    5    5    0    0 -0.22481154573E+02 -0.14020746819E+02 -0.15664977766E+03  0.15887459360E+03  0.00000000000E+00 0.  1.
         14    1    5    5    0    0  0.63812826909E+01  0.10959095088E+02  0.24014260448E+01  0.12906950878E+02  0.00000000000E+00 0. -1.
          5    1    4    4  501    0  0.13469128238E+02  0.29050293848E+02 -0.22412339618E+03  0.22644805961E+03  0.47000000000E+01 0. -1.
         -5    1    4    4    0  501  0.36521327073E+02 -0.94965013485E+02 -0.21404051013E+04  0.21428271626E+04  0.47000000000E+01 0. -1.
          1    1    1    2  502    0  0.16641049079E+02  0.13234741080E+02  0.18280036936E+03  0.18403276318E+03  0.00000000000E+00 0. -1.
          1    1    1    2  503    0 -0.20729625158E+02  0.48818287670E+02 -0.18642691764E+04  0.18650234596E+04  0.00000000000E+00 0. -1.
<mgrwt>
<rscale>  0 0.33590531E+02</rscale>
<asrwt>0</asrwt>
<pdfrwt beam="1">  1        2 0.37564520E-01 0.21262241E+02</pdfrwt>
<pdfrwt beam="2">  1        2 0.65087327E+00 0.53067021E+02</pdfrwt>
<totfact> 0.86293121E+00</totfact>
</mgrwt>
</event>
<event>
13    1  0.1675423E-008  0.6121451E+02  0.7546771E-02  0.1450171E+00
          2   -1    0    0  503    0  0.00000000000E+00  0.00000000000E+00  0.32976583194E+04  0.32976583194E+04  0.00000000000E+00 0. -1.
          2   -1    0    0  502    0 -0.00000000000E+00 -0.00000000000E+00 -0.93362592654E+03  0.93362592654E+03  0.00000000000E+00 0. -1.
         24    2    1    2    0    0  0.59374159300E+03  0.25706350410E+03 -0.41365382425E+03  0.77238169771E+03  0.82784516990E+02 0.  0.
         25    2    1    2    0    0 -0.37339289313E+03 -0.48938349860E+03  0.74591958287E+03  0.97516071133E+03  0.12499570983E+03 0.  0.
         24    2    1    2    0    0 -0.20300642150E+03  0.14450051930E+03  0.64528715296E+02  0.26948625896E+03  0.79792740428E+02 0.  0.
        -13    1    3    3    0    0  0.59238047009E+01  0.94910150483E+01  0.15856203929E+01  0.11299779680E+02  0.00000000000E+00 0.  1.
         14    1    3    3    0    0  0.58781778829E+03  0.24757248905E+03 -0.41523944464E+03  0.76108191803E+03  0.00000000000E+00 0. -1.
        -13    1    5    5    0    0 -0.37957155369E+02  0.71936756554E+02  0.18790996105E+02  0.83479004078E+02  0.00000000000E+00 0.  1.
         14    1    5    5    0    0 -0.16504926613E+03  0.72563762749E+02  0.45737719191E+02  0.18600725489E+03  0.00000000000E+00 0. -1.
          5    1    4    4  501    0 -0.21496409384E+03 -0.17972085752E+03  0.33695068289E+03  0.43825449338E+03  0.47000000000E+01 0. -1.
         -5    1    4    4    0  501 -0.15842879930E+03 -0.30966264108E+03  0.40896889998E+03  0.53690621795E+03  0.47000000000E+01 0. -1.
          1    1    1    2  502    0  0.15552679795E+02  0.36209052592E+02 -0.11990534026E+03  0.12621518119E+03  0.00000000000E+00 0. -1.
          1    1    1    2  503    0 -0.32894958161E+02  0.51610422599E+02  0.20871432592E+04  0.20880403968E+04  0.00000000000E+00 0. -1.
<mgrwt>
<rscale>  0 0.49115521E+02</rscale>
<asrwt>0</asrwt>
<pdfrwt beam="1">  1        2 0.48494975E+00 0.61214513E+02</pdfrwt>
<pdfrwt beam="2">  1        2 0.13729793E+00 0.39407884E+02</pdfrwt>
<totfact> 0.11295369E+01</totfact>
</mgrwt>
</event>
<event>
13    1  0.1675423E-008  0.8510982E+02  0.7546771E-02  0.1377168E+00
          2   -1    0    0  503    0  0.00000000000E+00  0.00000000000E+00  0.22899258839E+04  0.22899258839E+04  0.00000000000E+00 0. -1.
          2   -1    0    0  502    0 -0.00000000000E+00 -0.00000000000E+00 -0.43588711323E+04  0.43588711323E+04  0.00000000000E+00 0. -1.
         24    2    1    2    0    0 -0.76150187982E+03  0.42123495715E+03  0.69070102489E+03  0.11140336448E+04  0.81725479328E+02 0.  0.
         25    2    1    2    0    0  0.11741013877E+03 -0.67086005511E+03 -0.11654255243E+04  0.13556110563E+04  0.12500531658E+03 0.  0.
         24    2    1    2    0    0  0.63067853533E+03  0.11604136640E+03 -0.15205260495E+04  0.16521997789E+04  0.80892697584E+02 0.  0.
        -13    1    5    5    0    0  0.39929940327E+03  0.11000326933E+03 -0.10121936234E+04  0.10936528992E+04  0.00000000000E+00 0.  1.
         14    1    5    5    0    0  0.23137913206E+03  0.60380970675E+01 -0.50833242606E+03  0.55854687964E+03  0.00000000000E+00 0. -1.
        -13    1    3    3    0    0 -0.18267979983E+03  0.11957249440E+03  0.21450127114E+03  0.30607235419E+03  0.00000000000E+00 0.  1.
         14    1    3    3    0    0 -0.57882207999E+03  0.30166246275E+03  0.47619975375E+03  0.80796129065E+03  0.00000000000E+00 0. -1.
          5    1    4    4  501    0  0.42632120886E+02 -0.95312483370E+02 -0.11425254195E+03  0.15484734599E+03  0.47000000000E+01 0. -1.
         -5    1    4    4    0  501  0.74778017885E+02 -0.57554757173E+03 -0.10511729823E+04  0.12007637103E+04  0.47000000000E+01 0. -1.
          1    1    1    2  502    0  0.11990929283E+02  0.48509289287E+02 -0.12983669095E+04  0.12993281207E+04  0.00000000000E+00 0. -1.
          1    1    1    2  503    0  0.14222764321E+01  0.85074442265E+02  0.12246722100E+04  0.12276244155E+04  0.00000000000E+00 0. -1.
<mgrwt>
<rscale>  0 0.65214113E+02</rscale>
<asrwt>0</asrwt>
<pdfrwt beam="1">  1        2 0.33675381E+00 0.85109824E+02</pdfrwt>
<pdfrwt beam="2">  1        2 0.64101046E+00 0.49969326E+02</pdfrwt>
<totfact> 0.51087874E-01</totfact>
</mgrwt>
</event>
<event>
13    1  0.1675423E-008  0.2182142E+03  0.7546771E-02  0.1174211E+00
          2   -1    0    0  503    0  0.00000000000E+00  0.00000000000E+00  0.98654592599E+03  0.98654592599E+03  0.00000000000E+00 0. -1.
          2   -1    0    0  502    0 -0.00000000000E+00 -0.00000000000E+00 -0.37437581759E+04  0.37437581759E+04  0.00000000000E+00 0. -1.
         24    2    1    2    0    0 -0.39319172993E+03 -0.55651874243E+03 -0.71814379505E+02  0.69141630822E+03  0.92662608488E+02 0.  0.
         25    2    1    2    0    0  0.18942777138E+03 -0.88767972384E+01 -0.21037390492E+03  0.30958673285E+03  0.12500034873E+03 0.  0.
         24    2    1    2    0    0  0.21874304556E+03  0.39237076784E+03  0.53052484522E+02  0.45908075735E+03  0.78340514512E+02 0.  0.
        -11    1    3    3    0    0 -0.27707628443E+03 -0.38002215973E+03 -0.67422402717E+01  0.47035472474E+03  0.00000000000E+00 0.  1.
         12    1    3    3    0    0 -0.11611544550E+03 -0.17649658269E+03 -0.65072139234E+02  0.22106158348E+03  0.00000000000E+00 0. -1.
        -11    1    5    5    0    0  0.21829122342E+03  0.36808757978E+03  0.63514915376E+02  0.43263572331E+03  0.00000000000E+00 0.  1.
         12    1    5    5    0    0  0.45182213998E+00  0.24283188062E+02 -0.10462430854E+02  0.26445034035E+02  0.00000000000E+00 0. -1.
          5    1    4    4  501    0  0.19234987571E+02  0.59166078173E+01 -0.10887538842E+03  0.11081936292E+03  0.47000000000E+01 0. -1.
         -5    1    4    4    0  501  0.17019278381E+03 -0.14793405056E+02 -0.10149851650E+03  0.19876736993E+03  0.47000000000E+01 0. -1.
          1    1    1    2  502    0 -0.15208049608E+03  0.15727036712E+03 -0.28820264908E+04  0.28903181727E+04  0.00000000000E+00 0. -1.
          1    1    1    2  503    0  0.13710140906E+03  0.15754404700E+02  0.35395004077E+03  0.37990213082E+03  0.00000000000E+00 0. -1.
<mgrwt>
<rscale>  0 0.17353486E+03</rscale>
<asrwt>0</asrwt>
<pdfrwt beam="1">  1        2 0.14508028E+00 0.13800361E+03</pdfrwt>
<pdfrwt beam="2">  1        2 0.55055267E+00 0.21821420E+03</pdfrwt>
<totfact> 0.43013787E+00</totfact>
</mgrwt>
</event>
<event>
13    1  0.1675423E-008  0.1229351E+03  0.7546771E-02  0.1300223E+00
          2   -1    0    0  503    0  0.00000000000E+00  0.00000000000E+00  0.24546472706E+04  0.24546472706E+04  0.00000000000E+00 0. -1.
          2   -1    0    0  502    0 -0.00000000000E+00 -0.00000000000E+00 -0.52275089739E+03  0.52275089739E+03  0.00000000000E+00 0. -1.
         24    2    1    2    0    0  0.38405050244E+02  0.94742061060E+02  0.60224663031E+03  0.61614792541E+03  0.80537297200E+02 0.  0.
         25    2    1    2    0    0 -0.88881306364E+01  0.44087839393E+02 -0.25164183750E+03  0.28455814254E+03  0.12500794238E+03 0.  0.
         24    2    1    2    0    0  0.11068947358E+03  0.25620618387E+02  0.68485100798E+02  0.15448404474E+03  0.79161451471E+02 0.  0.
        -13    1    3    3    0    0  0.52612317235E+02  0.26710564498E+02  0.22855487073E+03  0.23604838300E+03  0.00000000000E+00 0.  1.
         14    1    3    3    0    0 -0.14207266991E+02  0.68031496562E+02  0.37369175958E+03  0.38009954241E+03  0.00000000000E+00 0. -1.
        -13    1    5    5    0    0  0.11795502746E+03  0.74758369136E+01  0.52920467414E+02  0.12949846529E+03  0.00000000000E+00 0.  1.
         14    1    5    5    0    0 -0.72655538810E+01  0.18144781474E+02  0.15564633384E+02  0.24985579447E+02  0.00000000000E+00 0. -1.
          5    1    4    4  501    0 -0.50681855955E+02  0.40788595503E+02 -0.61003121528E+02  0.89307507424E+02  0.47000000000E+01 0.  1.
         -5    1    4    4    0  501  0.41793725319E+02  0.32992438894E+01 -0.19063871597E+03  0.19525063511E+03  0.47000000000E+01 0.  1.
          1    1    1    2  502    0  0.13233685940E+02 -0.66190535662E+02 -0.19415266886E+03  0.20555188221E+03  0.00000000000E+00 0. -1.
          1    1    1    2  503    0 -0.15344007913E+03 -0.98259983178E+02  0.17069591485E+04  0.17166561731E+04  0.00000000000E+00 0. -1.
<mgrwt>
<rscale>  0 0.91094356E+02</rscale>
<asrwt>0</asrwt>
<pdfrwt beam="1">  1        2 0.36097753E+00 0.12293512E+03</pdfrwt>
<pdfrwt beam="2">  1        2 0.76875133E-01 0.67500500E+02</pdfrwt>
<totfact> 0.53010661E+01</totfact>
</mgrwt>
</event>
<event>
13    1  0.1675423E-008  0.3098675E+02  0.7546771E-02  0.1627795E+00
          2   -1    0    0  503    0  0.00000000000E+00  0.00000000000E+00  0.12931803053E+04  0.12931803053E+04  0.00000000000E+00 0. -1.
          2   -1    0    0  502    0 -0.00000000000E+00 -0.00000000000E+00 -0.18232577640E+04  0.18232577640E+04  0.00000000000E+00 0. -1.
         24    2    1    2    0    0 -0.12367670657E+03  0.43540636185E+02  0.25434580591E+03  0.29742296575E+03  0.81098192476E+02 0.  0.
         25    2    1    2    0    0  0.18555173433E+03 -0.87162112474E+02 -0.87926370945E+03  0.91145823945E+03  0.12499908617E+03 0.  0.
         24    2    1    2    0    0 -0.75379155304E+02 -0.82332910635E+01 -0.42598688842E+03  0.44019739158E+03  0.80988334394E+02 0.  0.
        -11    1    5    5    0    0 -0.57898821138E+02 -0.10372514370E+02 -0.11937210151E+03  0.13307727515E+03  0.00000000000E+00 0.  1.
         12    1    5    5    0    0 -0.17480334167E+02  0.21392233062E+01 -0.30661478691E+03  0.30712011642E+03  0.00000000000E+00 0. -1.
        -13    1    3    3    0    0 -0.47750946157E+02  0.46522031912E+02  0.17636254860E+03  0.18854230523E+03  0.00000000000E+00 0.  1.
         14    1    3    3    0    0 -0.75925760410E+02 -0.29813957269E+01  0.77983257314E+02  0.10888066052E+03  0.00000000000E+00 0. -1.
          5    1    4    4  501    0  0.56839994717E+02  0.24579427014E+02 -0.34808963645E+03  0.35358650743E+03  0.47000000000E+01 0. -1.
         -5    1    4    4    0  501  0.12871173961E+03 -0.11174153949E+03 -0.53117407301E+03  0.55787173203E+03  0.47000000000E+01 0. -1.
          1    1    1    2  502    0 -0.75970343905E+00  0.24350474517E+02 -0.47271089677E+03  0.47333826665E+03  0.00000000000E+00 0. -1.
          1    1    1    2  503    0  0.14263830982E+02  0.27504292835E+02  0.99353823004E+03  0.99402120579E+03  0.00000000000E+00 0. -1.
<mgrwt>
<rscale>  0 0.27475611E+02</rscale>
<asrwt>0</asrwt>
<pdfrwt beam="1">  1        2 0.19017358E+00 0.30986751E+02</pdfrwt>
<pdfrwt beam="2">  1        2 0.26812614E+00 0.24362323E+02</pdfrwt>
<totfact> 0.44317530E+01</totfact>
</mgrwt>
</event>
<event>
13    1  0.1675423E-008  0.1224891E+03  0.7546771E-02  0.1297329E+00
          2   -1    0    0  502    0  0.00000000000E+00  0.00000000000E+00  0.34222196701E+04  0.34222196701E+04  0.00000000000E+00 0. -1.
          2   -1    0    0  503    0 -0.00000000000E+00 -0.00000000000E+00 -0.17417237955E+04  0.17417237955E+04  0.00000000000E+00 0. -1.
         24    2    1    2    0    0 -0.26864313069E+03  0.62314414725E+02  0.11974105894E+04  0.12315754309E+04  0.83268868572E+02 0.  0.
         25    2    1    2    0    0  0.65835598844E+02 -0.34169110877E+03 -0.52822767620E+03  0.64478116606E+03  0.12502453484E+03 0.  0.
         24    2    1    2    0    0  0.17611012708E+03  0.20639339692E+03  0.49642935708E+03  0.57125327265E+03  0.79216057670E+02 0.  0.
        -11    1    3    3    0    0 -0.57424416474E+02 -0.14097963549E+02  0.17290191935E+03  0.18273311112E+03  0.00000000000E+00 0.  1.
         12    1    3    3    0    0 -0.21121871421E+03  0.76412378274E+02  0.10245086701E+04  0.10488423198E+04  0.00000000000E+00 0. -1.
        -13    1    5    5    0    0  0.11812696619E+02  0.34543790580E+02  0.28237673524E+02  0.46153867390E+02  0.00000000000E+00 0.  1.
         14    1    5    5    0    0  0.16429743046E+03  0.17184960634E+03  0.46819168355E+03  0.52509940526E+03  0.00000000000E+00 0. -1.
          5    1    4    4  501    0  0.66091686213E+02 -0.30761470972E+03 -0.52245742167E+03  0.60990062147E+03  0.47000000000E+01 0. -1.
         -5    1    4    4    0  501 -0.25608736888E+00 -0.34076399056E+02 -0.57702545375E+01  0.34880544589E+02  0.47000000000E+01 0. -1.
          1    1    1    2  502    0 -0.69516737970E+02 -0.29937146088E+01  0.16114419172E+04  0.16129434558E+04  0.00000000000E+00 0. -1.
          1    1    1    2  503    0  0.96214142730E+02  0.75977011743E+02 -0.10965583129E+04  0.11033901401E+04  0.00000000000E+00 0. -1.
<mgrwt>
<rscale>  0 0.92319745E+02</rscale>
<asrwt>0</asrwt>
<pdfrwt beam="1">  1        2 0.50326760E+00 0.69581170E+02</pdfrwt>
<pdfrwt beam="2">  1        2 0.25613585E+00 0.12248911E+03</pdfrwt>
<totfact> 0.33626996E+00</totfact>
</mgrwt>
</event>
<event>
13    1  0.1675423E-008  0.6250429E+02  0.7546771E-02  0.1414313E+00
         -3   -1    0    0    0  501 -0.00000000000E+00  0.00000000000E+00  0.87394148313E+03  0.87394148313E+03  0.00000000000E+00 0.  1.
          2   -1    0    0  503    0  0.00000000000E+00 -0.00000000000E+00 -0.15110279263E+04  0.15110279263E+04  0.00000000000E+00 0. -1.
         24    2    1    2    0    0  0.49433460924E+02  0.11850266363E+03 -0.56767116286E+03  0.58746425548E+03  0.79857084727E+02 0.  0.
         25    2    1    2    0    0 -0.11515169882E+03 -0.51452922018E+02  0.33072334068E+03  0.37537686368E+03  0.12499017878E+03 0.  0.
         24    2    1    2    0    0 -0.30181271608E+02 -0.27407281762E+02 -0.13460863678E+02  0.91976233166E+02  0.81341037410E+02 0.  0.
        -11    1    3    3    0    0  0.27551886757E+02  0.71427097518E-01 -0.16077046728E+03  0.16311423823E+03  0.00000000000E+00 0.  1.
         12    1    3    3    0    0  0.21881574168E+02  0.11843123653E+03 -0.40690069558E+03  0.42435001725E+03  0.00000000000E+00 0. -1.
        -11    1    5    5    0    0  0.63214207692E+01 -0.48234407006E+02 -0.11017541091E+02  0.49878899260E+02  0.00000000000E+00 0.  1.
         12    1    5    5    0    0 -0.36502692377E+02  0.20827125243E+02 -0.24433225869E+01  0.42097333906E+02  0.00000000000E+00 0. -1.
          5    1    4    4  502    0 -0.19041999697E+02 -0.70376738720E+02  0.19250624450E+03  0.20590344164E+03  0.47000000000E+01 0.  1.
         -5    1    4    4    0  502 -0.96109699125E+02  0.18923816702E+02  0.13821709618E+03  0.16947342205E+03  0.47000000000E+01 0.  1.
          1    1    1    2  503    0  0.62383071265E+02 -0.17239529408E+01 -0.85591827755E+03  0.85819037365E+03  0.00000000000E+00 0. -1.
         -4    1    1    2    0  501  0.33516438240E+02 -0.37918506908E+02  0.46924052024E+03  0.47196168344E+03  0.00000000000E+00 0.  1.
<mgrwt>
<rscale>  0 0.56242459E+02</rscale>
<asrwt>0</asrwt>
<pdfrwt beam="2">  1        2 0.22220999E+00 0.62504291E+02</pdfrwt>
<pdfrwt beam="1">  1       -3 0.12852081E+00 0.50607952E+02</pdfrwt>
<totfact> 0.50659061E+00</totfact>
</mgrwt>
</event>
<event>
13    1  0.1675423E-008  0.1029442E+03  0.7546771E-02  0.1279268E+00
          2   -1    0    0  503    0  0.00000000000E+00  0.00000000000E+00  0.58305235334E+03  0.58305235334E+03  0.00000000000E+00 0. -1.
          2   -1    0    0  502    0 -0.00000000000E+00 -0.00000000000E+00 -0.16877606737E+04  0.16877606737E+04  0.00000000000E+00 0. -1.
         24    2    1    2    0    0  0.79736457115E+01  0.14456804337E+02  0.37549351655E+03  0.38426699693E+03  0.79957274449E+02 0.  0.
         25    2    1    2    0    0  0.27330984369E+02  0.94327165238E+02 -0.15800616791E+03  0.22412956704E+03  0.12499406753E+03 0.  0.
         24    2    1    2    0    0  0.61504183059E+02 -0.17644669884E+02 -0.20289220923E+03  0.22972669681E+03  0.86689144351E+02 0.  0.
        -11    1    5    5    0    0  0.10581917886E+02 -0.25254411021E+02 -0.16110576106E+03  0.16341612072E+03  0.00000000000E+00 0.  1.
         12    1    5    5    0    0  0.50922265173E+02  0.76097411367E+01 -0.41786448169E+02  0.66310576088E+02  0.00000000000E+00 0. -1.
        -13    1    3    3    0    0 -0.23227136425E+02  0.35882511940E+02  0.16818545740E+03  0.17353213711E+03  0.00000000000E+00 0.  1.
         14    1    3    3    0    0  0.31200782136E+02 -0.21425707603E+02  0.20730805915E+03  0.21073485982E+03  0.00000000000E+00 0. -1.
          5    1    4    4  501    0 -0.13014586824E+02 -0.65814297527E+01  0.13907011554E+02  0.20692744094E+02  0.47000000000E+01 0.  1.
         -5    1    4    4    0  501  0.40345571193E+02  0.10090859499E+03 -0.17191317947E+03  0.20343682295E+03  0.47000000000E+01 0.  1.
          1    1    1    2  502    0 -0.94598583145E+02  0.40645564872E+02 -0.12457752206E+04  0.12500227415E+04  0.00000000000E+00 0. -1.
          1    1    1    2  503    0 -0.22102299946E+01 -0.13178486456E+03  0.12647176087E+03  0.18266702478E+03  0.00000000000E+00 0. -1.
<mgrwt>
<rscale>  0 0.10049028E+03</rscale>
<asrwt>0</asrwt>
<pdfrwt beam="1">  1        2 0.85742992E-01 0.98094901E+02</pdfrwt>
<pdfrwt beam="2">  1        2 0.24820010E+00 0.10294415E+03</pdfrwt>
<totfact> 0.11279989E+02</totfact>
</mgrwt>
</event>
<event>
13    1  0.1675423E-008  0.1730831E+03  0.7546771E-02  0.1294894E+00
          2   -1    0    0  502    0  0.00000000000E+00  0.00000000000E+00  0.37710777735E+04  0.37710777735E+04  0.00000000000E+00 0. -1.
          2   -1    0    0  503    0 -0.00000000000E+00 -0.00000000000E+00 -0.21698962687E+03  0.21698962687E+03  0.00000000000E+00 0. -1.
         24    2    1    2    0    0 -0.12061708364E+03  0.11853729105E+03  0.14355702370E+03  0.23619560227E+03  0.81118267001E+02 0.  0.
         25    2    1    2    0    0  0.32712457558E+02  0.31342181214E+02  0.10033779730E+04  0.10121484278E+04  0.12499858377E+03 0.  0.
         24    2    1    2    0    0  0.38294353330E+02  0.10754937916E+03  0.11243392963E+01  0.13851707553E+03  0.78437169893E+02 0.  0.
        -11    1    3    3    0    0 -0.10959234695E+02  0.36528158241E+02  0.72514837463E+02  0.81931757102E+02  0.00000000000E+00 0.  1.
         12    1    3    3    0    0 -0.10965784895E+03  0.82009132811E+02  0.71042186235E+02  0.15426384516E+03  0.00000000000E+00 0. -1.
        -13    1    5    5    0    0 -0.12546829583E+02 -0.52485507865E+01 -0.53659458439E+01  0.14620656371E+02  0.00000000000E+00 0.  1.
         14    1    5    5    0    0  0.50841182912E+02  0.11279792994E+03  0.64902851402E+01  0.12389641916E+03  0.00000000000E+00 0. -1.
          5    1    4    4  501    0 -0.30910738545E+02  0.19534198745E+02  0.73924695237E+03  0.74016566069E+03  0.47000000000E+01 0.  1.
         -5    1    4    4    0  501  0.63623196103E+02  0.11807982469E+02  0.26413102063E+03  0.27198276709E+03  0.47000000000E+01 0.  1.
          1    1    1    2  502    0  0.18782816670E+02  0.46733368896E+02  0.22632120553E+04  0.22637724288E+04  0.00000000000E+00 0. -1.
          1    1    1    2  503    0  0.30827456084E+02 -0.30416222032E+03  0.14281675526E+03  0.33743386597E+03  0.00000000000E+00 0. -1.
<mgrwt>
<rscale>  0 0.93368209E+02</rscale>
<asrwt>0</asrwt>
<pdfrwt beam="1">  1        2 0.55457022E+00 0.50366675E+02</pdfrwt>
<pdfrwt beam="2">  1        2 0.31910242E-01 0.17308314E+03</pdfrwt>
<totfact> 0.30073951E+01</totfact>
</mgrwt>
</event>
<event>
13    1  0.1675423E-008  0.9915434E+02  0.7546771E-02  0.1283088E+00
          2   -1    0    0  502    0  0.00000000000E+00  0.00000000000E+00  0.25743910630E+04  0.25743910630E+04  0.00000000000E+00 0. -1.
          2   -1    0    0  503    0 -0.00000000000E+00 -0.00000000000E+00 -0.34384938418E+04  0.34384938418E+04  0.00000000000E+00 0. -1.
         24    2    1    2    0    0  0.26753797525E+03  0.72782852290E+02  0.10295380726E+03  0.30376556900E+03  0.69282917755E+02 0.  0.
         25    2    1    2    0    0 -0.94229595397E+02 -0.58276590507E+02 -0.99838899985E+03  0.10122646628E+04  0.12499509939E+03 0.  0.
         24    2    1    2    0    0 -0.30920990171E+03  0.43821073028E+02 -0.33835338538E+03  0.46736191855E+03  0.80081831599E+02 0.  0.
        -11    1    3    3    0    0  0.82200797110E+02 -0.94226648003E+01  0.23595038614E+02  0.86037686537E+02  0.00000000000E+00 0.  1.
         12    1    3    3    0    0  0.18533717814E+03  0.82205517091E+02  0.79358768646E+02  0.21772788246E+03  0.00000000000E+00 0. -1.
        -13    1    5    5    0    0 -0.20458082741E+03 -0.33921604537E+01 -0.24644761201E+03  0.32031429435E+03  0.00000000000E+00 0.  1.
         14    1    5    5    0    0 -0.10462907430E+03  0.47213233482E+02 -0.91905773373E+02  0.14704762420E+03  0.00000000000E+00 0. -1.
          5    1    4    4  501    0 -0.87257260759E+02 -0.95153122526E+02 -0.77835078985E+03  0.78899935890E+03  0.47000000000E+01 0. -1.
         -5    1    4    4    0  501 -0.69723346380E+01  0.36876532019E+02 -0.22003821000E+03  0.22326530389E+03  0.47000000000E+01 0. -1.
          1    1    1    2  502    0  0.94292870649E+02  0.30638805129E+02  0.22972697692E+04  0.22994082444E+04  0.00000000000E+00 0. -1.
          1    1    1    2  503    0  0.41608651208E+02 -0.88966139940E+02 -0.19275839701E+04  0.19300845100E+04  0.00000000000E+00 0. -1.
<mgrwt>
<rscale>  0 0.98683725E+02</rscale>
<asrwt>0</asrwt>
<pdfrwt beam="1">  1        2 0.37858692E+00 0.99154340E+02</pdfrwt>
<pdfrwt beam="2">  1        2 0.50566086E+00 0.98215345E+02</pdfrwt>
<totfact> 0.12395820E+00</totfact>
</mgrwt>
</event>
<event>
13    1  0.1675423E-008  0.6135733E+02  0.7546771E-02  0.1462568E+00
         -1   -1    0    0    0  501 -0.00000000000E+00  0.00000000000E+00  0.11095288023E+03  0.11095288023E+03  0.00000000000E+00 0.  1.
          2   -1    0    0  503    0  0.00000000000E+00 -0.00000000000E+00 -0.19614984029E+04  0.19614984029E+04  0.00000000000E+00 0. -1.
         24    2    1    2    0    0  0.52584229045E+02  0.64476675725E+02 -0.10123626515E+04  0.10188904364E+04  0.79606786476E+02 0.  0.
         25    2    1    2    0    0 -0.15819291159E+03 -0.74385356771E+02 -0.38599371087E+03  0.44178879181E+03  0.12501205206E+03 0.  0.
         24    2    1    2    0    0  0.28183423437E+02  0.68163040180E+02 -0.11826394463E+03  0.16087074625E+03  0.80327647766E+02 0.  0.
        -11    1    5    5    0    0 -0.14736878176E+02  0.12360166518E+02  0.41318470999E+01  0.19672860879E+02  0.00000000000E+00 0.  1.
         12    1    5    5    0    0  0.42920301612E+02  0.55802873663E+02 -0.12239579173E+03  0.14119788537E+03  0.00000000000E+00 0. -1.
        -11    1    3    3    0    0 -0.19004102587E+02  0.18401608574E+02 -0.36440696697E+03  0.36536586142E+03  0.00000000000E+00 0.  1.
         12    1    3    3    0    0  0.71588331632E+02  0.46075067151E+02 -0.64795568454E+03  0.65352457503E+03  0.00000000000E+00 0. -1.
          5    1    4    4  502    0 -0.12704131869E+02 -0.67827309971E+02 -0.12077574261E+03  0.13917905355E+03  0.47000000000E+01 0. -1.
         -5    1    4    4    0  502 -0.14548877972E+03 -0.65580468000E+01 -0.26521796826E+03  0.30260973826E+03  0.47000000000E+01 0. -1.
          1    1    1    2  503    0  0.29153213014E+02 -0.20973987856E+02 -0.37541910305E+03  0.37713302816E+03  0.00000000000E+00 0. -1.
         -2    1    1    2    0  501  0.48272046097E+02 -0.37280371278E+02  0.41493887369E+02  0.73768280487E+02  0.00000000000E+00 0.  1.
<mgrwt>
<rscale>  0 0.46942403E+02</rscale>
<asrwt>0</asrwt>
<pdfrwt beam="2">  1        2 0.28845565E+00 0.35914036E+02</pdfrwt>
<pdfrwt beam="1">  1       -1 0.16316600E-01 0.61357325E+02</pdfrwt>
<totfact> 0.32129605E+02</totfact>
</mgrwt>
</event>
<event>
13    1  0.1675423E-008  0.9439593E+02  0.7546771E-02  0.1304185E+00
          2   -1    0    0  503    0  0.00000000000E+00  0.00000000000E+00  0.17478035799E+04  0.17478035799E+04  0.00000000000E+00 0. -1.
          2   -1    0    0  502    0 -0.00000000000E+00 -0.00000000000E+00 -0.22357923585E+04  0.22357923585E+04  0.00000000000E+00 0. -1.
         24    2    1    2    0    0 -0.14974767900E+03 -0.91524014792E+02 -0.97633447235E+02  0.21609938558E+03  0.79784972122E+02 0.  0.
         25    2    1    2    0    0  0.38404270265E+03  0.11648739488E+03  0.14862686788E+03  0.44583962689E+03  0.12499966569E+03 0.  0.
         24    2    1    2    0    0 -0.93110227649E+02  0.10994152137E+02 -0.11437155460E+03  0.16822296714E+03  0.80173114547E+02 0.  0.
        -13    1    5    5    0    0 -0.36040394813E+02  0.43869958095E+02 -0.62074009493E+02  0.84122921586E+02  0.00000000000E+00 0.  1.
         14    1    5    5    0    0 -0.57069832836E+02 -0.32875805958E+02 -0.52297545108E+02  0.84100045551E+02  0.00000000000E+00 0. -1.
        -13    1    3    3    0    0  0.45081855335E+01  0.70373992034E+01  0.54975002143E+00  0.83756163617E+01  0.00000000000E+00 0.  1.
         14    1    3    3    0    0 -0.15425586454E+03 -0.98561413996E+02 -0.98183197257E+02  0.20772376921E+03  0.00000000000E+00 0. -1.
          5    1    4    4  501    0  0.19408994829E+02  0.44059965389E+02  0.13045965143E+02  0.50102662972E+02  0.47000000000E+01 0. -1.
         -5    1    4    4    0  501  0.36463370782E+03  0.72427429487E+02  0.13558090273E+03  0.39573696392E+03  0.47000000000E+01 0. -1.
          1    1    1    2  502    0 -0.77736194955E+02  0.33799542213E+02 -0.17863868671E+04  0.17883968698E+04  0.00000000000E+00 0. -1.
          1    1    1    2  503    0 -0.63448601044E+02 -0.69757074432E+02  0.13617762225E+04  0.13650370890E+04  0.00000000000E+00 0. -1.
<mgrwt>
<rscale>  0 0.89451626E+02</rscale>
<asrwt>0</asrwt>
<pdfrwt beam="1">  1        2 0.25702994E+00 0.94395931E+02</pdfrwt>
<pdfrwt beam="2">  1        2 0.32879299E+00 0.84766297E+02</pdfrwt>
<totfact> 0.13634811E+01</totfact>
</mgrwt>
</event>
<event>
13    1  0.1675423E-008  0.1183651E+03  0.7546771E-02  0.1332104E+00
          2   -1    0    0  502    0  0.00000000000E+00  0.00000000000E+00  0.16418965578E+04  0.16418965578E+04  0.00000000000E+00 0. -1.
          2   -1    0    0  503    0 -0.00000000000E+00 -0.00000000000E+00 -0.19080795348E+03  0.19080795348E+03  0.00000000000E+00 0. -1.
         24    2    1    2    0    0 -0.15665437364E+02 -0.43789200222E+02  0.48216105504E+02  0.10476985868E+03  0.80554518638E+02 0.  0.
         25    2    1    2    0    0 -0.87028750160E+01  0.16851656079E+03  0.25381225835E+03  0.32942276707E+03  0.12500050274E+03 0.  0.
         24    2    1    2    0    0  0.49011798573E+01 -0.64330913292E+02  0.12296178588E+03  0.16008454558E+03  0.79655338674E+02 0.  0.
        -13    1    3    3    0    0  0.12873652586E+02 -0.13005768952E+02 -0.18451604067E+02  0.25987355571E+02  0.00000000000E+00 0.  1.
         14    1    3    3    0    0 -0.28539089950E+02 -0.30783431271E+02  0.66667709572E+02  0.78782503105E+02  0.00000000000E+00 0. -1.
        -13    1    5    5    0    0  0.18809345664E+02 -0.68335692464E+02  0.52634318549E+02  0.88283236449E+02  0.00000000000E+00 0.  1.
         14    1    5    5    0    0 -0.13908165806E+02  0.40047791719E+01  0.70327467332E+02  0.71801309136E+02  0.00000000000E+00 0. -1.
          5    1    4    4  501    0 -0.50432728330E+02  0.18198691991E+02  0.60658864747E+02  0.81094021662E+02  0.47000000000E+01 0.  1.
         -5    1    4    4    0  501  0.41729853314E+02  0.15031786880E+03  0.19315339360E+03  0.24832874541E+03  0.47000000000E+01 0.  1.
          1    1    1    2  502    0  0.74344741407E+01  0.52110896050E+02  0.11013064471E+04  0.11025636976E+04  0.00000000000E+00 0. -1.
          1    1    1    2  503    0  0.12032658382E+02 -0.11250734333E+03 -0.75207992503E+02  0.13586364233E+03  0.00000000000E+00 0. -1.
<mgrwt>
<rscale>  0 0.78933932E+02</rscale>
<asrwt>0</asrwt>
<pdfrwt beam="1">  1        2 0.24145537E+00 0.52638549E+02</pdfrwt>
<pdfrwt beam="2">  1        2 0.28059994E-01 0.11836507E+03</pdfrwt>
<totfact> 0.41436405E+02</totfact>
</mgrwt>
</event>
<event>
13    1  0.1675423E-008  0.3553378E+02  0.7546771E-02  0.1558287E+00
          2   -1    0    0  502    0  0.00000000000E+00  0.00000000000E+00  0.21322592186E+04  0.21322592186E+04  0.00000000000E+00 0. -1.
          2   -1    0    0  503    0 -0.00000000000E+00 -0.00000000000E+00 -0.10215712291E+04  0.10215712291E+04  0.00000000000E+00 0. -1.
         24    2    1    2    0    0 -0.78335028921E+02 -0.63081432734E+01  0.96750238837E+02  0.14836933029E+03  0.80477823203E+02 0.  0.
         25    2    1    2    0    0  0.50041791398E+03  0.60060441641E+03  0.12858178291E+02  0.79179167445E+03  0.12499987734E+03 0.  0.
         24    2    1    2    0    0 -0.38897820968E+03 -0.61366796676E+03  0.25099552632E+03  0.77295505754E+03  0.81045331236E+02 0.  0.
        -13    1    5    5    0    0 -0.88700204879E+02 -0.10886149605E+03  0.20173160290E+02  0.14186440027E+03  0.00000000000E+00 0.  1.
         14    1    5    5    0    0 -0.30027800480E+03 -0.50480647071E+03  0.23082236603E+03  0.63109065727E+03  0.00000000000E+00 0. -1.
        -13    1    3    3    0    0 -0.43047478717E+02  0.33577798654E+02  0.70002696989E+02  0.88774611078E+02  0.00000000000E+00 0.  1.
         14    1    3    3    0    0 -0.35287550204E+02 -0.39885941927E+02  0.26747541848E+02  0.59594719210E+02  0.00000000000E+00 0. -1.
          5    1    4    4  501    0  0.24703493608E+03  0.37520045647E+03  0.42946400029E+02  0.45129605079E+03  0.47000000000E+01 0.  1.
         -5    1    4    4    0  501  0.25338297791E+03  0.22540395994E+03 -0.30088221738E+02  0.34049562366E+03  0.47000000000E+01 0.  1.
          1    1    1    2  502    0 -0.28267460492E+02 -0.15841836893E+02  0.10942440725E+04  0.10947237566E+04  0.00000000000E+00 0. -1.
          1    1    1    2  503    0 -0.48372148911E+01  0.35213530512E+02 -0.34416002642E+03  0.34599062873E+03  0.00000000000E+00 0. -1.
<mgrwt>
<rscale>  0 0.33932775E+02</rscale>
<asrwt>0</asrwt>
<pdfrwt beam="1">  1        2 0.31356753E+00 0.32403906E+02</pdfrwt>
<pdfrwt beam="2">  1        2 0.15023106E+00 0.35533778E+02</pdfrwt>
<totfact> 0.42372446E+01</totfact>
</mgrwt>
</event>
<event>
13    1  0.1675423E-008  0.4867377E+02  0.7546771E-02  0.1559482E+00
          2   -1    0    0  503    0  0.00000000000E+00  0.00000000000E+00  0.95486456650E+03  0.95486456650E+03  0.00000000000E+00 0. -1.
          2   -1    0    0  502    0 -0.00000000000E+00 -0.00000000000E+00 -0.18603536134E+04  0.18603536134E+04  0.00000000000E+00 0. -1.
         24    2    1    2    0    0 -0.44853045273E+03  0.26854153721E+03 -0.11339703112E+03  0.54053947252E+03  0.77652498071E+02 0.  0.
         25    2    1    2    0    0  0.18590782804E+03 -0.10867585720E+02  0.46105779754E+03  0.51271722505E+03  0.12499934099E+03 0.  0.
         24    2    1    2    0    0  0.25247775405E+03 -0.23292415566E+03 -0.29508339761E+03  0.45970073875E+03  0.79068824977E+02 0.  0.
        -11    1    3    3    0    0 -0.28346532036E+03  0.14520914359E+03 -0.36381358826E+02  0.32056494895E+03  0.00000000000E+00 0.  1.
         12    1    3    3    0    0 -0.16506513237E+03  0.12333239362E+03 -0.77015672292E+02  0.21997452357E+03  0.00000000000E+00 0. -1.
        -11    1    5    5    0    0  0.13002517893E+03 -0.70415540028E+02 -0.10605974628E+03  0.18197133075E+03  0.00000000000E+00 0.  1.
         12    1    5    5    0    0  0.12245257512E+03 -0.16250861563E+03 -0.18902365132E+03  0.27772940800E+03  0.00000000000E+00 0. -1.
          5    1    4    4  501    0  0.21977669933E+01 -0.18451428967E+02  0.33773258254E+01  0.19462315906E+02  0.47000000000E+01 0. -1.
         -5    1    4    4    0  501  0.18371006105E+03  0.75838432474E+01  0.45768047172E+03  0.49325490915E+03  0.47000000000E+01 0. -1.
          1    1    1    2  502    0  0.28330722056E+02 -0.39597783197E+02 -0.11288356686E+04  0.11298852070E+04  0.00000000000E+00 0. -1.
          1    1    1    2  503    0 -0.18185851421E+02  0.14847987362E+02  0.17076925283E+03  0.17237553665E+03  0.00000000000E+00 0. -1.
<mgrwt>
<rscale>  0 0.33804338E+02</rscale>
<asrwt>0</asrwt>
<pdfrwt beam="1">  1        2 0.14042126E+00 0.23477392E+02</pdfrwt>
<pdfrwt beam="2">  1        2 0.27358141E+00 0.48673775E+02</pdfrwt>
<totfact> 0.59788554E+01</totfact>
</mgrwt>
</event>
<event>
13    1  0.1675423E-008  0.7605058E+02  0.7546771E-02  0.1490117E+00
          2   -1    0    0  502    0  0.00000000000E+00  0.00000000000E+00  0.36757688566E+04  0.36757688566E+04  0.00000000000E+00 0. -1.
          2   -1    0    0  503    0 -0.00000000000E+00 -0.00000000000E+00 -0.29847609534E+04  0.29847609534E+04  0.00000000000E+00 0. -1.
         24    2    1    2    0    0 -0.33488110638E+03  0.54424102427E+03  0.98098015375E+03  0.11748879603E+04  0.98468315906E+02 0.  0.
         25    2    1    2    0    0  0.41536738774E+03 -0.41848882124E+03 -0.17974212546E+04  0.18957880457E+04  0.12500474979E+03 0.  0.
         24    2    1    2    0    0 -0.65446409712E+02 -0.43356539549E+02  0.10916418085E+03  0.15704757796E+03  0.81142475301E+02 0.  0.
        -11    1    5    5    0    0 -0.29933851016E+02 -0.64669213503E+02  0.64202245030E+02  0.95916999946E+02  0.00000000000E+00 0.  1.
         12    1    5    5    0    0 -0.35512558696E+02  0.21312673954E+02  0.44961935815E+02  0.61130578015E+02  0.00000000000E+00 0. -1.
        -13    1    3    3    0    0 -0.17174338449E+03  0.30758209920E+03  0.62394466268E+03  0.71652597996E+03  0.00000000000E+00 0.  1.
         14    1    3    3    0    0 -0.16313772188E+03  0.23665892507E+03  0.35703549107E+03  0.45836198032E+03  0.00000000000E+00 0. -1.
          5    1    4    4  501    0  0.24630499051E+03 -0.30276983187E+03 -0.13133560674E+04  0.13701320992E+04  0.47000000000E+01 0.  1.
         -5    1    4    4    0  501  0.16906239723E+03 -0.11571898937E+03 -0.48406518719E+03  0.52565594652E+03  0.47000000000E+01 0.  1.
          1    1    1    2  502    0 -0.34033745195E+02 -0.68008773870E+02  0.24148073091E+04  0.24160045176E+04  0.00000000000E+00 0. -1.
          1    1    1    2  503    0  0.18993873540E+02 -0.14386889609E+02 -0.10165224859E+04  0.10168017084E+04  0.00000000000E+00 0. -1.
<mgrwt>
<rscale>  0 0.42568714E+02</rscale>
<asrwt>0</asrwt>
<pdfrwt beam="1">  1        2 0.54055424E+00 0.76050583E+02</pdfrwt>
<pdfrwt beam="2">  1        2 0.43893543E+00 0.23827501E+02</pdfrwt>
<totfact> 0.73609352E-01</totfact>
</mgrwt>
</event>
<event>
13    1  0.1675423E-008  0.8493929E+02  0.7546771E-02  0.1422064E+00
         -3   -1    0    0    0  501 -0.00000000000E+00  0.00000000000E+00  0.26552152702E+04  0.26552152702E+04  0.00000000000E+00 0.  1.
          2   -1    0    0  503    0  0.00000000000E+00 -0.00000000000E+00 -0.82728638993E+03  0.82728638993E+03  0.00000000000E+00 0. -1.
         24    2    1    2    0    0 -0.49758018108E+02  0.94341698555E+02 -0.34604352529E+03  0.37061428930E+03  0.78946903577E+02 0.  0.
         25    2    1    2    0    0  0.61874927415E+02 -0.15654142722E+02  0.40273206738E+03  0.42648706122E+03  0.12499814582E+03 0.  0.
         24    2    1    2    0    0  0.57028446679E+01  0.36408759209E+02 -0.20181918562E+03  0.22010614601E+03  0.79734632623E+02 0.  0.
        -11    1    5    5    0    0 -0.28605146734E+02  0.22859398513E+02 -0.16090556959E+03  0.16501941960E+03  0.00000000000E+00 0.  1.
         12    1    5    5    0    0  0.34307991402E+02  0.13549360696E+02 -0.40913616036E+02  0.55086726409E+02  0.00000000000E+00 0. -1.
        -13    1    3    3    0    0 -0.60151363364E+02  0.92882970635E+02 -0.24267620229E+03  0.26671552618E+03  0.00000000000E+00 0.  1.
         14    1    3    3    0    0  0.10393345256E+02  0.14587279202E+01 -0.10336732301E+03  0.10389876312E+03  0.00000000000E+00 0. -1.
          5    1    4    4  502    0  0.39704503073E+02 -0.49114911463E+02  0.83978295317E+02  0.10518158668E+03  0.47000000000E+01 0.  1.
         -5    1    4    4    0  502  0.22170424342E+02  0.33460768741E+02  0.31875377207E+03  0.32130547454E+03  0.47000000000E+01 0.  1.
          1    1    1    2  503    0  0.11199732468E+02 -0.95385703288E+02 -0.23660341217E+03  0.25535277764E+03  0.00000000000E+00 0. -1.
         -4    1    1    2    0  501 -0.29019486444E+02 -0.19710611754E+02  0.22096629360E+04  0.22099413860E+04  0.00000000000E+00 0.  1.
<mgrwt>
<rscale>  0 0.54586715E+02</rscale>
<asrwt>0</asrwt>
<pdfrwt beam="2">  1        2 0.12165976E+00 0.84939288E+02</pdfrwt>
<pdfrwt beam="1">  1       -3 0.39047283E+00 0.35080462E+02</pdfrwt>
<totfact> 0.42811637E-01</totfact>
</mgrwt>
</event>
<event>
13    1  0.1675423E-008  0.5004561E+02  0.7546771E-02  0.1491804E+00
          2   -1    0    0  503    0  0.00000000000E+00  0.00000000000E+00  0.67260022229E+03  0.67260022229E+03  0.00000000000E+00 0. -1.
          2   -1    0    0  502    0 -0.00000000000E+00 -0.00000000000E+00 -0.13885694384E+04  0.13885694384E+04  0.00000000000E+00 0. -1.
         24    2    1    2    0    0  0.24143530799E+03 -0.21427914531E+03  0.40091645849E+03  0.52099965117E+03  0.80623010191E+02 0.  0.
         25    2    1    2    0    0 -0.27330061387E+03  0.13031071200E+03 -0.12476192407E+03  0.35052702100E+03  0.12501818888E+03 0.  0.
         24    2    1    2    0    0  0.34927770436E+02  0.14111299869E+02 -0.21017354978E+02  0.90977139694E+02  0.80100142353E+02 0.  0.
        -13    1    3    3    0    0  0.14309957687E+03 -0.15870856575E+03  0.21280408548E+03  0.30158162500E+03  0.00000000000E+00 0.  1.
         14    1    3    3    0    0  0.98335731120E+02 -0.55570579560E+02  0.18811237301E+03  0.21941802617E+03  0.00000000000E+00 0. -1.
        -13    1    5    5    0    0 -0.55436687067E+01 -0.13841261969E+01 -0.42308783971E+02  0.42692871409E+02  0.00000000000E+00 0.  1.
         14    1    5    5    0    0  0.40471439143E+02  0.15495426066E+02  0.21291428992E+02  0.48284268285E+02  0.00000000000E+00 0. -1.
          5    1    4    4  501    0 -0.25459040020E+03  0.11787175662E+03 -0.14853411986E+03  0.31748149181E+03  0.47000000000E+01 0.  1.
         -5    1    4    4    0  501 -0.18710213672E+02  0.12438955383E+02  0.23772195790E+02  0.33045529189E+02  0.47000000000E+01 0.  1.
          1    1    1    2  502    0  0.22940979077E+02  0.27465803277E+02 -0.10248317877E+04  0.10254564115E+04  0.00000000000E+00 0. -1.
          1    1    1    2  503    0 -0.26003443632E+02  0.42391330161E+02  0.53725392125E+02  0.73209437319E+02  0.00000000000E+00 0. -1.
<mgrwt>
<rscale>  0 0.42319583E+02</rscale>
<asrwt>0</asrwt>
<pdfrwt beam="1">  1        2 0.98911799E-01 0.50045614E+02</pdfrwt>
<pdfrwt beam="2">  1        2 0.20420139E+00 0.35786294E+02</pdfrwt>
<totfact> 0.14861437E+02</totfact>
</mgrwt>
</event>
<event>
13    1  0.1675423E-008  0.1652384E+03  0.7546771E-02  0.1382059E+00
          2   -1    0    0  503    0  0.00000000000E+00  0.00000000000E+00  0.32689618809E+04  0.32689618809E+04  0.00000000000E+00 0. -1.
         -1   -1    0    0    0  501 -0.00000000000E+00 -0.00000000000E+00 -0.16697109320E+04  0.16697109320E+04  0.00000000000E+00 0.  1.
         24    2    1    2    0    0  0.17144330864E+03  0.31689447498E+03  0.35803654123E+03  0.51660941888E+03  0.94234868636E+02 0.  0.
         25    2    1    2    0    0 -0.63867158995E+02 -0.71076138510E+03  0.74949429207E+03  0.10424089872E+04  0.12495616069E+03 0.  0.
         24    2    1    2    0    0  0.33055771651E+02  0.37419169320E+03  0.24951552984E+03  0.45808162453E+03  0.80428028685E+02 0.  0.
        -11    1    5    5    0    0  0.40015888979E+02  0.14819371278E+03  0.13599518975E+03  0.20507886169E+03  0.00000000000E+00 0.  1.
         12    1    5    5    0    0 -0.69601173284E+01  0.22599798042E+03  0.11352034009E+03  0.25300276284E+03  0.00000000000E+00 0. -1.
        -13    1    3    3    0    0  0.76332704904E+02  0.57956166578E+02  0.78572080456E+02  0.12393212219E+03  0.00000000000E+00 0.  1.
         14    1    3    3    0    0  0.95110603737E+02  0.25893830840E+03  0.27946446077E+03  0.39267729669E+03  0.00000000000E+00 0. -1.
          5    1    4    4  502    0 -0.37679397747E+02 -0.70395068427E+02  0.11878434988E+03  0.14320270406E+03  0.47000000000E+01 0. -1.
         -5    1    4    4    0  502 -0.26187761249E+02 -0.64036631668E+03  0.63070994219E+03  0.89920628309E+03  0.47000000000E+01 0. -1.
          1    1    1    2  503    0  0.24080097933E+02  0.56360885252E+01  0.15766917927E+04  0.15768857364E+04  0.00000000000E+00 0. -1.
         -2    1    1    2    0  501 -0.16471201923E+03  0.14039128394E+02 -0.13344872069E+04  0.13446870460E+04  0.00000000000E+00 0.  1.
<mgrwt>
<rscale>  0 0.63925669E+02</rscale>
<asrwt>0</asrwt>
<pdfrwt beam="1">  1        2 0.48072969E+00 0.24730884E+02</pdfrwt>
<pdfrwt beam="2">  1       -1 0.24554573E+00 0.16523838E+03</pdfrwt>
<totfact> 0.27496282E-01</totfact>
</mgrwt>
</event>
<event>
13    1  0.1675423E-008  0.1200808E+03  0.7546771E-02  0.1444130E+00
          2   -1    0    0  502    0  0.00000000000E+00  0.00000000000E+00  0.29850253071E+04  0.29850253071E+04  0.00000000000E+00 0. -1.
          2   -1    0    0  503    0 -0.00000000000E+00 -0.00000000000E+00 -0.15726305023E+04  0.15726305023E+04  0.00000000000E+00 0. -1.
         24    2    1    2    0    0 -0.12705516402E+02 -0.71298400797E+02  0.74777089702E+03  0.75562606444E+03  0.81021865721E+02 0.  0.
         25    2    1    2    0    0 -0.21945788681E+03  0.37107044774E+00 -0.14569848075E+03  0.29157341156E+03  0.12500042103E+03 0.  0.
         24    2    1    2    0    0  0.11802966312E+03 -0.40930360854E+02  0.22292916266E+02  0.15056413810E+03  0.81032646197E+02 0.  0.
        -13    1    3    3    0    0  0.29958256825E+02 -0.17007784769E+02  0.36970537941E+03  0.37130692083E+03  0.00000000000E+00 0.  1.
         14    1    3    3    0    0 -0.42663773227E+02 -0.54290616029E+02  0.37806551762E+03  0.38431914361E+03  0.00000000000E+00 0. -1.
        -13    1    5    5    0    0 -0.61512846511E+01 -0.40734467076E+01  0.19663882595E+02  0.21002370096E+02  0.00000000000E+00 0.  1.
         14    1    5    5    0    0  0.12418094777E+03 -0.36856914146E+02  0.26290336708E+01  0.12956176800E+03  0.00000000000E+00 0. -1.
          5    1    4    4  501    0 -0.34234578725E+02 -0.28009393992E+02 -0.82561649914E+02  0.93781920266E+02  0.47000000000E+01 0. -1.
         -5    1    4    4    0  501 -0.18522330809E+03  0.28380464440E+02 -0.63136830837E+02  0.19779149129E+03  0.47000000000E+01 0. -1.
          1    1    1    2  502    0  0.13251789043E+03  0.12202299378E+03  0.20699629437E+04  0.20777866086E+04  0.00000000000E+00 0. -1.
          1    1    1    2  503    0 -0.18384150336E+02 -0.10165302577E+02 -0.12819334714E+04  0.12821055867E+04  0.00000000000E+00 0. -1.
<mgrwt>
<rscale>  0 0.50225329E+02</rscale>
<asrwt>0</asrwt>
<pdfrwt beam="1">  1        2 0.43897431E+00 0.12008079E+03</pdfrwt>
<pdfrwt beam="2">  1        2 0.23126919E+00 0.21007388E+02</pdfrwt>
<totfact> 0.75576644E+00</totfact>
</mgrwt>
</event>
<event>
13    1  0.1675423E-008  0.1679847E+03  0.7546771E-02  0.1265390E+00
         -1   -1    0    0    0  501 -0.00000000000E+00  0.00000000000E+00  0.24855110167E+03  0.24855110167E+03  0.00000000000E+00 0.  1.
          2   -1    0    0  503    0  0.00000000000E+00 -0.00000000000E+00 -0.21288717798E+04  0.21288717798E+04  0.00000000000E+00 0. -1.
         24    2    1    2    0    0  0.13715877377E+03 -0.69061528069E+02 -0.26511197183E+03  0.31646501402E+03  0.79269941374E+02 0.  0.
         25    2    1    2    0    0 -0.28989776787E+02 -0.41908923177E+02  0.45688191916E+02  0.14251207076E+03  0.12500205771E+03 0.  0.
         24    2    1    2    0    0 -0.46344984700E+02 -0.96942221452E+02 -0.53640326433E+03  0.55410516960E+03  0.88081922628E+02 0.  0.
        -13    1    3    3    0    0  0.51611506188E+01 -0.27534685589E+02 -0.83952179324E+02  0.88502908424E+02  0.00000000000E+00 0.  1.
         14    1    3    3    0    0  0.13199762315E+03 -0.41526842480E+02 -0.18115979251E+03  0.22796210559E+03  0.00000000000E+00 0. -1.
        -13    1    5    5    0    0  0.21696936145E+02 -0.17013611559E+01 -0.75837188793E+02  0.78898231107E+02  0.00000000000E+00 0.  1.
         14    1    5    5    0    0 -0.68041920844E+02 -0.95240860296E+02 -0.46056607553E+03  0.47520693850E+03  0.00000000000E+00 0. -1.
          5    1    4    4  502    0 -0.61136983677E+02 -0.69191900695E+02  0.28596198397E+02  0.96773356136E+02  0.47000000000E+01 0.  1.
         -5    1    4    4    0  502  0.32147206891E+02  0.27282977518E+02  0.17091993518E+02  0.45738714625E+02  0.47000000000E+01 0.  1.
          1    1    1    2  503    0 -0.96525626941E+02  0.26722003397E+03 -0.12166514973E+04  0.12493856927E+04  0.00000000000E+00 0. -1.
         -2    1    1    2    0  501  0.34701614656E+02 -0.59307361276E+02  0.92157863401E+02  0.11495493442E+03  0.00000000000E+00 0.  1.
<mgrwt>
<rscale>  0 0.10743761E+03</rscale>
<asrwt>0</asrwt>
<pdfrwt beam="2">  1        2 0.31306938E+00 0.16798469E+03</pdfrwt>
<pdfrwt beam="1">  1       -1 0.36551632E-01 0.68713646E+02</pdfrwt>
<totfact> 0.61881540E+01</totfact>
</mgrwt>
</event>
<event>
13    1  0.1675423E-008  0.8399307E+02  0.7546771E-02  0.1468559E+00
          2   -1    0    0  502    0  0.00000000000E+00  0.00000000000E+00  0.16194910530E+04  0.16194910530E+04  0.00000000000E+00 0. -1.
          2   -1    0    0  503    0 -0.00000000000E+00 -0.00000000000E+00 -0.32767704388E+04  0.32767704388E+04  0.00000000000E+00 0. -1.
         24    2    1    2    0    0 -0.45944752915E+03 -0.10873271595E+04  0.14207843203E+02  0.11845341819E+04  0.97708655790E+02 0.  0.
         25    2    1    2    0    0 -0.59008512206E+02  0.28030404105E+03 -0.27991765980E+02  0.31378517271E+03  0.12500094284E+03 0.  0.
         24    2    1    2    0    0  0.43517567098E+03  0.76341802269E+03  0.39420579585E+03  0.96875779443E+03  0.10444382617E+03 0.  0.
        -13    1    5    5    0    0  0.32315951490E+03  0.49068706024E+03  0.22746816401E+03  0.63003779949E+03  0.00000000000E+00 0.  1.
         14    1    5    5    0    0  0.11201615608E+03  0.27273096245E+03  0.16673763185E+03  0.33871999494E+03  0.00000000000E+00 0. -1.
        -13    1    3    3    0    0 -0.18293224309E+03 -0.31936287784E+03  0.13848025299E+02  0.36830506528E+03  0.00000000000E+00 0.  1.
         14    1    3    3    0    0 -0.27651528606E+03 -0.76796428163E+03  0.35981790324E+00  0.81622911658E+03  0.00000000000E+00 0. -1.
          5    1    4    4  501    0  0.27980911797E+02  0.16766895033E+03 -0.18942452312E+02  0.17110439746E+03  0.47000000000E+01 0. -1.
         -5    1    4    4    0  501 -0.86989424004E+02  0.11263509072E+03 -0.90493136681E+01  0.14268077525E+03  0.47000000000E+01 0. -1.
          1    1    1    2  502    0  0.21393846800E+02 -0.13177429292E+02  0.19414203266E+03  0.19576125809E+03  0.00000000000E+00 0. -1.
          1    1    1    2  503    0  0.61886523584E+02  0.56782525031E+02 -0.22318432916E+04  0.22334230847E+04  0.00000000000E+00 0. -1.
<mgrwt>
<rscale>  0 0.45939660E+02</rscale>
<asrwt>0</asrwt>
<pdfrwt beam="1">  1        2 0.23816045E+00 0.25126506E+02</pdfrwt>
<pdfrwt beam="2">  1        2 0.48187800E+00 0.83993069E+02</pdfrwt>
<totfact> 0.51936053E+00</totfact>
</mgrwt>
</event>
<event>
13    1  0.1675423E-008  0.9154243E+02  0.7546771E-02  0.1303957E+00
          2   -1    0    0  503    0  0.00000000000E+00  0.00000000000E+00  0.36143199253E+04  0.36143199253E+04  0.00000000000E+00 0. -1.
         -3   -1    0    0    0  501 -0.00000000000E+00 -0.00000000000E+00 -0.81142009932E+03  0.81142009932E+03  0.00000000000E+00 0.  1.
         24    2    1    2    0    0  0.13786406012E+03  0.12059232347E+03  0.38413929630E+03  0.43309007597E+03  0.80343060593E+02 0.  0.
         25    2    1    2    0    0 -0.67256862378E+02 -0.37117605335E+03 -0.16155319738E+03  0.42897656623E+03  0.12500524261E+03 0.  0.
         24    2    1    2    0    0 -0.78374486404E+02  0.88029626365E+02 -0.14679522008E+02  0.14359129729E+03  0.80691988785E+02 0.  0.
        -11    1    3    3    0    0  0.80090554436E+02  0.23824076466E+02  0.12332486651E+03  0.14896679573E+03  0.00000000000E+00 0.  1.
         12    1    3    3    0    0  0.57773505685E+02  0.96768247003E+02  0.26081442979E+03  0.28412328024E+03  0.00000000000E+00 0. -1.
        -13    1    5    5    0    0 -0.34662304272E+02  0.69869138442E+02  0.24917615400E+02  0.81878320703E+02  0.00000000000E+00 0.  1.
         14    1    5    5    0    0 -0.43712182132E+02  0.18160487923E+02 -0.39597137407E+02  0.61712976587E+02  0.00000000000E+00 0. -1.
          5    1    4    4  502    0  0.21933304915E+02 -0.87969015369E+01 -0.78266520961E+01  0.25333807929E+02  0.47000000000E+01 0.  1.
         -5    1    4    4    0  502 -0.89190167293E+02 -0.36237915181E+03 -0.15372654528E+03  0.40364275830E+03  0.47000000000E+01 0.  1.
          1    1    1    2  503    0  0.41244848354E+02  0.81612797626E+02  0.30021843182E+04  0.30035766124E+04  0.00000000000E+00 0. -1.
         -4    1    1    2    0  501 -0.33477559693E+02  0.80941305884E+02 -0.40719106914E+03  0.41650547270E+03  0.00000000000E+00 0.  1.
<mgrwt>
<rscale>  0 0.89545092E+02</rscale>
<asrwt>0</asrwt>
<pdfrwt beam="1">  1        2 0.53151763E+00 0.91542428E+02</pdfrwt>
<pdfrwt beam="2">  1       -3 0.11932649E+00 0.87591335E+02</pdfrwt>
<totfact> 0.48778481E-01</totfact>
</mgrwt>
</event>
<event>
13    1  0.1675423E-008  0.8703988E+02  0.7546771E-02  0.1364243E+00
         -1   -1    0    0    0  501 -0.00000000000E+00  0.00000000000E+00  0.20785938331E+03  0.20785938331E+03  0.00000000000E+00 0.  1.
          2   -1    0    0  503    0  0.00000000000E+00 -0.00000000000E+00 -0.94861640796E+03  0.94861640796E+03  0.00000000000E+00 0. -1.
         24    2    1    2    0    0 -0.79588885601E+01  0.55424352075E+02 -0.39182813276E+03  0.40373327576E+03  0.79599432309E+02 0.  0.
         25    2    1    2    0    0 -0.65363336764E+02  0.28018608972E+02  0.12032444051E+02  0.14431718673E+03  0.12500104974E+03 0.  0.
         24    2    1    2    0    0 -0.25958243946E+02 -0.42451976351E+02 -0.17540660553E+03  0.19783910853E+03  0.76790851520E+02 0.  0.
        -11    1    3    3    0    0  0.14978341379E+00 -0.88928081447E+01 -0.21846875381E+03  0.21864972184E+03  0.00000000000E+00 0.  1.
         12    1    3    3    0    0 -0.81086719739E+01  0.64317160220E+02 -0.17335937895E+03  0.18508355392E+03  0.00000000000E+00 0. -1.
        -11    1    5    5    0    0 -0.45884451535E+02 -0.51910105132E+02 -0.13795526075E+03  0.15437517895E+03  0.00000000000E+00 0.  1.
         12    1    5    5    0    0  0.19926207590E+02  0.94581287812E+01 -0.37451344777E+02  0.43463929580E+02  0.00000000000E+00 0. -1.
          5    1    4    4  502    0 -0.52666312636E+00  0.27222069599E+02  0.58304407378E+02  0.64519860252E+02  0.47000000000E+01 0.  1.
         -5    1    4    4    0  502 -0.64836673638E+02  0.79653937247E+00 -0.46271963327E+02  0.79797326481E+02  0.47000000000E+01 0.  1.
          1    1    1    2  503    0  0.42346865675E+02  0.34104901277E+02 -0.27520030717E+03  0.28052024952E+03  0.00000000000E+00 0. -1.
         -2    1    1    2    0  501  0.56933603595E+02 -0.75095885973E+02  0.89645576754E+02  0.13006597072E+03  0.00000000000E+00 0.  1.
<mgrwt>
<rscale>  0 0.68793910E+02</rscale>
<asrwt>0</asrwt>
<pdfrwt beam="2">  1        2 0.13950241E+00 0.54372799E+02</pdfrwt>
<pdfrwt beam="1">  1       -1 0.30567557E-01 0.87039883E+02</pdfrwt>
<totfact> 0.36113287E+02</totfact>
</mgrwt>
</event>
<event>
13    1  0.1675423E-008  0.1316739E+03  0.7546771E-02  0.1358623E+00
          2   -1    0    0  503    0  0.00000000000E+00  0.00000000000E+00  0.11241702023E+04  0.11241702023E+04  0.00000000000E+00 0. -1.
          2   -1    0    0  502    0 -0.00000000000E+00 -0.00000000000E+00 -0.42585737673E+03  0.42585737673E+03  0.00000000000E+00 0. -1.
         24    2    1    2    0    0  0.34062986974E+01 -0.12289427238E+00  0.53530537749E+03  0.54149268406E+03  0.81552815657E+02 0.  0.
         25    2    1    2    0    0 -0.28437440879E+02 -0.17808578149E+03  0.86650750262E+02  0.23593015789E+03  0.12502581041E+03 0.  0.
         24    2    1    2    0    0  0.26580027281E+02  0.77251778277E+02  0.22509419306E+03  0.24751006895E+03  0.62605937269E+02 0.  0.
        -13    1    5    5    0    0 -0.38194742960E+01 -0.93597791702E+01  0.13515965562E+02  0.16878245617E+02  0.00000000000E+00 0.  1.
         14    1    5    5    0    0  0.30399501577E+02  0.86611557447E+02  0.21157822750E+03  0.23063182333E+03  0.00000000000E+00 0. -1.
        -13    1    3    3    0    0 -0.15934100621E+02  0.23286142816E+02  0.74123604181E+02  0.79312349018E+02  0.00000000000E+00 0.  1.
         14    1    3    3    0    0  0.19340399318E+02 -0.23409037089E+02  0.46118177331E+03  0.46218033504E+03  0.00000000000E+00 0. -1.
          5    1    4    4  501    0  0.27180573674E+02 -0.11438380440E+03  0.42132115329E+01  0.11773818177E+03  0.47000000000E+01 0.  1.
         -5    1    4    4    0  501 -0.55618014553E+02 -0.63701977087E+02  0.82437538730E+02  0.11819197612E+03  0.47000000000E+01 0.  1.
          1    1    1    2  502    0 -0.30316333801E+02  0.12528658727E+03 -0.32249349962E+03  0.34730082975E+03  0.00000000000E+00 0. -1.
          1    1    1    2  503    0  0.28767448702E+02 -0.24329689784E+02  0.17375600433E+03  0.17779383833E+03  0.00000000000E+00 0. -1.
<mgrwt>
<rscale>  0 0.70434207E+02</rscale>
<asrwt>0</asrwt>
<pdfrwt beam="1">  1        2 0.16531915E+00 0.37676251E+02</pdfrwt>
<pdfrwt beam="2">  1        2 0.62626085E-01 0.13167386E+03</pdfrwt>
<totfact> 0.32353264E+02</totfact>
</mgrwt>
</event>
<event>
13    1  0.1675423E-008  0.7362100E+02  0.7546771E-02  0.1437029E+00
          2   -1    0    0  503    0  0.00000000000E+00  0.00000000000E+00  0.18002626303E+04  0.18002626303E+04  0.00000000000E+00 0. -1.
          2   -1    0    0  502    0 -0.00000000000E+00 -0.00000000000E+00 -0.59153985561E+03  0.59153985561E+03  0.00000000000E+00 0. -1.
         24    2    1    2    0    0  0.61672460729E+01  0.86516674081E+02  0.82089920757E+03  0.82918686304E+03  0.78435801966E+02 0.  0.
         25    2    1    2    0    0  0.13554725337E+03 -0.13495670439E+03 -0.57589050059E+02  0.23562731006E+03  0.12496943869E+03 0.  0.
         24    2    1    2    0    0 -0.35332056055E+02  0.28176563134E+02 -0.32505990328E+03  0.34059528033E+03  0.91098470752E+02 0.  0.
        -11    1    5    5    0    0 -0.36144061759E+02  0.38017372287E+02 -0.82053523689E+02  0.97388369664E+02  0.00000000000E+00 0.  1.
         12    1    5    5    0    0  0.81200570369E+00 -0.98408091526E+01 -0.24300637959E+03  0.24320691067E+03  0.00000000000E+00 0. -1.
        -13    1    3    3    0    0 -0.22204939739E+02  0.31020086587E+02  0.12999576594E+03  0.13547768924E+03  0.00000000000E+00 0.  1.
         14    1    3    3    0    0  0.28372185812E+02  0.55496587494E+02  0.69090344163E+03  0.69370917380E+03  0.00000000000E+00 0. -1.
          5    1    4    4  501    0  0.10369185539E+03 -0.17077209283E+02 -0.15203085658E+02  0.10628666786E+03  0.47000000000E+01 0. -1.
         -5    1    4    4    0  501  0.31855397973E+02 -0.11787949511E+03 -0.42385964401E+02  0.12934064220E+03  0.47000000000E+01 0. -1.
          1    1    1    2  502    0 -0.70252644536E+02  0.20417881723E+02 -0.95145795755E+02  0.12002102486E+03  0.00000000000E+00 0. -1.
          1    1    1    2  503    0 -0.36129798848E+02 -0.15441454965E+00  0.86561831624E+03  0.86637200764E+03  0.00000000000E+00 0. -1.
<mgrwt>
<rscale>  0 0.51574571E+02</rscale>
<asrwt>0</asrwt>
<pdfrwt beam="1">  1        2 0.26474450E+00 0.36130129E+02</pdfrwt>
<pdfrwt beam="2">  1        2 0.86991156E-01 0.73621004E+02</pdfrwt>
<totfact> 0.10919667E+02</totfact>
</mgrwt>
</event>
<event>
13    1  0.1675423E-008  0.9070209E+02  0.7546771E-02  0.1307063E+00
          2   -1    0    0  502    0  0.00000000000E+00  0.00000000000E+00  0.21534791495E+04  0.21534791495E+04  0.00000000000E+00 0. -1.
          2   -1    0    0  503    0 -0.00000000000E+00 -0.00000000000E+00 -0.17247022374E+04  0.17247022374E+04  0.00000000000E+00 0. -1.
         24    2    1    2    0    0 -0.32239198586E+02 -0.15976782073E+02  0.39605261874E+03  0.40733059750E+03  0.88124431103E+02 0.  0.
         25    2    1    2    0    0  0.29120753862E+02  0.21614130957E+03 -0.10234285232E+03  0.27140644690E+03  0.12498926349E+03 0.  0.
         24    2    1    2    0    0  0.24088177333E+01 -0.14810290306E+02  0.24472252092E+02  0.70597046430E+02  0.64497323513E+02 0.  0.
        -13    1    3    3    0    0  0.29574710029E+02 -0.95928802281E+01  0.95957642951E+02  0.10086900448E+03  0.00000000000E+00 0.  1.
         14    1    3    3    0    0 -0.61813908615E+02 -0.63839018446E+01  0.30009497579E+03  0.30646159302E+03  0.00000000000E+00 0. -1.
        -13    1    5    5    0    0  0.11134861550E+02 -0.37130708761E+02  0.25848520927E+02  0.46592067017E+02  0.00000000000E+00 0.  1.
         14    1    5    5    0    0 -0.87260438170E+01  0.22320418454E+02 -0.13762688354E+01  0.24004979412E+02  0.00000000000E+00 0. -1.
          5    1    4    4  501    0 -0.26801564118E+02  0.16000989217E+03 -0.32176624968E+02  0.16546575061E+03  0.47000000000E+01 0.  1.
         -5    1    4    4    0  501  0.55922317979E+02  0.56131417399E+02 -0.70166227356E+02  0.10594069628E+03  0.47000000000E+01 0.  1.
          1    1    1    2  502    0  0.20318995429E+02 -0.10170091726E+03  0.16168353781E+04  0.16201581954E+04  0.00000000000E+00 0. -1.
          1    1    1    2  503    0 -0.19609368438E+02 -0.83653319933E+02 -0.15062404846E+04  0.15086891007E+04  0.00000000000E+00 0. -1.
<mgrwt>
<rscale>  0 0.88283285E+02</rscale>
<asrwt>0</asrwt>
<pdfrwt beam="1">  1        2 0.31668811E+00 0.90702087E+02</pdfrwt>
<pdfrwt beam="2">  1        2 0.25363268E+00 0.85928988E+02</pdfrwt>
<totfact> 0.15336426E+01</totfact>
</mgrwt>
</event>
<event>
13    1  0.1675423E-008  0.1159902E+03  0.7546771E-02  0.1370973E+00
          2   -1    0    0  503    0  0.00000000000E+00  0.00000000000E+00  0.36216705951E+04  0.36216705951E+04  0.00000000000E+00 0. -1.
          2   -1    0    0  502    0 -0.00000000000E+00 -0.00000000000E+00 -0.63737432299E+03  0.63737432299E+03  0.00000000000E+00 0. -1.
         24    2    1    2    0    0  0.41403744018E+03 -0.33527996270E+03  0.62820647905E+03  0.82709975378E+03  0.74906388986E+02 0.  0.
         25    2    1    2    0    0 -0.21140804078E+03  0.81993098128E+02  0.19426535811E+04  0.19598326743E+04  0.12499979011E+03 0.  0.
         24    2    1    2    0    0 -0.27531438506E+03  0.33215553581E+03 -0.11941157613E+03  0.45457886245E+03  0.79104406224E+02 0.  0.
        -11    1    3    3    0    0  0.88063079723E+02 -0.34895576305E+02  0.10876729308E+03  0.14423290644E+03  0.00000000000E+00 0.  1.
         12    1    3    3    0    0  0.32597436046E+03 -0.30038438640E+03  0.51943918597E+03  0.68286684734E+03  0.00000000000E+00 0. -1.
        -13    1    5    5    0    0 -0.97612350823E+01  0.49910947285E+02 -0.92150399993E+01  0.51684633416E+02  0.00000000000E+00 0.  1.
         14    1    5    5    0    0 -0.26555314998E+03  0.28224458852E+03 -0.11019653613E+03  0.40289422904E+03  0.00000000000E+00 0. -1.
          5    1    4    4  501    0 -0.46109726622E+02  0.81238255094E+00  0.13339726472E+03  0.14122211969E+03  0.47000000000E+01 0. -1.
         -5    1    4    4    0  501 -0.16529831416E+03  0.81180715577E+02  0.18092563163E+04  0.18186105546E+04  0.47000000000E+01 0. -1.
          1    1    1    2  502    0 -0.29898195799E+02 -0.24387646326E+02 -0.23641927227E+03  0.23954693007E+03  0.00000000000E+00 0. -1.
          1    1    1    2  503    0  0.10258318146E+03 -0.54481024908E+02  0.76926706038E+03  0.77798669743E+03  0.00000000000E+00 0. -1.
<mgrwt>
<rscale>  0 0.66897424E+02</rscale>
<asrwt>0</asrwt>
<pdfrwt beam="1">  1        2 0.53259861E+00 0.11599015E+03</pdfrwt>
<pdfrwt beam="2">  1        2 0.93731520E-01 0.38583149E+02</pdfrwt>
<totfact> 0.10094726E+01</totfact>
</mgrwt>
</event>
<event>
13    1  0.1675423E-008  0.1373268E+03  0.7546771E-02  0.1290467E+00
          2   -1    0    0  503    0  0.00000000000E+00  0.00000000000E+00  0.42187131691E+04  0.42187131691E+04  0.00000000000E+00 0. -1.
         -3   -1    0    0    0  501 -0.00000000000E+00 -0.00000000000E+00 -0.67716332146E+03  0.67716332146E+03  0.00000000000E+00 0.  1.
         24    2    1    2    0    0 -0.15537322623E+02  0.30430955563E+02 -0.47251797845E+02  0.98961837623E+02  0.79957873004E+02 0.  0.
         25    2    1    2    0    0  0.28906290486E+03  0.19730192475E+03 -0.17007323233E+03  0.40870004319E+03  0.12500163389E+03 0.  0.
         24    2    1    2    0    0 -0.95744284374E+02 -0.13553027174E+03 -0.15060969889E+03  0.23850246224E+03  0.81637739727E+02 0.  0.
        -11    1    3    3    0    0 -0.25468589383E+02  0.54791568605E+02 -0.36133106556E+02  0.70401466070E+02  0.00000000000E+00 0.  1.
         12    1    3    3    0    0  0.99312667604E+01 -0.24360613042E+02 -0.11118691289E+02  0.28560371553E+02  0.00000000000E+00 0. -1.
        -13    1    5    5    0    0  0.12344147800E+01 -0.64199728603E+02 -0.45639331077E+02  0.78778661284E+02  0.00000000000E+00 0.  1.
         14    1    5    5    0    0 -0.96978699154E+02 -0.71330543136E+02 -0.10497036781E+03  0.15972380096E+03  0.00000000000E+00 0. -1.
          5    1    4    4  502    0  0.28416929042E+03  0.16938583927E+03 -0.18198056719E+03  0.37760133077E+03  0.47000000000E+01 0.  1.
         -5    1    4    4    0  502  0.48936144349E+01  0.27916085483E+02  0.11907334861E+02  0.31098712424E+02  0.47000000000E+01 0.  1.
          1    1    1    2  503    0 -0.11331857820E+03 -0.77327725156E+02  0.40192289104E+04  0.40215695582E+04  0.00000000000E+00 0. -1.
         -4    1    1    2    0  501 -0.64462719657E+02 -0.14874883417E+02 -0.10974433377E+03  0.12814258924E+03  0.00000000000E+00 0.  1.
<mgrwt>
<rscale>  0 0.95315706E+02</rscale>
<asrwt>0</asrwt>
<pdfrwt beam="1">  1        2 0.62039898E+00 0.13732681E+03</pdfrwt>
<pdfrwt beam="2">  1       -3 0.99582843E-01 0.66156665E+02</pdfrwt>
<totfact> 0.27011982E-01</totfact>
</mgrwt>
</event>
<event>
13    1  0.1675423E-008  0.7065154E+02  0.7546771E-02  0.1391465E+00
          2   -1    0    0  502    0  0.00000000000E+00  0.00000000000E+00  0.18678759026E+04  0.18678759026E+04  0.00000000000E+00 0. -1.
          2   -1    0    0  503    0 -0.00000000000E+00 -0.00000000000E+00 -0.30738116055E+04  0.30738116055E+04  0.00000000000E+00 0. -1.
         24    2    1    2    0    0 -0.14128965726E+04 -0.24071055676E+03 -0.41424998962E+03  0.14940121869E+04  0.79063668920E+02 0.  0.
         25    2    1    2    0    0  0.53244375453E+03  0.20325567523E+03 -0.41050718410E+03  0.71340770755E+03  0.12500075101E+03 0.  0.
         24    2    1    2    0    0  0.90846682670E+03  0.20279927493E+02  0.14870705394E+03  0.92424495338E+03  0.79948078658E+02 0.  0.
        -13    1    3    3    0    0 -0.83415149323E+03 -0.10489351063E+03 -0.25624343659E+03  0.87890389749E+03  0.00000000000E+00 0.  1.
         14    1    3    3    0    0 -0.57874507939E+03 -0.13581704613E+03 -0.15800655304E+03  0.61510828944E+03  0.00000000000E+00 0. -1.
        -13    1    5    5    0    0  0.29996331200E+03  0.29959687155E+02  0.79355855225E+02  0.31172571783E+03  0.00000000000E+00 0.  1.
         14    1    5    5    0    0  0.60850351471E+03 -0.96797596614E+01  0.69351198715E+02  0.61251923555E+03  0.00000000000E+00 0. -1.
          5    1    4    4  501    0  0.32169305510E+03  0.18667860128E+03 -0.25724992919E+03  0.45225539018E+03  0.47000000000E+01 0.  1.
         -5    1    4    4    0  501  0.21075069942E+03  0.16577073951E+02 -0.15325725491E+03  0.26115231738E+03  0.47000000000E+01 0.  1.
          1    1    1    2  502    0 -0.68327607119E+02 -0.18164274084E+02  0.63749912591E+03  0.64140762256E+03  0.00000000000E+00 0. -1.
          1    1    1    2  503    0  0.40313598503E+02  0.35339228125E+02 -0.11673847091E+04  0.11686150377E+04  0.00000000000E+00 0. -1.
<mgrwt>
<rscale>  0 0.61543798E+02</rscale>
<asrwt>0</asrwt>
<pdfrwt beam="1">  1        2 0.27468763E+00 0.70651541E+02</pdfrwt>
<pdfrwt beam="2">  1        2 0.45203112E+00 0.53610141E+02</pdfrwt>
<totfact> 0.50048465E+00</totfact>
</mgrwt>
</event>
<event>
13    1  0.1675423E-008  0.5753587E+02  0.7546771E-02  0.1438048E+00
          2   -1    0    0  503    0  0.00000000000E+00  0.00000000000E+00  0.30151583911E+04  0.30151583911E+04  0.00000000000E+00 0. -1.
          2   -1    0    0  502    0 -0.00000000000E+00 -0.00000000000E+00 -0.32120628179E+04  0.32120628179E+04  0.00000000000E+00 0. -1.
         24    2    1    2    0    0 -0.15550918127E+02  0.92961767991E+02  0.19326980984E+03  0.22995248639E+03  0.81493590172E+02 0.  0.
         25    2    1    2    0    0 -0.58067687077E+02 -0.93093732384E+02 -0.99949168347E+03  0.10132357805E+04  0.12499928909E+03 0.  0.
         24    2    1    2    0    0  0.37176215709E+02 -0.96056810068E+02 -0.27916336306E+03  0.30770403206E+03  0.78362020719E+02 0.  0.
        -11    1    3    3    0    0  0.13072247105E+02 -0.10535265452E+02  0.33150787726E+02  0.37159792644E+02  0.00000000000E+00 0.  1.
         12    1    3    3    0    0 -0.28623165232E+02  0.10349703344E+03  0.16011902211E+03  0.19279269374E+03  0.00000000000E+00 0. -1.
        -13    1    5    5    0    0  0.21611046904E+02 -0.10554397995E+03 -0.25905131289E+03  0.28056042444E+03  0.00000000000E+00 0.  1.
         14    1    5    5    0    0  0.15565168804E+02  0.94871698785E+01 -0.20112050170E+02  0.27143607613E+02  0.00000000000E+00 0. -1.
          5    1    4    4  501    0 -0.56251039544E+02 -0.12213149486E+03 -0.74591860701E+03  0.75795576373E+03  0.47000000000E+01 0. -1.
         -5    1    4    4    0  501 -0.18166475337E+01  0.29037762478E+02 -0.25357307646E+03  0.25528001677E+03  0.47000000000E+01 0. -1.
          1    1    1    2  502    0  0.15706918778E+02  0.55262937774E+02 -0.18932991565E+04  0.18941706353E+04  0.00000000000E+00 0. -1.
          1    1    1    2  503    0  0.20735470718E+02  0.40925836687E+02  0.27817799665E+04  0.27821582748E+04  0.00000000000E+00 0. -1.
<mgrwt>
<rscale>  0 0.51377904E+02</rscale>
<asrwt>0</asrwt>
<pdfrwt beam="1">  1        2 0.44340565E+00 0.45879013E+02</pdfrwt>
<pdfrwt beam="2">  1        2 0.47236218E+00 0.57535871E+02</pdfrwt>
<totfact> 0.12260413E+00</totfact>
</mgrwt>
</event>
<event>
13    1  0.1675423E-008  0.5085606E+02  0.7546771E-02  0.1497991E+00
          2   -1    0    0  502    0  0.00000000000E+00  0.00000000000E+00  0.77622679224E+03  0.77622679224E+03  0.00000000000E+00 0. -1.
          2   -1    0    0  503    0 -0.00000000000E+00 -0.00000000000E+00 -0.74012009726E+03  0.74012009726E+03  0.00000000000E+00 0. -1.
         24    2    1    2    0    0 -0.13679691971E+02  0.77114149210E+01  0.29779572096E+03  0.30861007965E+03  0.79443627469E+02 0.  0.
         25    2    1    2    0    0  0.34763179504E+02  0.80395912764E+02  0.12227595360E+03  0.19555711409E+03  0.12497677625E+03 0.  0.
         24    2    1    2    0    0 -0.30935506949E+02 -0.17514502297E+02 -0.23947720739E+03  0.25485137090E+03  0.79599780205E+02 0.  0.
        -11    1    3    3    0    0 -0.27570982402E+02  0.15919918295E+02  0.44044106119E+02  0.54345985619E+02  0.00000000000E+00 0.  1.
         12    1    3    3    0    0  0.13891290431E+02 -0.82085033738E+01  0.25375161484E+03  0.25426409403E+03  0.00000000000E+00 0. -1.
        -13    1    5    5    0    0 -0.35808101975E+02 -0.24679573946E+02 -0.24196044307E+03  0.24583766503E+03  0.00000000000E+00 0.  1.
         14    1    5    5    0    0  0.48725950260E+01  0.71650716485E+01  0.24832356806E+01  0.90137058673E+01  0.00000000000E+00 0. -1.
          5    1    4    4  501    0 -0.28540738503E+02  0.44352998941E+02 -0.22986527658E+00  0.52951913160E+02  0.47000000000E+01 0.  1.
         -5    1    4    4    0  501  0.63303918006E+02  0.36042913823E+02  0.12250581888E+03  0.14260520093E+03  0.47000000000E+01 0.  1.
          1    1    1    2  502    0  0.25396232669E+02 -0.22213429786E+02  0.30405248427E+03  0.30591880996E+03  0.00000000000E+00 0. -1.
          1    1    1    2  503    0 -0.15544213252E+02 -0.48379395602E+02 -0.44854025647E+03  0.45140951491E+03  0.00000000000E+00 0. -1.
<mgrwt>
<rscale>  0 0.41423383E+02</rscale>
<asrwt>0</asrwt>
<pdfrwt beam="1">  1        2 0.11415100E+00 0.33740259E+02</pdfrwt>
<pdfrwt beam="2">  1        2 0.10884119E+00 0.50856060E+02</pdfrwt>
<totfact> 0.28403172E+02</totfact>
</mgrwt>
</event>
<event>
13    1  0.1675423E-008  0.2883155E+03  0.7546771E-02  0.1242924E+00
          2   -1    0    0  503    0  0.00000000000E+00  0.00000000000E+00  0.17071843899E+04  0.17071843899E+04  0.00000000000E+00 0. -1.
          2   -1    0    0  502    0 -0.00000000000E+00 -0.00000000000E+00 -0.12577558907E+04  0.12577558907E+04  0.00000000000E+00 0. -1.
         24    2    1    2    0    0 -0.17849512260E+03 -0.85950653087E+02  0.46181534958E+03  0.50896930140E+03  0.80797952329E+02 0.  0.
         25    2    1    2    0    0 -0.13130612855E+03  0.17756873629E+03 -0.32094911773E+03  0.40915192816E+03  0.12500003458E+03 0.  0.
         24    2    1    2    0    0  0.79389005353E+02  0.22918003732E+03  0.58081409914E+02  0.25845403506E+03  0.67815443565E+02 0.  0.
        -13    1    5    5    0    0  0.12688876411E+02  0.94534519117E+02  0.50681466896E+02  0.10801108265E+03  0.00000000000E+00 0.  1.
         14    1    5    5    0    0  0.66700128942E+02  0.13464551820E+03  0.73999430178E+01  0.15044295241E+03  0.00000000000E+00 0. -1.
        -13    1    3    3    0    0 -0.14058314570E+03 -0.90699642456E+02  0.30828335446E+03  0.35075443352E+03  0.00000000000E+00 0.  1.
         14    1    3    3    0    0 -0.37911976901E+02  0.47489893688E+01  0.15353199512E+03  0.15821486788E+03  0.00000000000E+00 0. -1.
          5    1    4    4  501    0 -0.79117683055E+02  0.24734948363E+02 -0.60777317419E+02  0.10289508130E+03  0.47000000000E+01 0.  1.
         -5    1    4    4    0  501 -0.52188445496E+02  0.15283378793E+03 -0.26017180031E+03  0.30625684687E+03  0.47000000000E+01 0.  1.
          1    1    1    2  502    0  0.21856099304E+03 -0.27218942627E+03 -0.72865234204E+03  0.80795434711E+03  0.00000000000E+00 0. -1.
          1    1    1    2  503    0  0.11851252760E+02 -0.48608694247E+02  0.97913319952E+03  0.98041066893E+03  0.00000000000E+00 0. -1.
<mgrwt>
<rscale>  0 0.12010479E+03</rscale>
<asrwt>0</asrwt>
<pdfrwt beam="1">  1        2 0.25105653E+00 0.50032563E+02</pdfrwt>
<pdfrwt beam="2">  1        2 0.18496410E+00 0.28831546E+03</pdfrwt>
<totfact> 0.41930063E+01</totfact>
</mgrwt>
</event>
<event>
13    1  0.1675423E-008  0.3622404E+03  0.7546771E-02  0.1188158E+00
          2   -1    0    0  503    0  0.00000000000E+00  0.00000000000E+00  0.18484613894E+04  0.18484613894E+04  0.00000000000E+00 0. -1.
          2   -1    0    0  502    0 -0.00000000000E+00 -0.00000000000E+00 -0.24002201004E+04  0.24002201004E+04  0.00000000000E+00 0. -1.
         24    2    1    2    0    0 -0.25725342114E+02  0.29496423744E+02  0.12300057951E+04  0.12332660528E+04  0.80616801503E+02 0.  0.
         25    2    1    2    0    0  0.36749065902E+03 -0.35321774707E+02  0.18464640444E+03  0.43129867540E+03  0.12500896165E+03 0.  0.
         24    2    1    2    0    0  0.89377221558E+02  0.44050526957E+02 -0.12161058929E+03  0.17831562179E+03  0.84134350220E+02 0.  0.
        -13    1    3    3    0    0 -0.30317903600E+02 -0.19937218119E+02  0.35407820609E+03  0.35593263965E+03  0.00000000000E+00 0.  1.
         14    1    3    3    0    0  0.45925614859E+01  0.49433641863E+02  0.87592758905E+03  0.87733341315E+03  0.00000000000E+00 0. -1.
        -13    1    5    5    0    0  0.54240577849E+02 -0.81814355743E+01 -0.95566269466E+02  0.11019023565E+03  0.00000000000E+00 0.  1.
         14    1    5    5    0    0  0.35136643709E+02  0.52231962531E+02 -0.26044319829E+02  0.68125386137E+02  0.00000000000E+00 0. -1.
          5    1    4    4  501    0  0.28070875653E+03  0.28036196138E+02  0.13753047058E+03  0.31387920388E+03  0.47000000000E+01 0.  1.
         -5    1    4    4    0  501  0.86781902486E+02 -0.63357970845E+02  0.47115933861E+02  0.11741947152E+03  0.47000000000E+01 0.  1.
          1    1    1    2  502    0 -0.36125651006E+03 -0.25172466681E+02 -0.21050723889E+04  0.21359938393E+04  0.00000000000E+00 0. -1.
          1    1    1    2  503    0 -0.69886028407E+02 -0.13052709313E+02  0.26027206767E+03  0.26980730049E+03  0.00000000000E+00 0. -1.
<mgrwt>
<rscale>  0 0.16047836E+03</rscale>
<asrwt>0</asrwt>
<pdfrwt beam="1">  1        2 0.27183256E+00 0.71094516E+02</pdfrwt>
<pdfrwt beam="2">  1        2 0.35297354E+00 0.36224039E+03</pdfrwt>
<totfact> 0.88065451E+00</totfact>
</mgrwt>
</event>
<event>
13    1  0.1675423E-008  0.9701362E+02  0.7546771E-02  0.1320905E+00
         -1   -1    0    0    0  501 -0.00000000000E+00  0.00000000000E+00  0.10377435004E+04  0.10377435004E+04  0.00000000000E+00 0.  1.
          2   -1    0    0  503    0  0.00000000000E+00 -0.00000000000E+00 -0.14636613989E+04  0.14636613989E+04  0.00000000000E+00 0. -1.
         24    2    1    2    0    0  0.21851125342E+02 -0.16033551198E+02 -0.13758368029E+03  0.16192697279E+03  0.80972396475E+02 0.  0.
         25    2    1    2    0    0  0.68545602584E+02  0.54702201406E+02  0.13559944252E+03  0.20421180004E+03  0.12499767993E+03 0.  0.
         24    2    1    2    0    0 -0.10563660400E+02  0.39839784370E+02 -0.21435178468E+03  0.23253680351E+03  0.80174048501E+02 0.  0.
        -11    1    3    3    0    0  0.39411107468E+02  0.50320628106E+01 -0.27107071500E+02  0.48097301102E+02  0.00000000000E+00 0.  1.
         12    1    3    3    0    0 -0.17559982126E+02 -0.21065614009E+02 -0.11047660879E+03  0.11382967169E+03  0.00000000000E+00 0. -1.
        -13    1    5    5    0    0 -0.36565302263E+02  0.50238767595E+02 -0.14636440486E+03  0.15900784292E+03  0.00000000000E+00 0.  1.
         14    1    5    5    0    0  0.26001641862E+02 -0.10398983225E+02 -0.67987379821E+02  0.73528960598E+02  0.00000000000E+00 0. -1.
          5    1    4    4  502    0  0.32576191172E+02  0.64645908670E+02  0.14782190768E+03  0.16466240654E+03  0.47000000000E+01 0.  1.
         -5    1    4    4    0  502  0.35969411412E+02 -0.99437072636E+01 -0.12222465150E+02  0.39549393495E+02  0.47000000000E+01 0.  1.
          1    1    1    2  503    0  0.18551463842E+02 -0.68440905781E+02 -0.10520696435E+04  0.10544566607E+04  0.00000000000E+00 0. -1.
         -2    1    1    2    0  501 -0.98384531367E+02 -0.10067528797E+02  0.84248776749E+03  0.84827266225E+03  0.00000000000E+00 0.  1.
<mgrwt>
<rscale>  0 0.82941513E+02</rscale>
<asrwt>0</asrwt>
<pdfrwt beam="2">  1        2 0.21524432E+00 0.70910608E+02</pdfrwt>
<pdfrwt beam="1">  1       -1 0.15260934E+00 0.97013617E+02</pdfrwt>
<totfact> 0.76559181E+00</totfact>
</mgrwt>
</event>
<event>
13    1  0.1675423E-008  0.8527108E+02  0.7546771E-02  0.1347975E+00
          2   -1    0    0  503    0  0.00000000000E+00  0.00000000000E+00  0.35685294461E+04  0.35685294461E+04  0.00000000000E+00 0. -1.
         -3   -1    0    0    0  501 -0.00000000000E+00 -0.00000000000E+00 -0.22319906155E+04  0.22319906155E+04  0.00000000000E+00 0.  1.
         24    2    1    2    0    0 -0.50633226191E+02 -0.26134398295E+02  0.75724935064E+03  0.76363386402E+03  0.80395079790E+02 0.  0.
         25    2    1    2    0    0 -0.17073695258E+03  0.21956311467E+03 -0.51438670176E+03  0.59797855897E+03  0.12500243892E+03 0.  0.
         24    2    1    2    0    0  0.95714167163E+02 -0.12132219557E+03  0.31466500076E+03  0.35998173863E+03  0.81807777842E+02 0.  0.
        -13    1    3    3    0    0 -0.26048223768E+02 -0.59616433477E+00  0.59140448554E+02  0.64625521496E+02  0.00000000000E+00 0.  1.
         14    1    3    3    0    0 -0.24585002423E+02 -0.25538233960E+02  0.69810890209E+03  0.69900834252E+03  0.00000000000E+00 0. -1.
        -13    1    5    5    0    0  0.29982379116E+02  0.40581018019E+01  0.33184022300E+02  0.44906464832E+02  0.00000000000E+00 0.  1.
         14    1    5    5    0    0  0.65731788047E+02 -0.12538029737E+03  0.28148097846E+03  0.31507527380E+03  0.00000000000E+00 0. -1.
          5    1    4    4  502    0  0.13130930158E+02  0.57181094357E+02 -0.83969060716E+02  0.10254263521E+03  0.47000000000E+01 0.  1.
         -5    1    4    4    0  502 -0.18386788274E+03  0.16238202031E+03 -0.43041764105E+03  0.49543592376E+03  0.47000000000E+01 0.  1.
          1    1    1    2  503    0  0.63974614842E+02 -0.56267154616E+02  0.24276064888E+04  0.24291010701E+04  0.00000000000E+00 0. -1.
         -4    1    1    2    0  501  0.61681396766E+02 -0.15839366190E+02 -0.16485953079E+04  0.16498248299E+04  0.00000000000E+00 0.  1.
<mgrwt>
<rscale>  0 0.73690489E+02</rscale>
<asrwt>0</asrwt>
<pdfrwt beam="1">  1        2 0.52478375E+00 0.85271075E+02</pdfrwt>
<pdfrwt beam="2">  1       -3 0.32823391E+00 0.63682652E+02</pdfrwt>
<totfact> 0.31046331E-02</totfact>
</mgrwt>
</event>
<event>
13    1  0.1675423E-008  0.1410291E+03  0.7546771E-02  0.1213410E+00
          2   -1    0    0  503    0  0.00000000000E+00  0.00000000000E+00  0.28407297565E+04  0.28407297565E+04  0.00000000000E+00 0. -1.
          2   -1    0    0  502    0 -0.00000000000E+00 -0.00000000000E+00 -0.10236526192E+04  0.10236526192E+04  0.00000000000E+00 0. -1.
         24    2    1    2    0    0 -0.14685809358E+03 -0.81410289740E+01  0.90932344042E+02  0.19053997994E+03  0.80020102218E+02 0.  0.
         25    2    1    2    0    0  0.25346743718E+03 -0.13148325293E+03  0.41402140644E+02  0.31444204496E+03  0.12500429943E+03 0.  0.
         24    2    1    2    0    0 -0.26854819418E+02 -0.50267639973E+02 -0.14086520507E+03  0.17206676947E+03  0.80721435827E+02 0.  0.
        -13    1    5    5    0    0  0.27487436730E+02 -0.86189536044E+01 -0.56457320362E+02  0.63381973475E+02  0.00000000000E+00 0.  1.
         14    1    5    5    0    0 -0.54342256148E+02 -0.41648686368E+02 -0.84407884712E+02  0.10868479600E+03  0.00000000000E+00 0. -1.
        -13    1    3    3    0    0 -0.13024682636E+03 -0.34722934272E+02  0.82657486212E+02  0.15812077020E+03  0.00000000000E+00 0.  1.
         14    1    3    3    0    0 -0.16611267215E+02  0.26581905298E+02  0.82748578299E+01  0.32419209735E+02  0.00000000000E+00 0. -1.
          5    1    4    4  501    0  0.24365398486E+03 -0.15123150176E+03  0.48330391808E+02  0.29085417005E+03  0.47000000000E+01 0.  1.
         -5    1    4    4    0  501  0.98134523245E+01  0.19748248836E+02 -0.69282511646E+01  0.23587874911E+02  0.47000000000E+01 0.  1.
          1    1    1    2  502    0 -0.16471046928E+03  0.79896330650E+02 -0.66658624090E+03  0.69126708218E+03  0.00000000000E+00 0. -1.
          1    1    1    2  503    0  0.84955945095E+02  0.10999559123E+03  0.24921940987E+04  0.24960664991E+04  0.00000000000E+00 0. -1.
<mgrwt>
<rscale>  0 0.13993958E+03</rscale>
<asrwt>0</asrwt>
<pdfrwt beam="1">  1        2 0.41775437E+00 0.13885849E+03</pdfrwt>
<pdfrwt beam="2">  1        2 0.15053715E+00 0.14102908E+03</pdfrwt>
<totfact> 0.14596110E+01</totfact>
</mgrwt>
</event>
<event>
13    1  0.1675423E-008  0.9859851E+02  0.7546771E-02  0.1289034E+00
          2   -1    0    0  502    0  0.00000000000E+00  0.00000000000E+00  0.17337790782E+04  0.17337790782E+04  0.00000000000E+00 0. -1.
          4   -1    0    0  503    0 -0.00000000000E+00 -0.00000000000E+00 -0.73491769066E+03  0.73491769066E+03  0.00000000000E+00 0. -1.
         24    2    1    2    0    0  0.13846042978E+02  0.31924607065E+02  0.99244719078E+03  0.99588907853E+03  0.75051561014E+02 0.  0.
         25    2    1    2    0    0  0.12991227034E+03  0.14028581984E+03 -0.12957348733E+03  0.26262099316E+03  0.12499275258E+03 0.  0.
         24    2    1    2    0    0  0.45822192862E+02 -0.95972983704E+02  0.11372186655E+03  0.17544575239E+03  0.80858284305E+02 0.  0.
        -11    1    3    3    0    0 -0.16763264236E+02 -0.87236914449E+01  0.87736520538E+02  0.89748575790E+02  0.00000000000E+00 0.  1.
         12    1    3    3    0    0  0.30609307214E+02  0.40648298510E+02  0.90471067024E+03  0.90614050274E+03  0.00000000000E+00 0. -1.
        -13    1    5    5    0    0  0.13335619302E+01 -0.88302317333E+02  0.71400842498E+02  0.11356565477E+03  0.00000000000E+00 0.  1.
         14    1    5    5    0    0  0.44488630932E+02 -0.76706663704E+01  0.42321024054E+02  0.61880097623E+02  0.00000000000E+00 0. -1.
          5    1    4    4  501    0 -0.34161827076E+01 -0.24744133094E+01 -0.52014112523E+02  0.52396096487E+02  0.47000000000E+01 0. -1.
         -5    1    4    4    0  501  0.13332845305E+03  0.14276023315E+03 -0.77559374803E+02  0.21022489668E+03  0.47000000000E+01 0. -1.
          1    1    1    2  502    0 -0.91407121123E+02 -0.86105583899E+02  0.51609407872E+03  0.53115207941E+03  0.00000000000E+00 0. -1.
          3    1    1    2  503    0 -0.98173385060E+02  0.98681406943E+01 -0.49382826121E+03  0.50358886535E+03  0.00000000000E+00 0. -1.
<mgrwt>
<rscale>  0 0.95957404E+02</rscale>
<asrwt>0</asrwt>
<pdfrwt beam="1">  1        2 0.25496751E+00 0.93387049E+02</pdfrwt>
<pdfrwt beam="2">  1        4 0.10807613E+00 0.98598505E+02</pdfrwt>
<totfact> 0.45432485E+00</totfact>
</mgrwt>
</event>
<event>
13    1  0.1675423E-008  0.1234885E+03  0.7546771E-02  0.1316665E+00
          2   -1    0    0  503    0  0.00000000000E+00  0.00000000000E+00  0.38429708734E+04  0.38429708734E+04  0.00000000000E+00 0. -1.
          2   -1    0    0  502    0 -0.00000000000E+00 -0.00000000000E+00 -0.18550126025E+03  0.18550126025E+03  0.00000000000E+00 0. -1.
         24    2    1    2    0    0  0.44481559316E+02  0.17728726522E+02  0.60481719448E+02  0.11180643333E+03  0.80930360697E+02 0.  0.
         25    2    1    2    0    0  0.93698653206E+02  0.12819800899E+03  0.67311934475E+03  0.70280027773E+03  0.12499764386E+03 0.  0.
         24    2    1    2    0    0 -0.61819932842E+01 -0.24602427399E+02 -0.14843180484E+02  0.82206780942E+02  0.76773291912E+02 0.  0.
        -11    1    3    3    0    0  0.64768925234E+02 -0.20410061730E+01  0.34717224674E+02  0.73515066967E+02  0.00000000000E+00 0.  1.
         12    1    3    3    0    0 -0.20287365918E+02  0.19769732695E+02  0.25764494774E+02  0.38291366360E+02  0.00000000000E+00 0. -1.
        -13    1    5    5    0    0 -0.15480150624E+02 -0.38334457245E+02 -0.36349114548E+02  0.55049285227E+02  0.00000000000E+00 0.  1.
         14    1    5    5    0    0  0.92981573395E+01  0.13732029845E+02  0.21505934063E+02  0.27157495715E+02  0.00000000000E+00 0. -1.
          5    1    4    4  501    0  0.88504130154E+02  0.29731747982E+02  0.43680709869E+03  0.44669843223E+03  0.47000000000E+01 0. -1.
         -5    1    4    4    0  501  0.51945230519E+01  0.98466261011E+02  0.23631224607E+03  0.25610184550E+03  0.47000000000E+01 0. -1.
          1    1    1    2  502    0 -0.85757760834E+02 -0.15610850171E+03 -0.13737893968E+02  0.17864206554E+03  0.00000000000E+00 0. -1.
          1    1    1    2  503    0 -0.46240458404E+02  0.34784193597E+02  0.29524496234E+04  0.29530165761E+04  0.00000000000E+00 0. -1.
<mgrwt>
<rscale>  0 0.84530531E+02</rscale>
<asrwt>0</asrwt>
<pdfrwt beam="1">  1        2 0.56514273E+00 0.57862943E+02</pdfrwt>
<pdfrwt beam="2">  1        2 0.27279599E-01 0.12348855E+03</pdfrwt>
<totfact> 0.31044206E+01</totfact>
</mgrwt>
</event>
<event>
13    1  0.1675423E-008  0.5093834E+02  0.7546771E-02  0.1469314E+00
          2   -1    0    0  503    0  0.00000000000E+00  0.00000000000E+00  0.24192639324E+04  0.24192639324E+04  0.00000000000E+00 0. -1.
          2   -1    0    0  502    0 -0.00000000000E+00 -0.00000000000E+00 -0.12841731692E+04  0.12841731692E+04  0.00000000000E+00 0. -1.
         24    2    1    2    0    0  0.22808834659E+02  0.84365695094E+02  0.72925163201E+03  0.73875904497E+03  0.79493209050E+02 0.  0.
         25    2    1    2    0    0  0.12157647782E+02 -0.13970182703E+03 -0.61437127628E+03  0.64244908243E+03  0.12499739806E+03 0.  0.
         24    2    1    2    0    0 -0.74736612707E+02 -0.27744971391E+02  0.49590205932E+03  0.50877409387E+03  0.81097974306E+02 0.  0.
        -11    1    3    3    0    0 -0.17671419518E+02  0.61542219601E+02  0.54453419627E+03  0.54828570542E+03  0.00000000000E+00 0.  1.
         12    1    3    3    0    0  0.40480254177E+02  0.22823475493E+02  0.18471743574E+03  0.19047333954E+03  0.00000000000E+00 0. -1.
        -13    1    5    5    0    0 -0.92434965011E+02 -0.21760610510E+02  0.40728757945E+03  0.41821157241E+03  0.00000000000E+00 0.  1.
         14    1    5    5    0    0  0.17698352305E+02 -0.59843608816E+01  0.88614479875E+02  0.90562521458E+02  0.00000000000E+00 0. -1.
          5    1    4    4  501    0 -0.22511587408E+02 -0.14941382278E+03 -0.51060018955E+03  0.53250906619E+03  0.47000000000E+01 0. -1.
         -5    1    4    4    0  501  0.34669235190E+02  0.97119957458E+01 -0.10377108673E+03  0.10994001625E+03  0.47000000000E+01 0. -1.
          1    1    1    2  502    0  0.17577865131E+02  0.37270806333E+02 -0.64335959518E+03  0.64467795298E+03  0.00000000000E+00 0. -1.
          1    1    1    2  503    0  0.22192265134E+02  0.45810296995E+02  0.11676679434E+04  0.11687769274E+04  0.00000000000E+00 0. -1.
<mgrwt>
<rscale>  0 0.45815546E+02</rscale>
<asrwt>0</asrwt>
<pdfrwt beam="1">  1        2 0.35577411E+00 0.50938343E+02</pdfrwt>
<pdfrwt beam="2">  1        2 0.18884900E+00 0.41207940E+02</pdfrwt>
<totfact> 0.21304881E+01</totfact>
</mgrwt>
</event>
<event>
13    1  0.1675423E-008  0.1830647E+03  0.7546771E-02  0.1252785E+00
          2   -1    0    0  502    0  0.00000000000E+00  0.00000000000E+00  0.23995670688E+04  0.23995670688E+04  0.00000000000E+00 0. -1.
          2   -1    0    0  503    0 -0.00000000000E+00 -0.00000000000E+00 -0.11352022199E+04  0.11352022199E+04  0.00000000000E+00 0. -1.
         24    2    1    2    0    0 -0.30766877988E+01  0.12257287086E+03  0.56562229754E+03  0.58448517943E+03  0.81613521097E+02 0.  0.
         25    2    1    2    0    0  0.28647232058E+03 -0.97658378919E+02 -0.38128379956E+02  0.32967082006E+03  0.12500210722E+03 0.  0.
         24    2    1    2    0    0 -0.62516943500E+02  0.81038405441E+02  0.14584282828E+03  0.19027697122E+03  0.66780265318E+02 0.  0.
        -11    1    3    3    0    0  0.11747049499E+02  0.57762849949E+02  0.11748399751E+03  0.13144211531E+03  0.00000000000E+00 0.  1.
         12    1    3    3    0    0 -0.14823737297E+02  0.64810020909E+02  0.44813830003E+03  0.45304306413E+03  0.00000000000E+00 0. -1.
        -11    1    5    5    0    0 -0.70822674004E+02  0.85673705439E+02  0.12444530476E+03  0.16686062697E+03  0.00000000000E+00 0.  1.
         12    1    5    5    0    0  0.83057305041E+01 -0.46352999975E+01  0.21397523521E+02  0.23416344251E+02  0.00000000000E+00 0. -1.
          5    1    4    4  501    0  0.70742316826E+02 -0.28745088801E+02 -0.66521073915E+02  0.10137997236E+03  0.47000000000E+01 0. -1.
         -5    1    4    4    0  501  0.21573000375E+03 -0.68913290118E+02  0.28392693959E+02  0.22829084770E+03  0.47000000000E+01 0. -1.
          1    1    1    2  502    0 -0.46555515870E+02 -0.54109989974E+02  0.15008341494E+04  0.15025306822E+04  0.00000000000E+00 0. -1.
          1    1    1    2  503    0 -0.17432317341E+03 -0.51842907406E+02 -0.90980604631E+03  0.92780563575E+03  0.00000000000E+00 0. -1.
<mgrwt>
<rscale>  0 0.11431281E+03</rscale>
<asrwt>0</asrwt>
<pdfrwt beam="1">  1        2 0.35287751E+00 0.71381420E+02</pdfrwt>
<pdfrwt beam="2">  1        2 0.16694150E+00 0.18306469E+03</pdfrwt>
<totfact> 0.22744976E+01</totfact>
</mgrwt>
</event>
<event>
13    1  0.1675423E-008  0.1259756E+03  0.7546771E-02  0.1406327E+00
          2   -1    0    0  502    0  0.00000000000E+00  0.00000000000E+00  0.21375235605E+04  0.21375235605E+04  0.00000000000E+00 0. -1.
          2   -1    0    0  503    0 -0.00000000000E+00 -0.00000000000E+00 -0.16420161006E+04  0.16420161006E+04  0.00000000000E+00 0. -1.
         24    2    1    2    0    0  0.27314854607E+02  0.52165707523E+02  0.49674331040E+03  0.50735108930E+03  0.84757590035E+02 0.  0.
         25    2    1    2    0    0  0.86755879291E+02 -0.16365941935E+03  0.22842852008E+03  0.31955349429E+03  0.12499543510E+03 0.  0.
         24    2    1    2    0    0 -0.65871733320E+02 -0.12742584260E+02 -0.91507579625E+02  0.13913034109E+03  0.80511837505E+02 0.  0.
        -11    1    3    3    0    0  0.46415093064E+02 -0.78437026910E+00  0.24939629800E+03  0.25367989585E+03  0.00000000000E+00 0.  1.
         12    1    3    3    0    0 -0.19100238457E+02  0.52950077792E+02  0.24734701240E+03  0.25367119345E+03  0.00000000000E+00 0. -1.
        -13    1    5    5    0    0 -0.51400439696E+02 -0.43289332716E+02 -0.42210378729E+02  0.79357971247E+02  0.00000000000E+00 0.  1.
         14    1    5    5    0    0 -0.14471293624E+02  0.30546748456E+02 -0.49297200896E+02  0.59772369842E+02  0.00000000000E+00 0. -1.
          5    1    4    4  501    0 -0.44983083412E+01 -0.21915735928E+02 -0.12044213716E+02  0.25839646732E+02  0.47000000000E+01 0. -1.
         -5    1    4    4    0  501  0.91254187632E+02 -0.14174368342E+03  0.24047273380E+03  0.29371384756E+03  0.47000000000E+01 0. -1.
          1    1    1    2  502    0 -0.63519610045E+02  0.10234063980E+03  0.13348410437E+04  0.13402645110E+04  0.00000000000E+00 0. -1.
          1    1    1    2  503    0  0.15320609467E+02  0.21895656289E+02 -0.14729978347E+04  0.14732402254E+04  0.00000000000E+00 0. -1.
<mgrwt>
<rscale>  0 0.58021525E+02</rscale>
<asrwt>0</asrwt>
<pdfrwt beam="1">  1        2 0.31434170E+00 0.12597557E+03</pdfrwt>
<pdfrwt beam="2">  1        2 0.24147296E+00 0.26723414E+02</pdfrwt>
<totfact> 0.18378698E+01</totfact>
</mgrwt>
</event>
<event>
13    1  0.1675423E-008  0.1163294E+03  0.7546771E-02  0.1334428E+00
          2   -1    0    0  502    0  0.00000000000E+00  0.00000000000E+00  0.29266190850E+04  0.29266190850E+04  0.00000000000E+00 0. -1.
          2   -1    0    0  503    0 -0.00000000000E+00 -0.00000000000E+00 -0.12484845691E+04  0.12484845691E+04  0.00000000000E+00 0. -1.
         24    2    1    2    0    0  0.22790304757E+02  0.65402175508E+01  0.19487001952E+03  0.21283926978E+03  0.82243892287E+02 0.  0.
         25    2    1    2    0    0  0.11725541958E+03 -0.14401390280E+03 -0.66905277499E+03  0.70551016624E+03  0.12499656523E+03 0.  0.
         24    2    1    2    0    0  0.55258081366E+02  0.25521490904E+02 -0.22730068165E+01  0.97292958894E+02  0.75867985581E+02 0.  0.
        -13    1    5    5    0    0 -0.10690805985E+02  0.11506974676E+02  0.20771879571E+02  0.26041789103E+02  0.00000000000E+00 0.  1.
         14    1    5    5    0    0  0.65948887351E+02  0.14014516227E+02 -0.23044886387E+02  0.71251169790E+02  0.00000000000E+00 0. -1.
        -13    1    3    3    0    0 -0.79278234465E+01  0.39577139552E+02  0.97629435657E+02  0.10564424767E+03  0.00000000000E+00 0.  1.
         14    1    3    3    0    0  0.30718128204E+02 -0.33036922001E+02  0.97240583861E+02  0.10719502211E+03  0.00000000000E+00 0. -1.
          5    1    4    4  501    0  0.64077536060E+02 -0.12116612815E+03 -0.59909271085E+03  0.61459037369E+03  0.47000000000E+01 0. -1.
         -5    1    4    4    0  501  0.53177883523E+02 -0.22847774656E+02 -0.69960064146E+02  0.90919792554E+02  0.47000000000E+01 0. -1.
          1    1    1    2  502    0 -0.15696596565E+03  0.76112204762E+02  0.26527826579E+04  0.26585122178E+04  0.00000000000E+00 0. -1.
          1    1    1    2  503    0 -0.38337840052E+02  0.35839989585E+02 -0.49819237971E+03  0.50094904135E+03  0.00000000000E+00 0. -1.
<mgrwt>
<rscale>  0 0.78135318E+02</rscale>
<asrwt>0</asrwt>
<pdfrwt beam="1">  1        2 0.43038516E+00 0.11632942E+03</pdfrwt>
<pdfrwt beam="2">  1        2 0.18360067E+00 0.52481376E+02</pdfrwt>
<totfact> 0.10793089E+01</totfact>
</mgrwt>
</event>
<event>
13    1  0.1675423E-008  0.1120776E+03  0.7546771E-02  0.1424741E+00
          2   -1    0    0  502    0  0.00000000000E+00  0.00000000000E+00  0.14751748377E+04  0.14751748377E+04  0.00000000000E+00 0. -1.
          2   -1    0    0  503    0 -0.00000000000E+00 -0.00000000000E+00 -0.47602140809E+03  0.47602140809E+03  0.00000000000E+00 0. -1.
         24    2    1    2    0    0  0.35445061131E+02  0.18373789252E+02  0.18957729857E+03  0.21085026267E+03  0.83212575042E+02 0.  0.
         25    2    1    2    0    0 -0.14202268579E+03  0.20564986277E+03  0.34238682325E+03  0.44193955400E+03  0.12497809137E+03 0.  0.
         24    2    1    2    0    0  0.30987198154E+02 -0.10900860536E+03  0.34685245496E+03  0.37325089743E+03  0.78527220948E+02 0.  0.
        -11    1    5    5    0    0 -0.11796193019E+02 -0.83794733820E+02  0.25720449372E+03  0.27076716783E+03  0.00000000000E+00 0.  1.
         12    1    5    5    0    0  0.42783391173E+02 -0.25213871544E+02  0.89647961241E+02  0.10248372960E+03  0.00000000000E+00 0. -1.
        -13    1    3    3    0    0  0.19553753008E+02 -0.25824414225E+02  0.28769278799E+02  0.43323446647E+02  0.00000000000E+00 0.  1.
         14    1    3    3    0    0  0.15891308123E+02  0.44198203477E+02  0.16080801977E+03  0.16752681602E+03  0.00000000000E+00 0. -1.
          5    1    4    4  501    0 -0.14909305942E+03  0.11492169745E+03  0.23187084211E+03  0.29870037551E+03  0.47000000000E+01 0. -1.
         -5    1    4    4    0  501  0.70703736377E+01  0.90728165324E+02  0.11051598114E+03  0.14323917849E+03  0.47000000000E+01 0. -1.
          1    1    1    2  502    0  0.11946436453E+02 -0.23145631898E+02  0.51465063311E+03  0.51530933601E+03  0.00000000000E+00 0. -1.
          1    1    1    2  503    0  0.63643990047E+02 -0.91869414763E+02 -0.39431378025E+03  0.40984619570E+03  0.00000000000E+00 0. -1.
<mgrwt>
<rscale>  0 0.54030239E+02</rscale>
<asrwt>0</asrwt>
<pdfrwt beam="1">  1        2 0.21693747E+00 0.26046835E+02</pdfrwt>
<pdfrwt beam="2">  1        2 0.70003149E-01 0.11207760E+03</pdfrwt>
<totfact> 0.19960242E+02</totfact>
</mgrwt>
</event>
<event>
13    1  0.1675423E-008  0.1573356E+03  0.7546771E-02  0.1235620E+00
          2   -1    0    0  503    0  0.00000000000E+00  0.00000000000E+00  0.13035563570E+04  0.13035563570E+04  0.00000000000E+00 0. -1.
          2   -1    0    0  502    0 -0.00000000000E+00 -0.00000000000E+00 -0.32903367978E+04  0.32903367978E+04  0.00000000000E+00 0. -1.
         24    2    1    2    0    0 -0.10422484445E+02 -0.87814753637E+02  0.26442590427E+03  0.29018037591E+03  0.80396098006E+02 0.  0.
         25    2    1    2    0    0  0.51380378140E+02  0.16874111810E+03 -0.81193228919E+03  0.84022114902E+03  0.12499611531E+03 0.  0.
         24    2    1    2    0    0  0.43589415375E+02  0.12489436353E+03 -0.26690115022E+03  0.31437995678E+03  0.10049822914E+03 0.  0.
        -11    1    3    3    0    0 -0.29312693808E+02 -0.20491003276E+02  0.16371025082E+03  0.16757136228E+03  0.00000000000E+00 0.  1.
         12    1    3    3    0    0  0.18890209363E+02 -0.67323750361E+02  0.10071565345E+03  0.12260901363E+03  0.00000000000E+00 0. -1.
        -13    1    5    5    0    0  0.25655747142E+02  0.88814215299E+01 -0.13543843980E+03  0.13813279113E+03  0.00000000000E+00 0.  1.
         14    1    5    5    0    0  0.17933668233E+02  0.11601294200E+03 -0.13146271042E+03  0.17624716565E+03  0.00000000000E+00 0. -1.
          5    1    4    4  501    0  0.33459127212E+02 -0.10970851880E+02 -0.13317026993E+03  0.13782700598E+03  0.47000000000E+01 0.  1.
         -5    1    4    4    0  501  0.17921250928E+02  0.17971196998E+03 -0.67876201926E+03  0.70239414304E+03  0.47000000000E+01 0.  1.
          1    1    1    2  502    0 -0.34073147074E+02 -0.92687365425E+02 -0.21557256564E+04  0.21579863374E+04  0.00000000000E+00 0. -1.
          1    1    1    2  503    0 -0.50474161996E+02 -0.11313336257E+03  0.98335275064E+03  0.99112533564E+03  0.00000000000E+00 0. -1.
<mgrwt>
<rscale>  0 0.12464824E+03</rscale>
<asrwt>0</asrwt>
<pdfrwt beam="1">  1        2 0.19169947E+00 0.15733563E+03</pdfrwt>
<pdfrwt beam="2">  1        2 0.48387305E+00 0.98751846E+02</pdfrwt>
<totfact> 0.61191477E+00</totfact>
</mgrwt>
</event>
<event>
13    1  0.1675423E-008  0.1646915E+03  0.7546771E-02  0.1219741E+00
          2   -1    0    0  503    0  0.00000000000E+00  0.00000000000E+00  0.21006789223E+04  0.21006789223E+04  0.00000000000E+00 0. -1.
          2   -1    0    0  502    0 -0.00000000000E+00 -0.00000000000E+00 -0.11224968215E+04  0.11224968215E+04  0.00000000000E+00 0. -1.
         24    2    1    2    0    0 -0.10731439463E+03 -0.15163060943E+03  0.79908297524E+02  0.21567801272E+03  0.74989653584E+02 0.  0.
         25    2    1    2    0    0 -0.39187585901E+03 -0.15162178956E+03 -0.17673054008E+03  0.47266852336E+03  0.12500397291E+03 0.  0.
         24    2    1    2    0    0  0.25437882660E+03  0.19812229910E+03 -0.33808538273E+03  0.47097640125E+03  0.59632304094E+02 0.  0.
        -13    1    5    5    0    0  0.12552847184E+03  0.10173627811E+03 -0.12679114250E+03  0.20538661432E+03  0.00000000000E+00 0.  1.
         14    1    5    5    0    0  0.12885035476E+03  0.96386020995E+02 -0.21129424024E+03  0.26558978693E+03  0.00000000000E+00 0. -1.
        -13    1    3    3    0    0 -0.15508617420E+02 -0.66805747359E+02  0.55721412180E+02  0.88365156424E+02  0.00000000000E+00 0.  1.
         14    1    3    3    0    0 -0.91805777209E+02 -0.84824862071E+02  0.24186885344E+02  0.12731285629E+03  0.00000000000E+00 0. -1.
          5    1    4    4  501    0 -0.17957883424E+03 -0.13109881282E+03 -0.64206183735E+02  0.23147349839E+03  0.47000000000E+01 0. -1.
         -5    1    4    4    0  501 -0.21229702477E+03 -0.20522976738E+02 -0.11252435635E+03  0.24119502497E+03  0.47000000000E+01 0. -1.
          1    1    1    2  502    0  0.16615729620E+03  0.26496725299E+02 -0.30170732401E+03  0.34545279402E+03  0.00000000000E+00 0. -1.
          1    1    1    2  503    0  0.78654130835E+02  0.78633374586E+02  0.17147970501E+04  0.17184000125E+04  0.00000000000E+00 0. -1.
<mgrwt>
<rscale>  0 0.13533970E+03</rscale>
<asrwt>0</asrwt>
<pdfrwt beam="1">  1        2 0.30892337E+00 0.11121906E+03</pdfrwt>
<pdfrwt beam="2">  1        2 0.16507306E+00 0.16469150E+03</pdfrwt>
<totfact> 0.30786281E+01</totfact>
</mgrwt>
</event>
<event>
13    1  0.1675423E-008  0.4200895E+02  0.7546771E-02  0.1534928E+00
          2   -1    0    0  503    0  0.00000000000E+00  0.00000000000E+00  0.13252032180E+04  0.13252032180E+04  0.00000000000E+00 0. -1.
         -1   -1    0    0    0  501 -0.00000000000E+00 -0.00000000000E+00 -0.44553139585E+03  0.44553139585E+03  0.00000000000E+00 0.  1.
         24    2    1    2    0    0 -0.32637290144E+03 -0.42972890973E+03  0.36661070491E+03  0.65535166789E+03  0.62419492193E+02 0.  0.
         25    2    1    2    0    0  0.12999860668E+03  0.36670125090E+03  0.15326757751E+03  0.43644601420E+03  0.12499891137E+03 0.  0.
         24    2    1    2    0    0  0.23511315939E+03  0.31820417486E+02  0.11411609052E+03  0.27020950446E+03  0.60827275935E+02 0.  0.
        -13    1    5    5    0    0  0.79425683235E+02  0.96378125117E+01  0.71441439634E+02  0.10726232276E+03  0.00000000000E+00 0.  1.
         14    1    5    5    0    0  0.15568747616E+03  0.22182604974E+02  0.42674650887E+02  0.16294718170E+03  0.00000000000E+00 0. -1.
        -13    1    3    3    0    0 -0.37519924955E+02 -0.71692695684E+02  0.77340072423E+02  0.11193334707E+03  0.00000000000E+00 0.  1.
         14    1    3    3    0    0 -0.28885297649E+03 -0.35803621404E+03  0.28927063249E+03  0.54341832083E+03  0.00000000000E+00 0. -1.
          5    1    4    4  502    0  0.82713444328E-01  0.36306686017E+02  0.58423317874E+02  0.68946039498E+02  0.47000000000E+01 0.  1.
         -5    1    4    4    0  502  0.12991589323E+03  0.33039456488E+03  0.94844259635E+02  0.36749997470E+03  0.47000000000E+01 0.  1.
          1    1    1    2  503    0 -0.30271668185E+02 -0.99595378805E+01  0.32094361997E+03  0.32252189614E+03  0.00000000000E+00 0. -1.
         -2    1    1    2    0  501 -0.84671964464E+01  0.41166779220E+02 -0.75266170800E+02  0.86205531110E+02  0.00000000000E+00 0.  1.
<mgrwt>
<rscale>  0 0.36588785E+02</rscale>
<asrwt>0</asrwt>
<pdfrwt beam="1">  1        2 0.19488283E+00 0.31867951E+02</pdfrwt>
<pdfrwt beam="2">  1       -1 0.65519323E-01 0.42008950E+02</pdfrwt>
<totfact> 0.62142992E+01</totfact>
</mgrwt>
</event>
<event>
13    1  0.1675423E-008  0.1335553E+03  0.7546771E-02  0.1244520E+00
          2   -1    0    0  503    0  0.00000000000E+00  0.00000000000E+00  0.20210130693E+04  0.20210130693E+04  0.00000000000E+00 0. -1.
         -3   -1    0    0    0  501 -0.00000000000E+00 -0.00000000000E+00 -0.89303784879E+03  0.89303784879E+03  0.00000000000E+00 0.  1.
         24    2    1    2    0    0 -0.16391779006E+02  0.84226950421E+02  0.38820782096E+02  0.11953037003E+03  0.73604256949E+02 0.  0.
         25    2    1    2    0    0 -0.98247056485E+02 -0.16028023419E+03  0.54745537355E+02  0.23230069125E+03  0.12499719883E+03 0.  0.
         24    2    1    2    0    0 -0.68682038549E+02 -0.23869353464E+02  0.25024446062E+03  0.27256333910E+03  0.79884387078E+02 0.  0.
        -11    1    5    5    0    0 -0.65154631395E+02 -0.18530240692E+02  0.25547232107E+03  0.26430021310E+03  0.00000000000E+00 0.  1.
         12    1    5    5    0    0 -0.35274071535E+01 -0.53391127728E+01 -0.52278604515E+01  0.82631260022E+01  0.00000000000E+00 0. -1.
        -13    1    3    3    0    0  0.28456323995E+02  0.20589969357E+02  0.10077933333E+02  0.36541400544E+02  0.00000000000E+00 0.  1.
         14    1    3    3    0    0 -0.44848103000E+02  0.63636981063E+02  0.28742848763E+02  0.82988969488E+02  0.00000000000E+00 0. -1.
          5    1    4    4  502    0  0.23419060926E+02 -0.66919055924E+01 -0.87081119800E+01  0.26289831292E+02  0.47000000000E+01 0.  1.
         -5    1    4    4    0  502 -0.12166611741E+03 -0.15358832860E+03  0.63453649335E+02  0.20601085996E+03  0.47000000000E+01 0.  1.
          1    1    1    2  503    0  0.23261272100E+03  0.57606108632E+01  0.15242855612E+04  0.15419430387E+04  0.00000000000E+00 0. -1.
         -4    1    1    2    0  501 -0.49291846960E+02  0.94162026369E+02 -0.74012112071E+03  0.74771347902E+03  0.00000000000E+00 0.  1.
<mgrwt>
<rscale>  0 0.11914158E+03</rscale>
<asrwt>0</asrwt>
<pdfrwt beam="1">  1        2 0.29720780E+00 0.13355528E+03</pdfrwt>
<pdfrwt beam="2">  1       -3 0.13132910E+00 0.10628346E+03</pdfrwt>
<totfact> 0.25604755E+00</totfact>
</mgrwt>
</event>
<event>
13    1  0.1675423E-008  0.1430411E+03  0.7546771E-02  0.1243919E+00
          2   -1    0    0  503    0  0.00000000000E+00  0.00000000000E+00  0.33705353778E+04  0.33705353778E+04  0.00000000000E+00 0. -1.
          2   -1    0    0  502    0 -0.00000000000E+00 -0.00000000000E+00 -0.67092133200E+03  0.67092133200E+03  0.00000000000E+00 0. -1.
         24    2    1    2    0    0  0.76701674433E+02  0.50326805623E+02 -0.41743532452E+02  0.12861697224E+03  0.79899116524E+02 0.  0.
         25    2    1    2    0    0  0.65973231043E+02 -0.15545674237E+03  0.35135809120E+03  0.40938203811E+03  0.12498751503E+03 0.  0.
         24    2    1    2    0    0  0.12010436464E+03  0.12436974892E+03  0.26279441106E+02  0.19221622390E+03  0.79772017970E+02 0.  0.
        -13    1    5    5    0    0  0.10304578776E+03  0.10413342932E+03  0.51859633791E+02  0.15540793768E+03  0.00000000000E+00 0.  1.
         14    1    5    5    0    0  0.17058576877E+02  0.20236319605E+02 -0.25580192685E+02  0.36808286215E+02  0.00000000000E+00 0. -1.
        -13    1    3    3    0    0  0.58059627140E+02  0.58736276045E+02 -0.59292683308E+02  0.10166854342E+03  0.00000000000E+00 0.  1.
         14    1    3    3    0    0  0.18642047293E+02 -0.84094704227E+01  0.17549150855E+02  0.26948428819E+02  0.00000000000E+00 0. -1.
          5    1    4    4  501    0 -0.18627232916E+02  0.62327186432E+01  0.10601595300E+02  0.22810182172E+02  0.47000000000E+01 0.  1.
         -5    1    4    4    0  501  0.84600463960E+02 -0.16168946102E+03  0.34075649590E+03  0.38657185594E+03  0.47000000000E+01 0.  1.
          1    1    1    2  502    0 -0.12391159939E+03  0.12887571667E+02 -0.46374447849E+03  0.48018654219E+03  0.00000000000E+00 0. -1.
          1    1    1    2  503    0 -0.13886767073E+03 -0.32127383839E+02  0.28274645245E+04  0.28310549334E+04  0.00000000000E+00 0. -1.
<mgrwt>
<rscale>  0 0.11950290E+03</rscale>
<asrwt>0</asrwt>
<pdfrwt beam="1">  1        2 0.49566696E+00 0.14304106E+03</pdfrwt>
<pdfrwt beam="2">  1        2 0.98664903E-01 0.99838061E+02</pdfrwt>
<totfact> 0.12675499E+01</totfact>
</mgrwt>
</event>
<event>
13    1  0.1675423E-008  0.7975419E+02  0.7546771E-02  0.1465995E+00
          2   -1    0    0  502    0  0.00000000000E+00  0.00000000000E+00  0.20319347677E+04  0.20319347677E+04  0.00000000000E+00 0. -1.
          4   -1    0    0  503    0 -0.00000000000E+00 -0.00000000000E+00 -0.48440770094E+03  0.48440770094E+03  0.00000000000E+00 0. -1.
         24    2    1    2    0    0 -0.14547557158E+03 -0.38663203145E+01  0.20280338763E+03  0.26233417412E+03  0.80696434359E+02 0.  0.
         25    2    1    2    0    0  0.15899340676E+03  0.73005918519E+02  0.12875136354E+03  0.25061991967E+03  0.12499865196E+03 0.  0.
         24    2    1    2    0    0  0.50781594281E+02 -0.10691570081E+02 -0.77193891066E+02  0.12188735508E+03  0.78768969286E+02 0.  0.
        -13    1    5    5    0    0  0.47970963240E+02 -0.11091395251E+02 -0.93320491481E+02  0.10551277881E+03  0.00000000000E+00 0.  1.
         14    1    5    5    0    0  0.28106310407E+01  0.39982517034E+00  0.16126600415E+02  0.16374576268E+02  0.00000000000E+00 0. -1.
        -13    1    3    3    0    0 -0.79992675728E+02 -0.12738462106E+01  0.45759203866E+02  0.92164828394E+02  0.00000000000E+00 0.  1.
         14    1    3    3    0    0 -0.65482895847E+02 -0.25924741039E+01  0.15704418376E+03  0.17016934572E+03  0.00000000000E+00 0. -1.
          5    1    4    4  501    0  0.24466295490E+02 -0.26576222975E+02 -0.43980653103E+01  0.36692345538E+02  0.47000000000E+01 0. -1.
         -5    1    4    4    0  501  0.13452711127E+03  0.99582141494E+02  0.13314942885E+03  0.21392757413E+03  0.47000000000E+01 0. -1.
          1    1    1    2  502    0 -0.24718069747E+02  0.10749595527E+02  0.15818158542E+04  0.15820454903E+04  0.00000000000E+00 0. -1.
          3    1    1    2  503    0 -0.39581359717E+02 -0.69197623651E+02 -0.28864964750E+03  0.29945552951E+03  0.00000000000E+00 0. -1.
<mgrwt>
<rscale>  0 0.46365096E+02</rscale>
<asrwt>0</asrwt>
<pdfrwt beam="1">  1        2 0.29881393E+00 0.26954346E+02</pdfrwt>
<pdfrwt beam="2">  1        4 0.71236427E-01 0.79754195E+02</pdfrwt>
<totfact> 0.94395328E+00</totfact>
</mgrwt>
</event>
<event>
13    1  0.1675423E-008  0.1314982E+03  0.7546771E-02  0.1324021E+00
          2   -1    0    0  503    0  0.00000000000E+00  0.00000000000E+00  0.22874333079E+04  0.22874333079E+04  0.00000000000E+00 0. -1.
         -3   -1    0    0    0  501 -0.00000000000E+00 -0.00000000000E+00 -0.10953225274E+04  0.10953225274E+04  0.00000000000E+00 0.  1.
         24    2    1    2    0    0  0.67800971908E+02  0.11203750015E+02  0.73865272454E+01  0.10504746535E+03  0.79106974319E+02 0.  0.
         25    2    1    2    0    0 -0.10439617196E+03 -0.12744614598E+03 -0.52831332877E+03  0.56734535558E+03  0.12499879316E+03 0.  0.
         24    2    1    2    0    0  0.54320413850E+02 -0.53388367192E+02 -0.79970163061E+02  0.13716739435E+03  0.81355036596E+02 0.  0.
        -11    1    5    5    0    0 -0.22693212394E+00  0.11341495370E+02  0.89122520986E+01  0.14425992267E+02  0.00000000000E+00 0.  1.
         12    1    5    5    0    0  0.54547345974E+02 -0.64729862561E+02 -0.88882415159E+02  0.12274140208E+03  0.00000000000E+00 0. -1.
        -11    1    3    3    0    0  0.42057697402E+02 -0.13077803377E+02 -0.30215393090E+02  0.53412066348E+02  0.00000000000E+00 0.  1.
         12    1    3    3    0    0  0.25743274506E+02  0.24281553391E+02  0.37601920335E+02  0.51635399004E+02  0.00000000000E+00 0. -1.
          5    1    4    4  502    0 -0.30638428400E+02 -0.53269121337E+02 -0.38473325458E+03  0.38963839616E+03  0.47000000000E+01 0.  1.
         -5    1    4    4    0  502 -0.73757743564E+02 -0.74177024642E+02 -0.14358007419E+03  0.17770695941E+03  0.47000000000E+01 0.  1.
          1    1    1    2  503    0 -0.41848149588E+02  0.12482823114E+03  0.21794473931E+04  0.21834203201E+04  0.00000000000E+00 0. -1.
         -4    1    1    2    0  501  0.24122935794E+02  0.44802532013E+02 -0.38643964803E+03  0.38977529998E+03  0.00000000000E+00 0.  1.
<mgrwt>
<rscale>  0 0.81799483E+02</rscale>
<asrwt>0</asrwt>
<pdfrwt beam="1">  1        2 0.33638725E+00 0.13149818E+03</pdfrwt>
<pdfrwt beam="2">  1       -3 0.16107684E+00 0.50884014E+02</pdfrwt>
<totfact> 0.11580729E+00</totfact>
</mgrwt>
</event>
<event>
13    1  0.1675423E-008  0.1189015E+03  0.7546771E-02  0.1296600E+00
          2   -1    0    0  503    0  0.00000000000E+00  0.00000000000E+00  0.44594024197E+04  0.44594024197E+04  0.00000000000E+00 0. -1.
          2   -1    0    0  502    0 -0.00000000000E+00 -0.00000000000E+00 -0.82879408899E+03  0.82879408899E+03  0.00000000000E+00 0. -1.
         24    2    1    2    0    0 -0.57382205886E+02  0.92737170801E+02  0.87554279056E+03  0.88564103238E+03  0.76759101968E+02 0.  0.
         25    2    1    2    0    0 -0.47294314714E+02 -0.15804721748E+03 -0.13844256011E+03  0.24901351965E+03  0.12500286141E+03 0.  0.
         24    2    1    2    0    0  0.31238308304E+02  0.22315301072E+02  0.43232446077E+03  0.44111404362E+03  0.78761383475E+02 0.  0.
        -11    1    3    3    0    0 -0.27820803593E+02 -0.82510196470E+00  0.34351370229E+03  0.34463943705E+03  0.00000000000E+00 0.  1.
         12    1    3    3    0    0 -0.29561402293E+02  0.93562272766E+02  0.53202908827E+03  0.54100159533E+03  0.00000000000E+00 0. -1.
        -11    1    5    5    0    0 -0.25163986347E+02 -0.23616793155E+01  0.15416548618E+03  0.15622356054E+03  0.00000000000E+00 0.  1.
         12    1    5    5    0    0  0.56402294652E+02  0.24676980387E+02  0.27815897459E+03  0.28489048308E+03  0.00000000000E+00 0. -1.
          5    1    4    4  501    0 -0.78802241953E+02 -0.69793684560E+02 -0.10670684349E+03  0.14996463646E+03  0.47000000000E+01 0.  1.
         -5    1    4    4    0  501  0.31507927240E+02 -0.88253532920E+02 -0.31735716623E+02  0.99048883191E+02  0.47000000000E+01 0.  1.
          1    1    1    2  502    0 -0.64638096914E+02  0.32092095025E+02 -0.62198107392E+03  0.62615368916E+03  0.00000000000E+00 0. -1.
          1    1    1    2  503    0  0.13807630921E+03  0.10902650583E+02  0.30831647134E+04  0.30862742239E+04  0.00000000000E+00 0. -1.
<mgrwt>
<rscale>  0 0.92632011E+02</rscale>
<asrwt>0</asrwt>
<pdfrwt beam="1">  1        2 0.65579446E+00 0.11890148E+03</pdfrwt>
<pdfrwt beam="2">  1        2 0.12188149E+00 0.72166378E+02</pdfrwt>
<totfact> 0.19441055E+00</totfact>
</mgrwt>
</event>
<event>
13    1  0.1675423E-008  0.1083393E+03  0.7546771E-02  0.1441193E+00
          2   -1    0    0  502    0  0.00000000000E+00  0.00000000000E+00  0.38811561731E+03  0.38811561731E+03  0.00000000000E+00 0. -1.
          2   -1    0    0  503    0 -0.00000000000E+00 -0.00000000000E+00 -0.43392980424E+04  0.43392980424E+04  0.00000000000E+00 0. -1.
         24    2    1    2    0    0 -0.12692947929E+02 -0.13305614247E+03  0.29459137110E+03  0.33354543841E+03  0.81261525835E+02 0.  0.
         25    2    1    2    0    0  0.14883438457E+03  0.58144134778E+02 -0.16943664861E+04  0.17064681466E+04  0.12499332578E+03 0.  0.
         24    2    1    2    0    0 -0.13735556951E+03 -0.84110065011E+02 -0.82926053881E+03  0.84827172135E+03  0.77141535546E+02 0.  0.
        -11    1    3    3    0    0  0.33148430678E+02 -0.77816994202E+02  0.16386879354E+03  0.18441064107E+03  0.00000000000E+00 0.  1.
         12    1    3    3    0    0 -0.45841378607E+02 -0.55239148273E+02  0.13072257755E+03  0.14913479734E+03  0.00000000000E+00 0. -1.
        -13    1    5    5    0    0 -0.19923626140E+02 -0.53700698598E+02 -0.26629457650E+03  0.27238486995E+03  0.00000000000E+00 0.  1.
         14    1    5    5    0    0 -0.11743194337E+03 -0.30409366413E+02 -0.56296596231E+03  0.57588685139E+03  0.00000000000E+00 0. -1.
          5    1    4    4  501    0  0.15254112945E+03  0.28314831739E+02 -0.10527955414E+04  0.10641762391E+04  0.47000000000E+01 0.  1.
         -5    1    4    4    0  501 -0.37067448850E+01  0.29829303038E+02 -0.64157094476E+03  0.64229190750E+03  0.47000000000E+01 0.  1.
          1    1    1    2  502    0  0.11210648738E+02  0.18061948962E+03 -0.81777750937E+02  0.19858670455E+03  0.00000000000E+00 0. -1.
          1    1    1    2  503    0 -0.99965158703E+01 -0.21597416915E+02 -0.16403690203E+04  0.16405416488E+04  0.00000000000E+00 0. -1.
<mgrwt>
<rscale>  0 0.50777318E+02</rscale>
<asrwt>0</asrwt>
<pdfrwt beam="1">  1        2 0.57075828E-01 0.10833931E+03</pdfrwt>
<pdfrwt beam="2">  1        2 0.63813204E+00 0.23798713E+02</pdfrwt>
<totfact> 0.82434461E+00</totfact>
</mgrwt>
</event>
<event>
13    1  0.1675423E-008  0.9009466E+02  0.7546771E-02  0.1308559E+00
         -1   -1    0    0    0  501  0.00000000000E+00  0.00000000000E+00  0.64133601651E+03  0.64133601651E+03  0.00000000000E+00 0.  1.
         -1   -1    0    0    0  502 -0.00000000000E+00 -0.00000000000E+00 -0.78750755620E+03  0.78750755620E+03  0.00000000000E+00 0.  1.
         24    2    1    2    0    0  0.19699657959E+03  0.27954729287E+02  0.20915618502E+03  0.29906891198E+03  0.78145921985E+02 0.  0.
         25    2    1    2    0    0  0.17270411662E+02 -0.14014408077E+03 -0.32106225769E+03  0.37234559639E+03  0.12498655666E+03 0.  0.
         24    2    1    2    0    0 -0.20832760908E+03  0.12158995942E+03  0.13455494754E+03  0.28808791092E+03  0.81884672402E+02 0.  0.
        -13    1    5    5    0    0 -0.18027813613E+03  0.79487702385E+02  0.77198797564E+02  0.21160849591E+03  0.00000000000E+00 0.  1.
         14    1    5    5    0    0 -0.28049472953E+02  0.42102257033E+02  0.57356149975E+02  0.76479415010E+02  0.00000000000E+00 0. -1.
        -13    1    3    3    0    0  0.16076201470E+03  0.14610025717E+02  0.20395446956E+03  0.26010633186E+03  0.00000000000E+00 0.  1.
         14    1    3    3    0    0  0.36234564883E+02  0.13344703570E+02  0.52017154617E+01  0.38962580117E+02  0.00000000000E+00 0. -1.
          5    1    4    4  503    0 -0.16633203445E+02 -0.13170676992E+03 -0.16236671438E+03  0.20978173571E+03  0.47000000000E+01 0. -1.
         -5    1    4    4    0  503  0.33903615107E+02 -0.84373108459E+01 -0.15869554332E+03  0.16256386068E+03  0.47000000000E+01 0. -1.
         -2    1    1    2    0  501 -0.40966800160E+02  0.74861534949E+02  0.13077556481E+03  0.15615625662E+03  0.00000000000E+00 0.  1.
         -2    1    1    2    0  502  0.35027417991E+02 -0.84262142889E+02 -0.29959597936E+03  0.31318489680E+03  0.00000000000E+00 0.  1.
<mgrwt>
<rscale>  0 0.87683943E+02</rscale>
<asrwt>0</asrwt>
<pdfrwt beam="1">  1       -1 0.94314120E-01 0.85337730E+02</pdfrwt>
<pdfrwt beam="2">  1       -1 0.11580993E+00 0.90094662E+02</pdfrwt>
<totfact> 0.78085323E+00</totfact>
</mgrwt>
</event>
<event>
13    1  0.1675423E-008  0.9954461E+02  0.7546771E-02  0.1396985E+00
          2   -1    0    0  502    0  0.00000000000E+00  0.00000000000E+00  0.30323758472E+04  0.30323758472E+04  0.00000000000E+00 0. -1.
          2   -1    0    0  503    0 -0.00000000000E+00 -0.00000000000E+00 -0.30150952726E+04  0.30150952726E+04  0.00000000000E+00 0. -1.
         24    2    1    2    0    0  0.37377322892E+03  0.95463120060E+03  0.18255258049E+04  0.20956504604E+04  0.90439105425E+02 0.  0.
         25    2    1    2    0    0 -0.17662817816E+03 -0.76492312634E+02 -0.29810632649E+03  0.37621784161E+03  0.12499558090E+03 0.  0.
         24    2    1    2    0    0 -0.27477119485E+03 -0.88723546724E+03 -0.45488927442E+03  0.10370488853E+04  0.76551646644E+02 0.  0.
        -11    1    5    5    0    0 -0.15053137598E+03 -0.36711194127E+03 -0.17827152838E+03  0.43498460939E+03  0.00000000000E+00 0.  1.
         12    1    5    5    0    0 -0.12423981887E+03 -0.52012352598E+03 -0.27661774604E+03  0.60206427588E+03  0.00000000000E+00 0. -1.
        -13    1    3    3    0    0  0.18666906747E+03  0.38266542640E+03  0.81477055571E+03  0.91930910350E+03  0.00000000000E+00 0.  1.
         14    1    3    3    0    0  0.18710416145E+03  0.57196577420E+03  0.10107552492E+04  0.11763413569E+04  0.00000000000E+00 0. -1.
          5    1    4    4  501    0 -0.11846985029E+03 -0.10305725928E+02 -0.87014339010E+02  0.14742760463E+03  0.47000000000E+01 0. -1.
         -5    1    4    4    0  501 -0.58158327872E+02 -0.66186586706E+02 -0.21109198748E+03  0.22879023699E+03  0.47000000000E+01 0. -1.
          1    1    1    2  502    0  0.97251896712E+02 -0.21570043490E+02  0.73812158002E+03  0.74481317462E+03  0.00000000000E+00 0. -1.
          1    1    1    2  503    0 -0.19625752618E+02  0.30666622765E+02 -0.17933712094E+04  0.17937407579E+04  0.00000000000E+00 0. -1.
<mgrwt>
<rscale>  0 0.60202284E+02</rscale>
<asrwt>0</asrwt>
<pdfrwt beam="1">  1        2 0.44593762E+00 0.99544608E+02</pdfrwt>
<pdfrwt beam="2">  1        2 0.44339636E+00 0.36408954E+02</pdfrwt>
<totfact> 0.14561485E+00</totfact>
</mgrwt>
</event>
<event>
13    1  0.1675423E-008  0.2091340E+03  0.7546771E-02  0.1308951E+00
          2   -1    0    0  503    0  0.00000000000E+00  0.00000000000E+00  0.39874574155E+04  0.39874574155E+04  0.00000000000E+00 0. -1.
         -1   -1    0    0    0  501 -0.00000000000E+00 -0.00000000000E+00 -0.13126779616E+04  0.13126779616E+04  0.00000000000E+00 0.  1.
         24    2    1    2    0    0  0.20670630071E+03  0.11214288991E+03  0.11364129589E+04  0.11632560644E+04  0.80166924377E+02 0.  0.
         25    2    1    2    0    0  0.26736671077E+03 -0.15635877859E+02 -0.20954582355E+03  0.36230303046E+03  0.12499838003E+03 0.  0.
         24    2    1    2    0    0 -0.25608774210E+02 -0.49389974314E+02  0.30918895091E+03  0.32399099572E+03  0.79228650509E+02 0.  0.
        -11    1    5    5    0    0  0.70133557487E+01 -0.55719036820E+02  0.24883612888E+03  0.25509452613E+03  0.00000000000E+00 0.  1.
         12    1    5    5    0    0 -0.32622129959E+02  0.63290625057E+01  0.60352822033E+02  0.68896469594E+02  0.00000000000E+00 0. -1.
        -11    1    3    3    0    0  0.68028860549E+02  0.80805742734E+02  0.52652262569E+03  0.53701356528E+03  0.00000000000E+00 0.  1.
         12    1    3    3    0    0  0.13867744016E+03  0.31337147179E+02  0.60989033316E+03  0.62624249910E+03  0.00000000000E+00 0. -1.
          5    1    4    4  502    0  0.12216901117E+02 -0.26291399688E+02 -0.58782826145E+02  0.65711498385E+02  0.47000000000E+01 0.  1.
         -5    1    4    4    0  502  0.25514980966E+03  0.10655521829E+02 -0.15076299740E+03  0.29659153208E+03  0.47000000000E+01 0.  1.
          1    1    1    2  503    0 -0.44117109991E+03 -0.83016410099E+02  0.24237023639E+04  0.24649253158E+04  0.00000000000E+00 0. -1.
         -2    1    1    2    0  501 -0.72931373682E+01  0.35899372358E+02 -0.98497899621E+03  0.98565997066E+03  0.00000000000E+00 0.  1.
<mgrwt>
<rscale>  0 0.87527965E+02</rscale>
<asrwt>0</asrwt>
<pdfrwt beam="1">  1        2 0.58639079E+00 0.20913404E+03</pdfrwt>
<pdfrwt beam="2">  1       -1 0.19304088E+00 0.36632701E+02</pdfrwt>
<totfact> 0.16578209E-01</totfact>
</mgrwt>
</event>
<event>
13    1  0.1675423E-008  0.1831534E+03  0.7546771E-02  0.1371944E+00
          2   -1    0    0  503    0  0.00000000000E+00  0.00000000000E+00  0.27606491122E+04  0.27606491122E+04  0.00000000000E+00 0. -1.
          2   -1    0    0  502    0 -0.00000000000E+00 -0.00000000000E+00 -0.12161773644E+04  0.12161773644E+04  0.00000000000E+00 0. -1.
         24    2    1    2    0    0  0.10674603784E+03  0.35716088803E+02  0.30620125295E+03  0.33599627509E+03  0.80398594306E+02 0.  0.
         25    2    1    2    0    0 -0.26138872617E+03  0.16610827481E+03  0.62792880759E+03  0.71122424257E+03  0.12501724153E+03 0.  0.
         24    2    1    2    0    0 -0.44020645394E+02 -0.97277221370E+02 -0.70964851604E+03  0.72220585099E+03  0.81114732667E+02 0.  0.
        -11    1    5    5    0    0 -0.33620121176E+02 -0.21940695247E+02 -0.44613012090E+03  0.44793279789E+03  0.00000000000E+00 0.  1.
         12    1    5    5    0    0 -0.10400524217E+02 -0.75336526122E+02 -0.26351839515E+03  0.27427305309E+03  0.00000000000E+00 0. -1.
        -13    1    3    3    0    0 -0.61944945460E+01 -0.13699463163E+02  0.34791928708E+02  0.37901521828E+02  0.00000000000E+00 0.  1.
         14    1    3    3    0    0  0.11294053238E+03  0.49415551967E+02  0.27140932425E+03  0.29809475326E+03  0.00000000000E+00 0. -1.
          5    1    4    4  501    0 -0.25026168710E+03  0.13505656822E+03  0.46628378156E+03  0.54618114540E+03  0.47000000000E+01 0. -1.
         -5    1    4    4    0  501 -0.11127039079E+02  0.31051706590E+02  0.16164502603E+03  0.16504309716E+03  0.47000000000E+01 0. -1.
          1    1    1    2  502    0  0.21558319683E+03 -0.87190280609E+02 -0.41314466583E+03  0.47409574423E+03  0.00000000000E+00 0. -1.
          1    1    1    2  503    0 -0.16919863098E+02 -0.17356861637E+02  0.17331348692E+04  0.17333043637E+04  0.00000000000E+00 0. -1.
<mgrwt>
<rscale>  0 0.66629614E+02</rscale>
<asrwt>0</asrwt>
<pdfrwt beam="1">  1        2 0.40597781E+00 0.24239274E+02</pdfrwt>
<pdfrwt beam="2">  1        2 0.17884961E+00 0.18315340E+03</pdfrwt>
<totfact> 0.16185083E+01</totfact>
</mgrwt>
</event>
<event>
13    1  0.1675423E-008  0.1337537E+03  0.7546771E-02  0.1300214E+00
          2   -1    0    0  503    0  0.00000000000E+00  0.00000000000E+00  0.31082075553E+04  0.31082075553E+04  0.00000000000E+00 0. -1.
         -1   -1    0    0    0  501 -0.00000000000E+00 -0.00000000000E+00 -0.18825852641E+04  0.18825852641E+04  0.00000000000E+00 0.  1.
         24    2    1    2    0    0  0.14134036453E+03 -0.13567922825E+02  0.87887381688E+02  0.18376340237E+03  0.76704687051E+02 0.  0.
         25    2    1    2    0    0 -0.17794874755E+03 -0.25217868303E+02 -0.26990721936E+02  0.22057833674E+03  0.12499842372E+03 0.  0.
         24    2    1    2    0    0 -0.15162710200E+03  0.37552294455E+02  0.28527674100E+03  0.33459166493E+03  0.78535408606E+02 0.  0.
        -11    1    3    3    0    0  0.13946731789E+03 -0.30147022497E+02  0.68791211293E+02  0.15840519712E+03  0.00000000000E+00 0.  1.
         12    1    3    3    0    0  0.18730466423E+01  0.16579099672E+02  0.19096170395E+02  0.25358205248E+02  0.00000000000E+00 0. -1.
        -11    1    5    5    0    0 -0.17691568240E+02  0.73336553270E+01  0.11143022300E+03  0.11306400260E+03  0.00000000000E+00 0.  1.
         12    1    5    5    0    0 -0.13393553376E+03  0.30218639128E+02  0.17384651800E+03  0.22152766233E+03  0.00000000000E+00 0. -1.
          5    1    4    4  502    0 -0.27871291902E+02  0.44996007632E+02 -0.80382184666E+01  0.53741534879E+02  0.47000000000E+01 0. -1.
         -5    1    4    4    0  502 -0.15007745565E+03 -0.70213875935E+02 -0.18952503469E+02  0.16683680186E+03  0.47000000000E+01 0. -1.
          1    1    1    2  503    0  0.57162668891E+02 -0.24127416519E+02  0.25626355481E+04  0.25633865599E+04  0.00000000000E+00 0. -1.
         -2    1    1    2    0  501  0.13107281613E+03  0.25360913193E+02 -0.16831866576E+04  0.16884728554E+04  0.00000000000E+00 0.  1.
<mgrwt>
<rscale>  0 0.91098195E+02</rscale>
<asrwt>0</asrwt>
<pdfrwt beam="1">  1        2 0.45708935E+00 0.62045974E+02</pdfrwt>
<pdfrwt beam="2">  1       -1 0.27685077E+00 0.13375374E+03</pdfrwt>
<totfact> 0.18441695E-01</totfact>
</mgrwt>
</event>
<event>
13    1  0.1675423E-008  0.1645456E+03  0.7546771E-02  0.1206455E+00
          2   -1    0    0  502    0  0.00000000000E+00  0.00000000000E+00  0.15289245520E+04  0.15289245520E+04  0.00000000000E+00 0. -1.
          2   -1    0    0  503    0 -0.00000000000E+00 -0.00000000000E+00 -0.29703013367E+04  0.29703013367E+04  0.00000000000E+00 0. -1.
         24    2    1    2    0    0  0.16492493369E+03 -0.24229350733E+02  0.56624145646E+03  0.59581623345E+03  0.81119059670E+02 0.  0.
         25    2    1    2    0    0 -0.10328710899E+03 -0.16433038159E+03 -0.70133984949E+03  0.73835969971E+03  0.12499904192E+03 0.  0.
         24    2    1    2    0    0 -0.78282503873E+02  0.26404157190E+01 -0.14637462936E+02  0.11322234616E+03  0.80435826222E+02 0.  0.
        -11    1    3    3    0    0  0.74794551236E+01 -0.19633277923E+02  0.13670841083E+03  0.13831340298E+03  0.00000000000E+00 0.  1.
         12    1    3    3    0    0  0.15744547856E+03 -0.45960728096E+01  0.42953304563E+03  0.45750283047E+03  0.00000000000E+00 0. -1.
        -13    1    5    5    0    0  0.19798170520E+01 -0.21077432379E+02  0.13285735155E+02  0.24993771021E+02  0.00000000000E+00 0.  1.
         14    1    5    5    0    0 -0.80262320925E+02  0.23717848098E+02 -0.27923198091E+02  0.88228575135E+02  0.00000000000E+00 0. -1.
          5    1    4    4  501    0 -0.69677495234E+02 -0.29450063753E+02 -0.13136960923E+03  0.15166517011E+03  0.47000000000E+01 0. -1.
         -5    1    4    4    0  501 -0.33609613754E+02 -0.13488031783E+03 -0.56997024026E+03  0.58669452960E+03  0.47000000000E+01 0. -1.
          1    1    1    2  502    0  0.21855186653E+03  0.17271563945E+03  0.85317005970E+03  0.89749359956E+03  0.00000000000E+00 0. -1.
          1    1    1    2  503    0 -0.20190718736E+03  0.13203677154E+02 -0.21448109885E+04  0.21543340098E+04  0.00000000000E+00 0. -1.
<mgrwt>
<rscale>  0 0.14523348E+03</rscale>
<asrwt>0</asrwt>
<pdfrwt beam="1">  1        2 0.22484185E+00 0.16454560E+03</pdfrwt>
<pdfrwt beam="2">  1        2 0.43680902E+00 0.12818795E+03</pdfrwt>
<totfact> 0.67148541E+00</totfact>
</mgrwt>
</event>
<event>
13    1  0.1675423E-008  0.1125188E+03  0.7546771E-02  0.1266473E+00
          2   -1    0    0  503    0  0.00000000000E+00  0.00000000000E+00  0.25991353415E+04  0.25991353415E+04  0.00000000000E+00 0. -1.
          2   -1    0    0  502    0 -0.00000000000E+00 -0.00000000000E+00 -0.50082900986E+04  0.50082900986E+04  0.00000000000E+00 0. -1.
         24    2    1    2    0    0  0.33206153275E+02 -0.25309697036E+01  0.57276383208E+03  0.57943484393E+03  0.81100410565E+02 0.  0.
         25    2    1    2    0    0  0.92905340465E+02 -0.20744336310E+02 -0.80288173688E+02  0.17644568270E+03  0.12500063333E+03 0.  0.
         24    2    1    2    0    0  0.53148513176E+02  0.52984532940E+02 -0.62788003341E+02  0.12775035309E+03  0.82132174978E+02 0.  0.
        -11    1    3    3    0    0  0.44687773073E+02  0.29272263182E+02  0.32193010076E+03  0.32633242596E+03  0.00000000000E+00 0.  1.
         12    1    3    3    0    0 -0.11481619798E+02 -0.31803232886E+02  0.25083373132E+03  0.25310241798E+03  0.00000000000E+00 0. -1.
        -13    1    5    5    0    0  0.45897598104E+02  0.67261998994E+02 -0.72495421200E+02  0.10902454822E+03  0.00000000000E+00 0.  1.
         14    1    5    5    0    0  0.72509150717E+01 -0.14277466054E+02  0.97074178585E+01  0.18725804863E+02  0.00000000000E+00 0. -1.
          5    1    4    4  501    0 -0.99930667835E+01  0.29816766621E+02  0.66504661017E+01  0.32484144668E+02  0.47000000000E+01 0.  1.
         -5    1    4    4    0  501  0.10289840725E+03 -0.50561102931E+02 -0.86938639789E+02  0.14396153803E+03  0.47000000000E+01 0.  1.
          1    1    1    2  502    0 -0.11099762302E+03  0.79692145306E+02 -0.47782006033E+04  0.47801540054E+04  0.00000000000E+00 0. -1.
          1    1    1    2  503    0 -0.68262383898E+02 -0.10940137223E+03  0.19393581911E+04  0.19436405549E+04  0.00000000000E+00 0. -1.
<mgrwt>
<rscale>  0 0.10687303E+03</rscale>
<asrwt>0</asrwt>
<pdfrwt beam="1">  1        2 0.38222579E+00 0.10151057E+03</pdfrwt>
<pdfrwt beam="2">  1        2 0.73651324E+00 0.11251878E+03</pdfrwt>
<totfact> 0.80040133E-02</totfact>
</mgrwt>
</event>
<event>
13    1  0.1675423E-008  0.1481458E+03  0.7546771E-02  0.1289188E+00
         -1   -1    0    0    0  501 -0.00000000000E+00  0.00000000000E+00  0.57755260780E+03  0.57755260780E+03  0.00000000000E+00 0.  1.
          2   -1    0    0  503    0  0.00000000000E+00 -0.00000000000E+00 -0.21530097168E+04  0.21530097168E+04  0.00000000000E+00 0. -1.
         24    2    1    2    0    0 -0.37574952733E+02 -0.35795546346E+03 -0.15006847983E+03  0.39821652047E+03  0.80696081921E+02 0.  0.
         25    2    1    2    0    0 -0.22083879260E+01  0.48437199147E+03 -0.54523389085E+03  0.73995001609E+03  0.12499970994E+03 0.  0.
         24    2    1    2    0    0 -0.14868344893E+03  0.25231313293E+02 -0.34177617675E+02  0.17445527764E+03  0.80766002690E+02 0.  0.
        -11    1    3    3    0    0  0.44042787900E+01 -0.23758754350E+03 -0.12424401498E+03  0.26814886492E+03  0.00000000000E+00 0.  1.
         12    1    3    3    0    0 -0.41979231523E+02 -0.12036791996E+03 -0.25824464854E+02  0.13006765555E+03  0.00000000000E+00 0. -1.
        -11    1    5    5    0    0  0.99888654017E+01  0.29743037749E+01 -0.51353295768E+01  0.11618757456E+02  0.00000000000E+00 0.  1.
         12    1    5    5    0    0 -0.15867231433E+03  0.22257009519E+02 -0.29042288098E+02  0.16283652018E+03  0.00000000000E+00 0. -1.
          5    1    4    4  502    0  0.14026628162E+02  0.43966184603E+03 -0.53206145323E+03  0.69037002048E+03  0.47000000000E+01 0. -1.
         -5    1    4    4    0  502 -0.16235016088E+02  0.44710145437E+02 -0.13172437612E+02  0.49579995613E+02  0.47000000000E+01 0. -1.
          1    1    1    2  503    0  0.60027987311E+02 -0.15767353076E+02 -0.11004292484E+04  0.11021780707E+04  0.00000000000E+00 0. -1.
         -2    1    1    2    0  501  0.12843880227E+03 -0.13588048822E+03  0.25445212779E+03  0.31576243973E+03  0.00000000000E+00 0.  1.
<mgrwt>
<rscale>  0 0.95888256E+02</rscale>
<asrwt>0</asrwt>
<pdfrwt beam="2">  1        2 0.31661908E+00 0.62064230E+02</pdfrwt>
<pdfrwt beam="1">  1       -1 0.84934206E-01 0.14814584E+03</pdfrwt>
<totfact> 0.13830160E+01</totfact>
</mgrwt>
</event>
<event>
13    1  0.1675423E-008  0.7172093E+02  0.7546771E-02  0.1402080E+00
          2   -1    0    0  503    0  0.00000000000E+00  0.00000000000E+00  0.12596917200E+04  0.12596917200E+04  0.00000000000E+00 0. -1.
          2   -1    0    0  502    0 -0.00000000000E+00 -0.00000000000E+00 -0.37081029025E+04  0.37081029025E+04  0.00000000000E+00 0. -1.
         24    2    1    2    0    0 -0.17841234479E+03  0.67140453038E+03 -0.98330217826E+02  0.70601144360E+03  0.78538643839E+02 0.  0.
         25    2    1    2    0    0 -0.25191667892E+03 -0.42134974856E+03 -0.18039623308E+04  0.18737401016E+04  0.12499701477E+03 0.  0.
         24    2    1    2    0    0  0.35246292210E+03 -0.33855163452E+03 -0.69481408184E+03  0.85323053403E+03  0.79927562164E+02 0.  0.
        -11    1    5    5    0    0  0.20059527099E+03 -0.19452767096E+03 -0.32783550741E+03  0.43076164806E+03  0.00000000000E+00 0.  1.
         12    1    5    5    0    0  0.15186765111E+03 -0.14402396356E+03 -0.36697857443E+03  0.42246888598E+03  0.00000000000E+00 0. -1.
        -11    1    3    3    0    0 -0.33386675257E+02  0.27478374789E+03 -0.36192220694E+02  0.27916062586E+03  0.00000000000E+00 0.  1.
         12    1    3    3    0    0 -0.14502566953E+03  0.39662078249E+03 -0.62137997132E+02  0.42685081775E+03  0.00000000000E+00 0. -1.
          5    1    4    4  501    0  0.69666726142E+01 -0.41145909836E+02 -0.93398777396E+02  0.10240577153E+03  0.47000000000E+01 0. -1.
         -5    1    4    4    0  501 -0.25888335153E+03 -0.38020383873E+03 -0.17105635534E+04  0.17713343301E+04  0.47000000000E+01 0. -1.
          1    1    1    2  502    0  0.55053701960E+02  0.45658186390E+02 -0.69051025113E+03  0.69420457143E+03  0.00000000000E+00 0. -1.
          1    1    1    2  503    0  0.22812399650E+02  0.42838666313E+02  0.83920569907E+03  0.84060797181E+03  0.00000000000E+00 0. -1.
<mgrwt>
<rscale>  0 0.58999231E+02</rscale>
<asrwt>0</asrwt>
<pdfrwt beam="1">  1        2 0.18524878E+00 0.48534080E+02</pdfrwt>
<pdfrwt beam="2">  1        2 0.54530925E+00 0.71720928E+02</pdfrwt>
<totfact> 0.42046159E+00</totfact>
</mgrwt>
</event>
<event>
13    1  0.1675423E-008  0.5008860E+02  0.7546771E-02  0.1531711E+00
          2   -1    0    0  502    0  0.00000000000E+00  0.00000000000E+00  0.20900031526E+04  0.20900031526E+04  0.00000000000E+00 0. -1.
          2   -1    0    0  503    0 -0.00000000000E+00 -0.00000000000E+00 -0.11956773528E+04  0.11956773528E+04  0.00000000000E+00 0. -1.
         24    2    1    2    0    0  0.93723729101E+02  0.33128507300E+03  0.40111033969E+03  0.53532943929E+03  0.84582308894E+02 0.  0.
         25    2    1    2    0    0 -0.25854181603E+03 -0.41708281428E+03  0.86858645868E+02  0.51378011839E+03  0.12499456423E+03 0.  0.
         24    2    1    2    0    0  0.15803759193E+03  0.63943286201E+02 -0.71850148240E+03  0.74557805402E+03  0.10284760625E+03 0.  0.
        -13    1    3    3    0    0  0.84035886694E+02  0.15513484052E+03  0.17457628956E+03  0.24820501581E+03  0.00000000000E+00 0.  1.
         14    1    3    3    0    0  0.96878424066E+01  0.17615023248E+03  0.22653405013E+03  0.28712442348E+03  0.00000000000E+00 0. -1.
        -13    1    5    5    0    0  0.12796323399E+03  0.47772265932E+01 -0.39152724060E+03  0.41193566400E+03  0.00000000000E+00 0.  1.
         14    1    5    5    0    0  0.30074357942E+02  0.59166059608E+02 -0.32697424180E+03  0.33364239001E+03  0.00000000000E+00 0. -1.
          5    1    4    4  501    0 -0.34683189806E+01  0.81333524058E+01  0.50006018635E+01  0.11192706416E+02  0.47000000000E+01 0.  1.
         -5    1    4    4    0  501 -0.25507349705E+03 -0.42521616669E+03  0.81858044004E+02  0.50258741198E+03  0.47000000000E+01 0.  1.
          1    1    1    2  502    0  0.11891961053E+02  0.48669738718E+02  0.13064251059E+04  0.13073854518E+04  0.00000000000E+00 0. -1.
          1    1    1    2  503    0 -0.51114660495E+01 -0.26815283640E+02 -0.18156680919E+03  0.18360744190E+03  0.00000000000E+00 0. -1.
<mgrwt>
<rscale>  0 0.36977341E+02</rscale>
<asrwt>0</asrwt>
<pdfrwt beam="1">  1        2 0.30735341E+00 0.50088598E+02</pdfrwt>
<pdfrwt beam="2">  1        2 0.17583490E+00 0.27298105E+02</pdfrwt>
<totfact> 0.34712047E+01</totfact>
</mgrwt>
</event>
<event>
13    1  0.1675423E-008  0.1691647E+03  0.7546771E-02  0.1320113E+00
          2   -1    0    0  502    0  0.00000000000E+00  0.00000000000E+00  0.66595225337E+03  0.66595225337E+03  0.00000000000E+00 0. -1.
          2   -1    0    0  503    0 -0.00000000000E+00 -0.00000000000E+00 -0.11054756807E+04  0.11054756807E+04  0.00000000000E+00 0. -1.
         24    2    1    2    0    0  0.31996918862E+02  0.92492239645E+02  0.17197331108E+03  0.21356458214E+03  0.80351688276E+02 0.  0.
         25    2    1    2    0    0 -0.17117250858E+03  0.74518729161E+02 -0.33005057839E+03  0.39926335519E+03  0.12499909525E+03 0.  0.
         24    2    1    2    0    0 -0.14885371779E+01  0.24542369635E+02 -0.13928056787E+01  0.86017914534E+02  0.82417219456E+02 0.  0.
        -13    1    3    3    0    0 -0.15940594483E+02  0.64884035700E+02  0.12160170333E+03  0.13874802663E+03  0.00000000000E+00 0.  1.
         14    1    3    3    0    0  0.47937513344E+02  0.27608203945E+02  0.50371607751E+02  0.74816555509E+02  0.00000000000E+00 0. -1.
        -13    1    5    5    0    0  0.35209740169E+02  0.17693579662E+02  0.18705386675E+02  0.43619720938E+02  0.00000000000E+00 0.  1.
         14    1    5    5    0    0 -0.36698277347E+02  0.68487899732E+01 -0.20098192354E+02  0.42398193596E+02  0.00000000000E+00 0. -1.
          5    1    4    4  501    0 -0.39412804984E+02  0.18148260210E+02 -0.49231647176E+01  0.43921021120E+02  0.47000000000E+01 0. -1.
         -5    1    4    4    0  501 -0.13175970360E+03  0.56370468951E+02 -0.32512741367E+03  0.35534233407E+03  0.47000000000E+01 0. -1.
          1    1    1    2  502    0  0.14039357438E+03 -0.23250712755E+03  0.34897926442E+03  0.44221764673E+03  0.00000000000E+00 0. -1.
          1    1    1    2  503    0  0.27055251859E+00  0.40953789105E+02 -0.62903261878E+03  0.63036443549E+03  0.00000000000E+00 0. -1.
<mgrwt>
<rscale>  0 0.83235131E+02</rscale>
<asrwt>0</asrwt>
<pdfrwt beam="1">  1        2 0.97934156E-01 0.16916471E+03</pdfrwt>
<pdfrwt beam="2">  1        2 0.16256995E+00 0.40954683E+02</pdfrwt>
<totfact> 0.19972369E+02</totfact>
</mgrwt>
</event>
<event>
13    1  0.1675423E-008  0.1408808E+03  0.7546771E-02  0.1298533E+00
          2   -1    0    0  502    0  0.00000000000E+00  0.00000000000E+00  0.92541431931E+03  0.92541431931E+03  0.00000000000E+00 0. -1.
          2   -1    0    0  503    0 -0.00000000000E+00 -0.00000000000E+00 -0.21355778246E+04  0.21355778246E+04  0.00000000000E+00 0. -1.
         24    2    1    2    0    0  0.48231629702E+01 -0.37367365335E+02 -0.32837460782E+03  0.34069981298E+03  0.82625036216E+02 0.  0.
         25    2    1    2    0    0  0.10938304515E+03  0.16538074242E+03 -0.10103220074E+04  0.10371547894E+04  0.12499623162E+03 0.  0.
         24    2    1    2    0    0  0.31614803409E+02 -0.76502969331E+01 -0.14119089895E+03  0.16632187921E+03  0.81670525411E+02 0.  0.
        -13    1    5    5    0    0 -0.26701159210E+02 -0.11086872036E+02 -0.56049414167E+02  0.63066690599E+02  0.00000000000E+00 0.  1.
         14    1    5    5    0    0  0.58315962619E+02  0.34365751026E+01 -0.85141484784E+02  0.10325518861E+03  0.00000000000E+00 0. -1.
        -13    1    3    3    0    0 -0.37802453186E+01  0.13203703240E+02 -0.73010982511E+01  0.15554229958E+02  0.00000000000E+00 0.  1.
         14    1    3    3    0    0  0.86034082888E+01 -0.50571068575E+02 -0.32107350957E+03  0.32514558302E+03  0.00000000000E+00 0. -1.
          5    1    4    4  501    0  0.91306592991E+02  0.28114105014E+02 -0.39136529916E+03  0.40288482748E+03  0.47000000000E+01 0.  1.
         -5    1    4    4    0  501  0.18076452156E+02  0.13726663741E+03 -0.61895670824E+03  0.63426996188E+03  0.47000000000E+01 0.  1.
          1    1    1    2  502    0 -0.12520748215E+03 -0.64198800642E+02  0.88627188411E+03  0.89737185835E+03  0.00000000000E+00 0. -1.
          1    1    1    2  503    0 -0.20613529375E+02 -0.56164279515E+02 -0.61654787525E+03  0.61944380404E+03  0.00000000000E+00 0. -1.
<mgrwt>
<rscale>  0 0.91807191E+02</rscale>
<asrwt>0</asrwt>
<pdfrwt beam="1">  1        2 0.13609034E+00 0.14088076E+03</pdfrwt>
<pdfrwt beam="2">  1        2 0.31405556E+00 0.59827618E+02</pdfrwt>
<totfact> 0.41669082E+01</totfact>
</mgrwt>
</event>
<event>
13    1  0.1675423E-008  0.1066505E+03  0.7546771E-02  0.1275155E+00
          2   -1    0    0  502    0  0.00000000000E+00  0.00000000000E+00  0.11799939171E+04  0.11799939171E+04  0.00000000000E+00 0. -1.
          2   -1    0    0  503    0 -0.00000000000E+00 -0.00000000000E+00 -0.10094609882E+04  0.10094609882E+04  0.00000000000E+00 0. -1.
         24    2    1    2    0    0  0.75331990427E+02 -0.16946417056E+03  0.25885574265E+03  0.32241437044E+03  0.50514521440E+02 0.  0.
         25    2    1    2    0    0  0.14137450449E+03  0.60287607007E+02 -0.11146904073E+03  0.22732111096E+03  0.12501277681E+03 0.  0.
         24    2    1    2    0    0 -0.22339888474E+03  0.18072812702E+03 -0.22828223487E+03  0.37572566377E+03  0.80543640733E+02 0.  0.
        -13    1    3    3    0    0  0.67205043089E+02 -0.10434739365E+03  0.14376228413E+03  0.18992759335E+03  0.00000000000E+00 0.  1.
         14    1    3    3    0    0  0.81269473383E+01 -0.65116776906E+02  0.11509345853E+03  0.13248677709E+03  0.00000000000E+00 0. -1.
        -13    1    5    5    0    0 -0.14845453824E+03  0.10067824658E+03 -0.94496721920E+02  0.20274242208E+03  0.00000000000E+00 0.  1.
         14    1    5    5    0    0 -0.74944346500E+02  0.80049880435E+02 -0.13378551295E+03  0.17298324169E+03  0.00000000000E+00 0. -1.
          5    1    4    4  501    0 -0.49394814164E+01  0.47589217749E+02 -0.45714886262E+02  0.66340582968E+02  0.47000000000E+01 0. -1.
         -5    1    4    4    0  501  0.14631398591E+03  0.12698389258E+02 -0.65754154472E+02  0.16098052799E+03  0.47000000000E+01 0. -1.
          1    1    1    2  502    0  0.99746699684E+02 -0.39307046188E+02  0.74906870457E+03  0.75670230087E+03  0.00000000000E+00 0. -1.
          1    1    1    2  503    0 -0.93054309864E+02 -0.32244517279E+02 -0.49764024273E+03  0.50729145929E+03  0.00000000000E+00 0. -1.
<mgrwt>
<rscale>  0 0.10248519E+03</rscale>
<asrwt>0</asrwt>
<pdfrwt beam="1">  1        2 0.17352852E+00 0.10665050E+03</pdfrwt>
<pdfrwt beam="2">  1        2 0.14845014E+00 0.98482554E+02</pdfrwt>
<totfact> 0.10514195E+02</totfact>
</mgrwt>
</event>
<event>
13    1  0.1675423E-008  0.1484402E+03  0.7546771E-02  0.1242431E+00
          2   -1    0    0  503    0  0.00000000000E+00  0.00000000000E+00  0.18681271065E+04  0.18681271065E+04  0.00000000000E+00 0. -1.
          2   -1    0    0  502    0 -0.00000000000E+00 -0.00000000000E+00 -0.13181645964E+04  0.13181645964E+04  0.00000000000E+00 0. -1.
         24    2    1    2    0    0  0.58229652601E+03  0.11224641959E+03  0.52045124760E+03  0.79328956272E+03  0.82281992378E+02 0.  0.
         25    2    1    2    0    0 -0.65825118128E+03 -0.30671241633E+03 -0.72424394991E+03  0.10332087683E+04  0.12499574360E+03 0.  0.
         24    2    1    2    0    0  0.90663001826E+02  0.13161141167E+03 -0.10789775564E+03  0.20524987162E+03  0.70315293825E+02 0.  0.
        -11    1    5    5    0    0  0.76052097976E+02  0.13875414285E+03 -0.99889451934E+02  0.18712171539E+03  0.00000000000E+00 0.  1.
         12    1    5    5    0    0  0.14610903851E+02 -0.71427311750E+01 -0.80083037023E+01  0.18128156226E+02  0.00000000000E+00 0. -1.
        -11    1    3    3    0    0  0.16198198217E+03  0.15665471450E+01  0.11281911453E+03  0.19740508915E+03  0.00000000000E+00 0.  1.
         12    1    3    3    0    0  0.42031454384E+03  0.11067987245E+03  0.40763213307E+03  0.59588447357E+03  0.00000000000E+00 0. -1.
          5    1    4    4  501    0 -0.58170293264E+03 -0.28693892775E+03 -0.68972412545E+03  0.94681239394E+03  0.47000000000E+01 0. -1.
         -5    1    4    4    0  501 -0.76548248643E+02 -0.19773488579E+02 -0.34519824461E+02  0.86396374355E+02  0.47000000000E+01 0. -1.
          1    1    1    2  502    0  0.85445293715E+02 -0.47301200539E+02 -0.12392529613E+03  0.15778396881E+03  0.00000000000E+00 0. -1.
          1    1    1    2  503    0 -0.10015364027E+03  0.11015578560E+03  0.98557826417E+03  0.99675953147E+03  0.00000000000E+00 0. -1.
<mgrwt>
<rscale>  0 0.12040474E+03</rscale>
<asrwt>0</asrwt>
<pdfrwt beam="1">  1        2 0.27472458E+00 0.14844024E+03</pdfrwt>
<pdfrwt beam="2">  1        2 0.19384773E+00 0.97664230E+02</pdfrwt>
<totfact> 0.31504302E+01</totfact>
</mgrwt>
</event>
<event>
13    1  0.1675423E-008  0.3661842E+02  0.7546771E-02  0.1549473E+00
          2   -1    0    0  502    0  0.00000000000E+00  0.00000000000E+00  0.87713563557E+03  0.87713563557E+03  0.00000000000E+00 0. -1.
          2   -1    0    0  503    0 -0.00000000000E+00 -0.00000000000E+00 -0.13148529296E+04  0.13148529296E+04  0.00000000000E+00 0. -1.
         24    2    1    2    0    0  0.49564709868E+02 -0.32103403459E+02  0.46872050356E+03  0.47908637113E+03  0.79608740543E+02 0.  0.
         25    2    1    2    0    0  0.34927834057E+02  0.64354676470E+02 -0.38002391519E+03  0.40670034309E+03  0.12500205989E+03 0.  0.
         24    2    1    2    0    0 -0.45042382827E+02 -0.66567952103E+01  0.80276404346E+02  0.12236311834E+03  0.80344896932E+02 0.  0.
        -11    1    5    5    0    0 -0.62933040654E+02 -0.19005076190E+02  0.41015193395E+02  0.77485525204E+02  0.00000000000E+00 0.  1.
         12    1    5    5    0    0  0.17890657827E+02  0.12348280980E+02  0.39261210951E+02  0.44877593140E+02  0.00000000000E+00 0. -1.
        -13    1    3    3    0    0  0.43851005063E+02  0.17912470953E+02  0.18717888380E+03  0.19307952196E+03  0.00000000000E+00 0.  1.
         14    1    3    3    0    0  0.57137048046E+01 -0.50015874412E+02  0.28154161976E+03  0.28600684917E+03  0.00000000000E+00 0. -1.
          5    1    4    4  501    0 -0.28561499563E+02  0.33868490547E+02 -0.28427775298E+03  0.28774774499E+03  0.47000000000E+01 0.  1.
         -5    1    4    4    0  501  0.63489333619E+02  0.30486185923E+02 -0.95746162211E+02  0.11895259810E+03  0.47000000000E+01 0.  1.
          1    1    1    2  502    0 -0.36009330922E+01 -0.33070539310E+02  0.28723938469E+03  0.28915928380E+03  0.00000000000E+00 0. -1.
          1    1    1    2  503    0 -0.35849228006E+02  0.74760615093E+01 -0.89392967145E+03  0.89467944882E+03  0.00000000000E+00 0. -1.
<mgrwt>
<rscale>  0 0.34901986E+02</rscale>
<asrwt>0</asrwt>
<pdfrwt beam="1">  1        2 0.12899054E+00 0.33266008E+02</pdfrwt>
<pdfrwt beam="2">  1        2 0.19336072E+00 0.36618420E+02</pdfrwt>
<totfact> 0.12055742E+02</totfact>
</mgrwt>
</event>
<event>
13    1  0.1675423E-008  0.1057755E+03  0.7546771E-02  0.1371080E+00
          2   -1    0    0  502    0  0.00000000000E+00  0.00000000000E+00  0.21562704370E+04  0.21562704370E+04  0.00000000000E+00 0. -1.
          2   -1    0    0  503    0 -0.00000000000E+00 -0.00000000000E+00 -0.22646801524E+04  0.22646801524E+04  0.00000000000E+00 0. -1.
         24    2    1    2    0    0  0.26335240532E+03  0.41839132089E+01  0.90539391303E+03  0.94628167343E+03  0.79617040901E+02 0.  0.
         25    2    1    2    0    0 -0.20310848656E+03 -0.11255551046E+03 -0.26900690087E+03  0.37671260892E+03  0.12500350697E+03 0.  0.
         24    2    1    2    0    0  0.12279844712E+02  0.55957931931E+02  0.73373467583E+03  0.74072111591E+03  0.83780142608E+02 0.  0.
        -11    1    3    3    0    0  0.73728629965E+02  0.21159903206E+02  0.37473606314E+03  0.38250590767E+03  0.00000000000E+00 0.  1.
         12    1    3    3    0    0  0.18962377535E+03 -0.16975989997E+02  0.53065784989E+03  0.56377576576E+03  0.00000000000E+00 0. -1.
        -13    1    5    5    0    0  0.14406856875E+02 -0.19520681783E+02  0.24346113444E+03  0.24466699517E+03  0.00000000000E+00 0.  1.
         14    1    5    5    0    0 -0.21270121622E+01  0.75478613714E+02  0.49027354139E+03  0.49605412074E+03  0.00000000000E+00 0. -1.
          5    1    4    4  501    0 -0.47407921880E+01 -0.57334574663E+02 -0.56441519077E+02  0.80730809720E+02  0.47000000000E+01 0. -1.
         -5    1    4    4    0  501 -0.19836769437E+03 -0.55220935798E+02 -0.21256538179E+03  0.29598179920E+03  0.47000000000E+01 0. -1.
          1    1    1    2  502    0 -0.10547883707E+03  0.25940050278E+02  0.43240089728E+03  0.44583540376E+03  0.00000000000E+00 0. -1.
          1    1    1    2  503    0  0.32955073597E+02  0.26473615043E+02 -0.19109323007E+04  0.19113997873E+04  0.00000000000E+00 0. -1.
<mgrwt>
<rscale>  0 0.66867779E+02</rscale>
<asrwt>0</asrwt>
<pdfrwt beam="1">  1        2 0.31709859E+00 0.10577548E+03</pdfrwt>
<pdfrwt beam="2">  1        2 0.33304120E+00 0.42271612E+02</pdfrwt>
<totfact> 0.90488459E+00</totfact>
</mgrwt>
</event>
<event>
13    1  0.1675423E-008  0.1850370E+03  0.7546771E-02  0.1211942E+00
          2   -1    0    0  503    0  0.00000000000E+00  0.00000000000E+00  0.30892799457E+04  0.30892799457E+04  0.00000000000E+00 0. -1.
         -1   -1    0    0    0  501 -0.00000000000E+00 -0.00000000000E+00 -0.26303332437E+04  0.26303332437E+04  0.00000000000E+00 0.  1.
         24    2    1    2    0    0  0.37281368486E+02  0.80998729631E+02  0.61595567264E+03  0.62757169542E+03  0.80586274278E+02 0.  0.
         25    2    1    2    0    0 -0.11198815544E+03 -0.88834439517E+02  0.81919213216E+02  0.20680516144E+03  0.12499885080E+03 0.  0.
         24    2    1    2    0    0  0.10861730254E+03 -0.17033637860E+03 -0.41275417912E+03  0.46225775989E+03  0.50040222970E+02 0.  0.
        -11    1    5    5    0    0  0.10085811478E+03 -0.17070406183E+03 -0.38025041851E+03  0.42883868391E+03  0.00000000000E+00 0.  1.
         12    1    5    5    0    0  0.77591877628E+01  0.36768322913E+00 -0.32503760613E+02  0.33419075985E+02  0.00000000000E+00 0. -1.
        -11    1    3    3    0    0 -0.15571421493E+02 -0.13875073006E+01  0.18408383099E+03  0.18474645105E+03  0.00000000000E+00 0.  1.
         12    1    3    3    0    0  0.52852789979E+02  0.82386236932E+02  0.43187184165E+03  0.44282524437E+03  0.00000000000E+00 0. -1.
          5    1    4    4  502    0 -0.14166977138E+02 -0.75273203097E+02 -0.25286252240E+01  0.76780481187E+02  0.47000000000E+01 0.  1.
         -5    1    4    4    0  502 -0.97821178301E+02 -0.13561236420E+02  0.84447838440E+02  0.13002468025E+03  0.47000000000E+01 0.  1.
          1    1    1    2  503    0 -0.91774321082E+02 -0.55976242399E+02  0.22902921921E+04  0.22928135971E+04  0.00000000000E+00 0. -1.
         -2    1    1    2    0  501  0.57863805495E+02  0.23414833089E+03 -0.21164661969E+04  0.21301649756E+04  0.00000000000E+00 0.  1.
<mgrwt>
<rscale>  0 0.14103599E+03</rscale>
<asrwt>0</asrwt>
<pdfrwt beam="1">  1        2 0.45430588E+00 0.10749821E+03</pdfrwt>
<pdfrwt beam="2">  1       -1 0.38681371E+00 0.18503704E+03</pdfrwt>
<totfact> 0.33658188E-02</totfact>
</mgrwt>
</event>
<event>
13    1  0.1675423E-008  0.1139298E+03  0.7546771E-02  0.1410778E+00
          2   -1    0    0  503    0  0.00000000000E+00  0.00000000000E+00  0.20051797229E+04  0.20051797229E+04  0.00000000000E+00 0. -1.
          2   -1    0    0  502    0 -0.00000000000E+00 -0.00000000000E+00 -0.48771492875E+04  0.48771492875E+04  0.00000000000E+00 0. -1.
         24    2    1    2    0    0  0.11295629936E+04 -0.15777574085E+04  0.34879358232E+03  0.19737334057E+04  0.93464416878E+02 0.  0.
         25    2    1    2    0    0 -0.12753922478E+03  0.49159701677E+03 -0.31152135337E+03  0.60877158738E+03  0.12499364482E+03 0.  0.
         24    2    1    2    0    0 -0.10813548626E+04  0.11877585250E+04 -0.17497922653E+04  0.23774033929E+04  0.10087253536E+03 0.  0.
        -13    1    5    5    0    0 -0.89973752958E+03  0.97624958256E+03 -0.13887540814E+04  0.19212570802E+04  0.00000000000E+00 0.  1.
         14    1    5    5    0    0 -0.18161733305E+03  0.21150894242E+03 -0.36103818386E+03  0.45614631271E+03  0.00000000000E+00 0. -1.
        -13    1    3    3    0    0  0.92044101914E+03 -0.12199743430E+04  0.27284941459E+03  0.15524161395E+04  0.00000000000E+00 0.  1.
         14    1    3    3    0    0  0.20912197443E+03 -0.35778306556E+03  0.75944167735E+02  0.42131726620E+03  0.00000000000E+00 0. -1.
          5    1    4    4  501    0 -0.60360342794E+02  0.39888807834E+03 -0.20602074162E+03  0.45301402407E+03  0.47000000000E+01 0. -1.
         -5    1    4    4    0  501 -0.67178881989E+02  0.92708938427E+02 -0.10550061175E+03  0.15575756331E+03  0.47000000000E+01 0. -1.
          1    1    1    2  502    0  0.28536008863E+02  0.34627506638E+00 -0.15322977460E+04  0.15325634754E+04  0.00000000000E+00 0. -1.
          1    1    1    2  503    0  0.50795084988E+02 -0.10194440829E+03  0.37284821780E+03  0.38985714891E+03  0.00000000000E+00 0. -1.
<mgrwt>
<rscale>  0 0.57020533E+02</rscale>
<asrwt>0</asrwt>
<pdfrwt beam="1">  1        2 0.29487937E+00 0.11392980E+03</pdfrwt>
<pdfrwt beam="2">  1        2 0.71722784E+00 0.28538110E+02</pdfrwt>
<totfact> 0.30541965E-01</totfact>
</mgrwt>
</event>
<event>
13    1  0.1675423E-008  0.6786294E+02  0.7546771E-02  0.1528132E+00
          2   -1    0    0  502    0  0.00000000000E+00  0.00000000000E+00  0.36104050559E+04  0.36104050559E+04  0.00000000000E+00 0. -1.
          2   -1    0    0  503    0 -0.00000000000E+00 -0.00000000000E+00 -0.25171168414E+04  0.25171168414E+04  0.00000000000E+00 0. -1.
         24    2    1    2    0    0  0.62950610308E+03  0.89376647192E+03 -0.25332908178E+03  0.11249458148E+04  0.78936825347E+02 0.  0.
         25    2    1    2    0    0 -0.16634840635E+03 -0.92517360136E+03  0.66983238801E+03  0.11609965907E+04  0.12497868097E+03 0.  0.
         24    2    1    2    0    0 -0.41825202196E+03  0.10761247954E+03 -0.60305843077E+03  0.74753353010E+03  0.92799289146E+02 0.  0.
        -11    1    5    5    0    0 -0.18078382450E+03  0.35714263227E+02 -0.33452755910E+03  0.38192536914E+03  0.00000000000E+00 0.  1.
         12    1    5    5    0    0 -0.23746819746E+03  0.71898216316E+02 -0.26853087168E+03  0.36560816096E+03  0.00000000000E+00 0. -1.
        -11    1    3    3    0    0  0.39840544671E+03  0.55840380101E+03 -0.11984503867E+03  0.69635087295E+03  0.00000000000E+00 0.  1.
         12    1    3    3    0    0  0.23110065637E+03  0.33536267091E+03 -0.13348404311E+03  0.42859494185E+03  0.00000000000E+00 0. -1.
          5    1    4    4  501    0 -0.14590612120E+03 -0.84162260371E+03  0.55991208268E+03  0.10213426622E+04  0.47000000000E+01 0.  1.
         -5    1    4    4    0  501 -0.20442285154E+02 -0.83550997646E+02  0.10992030534E+03  0.13965392854E+03  0.47000000000E+01 0.  1.
          1    1    1    2  502    0 -0.35336254214E+02 -0.57929392545E+02  0.21863009033E+04  0.21873536763E+04  0.00000000000E+00 0. -1.
          1    1    1    2  503    0 -0.95694205477E+01 -0.18275957565E+02 -0.90645756435E+03  0.90669228540E+03  0.00000000000E+00 0. -1.
<mgrwt>
<rscale>  0 0.37416466E+02</rscale>
<asrwt>0</asrwt>
<pdfrwt beam="1">  1        2 0.53094192E+00 0.67862939E+02</pdfrwt>
<pdfrwt beam="2">  1        2 0.37016424E+00 0.20629698E+02</pdfrwt>
<totfact> 0.14114877E+00</totfact>
</mgrwt>
</event>
<event>
13    1  0.1675423E-008  0.5216448E+03  0.7546771E-02  0.1194170E+00
          2   -1    0    0  503    0  0.00000000000E+00  0.00000000000E+00  0.40836210130E+03  0.40836210130E+03  0.00000000000E+00 0. -1.
          2   -1    0    0  502    0 -0.00000000000E+00 -0.00000000000E+00 -0.33889967035E+04  0.33889967035E+04  0.00000000000E+00 0. -1.
         24    2    1    2    0    0 -0.20979794580E+03 -0.46532993434E+03 -0.21573785144E+03  0.55913347940E+03  0.74433200813E+02 0.  0.
         25    2    1    2    0    0 -0.10516123971E+03 -0.24643773448E+02 -0.15902540304E+04  0.15988119751E+04  0.12500259522E+03 0.  0.
         24    2    1    2    0    0 -0.10121021960E+02  0.25497100077E+02 -0.10164798927E+03  0.13244714439E+03  0.80357918942E+02 0.  0.
        -13    1    3    3    0    0 -0.65667840137E+01 -0.48006112415E+02 -0.30548681732E+01  0.48549373848E+02  0.00000000000E+00 0.  1.
         14    1    3    3    0    0 -0.20323116179E+03 -0.41732382193E+03 -0.21268298327E+03  0.51058410555E+03  0.00000000000E+00 0. -1.
        -13    1    5    5    0    0 -0.44192878927E+02  0.25100425982E+02 -0.59689401684E+02  0.78395577718E+02  0.00000000000E+00 0.  1.
         14    1    5    5    0    0  0.34071856967E+02  0.39667409494E+00 -0.41958587587E+02  0.54051566673E+02  0.00000000000E+00 0. -1.
          5    1    4    4  501    0 -0.61461829795E+02 -0.65108923200E+02 -0.12608753615E+04  0.12640591345E+04  0.47000000000E+01 0.  1.
         -5    1    4    4    0  501 -0.43699409918E+02  0.40465149752E+02 -0.32937866890E+03  0.33475284061E+03  0.47000000000E+01 0.  1.
          1    1    1    2  502    0 -0.12891098547E+02  0.44368065597E+02 -0.95360750861E+03  0.95472613148E+03  0.00000000000E+00 0. -1.
          1    1    1    2  503    0  0.33797130602E+03  0.42010854211E+03 -0.11938722250E+03  0.55224007438E+03  0.00000000000E+00 0. -1.
<mgrwt>
<rscale>  0 0.15524654E+03</rscale>
<asrwt>0</asrwt>
<pdfrwt beam="1">  1        2 0.60053250E-01 0.52164479E+03</pdfrwt>
<pdfrwt beam="2">  1        2 0.49838187E+00 0.46202875E+02</pdfrwt>
<totfact> 0.25729853E+01</totfact>
</mgrwt>
</event>
<event>
13    1  0.1675423E-008  0.9667910E+02  0.7546771E-02  0.1288826E+00
          2   -1    0    0  503    0  0.00000000000E+00  0.00000000000E+00  0.45677160577E+04  0.45677160577E+04  0.00000000000E+00 0. -1.
          2   -1    0    0  502    0 -0.00000000000E+00 -0.00000000000E+00 -0.10165339651E+04  0.10165339651E+04  0.00000000000E+00 0. -1.
         24    2    1    2    0    0  0.18836296539E+02  0.29281555844E+02  0.60733989897E+03  0.61346052326E+03  0.79119183141E+02 0.  0.
         25    2    1    2    0    0 -0.74407747630E+02 -0.75810107525E+01 -0.12814414604E+03  0.19400861792E+03  0.12499774810E+03 0.  0.
         24    2    1    2    0    0 -0.12120897568E+03 -0.38793617564E+02  0.41267871543E+03  0.43931970608E+03  0.80632012422E+02 0.  0.
        -11    1    5    5    0    0 -0.21884960318E+02  0.22415860596E+02  0.57647334890E+02  0.65609736429E+02  0.00000000000E+00 0.  1.
         12    1    5    5    0    0 -0.99324015366E+02 -0.61209478160E+02  0.35503138054E+03  0.37370996965E+03  0.00000000000E+00 0. -1.
        -13    1    3    3    0    0  0.48776863307E+02  0.74828157013E+01  0.33575755577E+03  0.33936456972E+03  0.00000000000E+00 0.  1.
         14    1    3    3    0    0 -0.29940566768E+02  0.21798740143E+02  0.27158234320E+03  0.27409595354E+03  0.00000000000E+00 0. -1.
          5    1    4    4  501    0  0.79124143040E+01  0.45767372382E+02 -0.32186563168E+02  0.56703822829E+02  0.47000000000E+01 0. -1.
         -5    1    4    4    0  501 -0.82320161934E+02 -0.53348383134E+02 -0.95957582876E+02  0.13730479509E+03  0.47000000000E+01 0. -1.
          1    1    1    2  502    0  0.87170292318E+02  0.38780233330E+02 -0.83575481440E+03  0.84118290291E+03  0.00000000000E+00 0. -1.
          1    1    1    2  503    0  0.89610134457E+02 -0.21687160857E+02  0.34950624387E+04  0.34962782726E+04  0.00000000000E+00 0. -1.
<mgrwt>
<rscale>  0 0.96051178E+02</rscale>
<asrwt>0</asrwt>
<pdfrwt beam="1">  1        2 0.67172294E+00 0.96679096E+02</pdfrwt>
<pdfrwt beam="2">  1        2 0.14949029E+00 0.95427337E+02</pdfrwt>
<totfact> 0.12763802E+00</totfact>
</mgrwt>
</event>
<event>
13    1  0.1675423E-008  0.1190179E+03  0.7546771E-02  0.1341217E+00
          2   -1    0    0  502    0  0.00000000000E+00  0.00000000000E+00  0.76083462082E+03  0.76083462082E+03  0.00000000000E+00 0. -1.
          2   -1    0    0  503    0 -0.00000000000E+00 -0.00000000000E+00 -0.27254014080E+04  0.27254014080E+04  0.00000000000E+00 0. -1.
         24    2    1    2    0    0 -0.15081331291E+02 -0.71571261891E+02 -0.75236760187E+02  0.13200528526E+03  0.80093277933E+02 0.  0.
         25    2    1    2    0    0  0.14340601115E+03  0.70145120488E+02 -0.85316844634E+03  0.87693219392E+03  0.12501221114E+03 0.  0.
         24    2    1    2    0    0 -0.26951964346E+02 -0.21128919820E+02  0.10783856232E+03  0.13805165693E+03  0.79096553791E+02 0.  0.
        -11    1    3    3    0    0  0.26020138724E+02 -0.74061015009E+01 -0.33727233531E+01  0.27263037642E+02  0.00000000000E+00 0.  1.
         12    1    3    3    0    0 -0.41101470015E+02 -0.64165160390E+02 -0.71864036834E+02  0.10474224761E+03  0.00000000000E+00 0. -1.
        -13    1    5    5    0    0 -0.54414211155E+01 -0.48456210325E+02  0.79168761792E+02  0.92980138882E+02  0.00000000000E+00 0.  1.
         14    1    5    5    0    0 -0.21510543230E+02  0.27327290505E+02  0.28669800530E+02  0.45071518045E+02  0.00000000000E+00 0. -1.
          5    1    4    4  501    0  0.12018240538E+03  0.60788108507E+02 -0.38197524076E+03  0.40505083539E+03  0.47000000000E+01 0. -1.
         -5    1    4    4    0  501  0.23223605777E+02  0.93570119809E+01 -0.47119320558E+03  0.47188135853E+03  0.47000000000E+01 0. -1.
          1    1    1    2  502    0 -0.13735290721E+03 -0.97528280794E+01  0.58934989098E+03  0.60522246552E+03  0.00000000000E+00 0. -1.
          1    1    1    2  503    0  0.35980191695E+02  0.32307889302E+02 -0.17333500339E+04  0.17340244272E+04  0.00000000000E+00 0. -1.
<mgrwt>
<rscale>  0 0.75863814E+02</rscale>
<asrwt>0</asrwt>
<pdfrwt beam="1">  1        2 0.11188744E+00 0.11901792E+03</pdfrwt>
<pdfrwt beam="2">  1        2 0.40079433E+00 0.48356736E+02</pdfrwt>
<totfact> 0.28671032E+01</totfact>
</mgrwt>
</event>
<event>
13    1  0.1675423E-008  0.9292070E+02  0.7546771E-02  0.1353954E+00
          2   -1    0    0  502    0  0.00000000000E+00  0.00000000000E+00  0.31574213106E+04  0.31574213106E+04  0.00000000000E+00 0. -1.
          2   -1    0    0  503    0 -0.00000000000E+00 -0.00000000000E+00 -0.23780570683E+04  0.23780570683E+04  0.00000000000E+00 0. -1.
         24    2    1    2    0    0 -0.88916590256E+02  0.94654824507E+03  0.90728860363E+02  0.95846917594E+03  0.81065990755E+02 0.  0.
         25    2    1    2    0    0  0.21053769943E+03 -0.77301524956E+03 -0.12449084743E+04  0.14856995634E+04  0.12500953719E+03 0.  0.
         24    2    1    2    0    0 -0.13463237430E+03 -0.93354078394E+02 -0.49203053094E+02  0.19680416531E+03  0.97314330332E+02 0.  0.
        -13    1    5    5    0    0 -0.10681899197E+03 -0.10926638837E+03 -0.58212809758E+02  0.16351810877E+03  0.00000000000E+00 0.  1.
         14    1    5    5    0    0 -0.27813382326E+02  0.15912309979E+02  0.90097566640E+01  0.33286056547E+02  0.00000000000E+00 0. -1.
        -13    1    3    3    0    0 -0.50002824052E+02  0.58366315208E+03  0.16511199494E+02  0.58603376798E+03  0.00000000000E+00 0.  1.
         14    1    3    3    0    0 -0.38913766204E+02  0.36288509299E+03  0.74217660869E+02  0.37243540796E+03  0.00000000000E+00 0. -1.
          5    1    4    4  501    0  0.64569288654E+02 -0.39437348243E+03 -0.53227643603E+03  0.66561244808E+03  0.47000000000E+01 0.  1.
         -5    1    4    4    0  501  0.14596841078E+03 -0.37864176713E+03 -0.71263203831E+03  0.82008711537E+03  0.47000000000E+01 0.  1.
          1    1    1    2  502    0  0.55473120769E+02  0.26763836178E+01  0.24335526054E+04  0.24341862528E+04  0.00000000000E+00 0. -1.
          1    1    1    2  503    0 -0.42461855643E+02 -0.82855300742E+02 -0.45080569596E+03  0.46031922136E+03  0.00000000000E+00 0. -1.
<mgrwt>
<rscale>  0 0.71837296E+02</rscale>
<asrwt>0</asrwt>
<pdfrwt beam="1">  1        2 0.46432667E+00 0.55537646E+02</pdfrwt>
<pdfrwt beam="2">  1        2 0.34971427E+00 0.92920702E+02</pdfrwt>
<totfact> 0.24794033E+00</totfact>
</mgrwt>
</event>
<event>
13    1  0.1675423E-008  0.9284706E+02  0.7546771E-02  0.1424523E+00
          2   -1    0    0  503    0  0.00000000000E+00  0.00000000000E+00  0.12894599769E+04  0.12894599769E+04  0.00000000000E+00 0. -1.
          2   -1    0    0  502    0 -0.00000000000E+00 -0.00000000000E+00 -0.15732199204E+03  0.15732199204E+03  0.00000000000E+00 0. -1.
         24    2    1    2    0    0  0.48452223945E+02  0.17080381464E+02  0.18998141006E+02  0.96181884486E+02  0.79061166861E+02 0.  0.
         25    2    1    2    0    0  0.90943859700E+01  0.13372324346E+03  0.44775308247E+02  0.18866458685E+03  0.12499953761E+03 0.  0.
         24    2    1    2    0    0 -0.15549724988E+03 -0.92633353823E+02  0.25228946261E+03  0.32101540852E+03  0.81489794475E+02 0.  0.
        -11    1    3    3    0    0  0.63545978236E+02  0.12711016534E+02  0.35086161619E+02  0.73693283468E+02  0.00000000000E+00 0.  1.
         12    1    3    3    0    0 -0.15093754291E+02  0.43693649298E+01 -0.16088020613E+02  0.22488601017E+02  0.00000000000E+00 0. -1.
        -11    1    5    5    0    0 -0.32232493130E+02  0.11787710349E+02  0.26381127329E+02  0.43287961465E+02  0.00000000000E+00 0.  1.
         12    1    5    5    0    0 -0.12326475675E+03 -0.10442106417E+03  0.22590833528E+03  0.27772744706E+03  0.00000000000E+00 0. -1.
          5    1    4    4  501    0 -0.39836663345E+02  0.12752191687E+03  0.34549411169E+02  0.13807443949E+03  0.47000000000E+01 0.  1.
         -5    1    4    4    0  501  0.48931049315E+02  0.62013265937E+01  0.10225897078E+02  0.50590147358E+02  0.47000000000E+01 0.  1.
          1    1    1    2  502    0  0.79757282851E+02 -0.32462511753E+02  0.14172029342E+03  0.16583027589E+03  0.00000000000E+00 0. -1.
          1    1    1    2  503    0  0.18193357120E+02 -0.25707759350E+02  0.67435477958E+03  0.67508981319E+03  0.00000000000E+00 0. -1.
<mgrwt>
<rscale>  0 0.54075387E+02</rscale>
<asrwt>0</asrwt>
<pdfrwt beam="1">  1        2 0.18962646E+00 0.31494240E+02</pdfrwt>
<pdfrwt beam="2">  1        2 0.23135588E-01 0.92847059E+02</pdfrwt>
<totfact> 0.77982599E+02</totfact>
</mgrwt>
</event>
<event>
13    1  0.1675423E-008  0.1799844E+03  0.7546771E-02  0.1264095E+00
          2   -1    0    0  502    0  0.00000000000E+00  0.00000000000E+00  0.24339788818E+04  0.24339788818E+04  0.00000000000E+00 0. -1.
          2   -1    0    0  503    0 -0.00000000000E+00 -0.00000000000E+00 -0.28892398490E+04  0.28892398490E+04  0.00000000000E+00 0. -1.
         24    2    1    2    0    0 -0.51763687155E+02 -0.23250555466E+02  0.80064697650E+03  0.80663571949E+03  0.80034588416E+02 0.  0.
         25    2    1    2    0    0  0.11364906823E+03  0.92176377728E+02 -0.51105373522E+02  0.19911881720E+03  0.12499579528E+03 0.  0.
         24    2    1    2    0    0 -0.81917791379E+02  0.10880452004E+03 -0.27017948091E+03  0.31216330062E+03  0.76811628192E+02 0.  0.
        -11    1    3    3    0    0 -0.55986660958E+01  0.28272662773E+02  0.21853505187E+03  0.22042744253E+03  0.00000000000E+00 0.  1.
         12    1    3    3    0    0 -0.46165021059E+02 -0.51523218239E+02  0.58211192463E+03  0.58620827696E+03  0.00000000000E+00 0. -1.
        -11    1    5    5    0    0 -0.81205820744E+02  0.45715260799E+02 -0.16594556153E+03  0.19032130670E+03  0.00000000000E+00 0.  1.
         12    1    5    5    0    0 -0.71197063502E+00  0.63089259239E+02 -0.10423391938E+03  0.12184199392E+03  0.00000000000E+00 0. -1.
          5    1    4    4  501    0  0.53031646273E+02  0.11317096382E+03 -0.16715517879E+02  0.12618050997E+03  0.47000000000E+01 0.  1.
         -5    1    4    4    0  501  0.60617421956E+02 -0.20994586092E+02 -0.34389855644E+02  0.72938307226E+02  0.47000000000E+01 0.  1.
          1    1    1    2  502    0  0.64945402705E+02 -0.52445959081E+00  0.15312670416E+04  0.15326437724E+04  0.00000000000E+00 0. -1.
          1    1    1    2  503    0 -0.44912992401E+02 -0.17720588271E+03 -0.24658901308E+04  0.24726571212E+04  0.00000000000E+00 0. -1.
<mgrwt>
<rscale>  0 0.10811817E+03</rscale>
<asrwt>0</asrwt>
<pdfrwt beam="1">  1        2 0.35793808E+00 0.64947520E+02</pdfrwt>
<pdfrwt beam="2">  1        2 0.42488821E+00 0.17998436E+03</pdfrwt>
<totfact> 0.28248308E+00</totfact>
</mgrwt>
</event>
<event>
13    1  0.1675423E-008  0.3143341E+02  0.7546771E-02  0.1592728E+00
          2   -1    0    0  503    0  0.00000000000E+00  0.00000000000E+00  0.30670248803E+04  0.30670248803E+04  0.00000000000E+00 0. -1.
          2   -1    0    0  502    0 -0.00000000000E+00 -0.00000000000E+00 -0.33791344472E+04  0.33791344472E+04  0.00000000000E+00 0. -1.
         24    2    1    2    0    0  0.13863348489E+04  0.61037109322E+03 -0.33743942378E+03  0.15556306143E+04  0.10790763987E+03 0.  0.
         25    2    1    2    0    0 -0.11901918365E+04  0.17200809842E+03  0.30499389326E+03  0.12469120614E+04  0.12500008155E+03 0.  0.
         24    2    1    2    0    0 -0.22201461690E+03 -0.73312859374E+03  0.27938106983E+03  0.81935603824E+03  0.80762058733E+02 0.  0.
        -11    1    5    5    0    0 -0.10291698727E+03 -0.24904581568E+03  0.12823044701E+03  0.29842716383E+03  0.00000000000E+00 0.  1.
         12    1    5    5    0    0 -0.11909762964E+03 -0.48408277807E+03  0.15115062283E+03  0.52092887440E+03  0.00000000000E+00 0. -1.
        -13    1    3    3    0    0  0.92824414287E+03  0.38045364815E+03 -0.17801783681E+03  0.10188584383E+04  0.00000000000E+00 0.  1.
         14    1    3    3    0    0  0.45809070605E+03  0.22991744506E+03 -0.15942158698E+03  0.53677217598E+03  0.00000000000E+00 0. -1.
          5    1    4    4  501    0 -0.49718475691E+03  0.22739443681E+02  0.16451878612E+03  0.52421206185E+03  0.47000000000E+01 0.  1.
         -5    1    4    4    0  501 -0.69300707955E+03  0.14926865473E+03  0.14047510715E+03  0.72269999953E+03  0.47000000000E+01 0.  1.
          1    1    1    2  502    0  0.23539523174E+02 -0.17906356344E+02 -0.16913054856E+04  0.16915640669E+04  0.00000000000E+00 0. -1.
          1    1    1    2  503    0  0.23320812719E+01 -0.31344241542E+02  0.11322603794E+04  0.11326965467E+04  0.00000000000E+00 0. -1.
<mgrwt>
<rscale>  0 0.30490626E+02</rscale>
<asrwt>0</asrwt>
<pdfrwt beam="1">  1        2 0.45103307E+00 0.31433411E+02</pdfrwt>
<pdfrwt beam="2">  1        2 0.49693154E+00 0.29576118E+02</pdfrwt>
<totfact> 0.11380213E+00</totfact>
</mgrwt>
</event>
<event>
13    1  0.1675423E-008  0.1893330E+03  0.7546771E-02  0.1217818E+00
          2   -1    0    0  502    0  0.00000000000E+00  0.00000000000E+00  0.97438129487E+03  0.97438129487E+03  0.00000000000E+00 0. -1.
          2   -1    0    0  503    0 -0.00000000000E+00 -0.00000000000E+00 -0.22953944071E+04  0.22953944071E+04  0.00000000000E+00 0. -1.
         24    2    1    2    0    0 -0.79925645039E+02 -0.77670595344E+02  0.24075304539E+03  0.27736195531E+03  0.80912268964E+02 0.  0.
         25    2    1    2    0    0  0.23893866441E+03  0.13705222272E+03 -0.51653224781E+03  0.59858805646E+03  0.12500840454E+03 0.  0.
         24    2    1    2    0    0  0.82289111897E+02  0.26832237053E+02  0.13706004905E+02  0.11889291821E+03  0.80350510563E+02 0.  0.
        -11    1    3    3    0    0 -0.56815456178E+02 -0.12582669309E+01  0.83471832123E+02  0.10098082023E+03  0.00000000000E+00 0.  1.
         12    1    3    3    0    0 -0.23110188861E+02 -0.76412328413E+02  0.15728121327E+03  0.17638113508E+03  0.00000000000E+00 0. -1.
        -11    1    5    5    0    0  0.80340859280E+02 -0.10220205737E+02  0.87441204199E+01  0.81458983035E+02  0.00000000000E+00 0.  1.
         12    1    5    5    0    0  0.19482526171E+01  0.37052442790E+02  0.49618844856E+01  0.37433935174E+02  0.00000000000E+00 0. -1.
          5    1    4    4  501    0  0.16515862333E+03  0.12925660499E+03 -0.27502355169E+03  0.34589692797E+03  0.47000000000E+01 0. -1.
         -5    1    4    4    0  501  0.73780041081E+02  0.77956177339E+01 -0.24150869611E+03  0.25269112849E+03  0.47000000000E+01 0. -1.
          1    1    1    2  502    0 -0.14258363505E+03 -0.86981722937E+02  0.59502636243E+03  0.61802288396E+03  0.00000000000E+00 0. -1.
          1    1    1    2  503    0 -0.98718496222E+02  0.76785850325E+00 -0.16539662772E+04  0.16569098880E+04  0.00000000000E+00 0. -1.
<mgrwt>
<rscale>  0 0.13671589E+03</rscale>
<asrwt>0</asrwt>
<pdfrwt beam="1">  1        2 0.14329137E+00 0.18933299E+03</pdfrwt>
<pdfrwt beam="2">  1        2 0.33755800E+00 0.98721482E+02</pdfrwt>
<totfact> 0.30351083E+01</totfact>
</mgrwt>
</event>
<event>
13    1  0.1675423E-008  0.8579448E+02  0.7546771E-02  0.1363643E+00
          2   -1    0    0  503    0  0.00000000000E+00  0.00000000000E+00  0.11565922883E+04  0.11565922883E+04  0.00000000000E+00 0. -1.
          2   -1    0    0  502    0 -0.00000000000E+00 -0.00000000000E+00 -0.21202198632E+04  0.21202198632E+04  0.00000000000E+00 0. -1.
         24    2    1    2    0    0  0.24946794831E+02  0.14248341714E+02  0.15311815676E+03  0.17657190031E+03  0.83109014165E+02 0.  0.
         25    2    1    2    0    0 -0.10844916506E+03  0.11321712944E+03 -0.33354779679E+03  0.38917696794E+03  0.12500095934E+03 0.  0.
         24    2    1    2    0    0  0.12096199388E+02 -0.36114041271E+02 -0.72904178863E+02  0.11487460908E+03  0.80191112348E+02 0.  0.
        -11    1    3    3    0    0  0.37824388246E+02  0.19124445045E+02  0.15671061497E+03  0.16234113955E+03  0.00000000000E+00 0.  1.
         12    1    3    3    0    0 -0.12877593414E+02 -0.48761033309E+01 -0.35924582135E+01  0.14230760762E+02  0.00000000000E+00 0. -1.
        -11    1    5    5    0    0 -0.30563750192E+02 -0.14646746869E+02 -0.53487992737E+02  0.63321681806E+02  0.00000000000E+00 0.  1.
         12    1    5    5    0    0  0.42659949580E+02 -0.21467294402E+02 -0.19416186126E+02  0.51552927277E+02  0.00000000000E+00 0. -1.
          5    1    4    4  501    0 -0.87623397250E+02  0.77780314163E+02 -0.10654402831E+03  0.15843407772E+03  0.47000000000E+01 0.  1.
         -5    1    4    4    0  501 -0.20825767808E+02  0.35436815278E+02 -0.22700376848E+03  0.23074289022E+03  0.47000000000E+01 0.  1.
          1    1    1    2  502    0  0.54966812709E+02 -0.72216207849E+01 -0.16508267682E+04  0.16517574038E+04  0.00000000000E+00 0. -1.
          1    1    1    2  503    0  0.16439358130E+02 -0.84129809100E+02  0.94053301221E+03  0.94443127030E+03  0.00000000000E+00 0. -1.
<mgrwt>
<rscale>  0 0.68966480E+02</rscale>
<asrwt>0</asrwt>
<pdfrwt beam="1">  1        2 0.17008710E+00 0.85794481E+02</pdfrwt>
<pdfrwt beam="2">  1        2 0.31179704E+00 0.55439177E+02</pdfrwt>
<totfact> 0.32384881E+01</totfact>
</mgrwt>
</event>
<event>
13    1  0.1675423E-008  0.9949933E+02  0.7546771E-02  0.1350436E+00
          2   -1    0    0  503    0  0.00000000000E+00  0.00000000000E+00  0.30026115073E+04  0.30026115073E+04  0.00000000000E+00 0. -1.
          2   -1    0    0  502    0 -0.00000000000E+00 -0.00000000000E+00 -0.15064975412E+04  0.15064975412E+04  0.00000000000E+00 0. -1.
         24    2    1    2    0    0 -0.13774450520E+02  0.26565379789E+02  0.13585296938E+04  0.13610175083E+04  0.76617712774E+02 0.  0.
         25    2    1    2    0    0 -0.49368493587E+02 -0.11210578138E+03 -0.24478088306E+03  0.30092132391E+03  0.12502403007E+03 0.  0.
         24    2    1    2    0    0 -0.89507827950E+02  0.49435774247E+02  0.20430442287E+03  0.24268904059E+03  0.81866514394E+02 0.  0.
        -11    1    3    3    0    0 -0.31020528677E+02  0.10519334705E+02  0.23835649460E+03  0.24059665026E+03  0.00000000000E+00 0.  1.
         12    1    3    3    0    0  0.17246078157E+02  0.16046045084E+02  0.11201731992E+04  0.11204208580E+04  0.00000000000E+00 0. -1.
        -13    1    5    5    0    0 -0.34457199184E+01  0.96178076297E+01 -0.61028654854E+01  0.11900427576E+02  0.00000000000E+00 0.  1.
         14    1    5    5    0    0 -0.86062108032E+02  0.39817966617E+02  0.21040728835E+03  0.23078861301E+03  0.00000000000E+00 0. -1.
          5    1    4    4  501    0  0.21594876459E+02  0.19382863781E+00  0.31155687332E+00  0.22103468653E+02  0.47000000000E+01 0.  1.
         -5    1    4    4    0  501 -0.70963370046E+02 -0.11229961001E+03 -0.24509243993E+03  0.27881785525E+03  0.47000000000E+01 0.  1.
          1    1    1    2  502    0  0.49740702430E+02 -0.19539145132E+02 -0.12101600889E+04  0.12113394886E+04  0.00000000000E+00 0. -1.
          1    1    1    2  503    0  0.10291006963E+03  0.55643772473E+02  0.13882208213E+04  0.13931416872E+04  0.00000000000E+00 0. -1.
<mgrwt>
<rscale>  0 0.72919960E+02</rscale>
<asrwt>0</asrwt>
<pdfrwt beam="1">  1        2 0.44156052E+00 0.99499328E+02</pdfrwt>
<pdfrwt beam="2">  1        2 0.22154376E+00 0.53440768E+02</pdfrwt>
<totfact> 0.75146005E+00</totfact>
</mgrwt>
</event>
<event>
13    1  0.1675423E-008  0.8415201E+02  0.7546771E-02  0.1321743E+00
          2   -1    0    0  502    0  0.00000000000E+00  0.00000000000E+00  0.10844906243E+04  0.10844906243E+04  0.00000000000E+00 0. -1.
          2   -1    0    0  503    0 -0.00000000000E+00 -0.00000000000E+00 -0.40413973723E+03  0.40413973723E+03  0.00000000000E+00 0. -1.
         24    2    1    2    0    0  0.62714849200E+01  0.53205696100E+02  0.92746131539E+01  0.96800123655E+02  0.80087875923E+02 0.  0.
         25    2    1    2    0    0  0.72441792351E+01 -0.29144544710E+02  0.39425923971E+03  0.41469237665E+03  0.12501014573E+03 0.  0.
         24    2    1    2    0    0  0.17079561742E+02  0.88528717227E+01  0.20321384834E+02  0.84091144870E+02  0.79298658229E+02 0.  0.
        -11    1    3    3    0    0 -0.22728123491E+02 -0.58022557147E+01 -0.13685677308E+02  0.27157531777E+02  0.00000000000E+00 0.  1.
         12    1    3    3    0    0  0.28999608411E+02  0.59007951815E+02  0.22960290462E+02  0.69642591878E+02  0.00000000000E+00 0. -1.
        -13    1    5    5    0    0  0.47268073920E+02  0.89204638747E+01  0.74012597578E+00  0.48108141455E+02  0.00000000000E+00 0.  1.
         14    1    5    5    0    0 -0.30188512178E+02 -0.67592152038E-01  0.19581258858E+02  0.35983003414E+02  0.00000000000E+00 0. -1.
          5    1    4    4  501    0 -0.12885891540E+02 -0.78200052884E+01  0.38237942818E+03  0.38270525967E+03  0.47000000000E+01 0.  1.
         -5    1    4    4    0  501  0.20130070775E+02 -0.21324539421E+02  0.11879811537E+02  0.31987116986E+02  0.47000000000E+01 0.  1.
          1    1    1    2  502    0  0.48178224540E+02 -0.65288572483E+02  0.56612896153E+03  0.57191410203E+03  0.00000000000E+00 0. -1.
          1    1    1    2  503    0 -0.78773450437E+02  0.32374549371E+02 -0.30963331220E+03  0.32113261429E+03  0.00000000000E+00 0. -1.
<mgrwt>
<rscale>  0 0.82632405E+02</rscale>
<asrwt>0</asrwt>
<pdfrwt beam="1">  1        2 0.15948391E+00 0.81140243E+02</pdfrwt>
<pdfrwt beam="2">  1        2 0.59432315E-01 0.84152007E+02</pdfrwt>
<totfact> 0.34441217E+02</totfact>
</mgrwt>
</event>
<event>
13    1  0.1675423E-008  0.8816780E+02  0.7546771E-02  0.1415319E+00
          2   -1    0    0  503    0  0.00000000000E+00  0.00000000000E+00  0.89054004222E+03  0.89054004222E+03  0.00000000000E+00 0. -1.
          2   -1    0    0  502    0 -0.00000000000E+00 -0.00000000000E+00 -0.21141454027E+04  0.21141454027E+04  0.00000000000E+00 0. -1.
         24    2    1    2    0    0 -0.18747789572E+03 -0.24320262717E+02  0.28646068955E+03  0.35252273544E+03  0.80455675873E+02 0.  0.
         25    2    1    2    0    0  0.29481151265E+01  0.76296372437E+02 -0.71679526758E+03  0.73160715941E+03  0.12499500888E+03 0.  0.
         24    2    1    2    0    0  0.93728202759E+02 -0.12051872311E+03 -0.62192959500E+03  0.64916925111E+03  0.10636990570E+03 0.  0.
        -11    1    3    3    0    0 -0.53180505808E+02  0.12166964367E+02  0.14112484375E+03  0.15130242147E+03  0.00000000000E+00 0.  1.
         12    1    3    3    0    0 -0.13429738992E+03 -0.36487227084E+02  0.14533584580E+03  0.20122031397E+03  0.00000000000E+00 0. -1.
        -13    1    5    5    0    0  0.32185910388E+02  0.14758076107E+02 -0.85723437427E+02  0.92748268782E+02  0.00000000000E+00 0.  1.
         14    1    5    5    0    0  0.61542292371E+02 -0.13527679922E+03 -0.53620615758E+03  0.55642098233E+03  0.00000000000E+00 0. -1.
          5    1    4    4  501    0  0.55993310736E+02  0.35654487704E+01 -0.26907688770E+03  0.27490439205E+03  0.47000000000E+01 0. -1.
         -5    1    4    4    0  501 -0.53045195610E+02  0.72730923667E+02 -0.44771837988E+03  0.45670276736E+03  0.47000000000E+01 0. -1.
          1    1    1    2  502    0  0.96278197939E+01  0.34271931535E+02 -0.71739076857E+03  0.71827346814E+03  0.00000000000E+00 0. -1.
          1    1    1    2  503    0  0.81173758045E+02  0.34270681856E+02  0.54604958109E+03  0.55311283084E+03  0.00000000000E+00 0. -1.
<mgrwt>
<rscale>  0 0.56023657E+02</rscale>
<asrwt>0</asrwt>
<pdfrwt beam="1">  1        2 0.13096177E+00 0.88167803E+02</pdfrwt>
<pdfrwt beam="2">  1        2 0.31090374E+00 0.35598598E+02</pdfrwt>
<totfact> 0.48626037E+01</totfact>
</mgrwt>
</event>
<event>
13    1  0.1675423E-008  0.1771258E+03  0.7546771E-02  0.1220467E+00
          2   -1    0    0  502    0  0.00000000000E+00  0.00000000000E+00  0.25609615523E+04  0.25609615523E+04  0.00000000000E+00 0. -1.
          2   -1    0    0  503    0 -0.00000000000E+00 -0.00000000000E+00 -0.45630859926E+03  0.45630859926E+03  0.00000000000E+00 0. -1.
         24    2    1    2    0    0 -0.11610292095E+03  0.41274571168E+02  0.30969708891E+03  0.34308583295E+03  0.81314964259E+02 0.  0.
         25    2    1    2    0    0  0.14816109217E+03 -0.15390677688E+03  0.19333337869E+03  0.31407327949E+03  0.12500089748E+03 0.  0.
         24    2    1    2    0    0  0.58006417963E+02  0.42112650655E+02 -0.46671810793E+02  0.11819060009E+03  0.81563105358E+02 0.  0.
        -11    1    3    3    0    0 -0.90430847278E+01 -0.42446616056E+01  0.12098498678E+03  0.12139671148E+03  0.00000000000E+00 0.  1.
         12    1    3    3    0    0 -0.10705983623E+03  0.45519232774E+02  0.18871210213E+03  0.22168912147E+03  0.00000000000E+00 0. -1.
        -13    1    5    5    0    0  0.78547149308E+02  0.39129782149E+02 -0.35997249948E+02  0.94850390190E+02  0.00000000000E+00 0.  1.
         14    1    5    5    0    0 -0.20540731345E+02  0.29828685060E+01 -0.10674560845E+02  0.23340209895E+02  0.00000000000E+00 0. -1.
          5    1    4    4  501    0  0.15780703666E+03 -0.16672090349E+03  0.17156033695E+03  0.28662512049E+03  0.47000000000E+01 0.  1.
         -5    1    4    4    0  501 -0.96459444893E+01  0.12814126613E+02  0.21773041740E+02  0.27448159001E+02  0.47000000000E+01 0.  1.
          1    1    1    2  502    0  0.16669043389E+02  0.17862442046E+03  0.19212120353E+04  0.19295699587E+04  0.00000000000E+00 0. -1.
          1    1    1    2  503    0 -0.10673363257E+03 -0.10810486540E+03 -0.27291773913E+03  0.31235048035E+03  0.00000000000E+00 0. -1.
<mgrwt>
<rscale>  0 0.13482531E+03</rscale>
<asrwt>0</asrwt>
<pdfrwt beam="1">  1        2 0.37661199E+00 0.17712575E+03</pdfrwt>
<pdfrwt beam="2">  1        2 0.67104207E-01 0.10262689E+03</pdfrwt>
<totfact> 0.51523311E+01</totfact>
</mgrwt>
</event>
<event>
13    1  0.1675423E-008  0.1615363E+03  0.7546771E-02  0.1258826E+00
          2   -1    0    0  502    0  0.00000000000E+00  0.00000000000E+00  0.18504735497E+03  0.18504735497E+03  0.00000000000E+00 0. -1.
          2   -1    0    0  503    0 -0.00000000000E+00 -0.00000000000E+00 -0.46318232210E+04  0.46318232210E+04  0.00000000000E+00 0. -1.
         24    2    1    2    0    0  0.18525663480E+02 -0.23753083181E+03 -0.12485206298E+04  0.12734656987E+04  0.78402974830E+02 0.  0.
         25    2    1    2    0    0  0.51158766475E+02  0.27895434191E+03 -0.18079170921E+03  0.35881094046E+03  0.12500761823E+03 0.  0.
         24    2    1    2    0    0  0.67703727048E+02  0.22854848227E+02 -0.25970625831E+03  0.28052925912E+03  0.78378478400E+02 0.  0.
        -11    1    5    5    0    0  0.67266837080E+02  0.27750193346E+02 -0.11729133008E+03  0.13802955015E+03  0.00000000000E+00 0.  1.
         12    1    5    5    0    0  0.43688996807E+00 -0.48953451185E+01 -0.14241492823E+03  0.14249970898E+03  0.00000000000E+00 0. -1.
        -13    1    3    3    0    0  0.34333184177E+01 -0.83661123493E+02 -0.26636278014E+03  0.27921336269E+03  0.00000000000E+00 0.  1.
         14    1    3    3    0    0  0.15092345063E+02 -0.15386970831E+03 -0.98215784968E+03  0.99425233603E+03  0.00000000000E+00 0. -1.
          5    1    4    4  501    0  0.41784487267E+02  0.25087227397E+03 -0.19967693852E+03  0.32338183468E+03  0.47000000000E+01 0.  1.
         -5    1    4    4    0  501  0.93742792082E+01  0.28082067935E+02  0.18885229309E+02  0.35429105778E+02  0.47000000000E+01 0.  1.
          1    1    1    2  502    0 -0.38319702505E+02  0.65865219717E+02  0.50262816191E+02  0.91285143698E+02  0.00000000000E+00 0. -1.
          1    1    1    2  503    0 -0.99068454498E+02 -0.13014357805E+03 -0.28080200848E+04  0.28127795339E+04  0.00000000000E+00 0. -1.
<mgrwt>
<rscale>  0 0.11094714E+03</rscale>
<asrwt>0</asrwt>
<pdfrwt beam="1">  1        2 0.27212845E-01 0.76201226E+02</pdfrwt>
<pdfrwt beam="2">  1        2 0.68115051E+00 0.16153634E+03</pdfrwt>
<totfact> 0.65483445E+00</totfact>
</mgrwt>
</event>
<event>
13    1  0.1675423E-008  0.4978848E+02  0.7546771E-02  0.1491070E+00
          4   -1    0    0  503    0 -0.00000000000E+00  0.00000000000E+00  0.42180001228E+04  0.42180001228E+04  0.00000000000E+00 0. -1.
          2   -1    0    0  502    0  0.00000000000E+00 -0.00000000000E+00 -0.13215920397E+04  0.13215920397E+04  0.00000000000E+00 0. -1.
         24    2    1    2    0    0 -0.37426386177E+01 -0.24611813295E+02 -0.89444937969E+03  0.89850048157E+03  0.81508734911E+02 0.  0.
         25    2    1    2    0    0 -0.11584918120E+01  0.76618832720E+02  0.27591749354E+04  0.27630678105E+04  0.12500245483E+03 0.  0.
         24    2    1    2    0    0 -0.71574998938E+02 -0.37221238327E+02  0.16615510294E+03  0.20177084017E+03  0.81213007897E+02 0.  0.
        -11    1    3    3    0    0 -0.30523790463E+02 -0.41928658812E+02 -0.63101059419E+03  0.63313828205E+03  0.00000000000E+00 0.  1.
         12    1    3    3    0    0  0.26781151845E+02  0.17316845517E+02 -0.26343878549E+03  0.26536219952E+03  0.00000000000E+00 0. -1.
        -13    1    5    5    0    0 -0.26041123145E+01 -0.28597645755E+02  0.10608435090E+03  0.10990221222E+03  0.00000000000E+00 0.  1.
         14    1    5    5    0    0 -0.68970886624E+02 -0.86235925717E+01  0.60070752039E+02  0.91868627948E+02  0.00000000000E+00 0. -1.
          5    1    4    4  501    0 -0.50872929889E+02  0.65245184401E+02  0.11061599963E+04  0.11092596704E+04  0.47000000000E+01 0. -1.
         -5    1    4    4    0  501  0.49714438077E+02  0.11373648320E+02  0.16530149391E+04  0.16538081401E+04  0.47000000000E+01 0. -1.
          1    1    1    2  502    0  0.27469895170E+02 -0.23507439025E+02 -0.40406794354E+03  0.40568226215E+03  0.00000000000E+00 0. -1.
          3    1    1    2  503    0  0.49006234198E+02  0.87216579265E+01  0.12695953680E+04  0.12705707681E+04  0.00000000000E+00 0. -1.
<mgrwt>
<rscale>  0 0.42427703E+02</rscale>
<asrwt>0</asrwt>
<pdfrwt beam="2">  1        2 0.19435177E+00 0.36155149E+02</pdfrwt>
<pdfrwt beam="1">  1        4 0.62029413E+00 0.49788482E+02</pdfrwt>
<totfact> 0.24393401E-03</totfact>
</mgrwt>
</event>
<event>
13    1  0.1675423E-008  0.5377867E+02  0.7546771E-02  0.1465885E+00
         -1   -1    0    0    0  501 -0.00000000000E+00  0.00000000000E+00  0.68281253137E+03  0.68281253137E+03  0.00000000000E+00 0.  1.
          2   -1    0    0  503    0  0.00000000000E+00 -0.00000000000E+00 -0.32755934029E+04  0.32755934029E+04  0.00000000000E+00 0. -1.
         24    2    1    2    0    0 -0.11312599373E+02 -0.14387582722E+02 -0.40951237226E+03  0.41760089612E+03  0.79719181944E+02 0.  0.
         25    2    1    2    0    0 -0.44670321916E+02  0.45468013080E+02  0.15101874392E+03  0.20614469865E+03  0.12500479148E+03 0.  0.
         24    2    1    2    0    0 -0.30574373216E+01  0.27895100203E+02  0.33781383682E+02  0.89907641778E+02  0.78452008440E+02 0.  0.
        -11    1    3    3    0    0  0.22742677151E+02 -0.35162461304E+02 -0.21488550495E+03  0.21892786092E+03  0.00000000000E+00 0.  1.
         12    1    3    3    0    0 -0.34055276525E+02  0.20774878583E+02 -0.19462686730E+03  0.19867303520E+03  0.00000000000E+00 0. -1.
        -11    1    5    5    0    0  0.27597899948E+01  0.43092497580E+02  0.50589952285E+02  0.66512578214E+02  0.00000000000E+00 0.  1.
         12    1    5    5    0    0 -0.58172273165E+01 -0.15197397377E+02 -0.16808568603E+02  0.23395063564E+02  0.00000000000E+00 0. -1.
          5    1    4    4  502    0 -0.47061527435E+02 -0.34858805812E+02  0.51380747509E+02  0.78051232673E+02  0.47000000000E+01 0.  1.
         -5    1    4    4    0  502  0.23912055192E+01  0.80326818892E+02  0.99637996408E+02  0.12809346597E+03  0.47000000000E+01 0.  1.
          1    1    1    2  503    0  0.38937218782E+02 -0.91827170454E+01 -0.28046229477E+04  0.28049082530E+04  0.00000000000E+00 0. -1.
         -2    1    1    2    0  501  0.20103139829E+02 -0.49792813516E+02  0.43655432080E+03  0.43984444469E+03  0.00000000000E+00 0.  1.
<mgrwt>
<rscale>  0 0.46383567E+02</rscale>
<asrwt>0</asrwt>
<pdfrwt beam="2">  1        2 0.48170492E+00 0.40005366E+02</pdfrwt>
<pdfrwt beam="1">  1       -1 0.10041360E+00 0.53778667E+02</pdfrwt>
<totfact> 0.29755086E+00</totfact>
</mgrwt>
</event>
<event>
13    1  0.1675423E-008  0.1470462E+03  0.7546771E-02  0.1305527E+00
          2   -1    0    0  502    0  0.00000000000E+00  0.00000000000E+00  0.15831326326E+04  0.15831326326E+04  0.00000000000E+00 0. -1.
          4   -1    0    0  503    0 -0.00000000000E+00 -0.00000000000E+00 -0.85442402699E+03  0.85442402699E+03  0.00000000000E+00 0. -1.
         24    2    1    2    0    0 -0.69283705707E+02  0.15042038309E+03  0.98620030567E+02  0.20715059971E+03  0.75887660414E+02 0.  0.
         25    2    1    2    0    0  0.11150294548E+03  0.42802017172E+02  0.69713433751E+03  0.71825330957E+03  0.12500645042E+03 0.  0.
         24    2    1    2    0    0  0.25262798962E+02 -0.47020923742E+02 -0.26306573693E+03  0.27974962216E+03  0.78785105644E+02 0.  0.
        -11    1    3    3    0    0 -0.50926929949E+02  0.12206308125E+03  0.10945199630E+03  0.17167611217E+03  0.00000000000E+00 0.  1.
         12    1    3    3    0    0 -0.18356775758E+02  0.28357301844E+02 -0.10831965729E+02  0.35474487532E+02  0.00000000000E+00 0. -1.
        -11    1    5    5    0    0  0.35839381123E+02  0.72396806542E+01 -0.70658262815E+02  0.79557930587E+02  0.00000000000E+00 0.  1.
         12    1    5    5    0    0 -0.10576582161E+02 -0.54260604396E+02 -0.19240747411E+03  0.20019169157E+03  0.00000000000E+00 0. -1.
          5    1    4    4  501    0  0.35508701719E+02 -0.20627704001E+02  0.45141287820E+03  0.45330127584E+03  0.47000000000E+01 0. -1.
         -5    1    4    4    0  501  0.75994243763E+02  0.63429721173E+02  0.24572145931E+03  0.26495203373E+03  0.47000000000E+01 0. -1.
          1    1    1    2  502    0  0.45869885103E+02  0.28021109755E+02  0.69228500561E+03  0.69436860380E+03  0.00000000000E+00 0. -1.
          3    1    1    2  503    0 -0.11335192384E+03 -0.17422258628E+03 -0.49626503118E+03  0.53803452433E+03  0.00000000000E+00 0. -1.
<mgrwt>
<rscale>  0 0.88904223E+02</rscale>
<asrwt>0</asrwt>
<pdfrwt beam="1">  1        2 0.23281362E+00 0.53751548E+02</pdfrwt>
<pdfrwt beam="2">  1        4 0.12565059E+00 0.14704620E+03</pdfrwt>
<totfact> 0.39781725E+00</totfact>
</mgrwt>
</event>
<event>
13    1  0.1675423E-008  0.1297569E+03  0.7546771E-02  0.1332072E+00
          2   -1    0    0  503    0  0.00000000000E+00  0.00000000000E+00  0.38207162073E+03  0.38207162073E+03  0.00000000000E+00 0. -1.
          2   -1    0    0  502    0 -0.00000000000E+00 -0.00000000000E+00 -0.18387897982E+04  0.18387897982E+04  0.00000000000E+00 0. -1.
         24    2    1    2    0    0  0.23063453482E+02 -0.11337820800E+03 -0.39562650193E+02  0.14647883722E+03  0.80649274823E+02 0.  0.
         25    2    1    2    0    0 -0.25640109468E+02 -0.53015573133E+02 -0.57521354183E+03  0.59157687696E+03  0.12499806575E+03 0.  0.
         24    2    1    2    0    0 -0.49051650726E+02  0.18304016723E+02 -0.19595349428E+03  0.21730430455E+03  0.77989020952E+02 0.  0.
        -11    1    3    3    0    0  0.18306234941E+02 -0.73255852914E+02 -0.64237848060E+02  0.99136468301E+02  0.00000000000E+00 0.  1.
         12    1    3    3    0    0  0.47572185413E+01 -0.40122355082E+02  0.24675197866E+02  0.47342368924E+02  0.00000000000E+00 0. -1.
        -13    1    5    5    0    0  0.51363905769E+01 -0.19531866979E+02 -0.16537912188E+02  0.26103234960E+02  0.00000000000E+00 0.  1.
         14    1    5    5    0    0 -0.54188041302E+02  0.37835883702E+02 -0.17941558209E+03  0.19120106959E+03  0.00000000000E+00 0. -1.
          5    1    4    4  501    0 -0.56994248269E+02 -0.77187530034E+02 -0.45117552455E+03  0.46128917511E+03  0.47000000000E+01 0.  1.
         -5    1    4    4    0  501  0.31354138801E+02  0.24171956901E+02 -0.12403801728E+03  0.13028770185E+03  0.47000000000E+01 0.  1.
          1    1    1    2  502    0  0.45335689253E+02  0.15863485936E+02 -0.94096151807E+03  0.94218658099E+03  0.00000000000E+00 0. -1.
          1    1    1    2  503    0  0.62926174576E+01  0.13222627847E+03  0.29497302688E+03  0.32331481924E+03  0.00000000000E+00 0. -1.
<mgrwt>
<rscale>  0 0.78945255E+02</rscale>
<asrwt>0</asrwt>
<pdfrwt beam="1">  1        2 0.56187004E-01 0.12975695E+03</pdfrwt>
<pdfrwt beam="2">  1        2 0.27041026E+00 0.48030979E+02</pdfrwt>
<totfact> 0.16167678E+02</totfact>
</mgrwt>
</event>
<event>
13    1  0.1675423E-008  0.7405465E+02  0.7546771E-02  0.1480218E+00
          2   -1    0    0  502    0  0.00000000000E+00  0.00000000000E+00  0.23526792312E+04  0.23526792312E+04  0.00000000000E+00 0. -1.
          2   -1    0    0  503    0 -0.00000000000E+00 -0.00000000000E+00 -0.37890704351E+04  0.37890704351E+04  0.00000000000E+00 0. -1.
         24    2    1    2    0    0 -0.12047615458E+04 -0.47924239266E+03 -0.26358708996E+03  0.13255562180E+04  0.80606947384E+02 0.  0.
         25    2    1    2    0    0  0.86203500884E+03  0.31557016562E+03  0.30513977433E+03  0.97540968624E+03  0.12499955293E+03 0.  0.
         24    2    1    2    0    0  0.34085612565E+03  0.95035524536E+02  0.13292030188E+03  0.38306754193E+03  0.62115100505E+02 0.  0.
        -11    1    3    3    0    0 -0.95217163589E+03 -0.34473764460E+03 -0.19454170349E+03  0.10311747389E+04  0.00000000000E+00 0.  1.
         12    1    3    3    0    0 -0.25258990988E+03 -0.13450474806E+03 -0.69045386468E+02  0.29438147907E+03  0.00000000000E+00 0. -1.
        -11    1    5    5    0    0  0.27363516790E+03  0.92236543815E+02  0.86901308437E+02  0.30155533909E+03  0.00000000000E+00 0.  1.
         12    1    5    5    0    0  0.67220957755E+02  0.27989807212E+01  0.46018993445E+02  0.81512202843E+02  0.00000000000E+00 0. -1.
          5    1    4    4  501    0  0.43466741693E+03  0.99283064280E+02  0.17540726219E+03  0.47914787677E+03  0.47000000000E+01 0. -1.
         -5    1    4    4    0  501  0.42736759191E+03  0.21628710134E+03  0.12973251215E+03  0.49626180946E+03  0.47000000000E+01 0. -1.
          1    1    1    2  502    0  0.26195796635E+02 -0.13127024051E+01  0.92269857517E+03  0.92307128845E+03  0.00000000000E+00 0. -1.
          1    1    1    2  503    0 -0.24325385344E+02  0.69949404900E+02 -0.25335627653E+04  0.25346449317E+04  0.00000000000E+00 0. -1.
<mgrwt>
<rscale>  0 0.44072155E+02</rscale>
<asrwt>0</asrwt>
<pdfrwt beam="1">  1        2 0.34598224E+00 0.26228667E+02</pdfrwt>
<pdfrwt beam="2">  1        2 0.55721624E+00 0.74054655E+02</pdfrwt>
<totfact> 0.12369145E+00</totfact>
</mgrwt>
</event>
<event>
13    1  0.1675423E-008  0.1051754E+03  0.7546771E-02  0.1392864E+00
          2   -1    0    0  503    0  0.00000000000E+00  0.00000000000E+00  0.29025571140E+04  0.29025571140E+04  0.00000000000E+00 0. -1.
          2   -1    0    0  502    0 -0.00000000000E+00 -0.00000000000E+00 -0.12972084501E+04  0.12972084501E+04  0.00000000000E+00 0. -1.
         24    2    1    2    0    0  0.15221884772E+03  0.83525021905E+01  0.11481933744E+04  0.11608262032E+04  0.77000696274E+02 0.  0.
         25    2    1    2    0    0 -0.19448287321E+02 -0.15824905442E+03  0.15010629188E+03  0.25214222853E+03  0.12499122144E+03 0.  0.
         24    2    1    2    0    0 -0.11131812488E+03  0.13421662497E+02  0.43488697631E+03  0.45660614870E+03  0.82405260264E+02 0.  0.
        -11    1    5    5    0    0 -0.12383795950E+03  0.18413289772E+02  0.40262954746E+03  0.42164610984E+03  0.00000000000E+00 0.  1.
         12    1    5    5    0    0  0.12519834614E+02 -0.49916272747E+01  0.32257428843E+02  0.34960038861E+02  0.00000000000E+00 0. -1.
        -11    1    3    3    0    0  0.55753344162E+02 -0.28995661218E+02  0.31258821106E+03  0.31884255275E+03  0.00000000000E+00 0.  1.
         12    1    3    3    0    0  0.96465503554E+02  0.37348163409E+02  0.83560516330E+03  0.84198365045E+03  0.00000000000E+00 0. -1.
          5    1    4    4  501    0  0.27612949603E+01 -0.92382622971E+02  0.15688334598E+03  0.18214458000E+03  0.47000000000E+01 0.  1.
         -5    1    4    4    0  501 -0.22209582281E+02 -0.65866431452E+02 -0.67770540967E+01  0.69997648529E+02  0.47000000000E+01 0.  1.
          1    1    1    2  502    0  0.32981233256E+01  0.35458319851E+02 -0.12262996548E+04  0.12268166176E+04  0.00000000000E+00 0. -1.
          1    1    1    2  503    0 -0.24750558838E+02  0.10101656988E+03  0.10984616761E+04  0.11033743660E+04  0.00000000000E+00 0. -1.
<mgrwt>
<rscale>  0 0.61200000E+02</rscale>
<asrwt>0</asrwt>
<pdfrwt beam="1">  1        2 0.42684664E+00 0.10517538E+03</pdfrwt>
<pdfrwt beam="2">  1        2 0.19076595E+00 0.35611375E+02</pdfrwt>
<totfact> 0.10959486E+01</totfact>
</mgrwt>
</event>
<event>
13    1  0.1675423E-008  0.1772362E+03  0.7546771E-02  0.1312710E+00
          2   -1    0    0  503    0  0.00000000000E+00  0.00000000000E+00  0.31245970428E+04  0.31245970428E+04  0.00000000000E+00 0. -1.
          2   -1    0    0  502    0 -0.00000000000E+00 -0.00000000000E+00 -0.15098069080E+04  0.15098069080E+04  0.00000000000E+00 0. -1.
         24    2    1    2    0    0 -0.63611696754E+01  0.83300199957E+02  0.29447365247E+02  0.11857351463E+03  0.78823494340E+02 0.  0.
         25    2    1    2    0    0 -0.51725006088E+02 -0.21925895316E+03 -0.71145216123E+03  0.75666043693E+03  0.12498349610E+03 0.  0.
         24    2    1    2    0    0 -0.69621314482E+02  0.87828039430E+02  0.11205116200E+02  0.13767291017E+03  0.79166808862E+02 0.  0.
        -11    1    5    5    0    0 -0.37455448954E+02 -0.40391139081E+01 -0.78699060823E+01  0.38485848299E+02  0.00000000000E+00 0.  1.
         12    1    5    5    0    0 -0.32165865528E+02  0.91867153338E+02  0.19075022282E+02  0.99187061872E+02  0.00000000000E+00 0. -1.
        -13    1    3    3    0    0 -0.14110934424E+02  0.22378735991E+02 -0.25074643225E+02  0.36450843992E+02  0.00000000000E+00 0.  1.
         14    1    3    3    0    0  0.77497647481E+01  0.60921463965E+02  0.54522008472E+02  0.82122670641E+02  0.00000000000E+00 0. -1.
          5    1    4    4  501    0 -0.58236341562E+02 -0.92610826677E+02 -0.18365167957E+03  0.21381830161E+03  0.47000000000E+01 0. -1.
         -5    1    4    4    0  501  0.65113354735E+01 -0.12664812648E+03 -0.52780048167E+03  0.54284213532E+03  0.47000000000E+01 0. -1.
          1    1    1    2  502    0 -0.34629179557E+02 -0.23370869477E+02 -0.66463379124E+03  0.66594553387E+03  0.00000000000E+00 0. -1.
          1    1    1    2  503    0  0.16233666980E+03  0.71501583251E+02  0.29502236059E+04  0.29555515552E+04  0.00000000000E+00 0. -1.
<mgrwt>
<rscale>  0 0.86049536E+02</rscale>
<asrwt>0</asrwt>
<pdfrwt beam="1">  1        2 0.45949957E+00 0.17723617E+03</pdfrwt>
<pdfrwt beam="2">  1        2 0.22203043E+00 0.41777717E+02</pdfrwt>
<totfact> 0.60078477E+00</totfact>
</mgrwt>
</event>
<event>
13    1  0.1675423E-008  0.1736493E+03  0.7546771E-02  0.1355960E+00
          2   -1    0    0  503    0  0.00000000000E+00  0.00000000000E+00  0.34965940964E+04  0.34965940964E+04  0.00000000000E+00 0. -1.
          2   -1    0    0  502    0 -0.00000000000E+00 -0.00000000000E+00 -0.90475349603E+03  0.90475349603E+03  0.00000000000E+00 0. -1.
         24    2    1    2    0    0 -0.19393018281E+02  0.12856370732E+03  0.14715104727E+04  0.14794326753E+04  0.80456531608E+02 0.  0.
         25    2    1    2    0    0  0.29252360049E+02 -0.45989136926E+03  0.44712002084E+03  0.65413872456E+03  0.12500154338E+03 0.  0.
         24    2    1    2    0    0  0.26681135017E+02  0.14077522311E+03  0.57071844578E+03  0.59384555338E+03  0.80021562733E+02 0.  0.
        -11    1    3    3    0    0 -0.36147053659E+01 -0.10910989841E+02  0.73491524262E+02  0.74384944259E+02  0.00000000000E+00 0.  1.
         12    1    3    3    0    0 -0.15778312915E+02  0.13947469716E+03  0.13980189485E+04  0.14050477311E+04  0.00000000000E+00 0. -1.
        -13    1    5    5    0    0  0.40362540484E+02  0.25393983184E+02  0.18090857668E+03  0.18708795304E+03  0.00000000000E+00 0.  1.
         14    1    5    5    0    0 -0.13681405467E+02  0.11538123993E+03  0.38980986911E+03  0.40675760034E+03  0.00000000000E+00 0. -1.
          5    1    4    4  501    0  0.49457425659E+02 -0.41910097542E+03  0.43649595902E+03  0.60715935041E+03  0.47000000000E+01 0. -1.
         -5    1    4    4    0  501 -0.20205065610E+02 -0.40790393838E+02  0.10624061815E+02  0.46979374147E+02  0.47000000000E+01 0. -1.
          1    1    1    2  502    0 -0.50462096350E+02  0.16486416611E+03 -0.77601528513E+03  0.79493794676E+03  0.00000000000E+00 0. -1.
          1    1    1    2  503    0  0.13921619564E+02  0.25688272717E+02  0.87850694615E+03  0.87899269239E+03  0.00000000000E+00 0. -1.
<mgrwt>
<rscale>  0 0.71229951E+02</rscale>
<asrwt>0</asrwt>
<pdfrwt beam="1">  1        2 0.51420501E+00 0.29218125E+02</pdfrwt>
<pdfrwt beam="2">  1        2 0.13305199E+00 0.17364926E+03</pdfrwt>
<totfact> 0.98946028E+00</totfact>
</mgrwt>
</event>
<event>
13    1  0.1675423E-008  0.1791943E+03  0.7546771E-02  0.1196375E+00
          2   -1    0    0  502    0  0.00000000000E+00  0.00000000000E+00  0.52623894499E+03  0.52623894499E+03  0.00000000000E+00 0. -1.
          2   -1    0    0  503    0 -0.00000000000E+00 -0.00000000000E+00 -0.15554938937E+04  0.15554938937E+04  0.00000000000E+00 0. -1.
         24    2    1    2    0    0  0.42242019421E+02 -0.60428334863E+02 -0.94029951838E+01  0.11210800424E+03  0.83927447460E+02 0.  0.
         25    2    1    2    0    0 -0.27806773144E+03 -0.72366165969E+02 -0.10676031245E+03  0.33103120127E+03  0.12500146661E+03 0.  0.
         24    2    1    2    0    0 -0.67225866072E+01  0.23100311255E+03 -0.10016559695E+04  0.10319558908E+04  0.90612626554E+02 0.  0.
        -11    1    5    5    0    0 -0.42753907005E+02  0.10140478221E+03 -0.54013155740E+03  0.55122856033E+03  0.00000000000E+00 0.  1.
         12    1    5    5    0    0  0.36031320398E+02  0.12959833034E+03 -0.46152441211E+03  0.48072733046E+03  0.00000000000E+00 0. -1.
        -13    1    3    3    0    0 -0.24537345717E+02 -0.11154758743E+02  0.62148513487E+01  0.27661062068E+02  0.00000000000E+00 0.  1.
         14    1    3    3    0    0  0.66779365138E+02 -0.49273576120E+02 -0.15617846532E+02  0.84446942172E+02  0.00000000000E+00 0. -1.
          5    1    4    4  501    0 -0.98807699918E+02 -0.52017072698E+02 -0.10073122419E+03  0.15045799062E+03  0.47000000000E+01 0.  1.
         -5    1    4    4    0  501 -0.17926003152E+03 -0.20349093271E+02 -0.60290882576E+01  0.18057321065E+03  0.47000000000E+01 0.  1.
          1    1    1    2  502    0  0.11473676534E+03 -0.15247919374E+02  0.31393328854E+03  0.33459099513E+03  0.00000000000E+00 0. -1.
          1    1    1    2  503    0  0.12781153328E+03 -0.82960692342E+02 -0.22536896015E+03  0.27204674730E+03  0.00000000000E+00 0. -1.
<mgrwt>
<rscale>  0 0.15338398E+03</rscale>
<asrwt>0</asrwt>
<pdfrwt beam="1">  1        2 0.77388080E-01 0.13129122E+03</pdfrwt>
<pdfrwt beam="2">  1        2 0.22874910E+00 0.17919435E+03</pdfrwt>
<totfact> 0.13967514E+02</totfact>
</mgrwt>
</event>
<event>
13    1  0.1675423E-008  0.3808800E+03  0.7546771E-02  0.1305097E+00
          2   -1    0    0  502    0  0.00000000000E+00  0.00000000000E+00  0.20803775649E+04  0.20803775649E+04  0.00000000000E+00 0. -1.
          2   -1    0    0  503    0 -0.00000000000E+00 -0.00000000000E+00 -0.20847831060E+04  0.20847831060E+04  0.00000000000E+00 0. -1.
         24    2    1    2    0    0  0.76420281935E+02 -0.37279827620E+03  0.16027269378E+04  0.16489166296E+04  0.73306207555E+02 0.  0.
         25    2    1    2    0    0  0.36919480547E+03  0.22384429978E+03 -0.12425883390E+04  0.13213866855E+04  0.12500366998E+03 0.  0.
         24    2    1    2    0    0 -0.73342697166E+02  0.33438273377E+02 -0.15128335773E+03  0.18934898414E+03  0.80430803259E+02 0.  0.
        -11    1    5    5    0    0 -0.66184730842E+02 -0.55633449690E+01 -0.12567317727E+03  0.14214470405E+03  0.00000000000E+00 0.  1.
         12    1    5    5    0    0 -0.71579663246E+01  0.39001618346E+02 -0.25610180467E+02  0.47204280093E+02  0.00000000000E+00 0. -1.
        -13    1    3    3    0    0 -0.80960836080E+01 -0.62331089725E+02  0.19478308499E+03  0.20467330435E+03  0.00000000000E+00 0.  1.
         14    1    3    3    0    0  0.84516365543E+02 -0.31046718647E+03  0.14079438528E+04  0.14442433252E+04  0.00000000000E+00 0. -1.
          5    1    4    4  501    0  0.92159715587E+01  0.39871810288E+02 -0.72029296980E+02  0.82975930310E+02  0.47000000000E+01 0.  1.
         -5    1    4    4    0  501  0.35997883391E+03  0.18397248949E+03 -0.11705590420E+04  0.12384107552E+04  0.47000000000E+01 0.  1.
          1    1    1    2  502    0 -0.38157692552E+03  0.13415619246E+03  0.29260364804E+03  0.49921511286E+03  0.00000000000E+00 0. -1.
          1    1    1    2  503    0  0.93045352752E+01 -0.18640489421E+02 -0.50586443012E+03  0.50629325878E+03  0.00000000000E+00 0. -1.
<mgrwt>
<rscale>  0 0.89079361E+02</rscale>
<asrwt>0</asrwt>
<pdfrwt beam="1">  1        2 0.30593788E+00 0.38088003E+03</pdfrwt>
<pdfrwt beam="2">  1        2 0.30658575E+00 0.20833680E+02</pdfrwt>
<totfact> 0.11477609E+01</totfact>
</mgrwt>
</event>
<event>
13    1  0.1675423E-008  0.7395707E+02  0.7546771E-02  0.1376059E+00
          2   -1    0    0  503    0  0.00000000000E+00  0.00000000000E+00  0.29252889777E+04  0.29252889777E+04  0.00000000000E+00 0. -1.
          2   -1    0    0  502    0 -0.00000000000E+00 -0.00000000000E+00 -0.15539604187E+04  0.15539604187E+04  0.00000000000E+00 0. -1.
         24    2    1    2    0    0  0.21504605304E+02  0.37769599382E+02  0.38805477519E+03  0.39865110054E+03  0.80294462594E+02 0.  0.
         25    2    1    2    0    0 -0.13300439339E+03  0.57489207448E+02 -0.30387083093E+03  0.35910743238E+03  0.12500195386E+03 0.  0.
         24    2    1    2    0    0  0.33555139836E+02  0.48967481087E+01  0.23247128690E+03  0.24795857945E+03  0.79313506656E+02 0.  0.
        -13    1    5    5    0    0  0.13108454335E+02  0.37319165929E+02  0.17100317836E+03  0.17551820056E+03  0.00000000000E+00 0.  1.
         14    1    5    5    0    0  0.20446685501E+02 -0.32422417820E+02  0.61468108542E+02  0.72440378885E+02  0.00000000000E+00 0. -1.
        -13    1    3    3    0    0  0.22733173380E+01  0.13372845147E+02  0.34651366602E+03  0.34677906756E+03  0.00000000000E+00 0.  1.
         14    1    3    3    0    0  0.19231287966E+02  0.24396754235E+02  0.41541109176E+02  0.51872032981E+02  0.00000000000E+00 0. -1.
          5    1    4    4  501    0 -0.10637749290E+03  0.91940402920E+02 -0.18491778142E+03  0.23234862722E+03  0.47000000000E+01 0. -1.
         -5    1    4    4    0  501 -0.26626900481E+02 -0.34451195472E+02 -0.11895304951E+03  0.12675880516E+03  0.47000000000E+01 0. -1.
          1    1    1    2  502    0  0.58100298333E+02 -0.45624418147E+02 -0.12079290566E+04  0.12101858692E+04  0.00000000000E+00 0. -1.
          1    1    1    2  503    0  0.19844349913E+02 -0.54531136791E+02  0.22626023845E+04  0.22633464148E+04  0.00000000000E+00 0. -1.
<mgrwt>
<rscale>  0 0.65511104E+02</rscale>
<asrwt>0</asrwt>
<pdfrwt beam="1">  1        2 0.43018955E+00 0.58029674E+02</pdfrwt>
<pdfrwt beam="2">  1        2 0.22852359E+00 0.73957070E+02</pdfrwt>
<totfact> 0.82969181E+00</totfact>
</mgrwt>
</event>
<event>
13    1  0.1675423E-008  0.1508143E+03  0.7546771E-02  0.1265199E+00
          2   -1    0    0  503    0  0.00000000000E+00  0.00000000000E+00  0.22597716492E+04  0.22597716492E+04  0.00000000000E+00 0. -1.
         -1   -1    0    0    0  501 -0.00000000000E+00 -0.00000000000E+00 -0.22748475829E+04  0.22748475829E+04  0.00000000000E+00 0.  1.
         24    2    1    2    0    0  0.55839221662E+02 -0.36062066506E+02  0.56194143164E+03  0.57105259391E+03  0.76840100894E+02 0.  0.
         25    2    1    2    0    0  0.13396942767E+03 -0.43054496875E+02 -0.43352852807E+03  0.47261838586E+03  0.12497862517E+03 0.  0.
         24    2    1    2    0    0  0.49007219317E+02 -0.56422669078E+02 -0.30206964040E+02  0.11365337543E+03  0.80121182830E+02 0.  0.
        -13    1    3    3    0    0  0.39712349851E+02 -0.55930804391E+02  0.29419758995E+03  0.30208864187E+03  0.00000000000E+00 0.  1.
         14    1    3    3    0    0  0.16126871811E+02  0.19868737885E+02  0.26774384168E+03  0.26896395204E+03  0.00000000000E+00 0. -1.
        -13    1    5    5    0    0  0.23444684709E+02 -0.61929378851E+02 -0.48207558886E+02  0.81907691579E+02  0.00000000000E+00 0.  1.
         14    1    5    5    0    0  0.25562534608E+02  0.55067097733E+01  0.18000594846E+02  0.31745683847E+02  0.00000000000E+00 0. -1.
          5    1    4    4  502    0  0.15805091681E+03 -0.33499111926E+02 -0.38075248837E+03  0.41363852602E+03  0.47000000000E+01 0. -1.
         -5    1    4    4    0  502 -0.24081489139E+02 -0.95553849493E+01 -0.52776039703E+02  0.58979859846E+02  0.47000000000E+01 0. -1.
          1    1    1    2  503    0 -0.10506389054E+03  0.61359847046E+02  0.16263790249E+04  0.16309237212E+04  0.00000000000E+00 0. -1.
         -2    1    1    2    0  501 -0.13375197812E+03  0.74179385412E+02 -0.17396608981E+04  0.17463711557E+04  0.00000000000E+00 0.  1.
<mgrwt>
<rscale>  0 0.10753740E+03</rscale>
<asrwt>0</asrwt>
<pdfrwt beam="1">  1        2 0.33231936E+00 0.76679018E+02</pdfrwt>
<pdfrwt beam="2">  1       -1 0.33453641E+00 0.15081429E+03</pdfrwt>
<totfact> 0.20704558E-01</totfact>
</mgrwt>
</event>
<event>
13    1  0.1675423E-008  0.8442890E+02  0.7546771E-02  0.1326572E+00
          2   -1    0    0  503    0  0.00000000000E+00  0.00000000000E+00  0.34601658106E+03  0.34601658106E+03  0.00000000000E+00 0. -1.
          2   -1    0    0  502    0 -0.00000000000E+00 -0.00000000000E+00 -0.31239770416E+04  0.31239770416E+04  0.00000000000E+00 0. -1.
         24    2    1    2    0    0  0.11377222426E+03 -0.32710754120E+02 -0.14071089309E+03  0.20205738873E+03  0.83746763864E+02 0.  0.
         25    2    1    2    0    0 -0.19259622703E+03  0.87920526009E+02 -0.14254021151E+04  0.14464505334E+04  0.12499852137E+03 0.  0.
         24    2    1    2    0    0 -0.57793277182E+01 -0.17921002191E+02  0.20543639674E+02  0.77171194228E+02  0.71963804368E+02 0.  0.
        -11    1    5    5    0    0  0.26620533466E+02 -0.29725593202E+02  0.11035071140E+02  0.41400923761E+02  0.00000000000E+00 0.  1.
         12    1    5    5    0    0 -0.32399861184E+02  0.11804591011E+02  0.95085685336E+01  0.35770270467E+02  0.00000000000E+00 0. -1.
        -11    1    3    3    0    0  0.92992763154E+02  0.12619501696E+02 -0.78650356655E+02  0.12244502613E+03  0.00000000000E+00 0.  1.
         12    1    3    3    0    0  0.20779461111E+02 -0.45330255816E+02 -0.62060536437E+02  0.79612362603E+02  0.00000000000E+00 0. -1.
          5    1    4    4  501    0 -0.88175429682E+02  0.73027292033E+02 -0.41440552941E+03  0.42995572398E+03  0.47000000000E+01 0. -1.
         -5    1    4    4    0  501 -0.10442079735E+03  0.14893233976E+02 -0.10109965857E+04  0.10164948094E+04  0.47000000000E+01 0. -1.
          1    1    1    2  502    0  0.56802066842E+01 -0.84925976328E+02 -0.14787889422E+04  0.14812364504E+04  0.00000000000E+00 0. -1.
          1    1    1    2  503    0  0.78923123803E+02  0.47637206630E+02  0.24639785020E+03  0.26307805593E+03  0.00000000000E+00 0. -1.
<mgrwt>
<rscale>  0 0.80880163E+02</rscale>
<asrwt>0</asrwt>
<pdfrwt beam="1">  1        2 0.50884792E-01 0.77480586E+02</pdfrwt>
<pdfrwt beam="2">  1        2 0.45940839E+00 0.84428902E+02</pdfrwt>
<totfact> 0.38810904E+01</totfact>
</mgrwt>
</event>
<event>
13    1  0.1675423E-008  0.1922169E+03  0.7546771E-02  0.1241646E+00
          2   -1    0    0  503    0  0.00000000000E+00  0.00000000000E+00  0.86195768583E+03  0.86195768583E+03  0.00000000000E+00 0. -1.
         -3   -1    0    0    0  501 -0.00000000000E+00 -0.00000000000E+00 -0.66431991004E+03  0.66431991004E+03  0.00000000000E+00 0.  1.
         24    2    1    2    0    0  0.20717049657E+03  0.16054435447E+01 -0.63083465728E+02  0.23082234468E+03  0.79857617393E+02 0.  0.
         25    2    1    2    0    0 -0.11813815191E+03 -0.25209205608E+03 -0.16687717052E+03  0.34781879385E+03  0.12499158228E+03 0.  0.
         24    2    1    2    0    0 -0.16673624194E+03  0.67091124872E+02 -0.16204804873E+01  0.19719829406E+03  0.81131669586E+02 0.  0.
        -11    1    3    3    0    0  0.18418768095E+03 -0.48669954259E+01 -0.25094608900E+02  0.18595302862E+03  0.00000000000E+00 0.  1.
         12    1    3    3    0    0  0.22982815621E+02  0.64724389706E+01 -0.37988856828E+02  0.44869316054E+02  0.00000000000E+00 0. -1.
        -13    1    5    5    0    0 -0.34884985362E+02 -0.18842789038E+02  0.28595019279E+01  0.39751599385E+02  0.00000000000E+00 0.  1.
         14    1    5    5    0    0 -0.13185125658E+03  0.85933913910E+02 -0.44799824152E+01  0.15744669467E+03  0.00000000000E+00 0. -1.
          5    1    4    4  502    0 -0.17946329585E+02 -0.86167701639E+02 -0.11903912453E+03  0.14811936646E+03  0.47000000000E+01 0.  1.
         -5    1    4    4    0  502 -0.10019182233E+03 -0.16592435444E+03 -0.47838045995E+02  0.19969942740E+03  0.47000000000E+01 0.  1.
          1    1    1    2  503    0 -0.59574831873E+02  0.47227045528E+02  0.52790597776E+03  0.53335192489E+03  0.00000000000E+00 0. -1.
         -4    1    1    2    0  501  0.13727872915E+03  0.13616844214E+03 -0.98687085234E+02  0.21708623840E+03  0.00000000000E+00 0.  1.
<mgrwt>
<rscale>  0 0.12088415E+03</rscale>
<asrwt>0</asrwt>
<pdfrwt beam="1">  1        2 0.12675848E+00 0.76023381E+02</pdfrwt>
<pdfrwt beam="2">  1       -3 0.97694105E-01 0.19221688E+03</pdfrwt>
<totfact> 0.21139779E+01</totfact>
</mgrwt>
</event>
<event>
13    1  0.1675423E-008  0.1370514E+03  0.7546771E-02  0.1306600E+00
         -3   -1    0    0    0  501 -0.00000000000E+00  0.00000000000E+00  0.87319312361E+03  0.87319312361E+03  0.00000000000E+00 0.  1.
          2   -1    0    0  503    0  0.00000000000E+00 -0.00000000000E+00 -0.29594021469E+04  0.29594021469E+04  0.00000000000E+00 0. -1.
         24    2    1    2    0    0 -0.13476369243E+03 -0.37842867873E+02 -0.37643992970E+03  0.40808953185E+03  0.72365115134E+02 0.  0.
         25    2    1    2    0    0  0.76382096506E+02  0.15093628071E+03 -0.51428430175E+03  0.55563746616E+03  0.12501466022E+03 0.  0.
         24    2    1    2    0    0  0.27702053757E+02 -0.35815922238E+02  0.23215806387E+02  0.95372015257E+02  0.80663892541E+02 0.  0.
        -11    1    5    5    0    0 -0.66768144419E+01  0.23072530293E+02  0.94258687147E+01  0.25802490311E+02  0.00000000000E+00 0.  1.
         12    1    5    5    0    0  0.34378868199E+02 -0.58888452531E+02  0.13789937672E+02  0.69569524946E+02  0.00000000000E+00 0. -1.
        -13    1    3    3    0    0 -0.85611465045E+02 -0.55130554762E+02 -0.28764259321E+03  0.30513433508E+03  0.00000000000E+00 0.  1.
         14    1    3    3    0    0 -0.49152227384E+02  0.17287686889E+02 -0.88797336488E+02  0.10295519677E+03  0.00000000000E+00 0. -1.
          5    1    4    4  502    0  0.11108051889E+03  0.11332016923E+03 -0.39868877175E+03  0.42913304364E+03  0.47000000000E+01 0.  1.
         -5    1    4    4    0  502 -0.34698422381E+02  0.37616111483E+02 -0.11559553000E+03  0.12650442251E+03  0.47000000000E+01 0.  1.
          1    1    1    2  503    0  0.70308765661E+02 -0.11839940342E+03 -0.19926702618E+04  0.19974224675E+04  0.00000000000E+00 0. -1.
         -4    1    1    2    0  501 -0.39629223495E+02  0.41121912820E+02  0.77396966356E+03  0.77607378978E+03  0.00000000000E+00 0.  1.
<mgrwt>
<rscale>  0 0.88469918E+02</rscale>
<asrwt>0</asrwt>
<pdfrwt beam="2">  1        2 0.43520620E+00 0.13705138E+03</pdfrwt>
<pdfrwt beam="1">  1       -3 0.12841075E+00 0.57109431E+02</pdfrwt>
<totfact> 0.89856525E-01</totfact>
</mgrwt>
</event>
<event>
13    1  0.1675423E-008  0.1435199E+03  0.7546771E-02  0.1416286E+00
          2   -1    0    0  503    0  0.00000000000E+00  0.00000000000E+00  0.89431396075E+03  0.89431396075E+03  0.00000000000E+00 0. -1.
          2   -1    0    0  502    0 -0.00000000000E+00 -0.00000000000E+00 -0.11808102338E+04  0.11808102338E+04  0.00000000000E+00 0. -1.
         24    2    1    2    0    0 -0.10812843559E+01  0.32472395977E+02 -0.11775964463E+02  0.87958091260E+02  0.80884651219E+02 0.  0.
         25    2    1    2    0    0 -0.26429765685E+03  0.17464291291E+03 -0.10912445655E+03  0.35761210748E+03  0.12499949583E+03 0.  0.
         24    2    1    2    0    0  0.11445511497E+03 -0.14050746856E+03 -0.19569291065E+03  0.27819849629E+03  0.79097193331E+02 0.  0.
        -11    1    3    3    0    0 -0.93047613806E+01  0.51142890831E+02 -0.30497715956E+02  0.60268437390E+02  0.00000000000E+00 0.  1.
         12    1    3    3    0    0  0.82234770247E+01 -0.18670494854E+02  0.18721751493E+02  0.27689653870E+02  0.00000000000E+00 0. -1.
        -11    1    5    5    0    0  0.46084285687E+02 -0.11421851079E+03 -0.10686676520E+03  0.16306481871E+03  0.00000000000E+00 0.  1.
         12    1    5    5    0    0  0.68370829285E+02 -0.26288957766E+02 -0.88826145456E+02  0.11513367758E+03  0.00000000000E+00 0. -1.
          5    1    4    4  501    0 -0.17953074400E+02  0.41849236245E+01  0.23270697161E+02  0.30057308804E+02  0.47000000000E+01 0. -1.
         -5    1    4    4    0  501 -0.24634458245E+03  0.17045798928E+03 -0.13239515371E+03  0.32755479868E+03  0.47000000000E+01 0. -1.
          1    1    1    2  502    0  0.18846676347E+02 -0.10768436236E+02 -0.65300463071E+03  0.65336529151E+03  0.00000000000E+00 0. -1.
          1    1    1    2  503    0  0.13207714988E+03 -0.55839404086E+02  0.68310168931E+03  0.69799020803E+03  0.00000000000E+00 0. -1.
<mgrwt>
<rscale>  0 0.55814536E+02</rscale>
<asrwt>0</asrwt>
<pdfrwt beam="1">  1        2 0.13151676E+00 0.14351988E+03</pdfrwt>
<pdfrwt beam="2">  1        2 0.17364856E+00 0.21706138E+02</pdfrwt>
<totfact> 0.13363466E+02</totfact>
</mgrwt>
</event>
<event>
13    1  0.1675423E-008  0.1162212E+03  0.7546771E-02  0.1347122E+00
          2   -1    0    0  503    0  0.00000000000E+00  0.00000000000E+00  0.83840047142E+03  0.83840047142E+03  0.00000000000E+00 0. -1.
          2   -1    0    0  502    0 -0.00000000000E+00 -0.00000000000E+00 -0.24352411269E+04  0.24352411269E+04  0.00000000000E+00 0. -1.
         24    2    1    2    0    0  0.74766062804E+02  0.36064553187E+03  0.48765763522E+03  0.61833663493E+03  0.94207542736E+02 0.  0.
         25    2    1    2    0    0 -0.10777996936E+03 -0.28885347927E+03 -0.29884743414E+03  0.44719833962E+03  0.12499484704E+03 0.  0.
         24    2    1    2    0    0 -0.95423003814E+02  0.59504028456E+01 -0.12743298199E+03  0.17833382251E+03  0.80142562981E+02 0.  0.
        -11    1    3    3    0    0  0.32107661838E+02  0.40812524091E+02  0.35692436204E+02  0.63012015311E+02  0.00000000000E+00 0.  1.
         12    1    3    3    0    0  0.42658400965E+02  0.31983300778E+03  0.45196519901E+03  0.55532461962E+03  0.00000000000E+00 0. -1.
        -13    1    5    5    0    0 -0.90372739541E+02  0.29629803813E+02 -0.11977044573E+03  0.15293827839E+03  0.00000000000E+00 0.  1.
         14    1    5    5    0    0 -0.50502642731E+01 -0.23679400967E+02 -0.76625362652E+01  0.25395544125E+02  0.00000000000E+00 0. -1.
          5    1    4    4  501    0 -0.56512351904E+02 -0.26164200975E+03 -0.27637843348E+03  0.38478216652E+03  0.47000000000E+01 0. -1.
         -5    1    4    4    0  501 -0.51267617459E+02 -0.27211469522E+02 -0.22469000656E+02  0.62416173096E+02  0.47000000000E+01 0. -1.
          1    1    1    2  502    0  0.18370115671E+02 -0.43333193009E+02 -0.18257667938E+04  0.18263733496E+04  0.00000000000E+00 0. -1.
          1    1    1    2  503    0  0.11006679470E+03 -0.34409262436E+02  0.16754891918E+03  0.20339945171E+03  0.00000000000E+00 0. -1.
<mgrwt>
<rscale>  0 0.73960044E+02</rscale>
<asrwt>0</asrwt>
<pdfrwt beam="1">  1        2 0.12329419E+00 0.11622117E+03</pdfrwt>
<pdfrwt beam="2">  1        2 0.35812369E+00 0.47066196E+02</pdfrwt>
<totfact> 0.35399427E+01</totfact>
</mgrwt>
</event>
<event>
13    1  0.1675423E-008  0.9575169E+02  0.7546771E-02  0.1331800E+00
          2   -1    0    0  502    0  0.00000000000E+00  0.00000000000E+00  0.18433248197E+04  0.18433248197E+04  0.00000000000E+00 0. -1.
          2   -1    0    0  503    0 -0.00000000000E+00 -0.00000000000E+00 -0.35857943352E+04  0.35857943352E+04  0.00000000000E+00 0. -1.
         24    2    1    2    0    0 -0.79175459427E+02  0.17766374685E+02  0.46773877556E+03  0.48087145289E+03  0.76638075370E+02 0.  0.
         25    2    1    2    0    0  0.12716644877E+03  0.51870630527E+02 -0.94096739385E+03  0.95911821229E+03  0.12500496330E+03 0.  0.
         24    2    1    2    0    0  0.10423028009E+03 -0.10760590075E+03  0.12086864430E+03  0.20857329554E+03  0.80315685086E+02 0.  0.
        -11    1    3    3    0    0 -0.70328197139E+02 -0.11191745295E+02  0.40493769013E+03  0.41115184952E+03  0.00000000000E+00 0.  1.
         12    1    3    3    0    0 -0.88472622880E+01  0.28958119980E+02  0.62801085427E+02  0.69719603366E+02  0.00000000000E+00 0. -1.
        -13    1    5    5    0    0  0.37546899833E+02 -0.82571368183E+02  0.98528785580E+02  0.13392431489E+03  0.00000000000E+00 0.  1.
         14    1    5    5    0    0  0.66683380261E+02 -0.25034532567E+02  0.22339858721E+02  0.74648980646E+02  0.00000000000E+00 0. -1.
          5    1    4    4  501    0 -0.94838387613E+01  0.11369811944E+02 -0.37972001910E+03  0.38003762804E+03  0.47000000000E+01 0. -1.
         -5    1    4    4    0  501  0.13665028753E+03  0.40500818583E+02 -0.56124737475E+03  0.57908058424E+03  0.47000000000E+01 0. -1.
          1    1    1    2  502    0 -0.56721062880E+02  0.32241321120E+02  0.11934468892E+04  0.11952289567E+04  0.00000000000E+00 0. -1.
          1    1    1    2  503    0 -0.95500206557E+02  0.57275744175E+01 -0.25835564306E+04  0.25853272375E+04  0.00000000000E+00 0. -1.
<mgrwt>
<rscale>  0 0.79039389E+02</rscale>
<asrwt>0</asrwt>
<pdfrwt beam="1">  1        2 0.27107718E+00 0.65244017E+02</pdfrwt>
<pdfrwt beam="2">  1        2 0.52732269E+00 0.95751693E+02</pdfrwt>
<totfact> 0.24119218E+00</totfact>
</mgrwt>
</event>
<event>
13    1  0.1675423E-008  0.1611863E+03  0.7546771E-02  0.1205305E+00
          2   -1    0    0  503    0  0.00000000000E+00  0.00000000000E+00  0.32402015615E+04  0.32402015615E+04  0.00000000000E+00 0. -1.
         -1   -1    0    0    0  501 -0.00000000000E+00 -0.00000000000E+00 -0.36308810670E+03  0.36308810670E+03  0.00000000000E+00 0.  1.
         24    2    1    2    0    0  0.11233295017E+02 -0.12854049112E+03  0.49259155473E+03  0.51550533375E+03  0.80314784185E+02 0.  0.
         25    2    1    2    0    0 -0.45867368902E+02  0.40362163524E+03  0.35579317140E+03  0.55428072132E+03  0.12499638896E+03 0.  0.
         24    2    1    2    0    0 -0.19795678235E+02 -0.14216462985E+03  0.30447029575E+03  0.34631382943E+03  0.81415333934E+02 0.  0.
        -11    1    3    3    0    0 -0.23451108560E+01 -0.13095581458E+03  0.37720641952E+03  0.39929889537E+03  0.00000000000E+00 0.  1.
         12    1    3    3    0    0  0.13578405873E+02  0.24153234581E+01  0.11538513521E+03  0.11620643838E+03  0.00000000000E+00 0. -1.
        -13    1    5    5    0    0 -0.45104392393E+02 -0.10680897794E+03  0.25698608054E+03  0.28192979546E+03  0.00000000000E+00 0.  1.
         14    1    5    5    0    0  0.25308714157E+02 -0.35355651918E+02  0.47484215214E+02  0.64384033963E+02  0.00000000000E+00 0. -1.
          5    1    4    4  502    0 -0.73704148455E+02  0.18993173790E+03  0.12788449863E+03  0.24058865633E+03  0.47000000000E+01 0.  1.
         -5    1    4    4    0  502  0.27836779554E+02  0.21368989733E+03  0.22790867277E+03  0.31369206499E+03  0.47000000000E+01 0.  1.
          1    1    1    2  503    0 -0.10124591353E+03 -0.85454474716E+02  0.19245538359E+04  0.19291087760E+04  0.00000000000E+00 0. -1.
         -2    1    1    2    0  501  0.15567566565E+03 -0.47462039547E+02 -0.20029540300E+03  0.25808100770E+03  0.00000000000E+00 0.  1.
<mgrwt>
<rscale>  0 0.14613464E+03</rscale>
<asrwt>0</asrwt>
<pdfrwt beam="1">  1        2 0.47650021E+00 0.13248850E+03</pdfrwt>
<pdfrwt beam="2">  1       -1 0.53395312E-01 0.16118631E+03</pdfrwt>
<totfact> 0.86005663E+00</totfact>
</mgrwt>
</event>
<event>
13    1  0.1675423E-008  0.1670526E+03  0.7546771E-02  0.1272236E+00
          2   -1    0    0  502    0  0.00000000000E+00  0.00000000000E+00  0.47614097254E+04  0.47614097254E+04  0.00000000000E+00 0. -1.
          2   -1    0    0  503    0 -0.00000000000E+00 -0.00000000000E+00 -0.18459260149E+04  0.18459260149E+04  0.00000000000E+00 0. -1.
         24    2    1    2    0    0 -0.24541856756E+03  0.11934208674E+04  0.23948855210E+04  0.26878327925E+04  0.66968809219E+02 0.  0.
         25    2    1    2    0    0 -0.44451180633E+03 -0.77691082942E+03  0.24913611169E+03  0.93748295400E+03  0.12499721620E+03 0.  0.
         24    2    1    2    0    0  0.55045698282E+03 -0.24488453446E+03 -0.47715803125E+03  0.77275869866E+03  0.80652925667E+02 0.  0.
        -11    1    3    3    0    0 -0.12600606102E+03  0.62555721743E+03  0.11806619713E+04  0.13420737871E+04  0.00000000000E+00 0.  1.
         12    1    3    3    0    0 -0.11941250654E+03  0.56786364994E+03  0.12142235498E+04  0.13457590053E+04  0.00000000000E+00 0. -1.
        -13    1    5    5    0    0  0.20706613682E+03 -0.13518450420E+03 -0.19991903228E+03  0.31799190974E+03  0.00000000000E+00 0.  1.
         14    1    5    5    0    0  0.34339084600E+03 -0.10970003026E+03 -0.27723899897E+03  0.45476678892E+03  0.00000000000E+00 0. -1.
          5    1    4    4  501    0 -0.39420968809E+03 -0.59874853954E+03  0.17446568134E+03  0.73780854952E+03  0.47000000000E+01 0. -1.
         -5    1    4    4    0  501 -0.50302118243E+02 -0.17816228988E+03  0.74670430348E+02  0.19967440448E+03  0.47000000000E+01 0. -1.
          1    1    1    2  502    0  0.79909285127E+02 -0.14645817414E+03  0.14727901993E+04  0.14822099924E+04  0.00000000000E+00 0. -1.
          1    1    1    2  503    0  0.59564105948E+02 -0.25167329352E+02 -0.72417009027E+03  0.72705130275E+03  0.00000000000E+00 0. -1.
<mgrwt>
<rscale>  0 0.10393310E+03</rscale>
<asrwt>0</asrwt>
<pdfrwt beam="1">  1        2 0.70020731E+00 0.16705262E+03</pdfrwt>
<pdfrwt beam="2">  1        2 0.27145971E+00 0.64662796E+02</pdfrwt>
<totfact> 0.30180960E-01</totfact>
</mgrwt>
</event>
<event>
13    1  0.1675423E-008  0.9177834E+02  0.7546771E-02  0.1381192E+00
          2   -1    0    0  502    0  0.00000000000E+00  0.00000000000E+00  0.41047204024E+04  0.41047204024E+04  0.00000000000E+00 0. -1.
          2   -1    0    0  503    0 -0.00000000000E+00 -0.00000000000E+00 -0.19012238343E+04  0.19012238343E+04  0.00000000000E+00 0. -1.
         24    2    1    2    0    0 -0.49430616390E+02  0.54006821341E+03  0.59328210251E+03  0.81123385679E+03  0.10954294262E+03 0.  0.
         25    2    1    2    0    0  0.33685614046E+03 -0.20008369701E+03 -0.88124542497E+03  0.97248341780E+03  0.12499981478E+03 0.  0.
         24    2    1    2    0    0 -0.25720357800E+03 -0.37932598840E+03  0.14603216040E+03  0.48664583795E+03  0.73870790650E+02 0.  0.
        -11    1    5    5    0    0 -0.20649268355E+02 -0.55739628541E+02  0.41226128636E+02  0.72338732059E+02  0.00000000000E+00 0.  1.
         12    1    5    5    0    0 -0.23655430964E+03 -0.32358635985E+03  0.10480603177E+03  0.41430710589E+03  0.00000000000E+00 0. -1.
        -13    1    3    3    0    0  0.51666307377E+01  0.41198625586E+03  0.47253515213E+03  0.62693607257E+03  0.00000000000E+00 0.  1.
         14    1    3    3    0    0 -0.54597247128E+02  0.12808195755E+03  0.12074695038E+03  0.18429778423E+03  0.00000000000E+00 0. -1.
          5    1    4    4  501    0  0.72490348145E+02 -0.99301391670E+02 -0.34285281716E+03  0.36426056772E+03  0.47000000000E+01 0. -1.
         -5    1    4    4    0  501  0.26436579232E+03 -0.10078230534E+03 -0.53839260781E+03  0.60822285008E+03  0.47000000000E+01 0. -1.
          1    1    1    2  502    0 -0.38240423943E+02  0.83459660103E+02  0.30390873786E+04  0.30404736373E+04  0.00000000000E+00 0. -1.
          1    1    1    2  503    0  0.80184778655E+01 -0.44118188106E+02 -0.69365964839E+03  0.69510748688E+03  0.00000000000E+00 0. -1.
<mgrwt>
<rscale>  0 0.64151599E+02</rscale>
<asrwt>0</asrwt>
<pdfrwt beam="1">  1        2 0.60363536E+00 0.91778341E+02</pdfrwt>
<pdfrwt beam="2">  1        2 0.27959174E+00 0.44840947E+02</pdfrwt>
<totfact> 0.11039500E+00</totfact>
</mgrwt>
</event>
<event>
13    1  0.1675423E-008  0.1618741E+03  0.7546771E-02  0.1312260E+00
          2   -1    0    0  503    0  0.00000000000E+00  0.00000000000E+00  0.13044887864E+04  0.13044887864E+04  0.00000000000E+00 0. -1.
          2   -1    0    0  502    0 -0.00000000000E+00 -0.00000000000E+00 -0.23184936714E+04  0.23184936714E+04  0.00000000000E+00 0. -1.
         24    2    1    2    0    0  0.71257603471E+02 -0.16294318932E+03  0.76900432885E+03  0.79334525597E+03  0.80005677161E+02 0.  0.
         25    2    1    2    0    0 -0.21476284087E+03  0.13839906218E+03 -0.36800461634E+03  0.46511100256E+03  0.12499387514E+03 0.  0.
         24    2    1    2    0    0  0.19558691981E+03  0.13122127415E+03 -0.14637381841E+02  0.24921844929E+03  0.80139356937E+02 0.  0.
        -13    1    5    5    0    0  0.12579212380E+02 -0.10450095981E+02  0.45889348263E+01  0.16985270470E+02  0.00000000000E+00 0.  1.
         14    1    5    5    0    0  0.18300770743E+03  0.14167137013E+03 -0.19226316667E+02  0.23223317882E+03  0.00000000000E+00 0. -1.
        -13    1    3    3    0    0  0.15912025325E+01 -0.57352981203E+01  0.17116411814E+03  0.17126757110E+03  0.00000000000E+00 0.  1.
         14    1    3    3    0    0  0.69666400938E+02 -0.15720789120E+03  0.59784021071E+03  0.62207768487E+03  0.00000000000E+00 0. -1.
          5    1    4    4  501    0 -0.16492096585E+03  0.15155531574E+03 -0.24680651422E+03  0.33332189272E+03  0.47000000000E+01 0.  1.
         -5    1    4    4    0  501 -0.49841875012E+02 -0.13156253563E+02 -0.12119810212E+03  0.13178910983E+03  0.47000000000E+01 0.  1.
          1    1    1    2  502    0  0.30855378786E+02  0.34020939519E+02 -0.17388633602E+04  0.17394698227E+04  0.00000000000E+00 0. -1.
          1    1    1    2  503    0 -0.82937061199E+02 -0.14069808653E+03  0.33849614454E+03  0.37583792722E+03  0.00000000000E+00 0. -1.
<mgrwt>
<rscale>  0 0.86224846E+02</rscale>
<asrwt>0</asrwt>
<pdfrwt beam="1">  1        2 0.19183659E+00 0.16187407E+03</pdfrwt>
<pdfrwt beam="2">  1        2 0.34095495E+00 0.45929062E+02</pdfrwt>
<totfact> 0.21493649E+01</totfact>
</mgrwt>
</event>
<event>
13    1  0.1675423E-008  0.2051998E+03  0.7546771E-02  0.1225993E+00
          2   -1    0    0  503    0  0.00000000000E+00  0.00000000000E+00  0.18578045494E+04  0.18578045494E+04  0.00000000000E+00 0. -1.
          2   -1    0    0  502    0 -0.00000000000E+00 -0.00000000000E+00 -0.14390764116E+04  0.14390764116E+04  0.00000000000E+00 0. -1.
         24    2    1    2    0    0  0.27524463201E+02 -0.84693265661E+02  0.72822745251E+02  0.14216916467E+03  0.83536661624E+02 0.  0.
         25    2    1    2    0    0  0.66400424255E+02 -0.89280076128E+02 -0.23424420284E+03  0.28788243711E+03  0.12500401072E+03 0.  0.
         24    2    1    2    0    0  0.58658176743E+02 -0.11455507912E+02 -0.32521399636E+02  0.10591481093E+03  0.81168315121E+02 0.  0.
        -13    1    3    3    0    0  0.33740189581E+02 -0.10000475797E+03  0.64096237090E+02  0.12348149505E+03  0.00000000000E+00 0.  1.
         14    1    3    3    0    0 -0.62157263792E+01  0.15311492314E+02  0.87265081613E+01  0.18687669624E+02  0.00000000000E+00 0. -1.
        -13    1    5    5    0    0  0.78754759092E+02 -0.13112233576E+02 -0.20462487786E+02  0.82419391865E+02  0.00000000000E+00 0.  1.
         14    1    5    5    0    0 -0.20096582349E+02  0.16567256636E+01 -0.12058911850E+02  0.23495419065E+02  0.00000000000E+00 0. -1.
          5    1    4    4  501    0  0.63428485171E+02 -0.11893978256E+03 -0.17085723592E+03  0.21767896011E+03  0.47000000000E+01 0. -1.
         -5    1    4    4    0  501  0.29719390839E+01  0.29659706432E+02 -0.63386966919E+02  0.70203476999E+02  0.47000000000E+01 0. -1.
          1    1    1    2  502    0 -0.10971013234E+03 -0.17852088724E+02 -0.10648209845E+04  0.10706067155E+04  0.00000000000E+00 0. -1.
          1    1    1    2  503    0 -0.42872931858E+02  0.20328093843E+03  0.16774919796E+04  0.16903078328E+04  0.00000000000E+00 0. -1.
<mgrwt>
<rscale>  0 0.13099108E+03</rscale>
<asrwt>0</asrwt>
<pdfrwt beam="1">  1        2 0.27320655E+00 0.20519977E+03</pdfrwt>
<pdfrwt beam="2">  1        2 0.21162888E+00 0.83619309E+02</pdfrwt>
<totfact> 0.27198370E+01</totfact>
</mgrwt>
</event>
<event>
13    1  0.1675423E-008  0.1488546E+03  0.7546771E-02  0.1236597E+00
          2   -1    0    0  502    0  0.00000000000E+00  0.00000000000E+00  0.23518212963E+04  0.23518212963E+04  0.00000000000E+00 0. -1.
          2   -1    0    0  503    0 -0.00000000000E+00 -0.00000000000E+00 -0.29226103710E+04  0.29226103710E+04  0.00000000000E+00 0. -1.
         24    2    1    2    0    0  0.26903499546E+02  0.70690845855E+02  0.37659385929E+02  0.12787238660E+03  0.95979810010E+02 0.  0.
         25    2    1    2    0    0  0.57286457895E+02 -0.12515009513E+03  0.44282012750E+03  0.48027235033E+03  0.12501032196E+03 0.  0.
         24    2    1    2    0    0 -0.40900592163E+02 -0.11486556382E+03 -0.12734122797E+03  0.19552584515E+03  0.84543548484E+02 0.  0.
        -11    1    5    5    0    0  0.18321649634E+01 -0.17596783236E+02 -0.75060485885E+02  0.77117314204E+02  0.00000000000E+00 0.  1.
         12    1    5    5    0    0 -0.42732757126E+02 -0.97268780585E+02 -0.52280742080E+02  0.11840853095E+03  0.00000000000E+00 0. -1.
        -13    1    3    3    0    0  0.49408206008E+02  0.13100309259E+02 -0.70093092060E+01  0.51593791672E+02  0.00000000000E+00 0.  1.
         14    1    3    3    0    0 -0.22504706462E+02  0.57590536597E+02  0.44668695135E+02  0.76278594924E+02  0.00000000000E+00 0. -1.
          5    1    4    4  501    0  0.23770904479E+02 -0.11057107555E+03  0.42408734109E+03  0.43893414258E+03  0.47000000000E+01 0.  1.
         -5    1    4    4    0  501  0.33515553417E+02 -0.14579019582E+02  0.18732786408E+02  0.41338207743E+02  0.47000000000E+01 0.  1.
          1    1    1    2  502    0 -0.99037967866E+02  0.29510612179E+02  0.17698085842E+04  0.17728231215E+04  0.00000000000E+00 0. -1.
          1    1    1    2  503    0  0.55748602588E+02  0.13981420092E+03 -0.26937359445E+04  0.26979379637E+04  0.00000000000E+00 0. -1.
<mgrwt>
<rscale>  0 0.12402743E+03</rscale>
<asrwt>0</asrwt>
<pdfrwt beam="1">  1        2 0.34585607E+00 0.10334116E+03</pdfrwt>
<pdfrwt beam="2">  1        2 0.42979564E+00 0.14885456E+03</pdfrwt>
<totfact> 0.28786355E+00</totfact>
</mgrwt>
</event>
<event>
13    1  0.1675423E-008  0.1997789E+03  0.7546771E-02  0.1301945E+00
          2   -1    0    0  502    0  0.00000000000E+00  0.00000000000E+00  0.23004482308E+04  0.23004482308E+04  0.00000000000E+00 0. -1.
          2   -1    0    0  503    0 -0.00000000000E+00 -0.00000000000E+00 -0.26002416943E+04  0.26002416943E+04  0.00000000000E+00 0. -1.
         24    2    1    2    0    0  0.73801713474E+03 -0.13519088233E+04 -0.63984173373E+02  0.15449877775E+04  0.10279348426E+03 0.  0.
         25    2    1    2    0    0  0.38776826550E+02  0.85374338082E+03  0.17957238793E+03  0.88218616737E+03  0.12499915530E+03 0.  0.
         24    2    1    2    0    0 -0.63505664468E+03  0.37625340232E+03 -0.14124393055E+03  0.75613031620E+03  0.83184388208E+02 0.  0.
        -11    1    5    5    0    0 -0.55468903188E+03  0.35836203957E+03 -0.12956170687E+03  0.67297066012E+03  0.00000000000E+00 0.  1.
         12    1    5    5    0    0 -0.80367612808E+02  0.17891362746E+02 -0.11682223676E+02  0.83159656080E+02  0.00000000000E+00 0. -1.
        -13    1    3    3    0    0  0.50311397207E+03 -0.99857791945E+03 -0.73702103869E+02  0.11205862440E+04  0.00000000000E+00 0.  1.
         14    1    3    3    0    0  0.23490316268E+03 -0.35333090387E+03  0.97179304963E+01  0.42440153350E+03  0.00000000000E+00 0. -1.
          5    1    4    4  501    0  0.14940248531E+02  0.37589858671E+03  0.14243708690E+03  0.40228518770E+03  0.47000000000E+01 0.  1.
         -5    1    4    4    0  501  0.23836578019E+02  0.47784479411E+03  0.37135301027E+02  0.47990097967E+03  0.47000000000E+01 0.  1.
          1    1    1    2  502    0  0.32772131726E+02  0.24443343144E+02  0.71099986149E+03  0.71217434150E+03  0.00000000000E+00 0. -1.
          1    1    1    2  503    0 -0.17450944834E+03  0.97468697045E+02 -0.98513760901E+03  0.10052113226E+04  0.00000000000E+00 0. -1.
<mgrwt>
<rscale>  0 0.90375503E+02</rscale>
<asrwt>0</asrwt>
<pdfrwt beam="1">  1        2 0.33830121E+00 0.40883856E+02</pdfrwt>
<pdfrwt beam="2">  1        2 0.38238849E+00 0.19977889E+03</pdfrwt>
<totfact> 0.48681677E+00</totfact>
</mgrwt>
</event>
<event>
13    1  0.1675423E-008  0.6980275E+02  0.7546771E-02  0.1409262E+00
          2   -1    0    0  503    0  0.00000000000E+00  0.00000000000E+00  0.46439603602E+04  0.46439603602E+04  0.00000000000E+00 0. -1.
         -1   -1    0    0    0  501 -0.00000000000E+00 -0.00000000000E+00 -0.49509076281E+03  0.49509076281E+03  0.00000000000E+00 0.  1.
         24    2    1    2    0    0 -0.31587782831E+03  0.59331521977E+02  0.20710586525E+04  0.20974688496E+04  0.82417238491E+02 0.  0.
         25    2    1    2    0    0  0.40887682286E+03  0.11975061351E+02  0.54531799853E+03  0.69305251288E+03  0.12500563075E+03 0.  0.
         24    2    1    2    0    0 -0.73492691349E+02 -0.10125726583E+03  0.10757495198E+03  0.17975802421E+03  0.71318773186E+02 0.  0.
        -13    1    5    5    0    0  0.23079422357E+01 -0.54844745937E+02  0.36059364033E+02  0.65677625480E+02  0.00000000000E+00 0.  1.
         14    1    5    5    0    0 -0.75800633585E+02 -0.46412519895E+02  0.71515587945E+02  0.11408039873E+03  0.00000000000E+00 0. -1.
        -13    1    3    3    0    0 -0.27995696254E+03  0.72369715042E+02  0.16965632800E+04  0.17210288317E+04  0.00000000000E+00 0.  1.
         14    1    3    3    0    0 -0.35920865765E+02 -0.13038193066E+02  0.37449537252E+03  0.37644001795E+03  0.00000000000E+00 0. -1.
          5    1    4    4  502    0  0.32097207446E+02 -0.12203644572E+02  0.11719221143E+03  0.12220991812E+03  0.47000000000E+01 0. -1.
         -5    1    4    4    0  502  0.37677961541E+03  0.24178705922E+02  0.42812578710E+03  0.57084259476E+03  0.47000000000E+01 0. -1.
          1    1    1    2  503    0 -0.25494895033E+02 -0.39642871203E+02  0.17932528497E+04  0.17938721609E+04  0.00000000000E+00 0. -1.
         -2    1    1    2    0  501  0.59885918274E+01  0.69593553708E+02 -0.36833485531E+03  0.37489957533E+03  0.00000000000E+00 0.  1.
<mgrwt>
<rscale>  0 0.57358809E+02</rscale>
<asrwt>0</asrwt>
<pdfrwt beam="1">  1        2 0.68293532E+00 0.47133289E+02</pdfrwt>
<pdfrwt beam="2">  1       -1 0.72807468E-01 0.69802746E+02</pdfrwt>
<totfact> 0.70141014E-01</totfact>
</mgrwt>
</event>
<event>
13    1  0.1675423E-008  0.5295294E+02  0.7546771E-02  0.1493025E+00
          2   -1    0    0  502    0  0.00000000000E+00  0.00000000000E+00  0.19121160214E+04  0.19121160214E+04  0.00000000000E+00 0. -1.
          4   -1    0    0  503    0 -0.00000000000E+00 -0.00000000000E+00 -0.23481265723E+03  0.23481265723E+03  0.00000000000E+00 0. -1.
         24    2    1    2    0    0 -0.41300467748E+02 -0.36613379813E+02  0.60731184319E+03  0.61562509254E+03  0.84381938016E+02 0.  0.
         25    2    1    2    0    0  0.70094956645E+02  0.16222540037E+03 -0.61828404575E+02  0.22511954158E+03  0.12500269164E+03 0.  0.
         24    2    1    2    0    0 -0.32072262011E+02 -0.95978432062E+02  0.48673314411E+03  0.50406284025E+03  0.83244843308E+02 0.  0.
        -11    1    3    3    0    0 -0.63410915305E+02 -0.93221635550E+01  0.44203006013E+03  0.44665246106E+03  0.00000000000E+00 0.  1.
         12    1    3    3    0    0  0.22110447558E+02 -0.27291216258E+02  0.16528178306E+03  0.16897263148E+03  0.00000000000E+00 0. -1.
        -13    1    5    5    0    0 -0.93635949472E+01 -0.84298927574E+02  0.45728648425E+03  0.46508592194E+03  0.00000000000E+00 0.  1.
         14    1    5    5    0    0 -0.22708667064E+02 -0.11679504488E+02  0.29446659854E+02  0.38976918317E+02  0.00000000000E+00 0. -1.
          5    1    4    4  501    0  0.17134396054E+02 -0.15201685822E+02  0.11316758547E+02  0.25977640462E+02  0.47000000000E+01 0.  1.
         -5    1    4    4    0  501  0.52960560591E+02  0.17742708620E+03 -0.73145163122E+02  0.19914190112E+03  0.47000000000E+01 0.  1.
          1    1    1    2  502    0  0.35249815485E+02 -0.39755321028E+02  0.71899753292E+03  0.72095803442E+03  0.00000000000E+00 0. -1.
          3    1    1    2  503    0 -0.31972042372E+02  0.10121732530E+02 -0.73910751450E+02  0.81163169866E+02  0.00000000000E+00 0. -1.
<mgrwt>
<rscale>  0 0.42140575E+02</rscale>
<asrwt>0</asrwt>
<pdfrwt beam="1">  1        2 0.28119352E+00 0.52952943E+02</pdfrwt>
<pdfrwt beam="2">  1        4 0.34531274E-01 0.33535965E+02</pdfrwt>
<totfact> 0.38116841E+01</totfact>
</mgrwt>
</event>
<event>
13    1  0.1675423E-008  0.8001967E+02  0.7546771E-02  0.1349140E+00
          2   -1    0    0  502    0  0.00000000000E+00  0.00000000000E+00  0.11649290636E+04  0.11649290636E+04  0.00000000000E+00 0. -1.
          2   -1    0    0  503    0 -0.00000000000E+00 -0.00000000000E+00 -0.12544337847E+04  0.12544337847E+04  0.00000000000E+00 0. -1.
         24    2    1    2    0    0  0.24641621105E+02  0.46665982593E+02  0.96811255735E+03  0.97285371897E+03  0.80109371429E+02 0.  0.
         25    2    1    2    0    0  0.11356854553E+03  0.36984160420E+02 -0.32224252317E+03  0.36569516908E+03  0.12500828089E+03 0.  0.
         24    2    1    2    0    0 -0.60956385702E+02 -0.42306746664E+02 -0.25096848434E+03  0.27393185773E+03  0.80919347353E+02 0.  0.
        -13    1    5    5    0    0 -0.47454295906E+02  0.15312733779E+02 -0.13077216197E+03  0.13995623731E+03  0.00000000000E+00 0.  1.
         14    1    5    5    0    0 -0.13502089796E+02 -0.57619480443E+02 -0.12019632237E+03  0.13397562042E+03  0.00000000000E+00 0. -1.
        -13    1    3    3    0    0 -0.12697905169E+02 -0.17327560457E+02  0.25462368641E+03  0.25552828185E+03  0.00000000000E+00 0.  1.
         14    1    3    3    0    0  0.37339526274E+02  0.63993543050E+02  0.71348887094E+03  0.71732543711E+03  0.00000000000E+00 0. -1.
          5    1    4    4  501    0  0.12070455759E+03  0.15510046764E+02 -0.15627672173E+03  0.19812787670E+03  0.47000000000E+01 0.  1.
         -5    1    4    4    0  501 -0.71360120586E+01  0.21474113657E+02 -0.16596580144E+03  0.16756729237E+03  0.47000000000E+01 0.  1.
          1    1    1    2  502    0 -0.45833036438E+02 -0.10073302165E+03  0.14023144690E+03  0.17864116989E+03  0.00000000000E+00 0. -1.
          1    1    1    2  503    0 -0.31420744492E+02  0.59389625305E+02 -0.62463771788E+03  0.62824093259E+03  0.00000000000E+00 0. -1.
<mgrwt>
<rscale>  0 0.73324340E+02</rscale>
<asrwt>0</asrwt>
<pdfrwt beam="1">  1        2 0.17131310E+00 0.80019669E+02</pdfrwt>
<pdfrwt beam="2">  1        2 0.18447556E+00 0.67189216E+02</pdfrwt>
<totfact> 0.82136993E+01</totfact>
</mgrwt>
</event>
<event>
13    1  0.1675423E-008  0.1330201E+03  0.7546771E-02  0.1253783E+00
          2   -1    0    0  502    0  0.00000000000E+00  0.00000000000E+00  0.19568735439E+04  0.19568735439E+04  0.00000000000E+00 0. -1.
          2   -1    0    0  503    0 -0.00000000000E+00 -0.00000000000E+00 -0.63014905637E+03  0.63014905637E+03  0.00000000000E+00 0. -1.
         24    2    1    2    0    0 -0.14687729700E+02  0.88279215886E+02  0.45209300502E+03  0.46770495121E+03  0.79692451576E+02 0.  0.
         25    2    1    2    0    0  0.48274227956E+02  0.19903035886E+03  0.13898822636E+03  0.27728387297E+03  0.12500053725E+03 0.  0.
         24    2    1    2    0    0  0.71271196028E+02 -0.85294979546E+02 -0.30766209504E+03  0.33726927175E+03  0.82096163245E+02 0.  0.
        -11    1    5    5    0    0  0.29058694321E+02 -0.47484179020E+02 -0.54734324967E+02  0.78070489319E+02  0.00000000000E+00 0.  1.
         12    1    5    5    0    0  0.42212501707E+02 -0.37810800525E+02 -0.25292777007E+03  0.25919878243E+03  0.00000000000E+00 0. -1.
        -13    1    3    3    0    0 -0.27825540465E+02  0.50884419733E+02  0.38825989101E+03  0.39256748190E+03  0.00000000000E+00 0.  1.
         14    1    3    3    0    0  0.13137810765E+02  0.37394796154E+02  0.63833114007E+02  0.75137469314E+02  0.00000000000E+00 0. -1.
          5    1    4    4  501    0 -0.34047419154E+02  0.94532642414E+02  0.29205139554E+02  0.10474100157E+03  0.47000000000E+01 0.  1.
         -5    1    4    4    0  501  0.82321647110E+02  0.10449771645E+03  0.10978308680E+03  0.17254287141E+03  0.47000000000E+01 0.  1.
          1    1    1    2  502    0 -0.38240764213E+02 -0.89435428106E+02  0.12534570532E+04  0.12572253720E+04  0.00000000000E+00 0. -1.
          1    1    1    2  503    0 -0.66616930071E+02 -0.11257916709E+03 -0.21015170193E+03  0.24753913238E+03  0.00000000000E+00 0. -1.
<mgrwt>
<rscale>  0 0.11374795E+03</rscale>
<asrwt>0</asrwt>
<pdfrwt beam="1">  1        2 0.28777552E+00 0.97267938E+02</pdfrwt>
<pdfrwt beam="2">  1        2 0.92668979E-01 0.13302015E+03</pdfrwt>
<totfact> 0.76597650E+01</totfact>
</mgrwt>
</event>
<event>
13    1  0.1675423E-008  0.1214090E+03  0.7546771E-02  0.1365783E+00
          2   -1    0    0  502    0  0.00000000000E+00  0.00000000000E+00  0.12781589216E+04  0.12781589216E+04  0.00000000000E+00 0. -1.
          2   -1    0    0  503    0 -0.00000000000E+00 -0.00000000000E+00 -0.18201883343E+04  0.18201883343E+04  0.00000000000E+00 0. -1.
         24    2    1    2    0    0 -0.19592473212E+03 -0.36042897116E+03 -0.93663003933E+02  0.42840869033E+03  0.80409599765E+02 0.  0.
         25    2    1    2    0    0  0.22067012169E+01  0.17802238961E+03 -0.55632966987E+03  0.59734834550E+03  0.12500201427E+03 0.  0.
         24    2    1    2    0    0  0.87630954887E+02  0.85348170822E+02  0.24010873862E+02  0.14852902064E+03  0.80751801171E+02 0.  0.
        -11    1    5    5    0    0  0.47687328829E+01  0.38680161622E+01  0.31484095475E+02  0.32077260329E+02  0.00000000000E+00 0.  1.
         12    1    5    5    0    0  0.82862222004E+02  0.81480154660E+02 -0.74732216130E+01  0.11645176031E+03  0.00000000000E+00 0. -1.
        -13    1    3    3    0    0 -0.54997958482E+02 -0.11894219035E+03  0.70282079545E+01  0.13123039202E+03  0.00000000000E+00 0.  1.
         14    1    3    3    0    0 -0.14092677364E+03 -0.24148678082E+03 -0.10069121189E+03  0.29717829831E+03  0.00000000000E+00 0. -1.
          5    1    4    4  501    0 -0.48622823884E+02  0.14573346847E+03 -0.44333164981E+03  0.46922005984E+03  0.47000000000E+01 0.  1.
         -5    1    4    4    0  501  0.50829525101E+02  0.32288921135E+02 -0.11299802006E+03  0.12812828566E+03  0.47000000000E+01 0.  1.
          1    1    1    2  502    0  0.49497788868E-01  0.38483207062E+02  0.99964741267E+03  0.10003878794E+04  0.00000000000E+00 0. -1.
          1    1    1    2  503    0  0.10603757823E+03  0.58575203671E+02 -0.91569502539E+03  0.92367331996E+03  0.00000000000E+00 0. -1.
<mgrwt>
<rscale>  0 0.68353568E+02</rscale>
<asrwt>0</asrwt>
<pdfrwt beam="1">  1        2 0.18796455E+00 0.38483239E+02</pdfrwt>
<pdfrwt beam="2">  1        2 0.26767476E+00 0.12140896E+03</pdfrwt>
<totfact> 0.37822787E+01</totfact>
</mgrwt>
</event>
<event>
13    1  0.1675423E-008  0.1639723E+03  0.7546771E-02  0.1229971E+00
          2   -1    0    0  502    0  0.00000000000E+00  0.00000000000E+00  0.12720556828E+04  0.12720556828E+04  0.00000000000E+00 0. -1.
          2   -1    0    0  503    0 -0.00000000000E+00 -0.00000000000E+00 -0.19129480916E+04  0.19129480916E+04  0.00000000000E+00 0. -1.
         24    2    1    2    0    0  0.35650302195E+02  0.32165624629E+02  0.29283909847E+03  0.31016845840E+03  0.90245019479E+02 0.  0.
         25    2    1    2    0    0  0.11281124778E+03 -0.42906270043E+02 -0.29063400524E+03  0.33861532742E+03  0.12499955731E+03 0.  0.
         24    2    1    2    0    0 -0.18863297219E+03  0.20371149724E+03  0.76138538055E+03  0.81415062807E+03  0.77799583329E+02 0.  0.
        -11    1    5    5    0    0 -0.12873114532E+03  0.98803846100E+02  0.51095399681E+03  0.53610436917E+03  0.00000000000E+00 0.  1.
         12    1    5    5    0    0 -0.59901826873E+02  0.10490765114E+03  0.25043138374E+03  0.27804625890E+03  0.00000000000E+00 0. -1.
        -13    1    3    3    0    0 -0.10160253001E+01  0.41827940031E+02  0.53870515241E+02  0.68210272591E+02  0.00000000000E+00 0.  1.
         14    1    3    3    0    0  0.36666327495E+02 -0.96623154013E+01  0.23896858322E+03  0.24195818581E+03  0.00000000000E+00 0. -1.
          5    1    4    4  501    0  0.12359934712E+03  0.12593831385E+01 -0.17523373499E+03  0.21449320860E+03  0.47000000000E+01 0. -1.
         -5    1    4    4    0  501 -0.10788099343E+02 -0.44165653182E+02 -0.11540027025E+03  0.12412211883E+03  0.47000000000E+01 0. -1.
          1    1    1    2  502    0 -0.74494729844E+02 -0.75789452144E+02  0.13616280416E+03  0.17272467996E+03  0.00000000000E+00 0. -1.
          1    1    1    2  503    0  0.11466615206E+03 -0.11718139968E+03 -0.15406456868E+04  0.15493446805E+04  0.00000000000E+00 0. -1.
<mgrwt>
<rscale>  0 0.12831931E+03</rscale>
<asrwt>0</asrwt>
<pdfrwt beam="1">  1        2 0.18706701E+00 0.10041846E+03</pdfrwt>
<pdfrwt beam="2">  1        2 0.28131589E+00 0.16397230E+03</pdfrwt>
<totfact> 0.31281120E+01</totfact>
</mgrwt>
</event>
<event>
13    1  0.2770545E-008  0.5066243E+02  0.7546771E-02  0.1486773E+00
          2   -1    0    0  503    0  0.00000000000E+00  0.00000000000E+00  0.34371805568E+04  0.34371805568E+04  0.00000000000E+00 0. -1.
          2   -1    0    0  502    0 -0.00000000000E+00 -0.00000000000E+00 -0.19050388244E+04  0.19050388244E+04  0.00000000000E+00 0. -1.
         24    2    1    2    0    0 -0.35950602991E+03 -0.51521775521E+02  0.12374801846E+04  0.12920452235E+04  0.78259653987E+02 0.  0.
         25    2    1    2    0    0  0.57469097705E+03  0.27652037854E+03  0.96921275436E+03  0.11669326518E+04  0.12500084673E+03 0.  0.
         24    2    1    2    0    0 -0.16902583674E+03 -0.22847222802E+03 -0.11937556494E+04  0.12293482732E+04  0.73995500109E+02 0.  0.
        -13    1    5    5    0    0 -0.15261698524E+03 -0.16553348041E+03 -0.99752794977E+03  0.10226217717E+04  0.00000000000E+00 0.  1.
         14    1    5    5    0    0 -0.16408851503E+02 -0.62938747612E+02 -0.19622769959E+03  0.20672650156E+03  0.00000000000E+00 0. -1.
        -13    1    3    3    0    0 -0.75759339792E+02 -0.35406701933E+02  0.21158528343E+03  0.22751141569E+03  0.00000000000E+00 0.  1.
         14    1    3    3    0    0 -0.28374669012E+03 -0.16115073588E+02  0.10258949012E+04  0.10645338078E+04  0.00000000000E+00 0. -1.
          5    1    4    4  501    0  0.25228523600E+03  0.14861894604E+03  0.34249971384E+03  0.45062575982E+03  0.47000000000E+01 0. -1.
         -5    1    4    4    0  501  0.32240574105E+03  0.12790143250E+03  0.62671304052E+03  0.71630689195E+03  0.47000000000E+01 0. -1.
          1    1    1    2  502    0 -0.38941347162E+02 -0.32420708601E+02 -0.56590364559E+03  0.56816763984E+03  0.00000000000E+00 0. -1.
          1    1    1    2  503    0 -0.72177632376E+01  0.35894333602E+02  0.10851080884E+04  0.10857255928E+04  0.00000000000E+00 0. -1.
<mgrwt>
<rscale>  0 0.43068490E+02</rscale>
<asrwt>0</asrwt>
<pdfrwt beam="1">  1        2 0.50546773E+00 0.36612830E+02</pdfrwt>
<pdfrwt beam="2">  1        2 0.28015277E+00 0.50662427E+02</pdfrwt>
<totfact> 0.34025713E+00</totfact>
</mgrwt>
</event>
<event>
13    1  0.1675423E-008  0.2588847E+03  0.7546771E-02  0.1237825E+00
          2   -1    0    0  503    0  0.00000000000E+00  0.00000000000E+00  0.10673049404E+04  0.10673049404E+04  0.00000000000E+00 0. -1.
          2   -1    0    0  502    0 -0.00000000000E+00 -0.00000000000E+00 -0.18279356760E+04  0.18279356760E+04  0.00000000000E+00 0. -1.
         24    2    1    2    0    0 -0.28382176518E+02  0.16607628582E+03  0.21299266280E+03  0.28390686764E+03  0.82766867979E+02 0.  0.
         25    2    1    2    0    0 -0.86000158940E+02 -0.34964452509E+03 -0.19212695724E+03  0.42684842711E+03  0.12505794964E+03 0.  0.
         24    2    1    2    0    0  0.47895547798E+01 -0.10147139768E+03 -0.15575205598E+03  0.20288857210E+03  0.81152235727E+02 0.  0.
        -13    1    5    5    0    0 -0.34870144271E+02 -0.35230137729E+02 -0.39730150679E+02  0.63526171291E+02  0.00000000000E+00 0.  1.
         14    1    5    5    0    0  0.39659699051E+02 -0.66241259952E+02 -0.11602190530E+03  0.13936240081E+03  0.00000000000E+00 0. -1.
        -13    1    3    3    0    0 -0.40679547816E+02  0.15377559852E+03  0.15028539647E+03  0.21883203765E+03  0.00000000000E+00 0.  1.
         14    1    3    3    0    0  0.12297371297E+02  0.12300687304E+02  0.62707266323E+02  0.65074829993E+02  0.00000000000E+00 0. -1.
          5    1    4    4  501    0 -0.97098432501E+02 -0.31957450497E+03 -0.13321506990E+03  0.35961689986E+03  0.47000000000E+01 0.  1.
         -5    1    4    4    0  501  0.11098273561E+02 -0.30070020121E+02 -0.58911887340E+02  0.67231527248E+02  0.47000000000E+01 0.  1.
          1    1    1    2  502    0  0.65181465591E+01  0.58316537233E+02 -0.12801016752E+04  0.12814459035E+04  0.00000000000E+00 0. -1.
          1    1    1    2  503    0  0.10307463412E+03  0.22672309971E+03  0.65435729001E+03  0.70015084599E+03  0.00000000000E+00 0. -1.
<mgrwt>
<rscale>  0 0.12325288E+03</rscale>
<asrwt>0</asrwt>
<pdfrwt beam="1">  1        2 0.15695661E+00 0.25888473E+03</pdfrwt>
<pdfrwt beam="2">  1        2 0.26881407E+00 0.58679679E+02</pdfrwt>
<totfact> 0.46639948E+01</totfact>
</mgrwt>
</event>
<event>
13    1  0.1675423E-008  0.1633947E+03  0.7546771E-02  0.1336794E+00
          2   -1    0    0  503    0  0.00000000000E+00  0.00000000000E+00  0.37209710093E+04  0.37209710093E+04  0.00000000000E+00 0. -1.
          2   -1    0    0  502    0 -0.00000000000E+00 -0.00000000000E+00 -0.38370339873E+03  0.38370339873E+03  0.00000000000E+00 0. -1.
         24    2    1    2    0    0  0.20516541921E+03  0.29320970644E+02  0.62259089588E+03  0.66013433670E+03  0.72148113607E+02 0.  0.
         25    2    1    2    0    0 -0.14081377198E+03 -0.18701367517E+03  0.17125095468E+02  0.26593653794E+03  0.12500536084E+03 0.  0.
         24    2    1    2    0    0  0.10350845400E+03  0.16884731362E+03  0.20240006748E+03  0.29257894399E+03  0.73574695287E+02 0.  0.
        -11    1    5    5    0    0  0.36273689807E+02  0.11492838883E+03  0.14715755539E+03  0.19020951932E+03  0.00000000000E+00 0.  1.
         12    1    5    5    0    0  0.67234764189E+02  0.53918924794E+02  0.55242512089E+02  0.10236942468E+03  0.00000000000E+00 0. -1.
        -13    1    3    3    0    0  0.11659536408E+03 -0.40639008748E+01  0.25280508691E+03  0.27842666213E+03  0.00000000000E+00 0.  1.
         14    1    3    3    0    0  0.88570055134E+02  0.33384871518E+02  0.36978580897E+03  0.38170767457E+03  0.00000000000E+00 0. -1.
          5    1    4    4  501    0 -0.25695468095E+02 -0.38802109302E+02 -0.48203884147E+02  0.67168186024E+02  0.47000000000E+01 0.  1.
         -5    1    4    4    0  501 -0.11511830389E+03 -0.14821156587E+03  0.65328979615E+02  0.19876835192E+03  0.47000000000E+01 0.  1.
          1    1    1    2  502    0 -0.63830800205E+01 -0.36040347787E+02 -0.19121888624E+03  0.19469029979E+03  0.00000000000E+00 0. -1.
          1    1    1    2  503    0 -0.16147702121E+03  0.24885738694E+02  0.26863704380E+04  0.26913342896E+04  0.00000000000E+00 0. -1.
<mgrwt>
<rscale>  0 0.77333362E+02</rscale>
<asrwt>0</asrwt>
<pdfrwt beam="1">  1        2 0.54720160E+00 0.16339473E+03</pdfrwt>
<pdfrwt beam="2">  1        2 0.56426972E-01 0.36601235E+02</pdfrwt>
<totfact> 0.13919008E+01</totfact>
</mgrwt>
</event>
<event>
13    1  0.1675423E-008  0.1129814E+03  0.7546771E-02  0.1441460E+00
          2   -1    0    0  503    0  0.00000000000E+00  0.00000000000E+00  0.25135264654E+04  0.25135264654E+04  0.00000000000E+00 0. -1.
          2   -1    0    0  502    0 -0.00000000000E+00 -0.00000000000E+00 -0.82974235300E+03  0.82974235300E+03  0.00000000000E+00 0. -1.
         24    2    1    2    0    0  0.11896237731E+03 -0.36064645203E+02  0.34181398792E+03  0.37260635353E+03  0.80907271008E+02 0.  0.
         25    2    1    2    0    0 -0.15051199562E+03  0.13089011456E+03 -0.51357403417E+03  0.56495027537E+03  0.12499776859E+03 0.  0.
         24    2    1    2    0    0 -0.65514010619E+02  0.11916446137E+02  0.23668064805E+03  0.25819698360E+03  0.78828078153E+02 0.  0.
        -11    1    5    5    0    0 -0.82347855022E+02  0.11747763996E+02  0.16776009392E+03  0.18725017570E+03  0.00000000000E+00 0.  1.
         12    1    5    5    0    0  0.16833844403E+02  0.16868214144E+00  0.68920554127E+02  0.70946807908E+02  0.00000000000E+00 0. -1.
        -11    1    3    3    0    0  0.96684745326E+02  0.94822477002E+01  0.21021575590E+03  0.23157831727E+03  0.00000000000E+00 0.  1.
         12    1    3    3    0    0  0.22277631980E+02 -0.45546892904E+02  0.13159823202E+03  0.14102803626E+03  0.00000000000E+00 0. -1.
          5    1    4    4  501    0 -0.10997256470E+03  0.12681012181E+03 -0.27007356614E+03  0.31801979987E+03  0.47000000000E+01 0.  1.
         -5    1    4    4    0  501 -0.40539430921E+02  0.40799927433E+01 -0.24350046803E+03  0.24693047550E+03  0.47000000000E+01 0.  1.
          1    1    1    2  502    0 -0.20712723522E+02  0.94716479609E+01 -0.26019305609E+03  0.26118796961E+03  0.00000000000E+00 0. -1.
          1    1    1    2  503    0  0.11777635245E+03 -0.11621356345E+03  0.18790565667E+04  0.18863272363E+04  0.00000000000E+00 0. -1.
<mgrwt>
<rscale>  0 0.50726928E+02</rscale>
<asrwt>0</asrwt>
<pdfrwt beam="1">  1        2 0.36963624E+00 0.11298137E+03</pdfrwt>
<pdfrwt beam="2">  1        2 0.12202093E+00 0.22775624E+02</pdfrwt>
<totfact> 0.31043259E+01</totfact>
</mgrwt>
</event>
<event>
13    1  0.1675423E-008  0.1143171E+03  0.7546771E-02  0.1315933E+00
         -1   -1    0    0    0  501  0.00000000000E+00  0.00000000000E+00  0.11521686310E+04  0.11521686310E+04  0.00000000000E+00 0.  1.
         -1   -1    0    0    0  502 -0.00000000000E+00 -0.00000000000E+00 -0.15966737970E+04  0.15966737970E+04  0.00000000000E+00 0.  1.
         24    2    1    2    0    0 -0.21832271118E+03  0.58039199340E+02  0.50381306828E+03  0.56132417216E+03  0.10111312281E+03 0.  0.
         25    2    1    2    0    0  0.41789731650E+03  0.11534734992E+03 -0.26248029171E+03  0.52198048812E+03  0.12499819268E+03 0.  0.
         24    2    1    2    0    0 -0.50118694754E+02 -0.93574499155E+02  0.89657949569E+02  0.16004099242E+03  0.79413480452E+02 0.  0.
        -11    1    3    3    0    0 -0.12367117317E+03 -0.18312868681E+02  0.27893115966E+03  0.30566732253E+03  0.00000000000E+00 0.  1.
         12    1    3    3    0    0 -0.94651538006E+02  0.76352068021E+02  0.22488190861E+03  0.25565684963E+03  0.00000000000E+00 0. -1.
        -13    1    5    5    0    0  0.11689480162E+01 -0.38783267993E+02  0.73734458201E+02  0.83320337504E+02  0.00000000000E+00 0.  1.
         14    1    5    5    0    0 -0.51287642770E+02 -0.54791231162E+02  0.15923491368E+02  0.76720654914E+02  0.00000000000E+00 0. -1.
          5    1    4    4  503    0  0.11669149156E+03  0.41947553430E+02 -0.14460272800E+02  0.12493074453E+03  0.47000000000E+01 0. -1.
         -5    1    4    4    0  503  0.30120582494E+03  0.73399796486E+02 -0.24802001891E+03  0.39704974358E+03  0.47000000000E+01 0. -1.
         -2    1    1    2    0  502 -0.86797656668E+02 -0.74108326276E+02 -0.11349013782E+04  0.11406257123E+04  0.00000000000E+00 0.  1.
         -2    1    1    2    0  501 -0.62658253897E+02 -0.57037238243E+01  0.35940548610E+03  0.36487106310E+03  0.00000000000E+00 0.  1.
<mgrwt>
<rscale>  0 0.84808758E+02</rscale>
<asrwt>0</asrwt>
<pdfrwt beam="1">  1       -1 0.16943656E+00 0.62917321E+02</pdfrwt>
<pdfrwt beam="2">  1       -1 0.23480497E+00 0.11431710E+03</pdfrwt>
<totfact> 0.27930553E-01</totfact>
</mgrwt>
</event>
<event>
13    1  0.1675423E-008  0.7208604E+02  0.7546771E-02  0.1400555E+00
          2   -1    0    0  503    0  0.00000000000E+00  0.00000000000E+00  0.36640842781E+04  0.36640842781E+04  0.00000000000E+00 0. -1.
          2   -1    0    0  502    0 -0.00000000000E+00 -0.00000000000E+00 -0.30323449252E+04  0.30323449252E+04  0.00000000000E+00 0. -1.
         24    2    1    2    0    0  0.95869560474E+01 -0.16153139023E+02  0.10016872049E+04  0.10051055180E+04  0.80666053607E+02 0.  0.
         25    2    1    2    0    0 -0.36236374488E+02  0.54177792983E+02  0.38895337864E+02  0.14624116658E+03  0.12500129362E+03 0.  0.
         24    2    1    2    0    0  0.62235889042E+02  0.46763368094E+02 -0.79499418125E+03  0.80275973567E+03  0.79670110592E+02 0.  0.
        -11    1    3    3    0    0 -0.34174822263E+01 -0.28260042821E+02  0.95042932543E+03  0.95085551576E+03  0.00000000000E+00 0.  1.
         12    1    3    3    0    0  0.13004438274E+02  0.12106903798E+02  0.51257879438E+02  0.54250002201E+02  0.00000000000E+00 0. -1.
        -11    1    5    5    0    0  0.81403828450E+02  0.39532983126E+02 -0.67307639231E+03  0.67913273366E+03  0.00000000000E+00 0.  1.
         12    1    5    5    0    0 -0.19167939409E+02  0.72303849678E+01 -0.12191778893E+03  0.12362700201E+03  0.00000000000E+00 0. -1.
          5    1    4    4  501    0 -0.31368016980E+02 -0.31607906490E+02 -0.11877578455E+02  0.46326872459E+02  0.47000000000E+01 0. -1.
         -5    1    4    4    0  501 -0.48683575083E+01  0.85785699472E+02  0.50772916319E+02  0.99914294124E+02  0.47000000000E+01 0. -1.
          1    1    1    2  502    0  0.23170102429E+02 -0.43032244388E+02 -0.21773050402E+04  0.21778534996E+04  0.00000000000E+00 0. -1.
          1    1    1    2  503    0 -0.58756573030E+02 -0.41755777665E+02  0.25634560316E+04  0.25644692834E+04  0.00000000000E+00 0. -1.
<mgrwt>
<rscale>  0 0.59355736E+02</rscale>
<asrwt>0</asrwt>
<pdfrwt beam="1">  1        2 0.53883592E+00 0.72086038E+02</pdfrwt>
<pdfrwt beam="2">  1        2 0.44593308E+00 0.48873589E+02</pdfrwt>
<totfact> 0.62841774E-01</totfact>
</mgrwt>
</event>
<event>
13    1  0.1675423E-008  0.8638252E+02  0.7546771E-02  0.1361391E+00
          2   -1    0    0  502    0  0.00000000000E+00  0.00000000000E+00  0.57900293851E+03  0.57900293851E+03  0.00000000000E+00 0. -1.
          2   -1    0    0  503    0 -0.00000000000E+00 -0.00000000000E+00 -0.19845065925E+04  0.19845065925E+04  0.00000000000E+00 0. -1.
         24    2    1    2    0    0 -0.10624863406E+03 -0.36619115122E+03  0.24217265063E+03  0.45875826593E+03  0.80167464525E+02 0.  0.
         25    2    1    2    0    0 -0.55143017892E+02  0.34015719642E+03 -0.39715326953E+03  0.54046654636E+03  0.12500279013E+03 0.  0.
         24    2    1    2    0    0  0.48839227323E+02  0.16549011174E+02  0.97340706622E+02  0.13632523503E+03  0.80313240784E+02 0.  0.
        -11    1    3    3    0    0 -0.11640121591E+02 -0.15430769230E+03  0.12432345924E+03  0.19850108022E+03  0.00000000000E+00 0.  1.
         12    1    3    3    0    0 -0.94608512474E+02 -0.21188345893E+03  0.11784919139E+03  0.26025718570E+03  0.00000000000E+00 0. -1.
        -11    1    5    5    0    0  0.63272448566E+02  0.33831120446E+02  0.64322901095E+02  0.96360692522E+02  0.00000000000E+00 0.  1.
         12    1    5    5    0    0 -0.14433221243E+02 -0.17282109273E+02  0.33017805528E+02  0.39964542512E+02  0.00000000000E+00 0. -1.
          5    1    4    4  501    0  0.43450261987E+01  0.12817270978E+03 -0.70244181425E+02  0.14629920645E+03  0.47000000000E+01 0. -1.
         -5    1    4    4    0  501 -0.59488044090E+02  0.21198448664E+03 -0.32690908810E+03  0.39416733991E+03  0.47000000000E+01 0. -1.
          1    1    1    2  502    0  0.40784794124E+02 -0.38534795703E+02  0.18338723332E+02  0.59030828260E+02  0.00000000000E+00 0. -1.
          1    1    1    2  503    0  0.71767630510E+02  0.48019739339E+02 -0.13662024651E+04  0.13689286554E+04  0.00000000000E+00 0. -1.
<mgrwt>
<rscale>  0 0.69619837E+02</rscale>
<asrwt>0</asrwt>
<pdfrwt beam="1">  1        2 0.85147490E-01 0.56109980E+02</pdfrwt>
<pdfrwt beam="2">  1        2 0.29183921E+00 0.86382522E+02</pdfrwt>
<totfact> 0.84056983E+01</totfact>
</mgrwt>
</event>
<event>
13    1  0.1675423E-008  0.1540309E+03  0.7546771E-02  0.1258827E+00
          2   -1    0    0  502    0  0.00000000000E+00  0.00000000000E+00  0.14200255195E+04  0.14200255195E+04  0.00000000000E+00 0. -1.
          2   -1    0    0  503    0 -0.00000000000E+00 -0.00000000000E+00 -0.21116423961E+04  0.21116423961E+04  0.00000000000E+00 0. -1.
         24    2    1    2    0    0  0.64270436071E+01 -0.36202602588E+02  0.45745981902E+03  0.46566004037E+03  0.78853356702E+02 0.  0.
         25    2    1    2    0    0  0.14754741497E+03 -0.19859705310E+03 -0.40511394815E+02  0.28013740857E+03  0.12499906164E+03 0.  0.
         24    2    1    2    0    0 -0.10402958579E+03  0.34678631235E+02 -0.37156370125E+02  0.14072418976E+03  0.79987121205E+02 0.  0.
        -11    1    3    3    0    0  0.11978319157E+02  0.21858118921E+02  0.20718082735E+03  0.20867475342E+03  0.00000000000E+00 0.  1.
         12    1    3    3    0    0 -0.55512755499E+01 -0.58060721509E+02  0.25027899166E+03  0.25698528695E+03  0.00000000000E+00 0. -1.
        -11    1    5    5    0    0 -0.10242986673E+03  0.10491518056E+02 -0.86844854427E+01  0.10333135940E+03  0.00000000000E+00 0.  1.
         12    1    5    5    0    0 -0.15997190696E+01  0.24187113179E+02 -0.28471884682E+02  0.37392830361E+02  0.00000000000E+00 0. -1.
          5    1    4    4  501    0 -0.21086058582E+02 -0.25328740036E+02 -0.16395740763E+02  0.37108991545E+02  0.47000000000E+01 0.  1.
         -5    1    4    4    0  501  0.16863347355E+03 -0.17326831306E+03 -0.24115654052E+02  0.24302841703E+03  0.47000000000E+01 0.  1.
          1    1    1    2  502    0 -0.76088299520E+02  0.48842128812E+02  0.78108559540E+03  0.78630127191E+03  0.00000000000E+00 0. -1.
          1    1    1    2  503    0  0.26143426738E+02  0.15127889564E+03 -0.18524945261E+04  0.18588450049E+04  0.00000000000E+00 0. -1.
<mgrwt>
<rscale>  0 0.11094645E+03</rscale>
<asrwt>0</asrwt>
<pdfrwt beam="1">  1        2 0.20882729E+00 0.79913260E+02</pdfrwt>
<pdfrwt beam="2">  1        2 0.31053564E+00 0.15403094E+03</pdfrwt>
<totfact> 0.21482600E+01</totfact>
</mgrwt>
</event>
<event>
13    1  0.1675423E-008  0.1493117E+03  0.7546771E-02  0.1295499E+00
          2   -1    0    0  503    0  0.00000000000E+00  0.00000000000E+00  0.31532999322E+03  0.31532999322E+03  0.00000000000E+00 0. -1.
          2   -1    0    0  502    0 -0.00000000000E+00 -0.00000000000E+00 -0.14441811644E+04  0.14441811644E+04  0.00000000000E+00 0. -1.
         24    2    1    2    0    0 -0.92144715681E+02  0.10625601568E+03 -0.11052087874E+02  0.16193072441E+03  0.79488498310E+02 0.  0.
         25    2    1    2    0    0 -0.37292678794E+02 -0.10713499692E+03 -0.84984670148E+02  0.18898933845E+03  0.12500369766E+03 0.  0.
         24    2    1    2    0    0  0.26712925780E+02 -0.61911000299E+02 -0.22350848901E+03  0.24753408706E+03  0.82283213569E+02 0.  0.
        -11    1    5    5    0    0  0.28526700280E+02 -0.72827306679E+02 -0.22315212699E+03  0.23646238814E+03  0.00000000000E+00 0.  1.
         12    1    5    5    0    0 -0.18137744992E+01  0.10916306380E+02 -0.35636201654E+00  0.11071698912E+02  0.00000000000E+00 0. -1.
        -11    1    3    3    0    0 -0.80730063349E+02  0.11263825671E+03 -0.27123756295E+02  0.14121054549E+03  0.00000000000E+00 0.  1.
         12    1    3    3    0    0 -0.11414652332E+02 -0.63822410258E+01  0.16071668421E+02  0.20720178914E+02  0.00000000000E+00 0. -1.
          5    1    4    4  501    0  0.22046132810E+02 -0.53971756505E+02  0.15651735263E+02  0.60547909038E+02  0.47000000000E+01 0.  1.
         -5    1    4    4    0  501 -0.59338811604E+02 -0.53163240417E+02 -0.10063640541E+03  0.12844142941E+03  0.47000000000E+01 0.  1.
          1    1    1    2  502    0 -0.36579425925E+01 -0.57942756067E+02 -0.94729907095E+03  0.94907653714E+03  0.00000000000E+00 0. -1.
          1    1    1    2  503    0  0.10638241129E+03  0.12073273761E+03  0.13799314678E+03  0.21198047061E+03  0.00000000000E+00 0. -1.
<mgrwt>
<rscale>  0 0.93106153E+02</rscale>
<asrwt>0</asrwt>
<pdfrwt beam="1">  1        2 0.46372059E-01 0.14931172E+03</pdfrwt>
<pdfrwt beam="2">  1        2 0.21237958E+00 0.58058105E+02</pdfrwt>
<totfact> 0.29936125E+02</totfact>
</mgrwt>
</event>
<event>
13    1  0.1675423E-008  0.9166121E+02  0.7546771E-02  0.1454956E+00
          2   -1    0    0  503    0  0.00000000000E+00  0.00000000000E+00  0.73816363893E+03  0.73816363893E+03  0.00000000000E+00 0. -1.
          2   -1    0    0  502    0 -0.00000000000E+00 -0.00000000000E+00 -0.20202633980E+04  0.20202633980E+04  0.00000000000E+00 0. -1.
         24    2    1    2    0    0 -0.17852872666E+03  0.20921522496E+03 -0.29546385487E+03  0.41169221348E+03  0.80920161333E+02 0.  0.
         25    2    1    2    0    0  0.88408089136E+02 -0.18913178443E+02 -0.14974662655E+02  0.15499242340E+03  0.12499884899E+03 0.  0.
         24    2    1    2    0    0  0.83665292388E+02 -0.27266815911E+03 -0.10991767068E+03  0.31626971512E+03  0.81220885415E+02 0.  0.
        -13    1    5    5    0    0  0.82213958303E+02 -0.27801039982E+03 -0.11133548981E+03  0.31055516199E+03  0.00000000000E+00 0.  1.
         14    1    5    5    0    0  0.14513340853E+01  0.53422407018E+01  0.14178191372E+01  0.57145531277E+01  0.00000000000E+00 0. -1.
        -13    1    3    3    0    0 -0.17585937408E+03  0.21448123339E+03 -0.29614759116E+03  0.40574883201E+03  0.00000000000E+00 0.  1.
         14    1    3    3    0    0 -0.26693525838E+01 -0.52660084273E+01  0.68373629743E+00  0.59433814699E+01  0.00000000000E+00 0. -1.
          5    1    4    4  501    0  0.11429924256E+03 -0.14657766814E+02 -0.36242433171E+02  0.12089156687E+03  0.47000000000E+01 0. -1.
         -5    1    4    4    0  501 -0.25891153424E+02 -0.42554116294E+01  0.21267770515E+02  0.34100856536E+02  0.47000000000E+01 0. -1.
          1    1    1    2  502    0  0.31584201884E+02  0.86133367724E+02 -0.13667509230E+04  0.13698264870E+04  0.00000000000E+00 0. -1.
          1    1    1    2  503    0 -0.25128856745E+02 -0.37672551302E+01  0.50500735221E+03  0.50564619789E+03  0.00000000000E+00 0. -1.
<mgrwt>
<rscale>  0 0.48260560E+02</rscale>
<asrwt>0</asrwt>
<pdfrwt beam="1">  1        2 0.10855348E+00 0.25409676E+02</pdfrwt>
<pdfrwt beam="2">  1        2 0.29709755E+00 0.91661208E+02</pdfrwt>
<totfact> 0.62852597E+01</totfact>
</mgrwt>
</event>
<event>
13    1  0.1675423E-008  0.1164578E+03  0.7546771E-02  0.1289286E+00
          2   -1    0    0  503    0  0.00000000000E+00  0.00000000000E+00  0.10341984493E+04  0.10341984493E+04  0.00000000000E+00 0. -1.
          2   -1    0    0  502    0 -0.00000000000E+00 -0.00000000000E+00 -0.33818085527E+04  0.33818085527E+04  0.00000000000E+00 0. -1.
         24    2    1    2    0    0 -0.24326930044E+02  0.74413862094E+02  0.10465640156E+03  0.15041785260E+03  0.74453647290E+02 0.  0.
         25    2    1    2    0    0 -0.17495370677E+02  0.20135392324E+02 -0.25557222722E+03  0.28575044723E+03  0.12499853097E+03 0.  0.
         24    2    1    2    0    0 -0.59513172160E+02  0.26685580517E+02  0.48933219844E+03  0.50050971534E+03  0.82522947456E+02 0.  0.
        -11    1    5    5    0    0 -0.20798964921E+02 -0.55629424457E+01  0.23156984712E+02  0.31619443566E+02  0.00000000000E+00 0.  1.
         12    1    5    5    0    0 -0.38714207239E+02  0.32248522963E+02  0.46617521372E+03  0.46889027177E+03  0.00000000000E+00 0. -1.
        -13    1    3    3    0    0 -0.27024369746E+02  0.17385508101E+02  0.83606024069E+02  0.89568631298E+02  0.00000000000E+00 0.  1.
         14    1    3    3    0    0  0.26974397022E+01  0.57028353993E+02  0.21050377496E+02  0.60849221300E+02  0.00000000000E+00 0. -1.
          5    1    4    4  501    0  0.22651863847E+01 -0.47252257070E+02 -0.52491403268E+02  0.70819095480E+02  0.47000000000E+01 0.  1.
         -5    1    4    4    0  501 -0.19760557062E+02  0.67387649393E+02 -0.20308082395E+03  0.21493135175E+03  0.47000000000E+01 0.  1.
          1    1    1    2  502    0  0.10842161299E+03 -0.42674363236E+02 -0.30776428200E+04  0.30798476707E+04  0.00000000000E+00 0. -1.
          1    1    1    2  503    0 -0.70861401084E+01 -0.78560471698E+02  0.39161634387E+03  0.39948131606E+03  0.00000000000E+00 0. -1.
<mgrwt>
<rscale>  0 0.95844268E+02</rscale>
<asrwt>0</asrwt>
<pdfrwt beam="1">  1        2 0.15208801E+00 0.78879409E+02</pdfrwt>
<pdfrwt beam="2">  1        2 0.49732479E+00 0.11645782E+03</pdfrwt>
<totfact> 0.76757937E+00</totfact>
</mgrwt>
</event>
<event>
13    1  0.1675423E-008  0.1520123E+03  0.7546771E-02  0.1297839E+00
          2   -1    0    0  502    0  0.00000000000E+00  0.00000000000E+00  0.33536810757E+04  0.33536810757E+04  0.00000000000E+00 0. -1.
          2   -1    0    0  503    0 -0.00000000000E+00 -0.00000000000E+00 -0.51577577579E+03  0.51577577579E+03  0.00000000000E+00 0. -1.
         24    2    1    2    0    0 -0.75126627857E+02 -0.35135836622E+02 -0.29937036163E+01  0.11585359350E+03  0.80836598380E+02 0.  0.
         25    2    1    2    0    0 -0.75970798425E+02  0.21528364455E+03 -0.15711067913E+03  0.30401994443E+03  0.12500300514E+03 0.  0.
         24    2    1    2    0    0  0.13276286833E+02 -0.13194740725E+03 -0.23097948907E+02  0.15701440303E+03  0.80830869365E+02 0.  0.
        -11    1    5    5    0    0  0.38526103141E+01 -0.77244903917E+02  0.27322409033E+02  0.82025190171E+02  0.00000000000E+00 0.  1.
         12    1    5    5    0    0  0.94236765188E+01 -0.54702503335E+02 -0.50420357940E+02  0.74989212858E+02  0.00000000000E+00 0. -1.
        -13    1    3    3    0    0  0.12932831410E+02  0.35890321919E+01  0.12588811424E+02  0.18401561168E+02  0.00000000000E+00 0.  1.
         14    1    3    3    0    0 -0.88059459267E+02 -0.38724868814E+02 -0.15582515040E+02  0.97452032334E+02  0.00000000000E+00 0. -1.
          5    1    4    4  501    0 -0.40088726272E+02  0.60224769353E+02  0.10013524165E+02  0.73188041947E+02  0.47000000000E+01 0. -1.
         -5    1    4    4    0  501 -0.35882072153E+02  0.15505887520E+03 -0.16712420329E+03  0.23083190249E+03  0.47000000000E+01 0.  1.
          1    1    1    2  502    0  0.15243903390E+03  0.56547776849E+01  0.31491772407E+04  0.31528696340E+04  0.00000000000E+00 0. -1.
          1    1    1    2  503    0 -0.14617894455E+02 -0.53855178360E+02 -0.12806960915E+03  0.13969927652E+03  0.00000000000E+00 0. -1.
<mgrwt>
<rscale>  0 0.92102466E+02</rscale>
<asrwt>0</asrwt>
<pdfrwt beam="1">  1        2 0.49318838E+00 0.15201233E+03</pdfrwt>
<pdfrwt beam="2">  1        2 0.75849380E-01 0.55803791E+02</pdfrwt>
<totfact> 0.17307408E+01</totfact>
</mgrwt>
</event>
<event>
13    1  0.1675423E-008  0.2074053E+03  0.7546771E-02  0.1191296E+00
          2   -1    0    0  502    0  0.00000000000E+00  0.00000000000E+00  0.91121267258E+03  0.91121267258E+03  0.00000000000E+00 0. -1.
          4   -1    0    0  503    0 -0.00000000000E+00 -0.00000000000E+00 -0.13774556093E+04  0.13774556093E+04  0.00000000000E+00 0. -1.
         24    2    1    2    0    0 -0.10440165484E+03 -0.72388954745E+02  0.22501775776E+02  0.15230887597E+03  0.80943174414E+02 0.  0.
         25    2    1    2    0    0 -0.69142006463E+02 -0.50132668932E+02  0.41516858401E+03  0.44190940134E+03  0.12500025717E+03 0.  0.
         24    2    1    2    0    0 -0.55856801620E+02  0.44152415290E+02 -0.13256536946E+02  0.10766189616E+03  0.79661346020E+02 0.  0.
        -11    1    5    5    0    0 -0.73458548802E+02  0.49261140302E+02 -0.12422225788E+02  0.89314780576E+02  0.00000000000E+00 0.  1.
         12    1    5    5    0    0  0.17601747182E+02 -0.51087250119E+01 -0.83431115771E+00  0.18347115583E+02  0.00000000000E+00 0. -1.
        -13    1    3    3    0    0  0.61980490613E+01 -0.32402996256E+02  0.64039667885E+01  0.33606260862E+02  0.00000000000E+00 0.  1.
         14    1    3    3    0    0 -0.11059970391E+03 -0.39985958490E+02  0.16097808988E+02  0.11870261511E+03  0.00000000000E+00 0. -1.
          5    1    4    4  501    0 -0.43448860941E+01 -0.79621678413E+02  0.20897866435E+03  0.22372452226E+03  0.47000000000E+01 0. -1.
         -5    1    4    4    0  501 -0.64797120369E+02  0.29489009480E+02  0.20618991966E+03  0.21818487908E+03  0.47000000000E+01 0. -1.
          1    1    1    2  502    0  0.22500292503E+02  0.11730840353E+03  0.32852313319E+03  0.34956397661E+03  0.00000000000E+00 0. -1.
          3    1    1    2  503    0  0.20690017042E+03 -0.38939195137E+02 -0.12191798928E+04  0.12372241318E+04  0.00000000000E+00 0. -1.
<mgrwt>
<rscale>  0 0.15771969E+03</rscale>
<asrwt>0</asrwt>
<pdfrwt beam="1">  1        2 0.13400186E+00 0.11993664E+03</pdfrwt>
<pdfrwt beam="2">  1        4 0.20256700E+00 0.20740534E+03</pdfrwt>
<totfact> 0.24091221E+00</totfact>
</mgrwt>
</event>
<event>
13    1  0.1675423E-008  0.7216983E+02  0.7546771E-02  0.1437571E+00
          2   -1    0    0  503    0  0.00000000000E+00  0.00000000000E+00  0.18202479531E+04  0.18202479531E+04  0.00000000000E+00 0. -1.
          2   -1    0    0  502    0 -0.00000000000E+00 -0.00000000000E+00 -0.11351903773E+04  0.11351903773E+04  0.00000000000E+00 0. -1.
         24    2    1    2    0    0 -0.18020728266E+03 -0.10036988985E+03  0.47619808007E+03  0.52529655121E+03  0.81382281447E+02 0.  0.
         25    2    1    2    0    0  0.42944264247E+03  0.41857486281E+02  0.42305386797E+01  0.44924025562E+03  0.12500350988E+03 0.  0.
         24    2    1    2    0    0 -0.15196581783E+03  0.10693298341E+02  0.23388407289E+03  0.29005678079E+03  0.78887388788E+02 0.  0.
        -11    1    3    3    0    0 -0.17016887544E+03 -0.99100787298E+02  0.37469494712E+03  0.42329034434E+03  0.00000000000E+00 0.  1.
         12    1    3    3    0    0 -0.10038407219E+02 -0.12691025498E+01  0.10150313295E+03  0.10200620687E+03  0.00000000000E+00 0. -1.
        -11    1    5    5    0    0 -0.10503581457E+03 -0.14036277068E+01  0.21257874121E+03  0.23711645604E+03  0.00000000000E+00 0.  1.
         12    1    5    5    0    0 -0.46930003257E+02  0.12096926048E+02  0.21305331683E+02  0.52940324741E+02  0.00000000000E+00 0. -1.
          5    1    4    4  501    0  0.35005859391E+03  0.62439700055E+02  0.43368561278E+02  0.35824943464E+03  0.47000000000E+01 0. -1.
         -5    1    4    4    0  501  0.79384048561E+02 -0.20582213774E+02 -0.39138022598E+02  0.90990820980E+02  0.47000000000E+01 0. -1.
          1    1    1    2  502    0 -0.31134253847E+02  0.19444073516E+02 -0.85809836121E+03  0.85888311852E+03  0.00000000000E+00 0. -1.
          1    1    1    2  503    0 -0.66135288131E+02  0.28375031710E+02  0.82884324540E+03  0.83196162424E+03  0.00000000000E+00 0. -1.
<mgrwt>
<rscale>  0 0.51469873E+02</rscale>
<asrwt>0</asrwt>
<pdfrwt beam="1">  1        2 0.26768352E+00 0.72169834E+02</pdfrwt>
<pdfrwt beam="2">  1        2 0.16693976E+00 0.36707135E+02</pdfrwt>
<totfact> 0.47028458E+01</totfact>
</mgrwt>
</event>
<event>
13    1  0.1675423E-008  0.7694225E+02  0.7546771E-02  0.1354397E+00
          2   -1    0    0  502    0  0.00000000000E+00  0.00000000000E+00  0.47651570237E+04  0.47651570237E+04  0.00000000000E+00 0. -1.
          2   -1    0    0  503    0 -0.00000000000E+00 -0.00000000000E+00 -0.11194136918E+04  0.11194136918E+04  0.00000000000E+00 0. -1.
         24    2    1    2    0    0 -0.40142697396E+02  0.36283782577E+02  0.84675347335E+03  0.85241401491E+03  0.81794004436E+02 0.  0.
         25    2    1    2    0    0 -0.62693541070E+02 -0.12530189158E+03  0.29950430605E+03  0.35349699405E+03  0.12500500525E+03 0.  0.
         24    2    1    2    0    0  0.76630401274E+00  0.30878570919E+02 -0.34983966179E+03  0.36554473711E+03  0.10139572232E+03 0.  0.
        -11    1    3    3    0    0  0.17520499615E+02 -0.12716510424E+02  0.23594175800E+03  0.23693288229E+03  0.00000000000E+00 0.  1.
         12    1    3    3    0    0 -0.57663197012E+02  0.49000293001E+02  0.61081171535E+03  0.61548113262E+03  0.00000000000E+00 0. -1.
        -13    1    5    5    0    0  0.14970183654E+02  0.54562228203E+02 -0.31969269697E+03  0.32466069001E+03  0.00000000000E+00 0.  1.
         14    1    5    5    0    0 -0.14203879641E+02 -0.23683657284E+02 -0.30146964820E+02  0.40884047098E+02  0.00000000000E+00 0. -1.
          5    1    4    4  501    0 -0.95662062983E+02 -0.10627686451E+03  0.26827025501E+03  0.30403457361E+03  0.47000000000E+01 0.  1.
         -5    1    4    4    0  501  0.32968521913E+02 -0.19025027070E+02  0.31234051033E+02  0.49462420443E+02  0.47000000000E+01 0.  1.
          1    1    1    2  502    0  0.35979379242E+02  0.67984923241E+02  0.35792809199E+04  0.35801073125E+04  0.00000000000E+00 0. -1.
          1    1    1    2  503    0  0.66090555211E+02 -0.98453851560E+01 -0.72995570559E+03  0.73300765700E+03  0.00000000000E+00 0. -1.
<mgrwt>
<rscale>  0 0.71702651E+02</rscale>
<asrwt>0</asrwt>
<pdfrwt beam="1">  1        2 0.70075838E+00 0.76942253E+02</pdfrwt>
<pdfrwt beam="2">  1        2 0.16461966E+00 0.66819856E+02</pdfrwt>
<totfact> 0.82441676E-01</totfact>
</mgrwt>
</event>
<event>
13    1  0.1675423E-008  0.6267517E+02  0.7546771E-02  0.1475207E+00
          2   -1    0    0  502    0  0.00000000000E+00  0.00000000000E+00  0.13517465566E+04  0.13517465566E+04  0.00000000000E+00 0. -1.
          2   -1    0    0  503    0 -0.00000000000E+00 -0.00000000000E+00 -0.20477575518E+04  0.20477575518E+04  0.00000000000E+00 0. -1.
         24    2    1    2    0    0  0.21971255293E+01  0.21062619163E+02  0.73801729579E+03  0.74269229428E+03  0.80460262286E+02 0.  0.
         25    2    1    2    0    0 -0.14848676216E+03 -0.17608399578E+03 -0.18415265284E+02  0.26271643570E+03  0.12500764572E+03 0.  0.
         24    2    1    2    0    0  0.11386845507E+03  0.69293216156E+02 -0.12282897319E+03  0.19734899948E+03  0.78051880683E+02 0.  0.
        -11    1    3    3    0    0 -0.21237244857E+02 -0.70514194385E+01  0.66219797155E+02  0.69898530889E+02  0.00000000000E+00 0.  1.
         12    1    3    3    0    0  0.23434370386E+02  0.28114038602E+02  0.67179749864E+03  0.67279376339E+03  0.00000000000E+00 0. -1.
        -13    1    5    5    0    0 -0.12677925571E+01  0.30108849875E+02 -0.40502524915E+02  0.50483706908E+02  0.00000000000E+00 0.  1.
         14    1    5    5    0    0  0.11513624762E+03  0.39184366281E+02 -0.82326448271E+02  0.14686529257E+03  0.00000000000E+00 0. -1.
          5    1    4    4  501    0 -0.12799902294E+03 -0.17203002968E+03 -0.54017058912E+02  0.22117417037E+03  0.47000000000E+01 0.  1.
         -5    1    4    4    0  501 -0.20487739221E+02 -0.40539660966E+01  0.35601793628E+02  0.41542265333E+02  0.47000000000E+01 0.  1.
          1    1    1    2  502    0  0.21249875129E+02  0.24074071773E+02  0.45084739222E+03  0.45198947908E+03  0.00000000000E+00 0. -1.
          1    1    1    2  503    0  0.11171306435E+02  0.61654088684E+02 -0.17436314447E+04  0.17447568999E+04  0.00000000000E+00 0. -1.
<mgrwt>
<rscale>  0 0.44861612E+02</rscale>
<asrwt>0</asrwt>
<pdfrwt beam="1">  1        2 0.19878626E+00 0.32111028E+02</pdfrwt>
<pdfrwt beam="2">  1        2 0.30114082E+00 0.62675173E+02</pdfrwt>
<totfact> 0.29395244E+01</totfact>
</mgrwt>
</event>
<event>
13    1  0.1675423E-008  0.2823570E+03  0.7546771E-02  0.1315657E+00
          2   -1    0    0  503    0  0.00000000000E+00  0.00000000000E+00  0.37505379531E+04  0.37505379531E+04  0.00000000000E+00 0. -1.
          2   -1    0    0  502    0 -0.00000000000E+00 -0.00000000000E+00 -0.14737069453E+04  0.14737069453E+04  0.00000000000E+00 0. -1.
         24    2    1    2    0    0 -0.27647633966E+02  0.51019203119E+02  0.15566434717E+04  0.15598638957E+04  0.81664707746E+02 0.  0.
         25    2    1    2    0    0  0.68351991854E+02 -0.24053812303E+03  0.53759006270E+03  0.60593564824E+03  0.12499740347E+03 0.  0.
         24    2    1    2    0    0  0.14847710975E+03  0.37177525360E+03 -0.29780365579E+02  0.40946976657E+03  0.80723777492E+02 0.  0.
        -11    1    5    5    0    0  0.11976582251E+03  0.34927717023E+03 -0.40490843005E+02  0.37145376866E+03  0.00000000000E+00 0.  1.
         12    1    5    5    0    0  0.28711287242E+02  0.22498083368E+02  0.10710477426E+02  0.38015997909E+02  0.00000000000E+00 0. -1.
        -11    1    3    3    0    0 -0.15450380970E+01  0.60031627333E+01  0.70125776123E+01  0.93595593001E+01  0.00000000000E+00 0.  1.
         12    1    3    3    0    0 -0.26102595869E+02  0.45016040385E+02  0.15496308941E+04  0.15505043364E+04  0.00000000000E+00 0. -1.
          5    1    4    4  501    0 -0.46383057479E+01 -0.18687169213E+03  0.39346173581E+03  0.43563375758E+03  0.47000000000E+01 0.  1.
         -5    1    4    4    0  501  0.72990297602E+02 -0.53666430898E+02  0.14412832689E+03  0.17030189066E+03  0.47000000000E+01 0.  1.
          1    1    1    2  502    0 -0.18085212692E+03 -0.20639637216E+03 -0.12027289153E+04  0.12336384389E+04  0.00000000000E+00 0. -1.
          1    1    1    2  503    0 -0.83293407186E+01  0.24140038473E+02  0.14151067542E+04  0.14153371490E+04  0.00000000000E+00 0. -1.
<mgrwt>
<rscale>  0 0.84914336E+02</rscale>
<asrwt>0</asrwt>
<pdfrwt beam="1">  1        2 0.55154970E+00 0.25536628E+02</pdfrwt>
<pdfrwt beam="2">  1        2 0.21672161E+00 0.28235695E+03</pdfrwt>
<totfact> 0.34193256E+00</totfact>
</mgrwt>
</event>
<event>
13    1  0.1675423E-008  0.1816943E+03  0.7546771E-02  0.1190373E+00
         -1   -1    0    0    0  501 -0.00000000000E+00  0.00000000000E+00  0.13673323077E+04  0.13673323077E+04  0.00000000000E+00 0.  1.
          2   -1    0    0  503    0  0.00000000000E+00 -0.00000000000E+00 -0.17971281091E+04  0.17971281091E+04  0.00000000000E+00 0. -1.
         24    2    1    2    0    0 -0.18541325793E+03 -0.19473241832E+03 -0.30502773565E+03  0.41419488484E+03  0.78846002754E+02 0.  0.
         25    2    1    2    0    0  0.49428456003E+03  0.15735647486E+03  0.24266889933E+03  0.58616645064E+03  0.12499850675E+03 0.  0.
         24    2    1    2    0    0 -0.65373894682E+02  0.69640393767E+01  0.23493619125E+02  0.11006386280E+03  0.85087365714E+02 0.  0.
        -11    1    3    3    0    0 -0.17991420375E+03 -0.16378283821E+03 -0.23891783174E+03  0.34099218338E+03  0.00000000000E+00 0.  1.
         12    1    3    3    0    0 -0.54990541815E+01 -0.30949580107E+02 -0.66109903915E+02  0.73202701462E+02  0.00000000000E+00 0. -1.
        -11    1    5    5    0    0 -0.44616938479E+01  0.36721194596E+02  0.20302697116E+02  0.42196591743E+02  0.00000000000E+00 0.  1.
         12    1    5    5    0    0 -0.60912200834E+02 -0.29757155219E+02  0.31909220092E+01  0.67867271055E+02  0.00000000000E+00 0. -1.
          5    1    4    4  502    0 -0.66026941093E+01 -0.17913646234E+00  0.11489547193E+01  0.81876587813E+01  0.47000000000E+01 0. -1.
         -5    1    4    4    0  502  0.50088725414E+03  0.15753561132E+03  0.24151994461E+03  0.57797879186E+03  0.47000000000E+01 0. -1.
          1    1    1    2  503    0 -0.24185319477E+02 -0.13616381979E+03 -0.11955848550E+04  0.12035566713E+04  0.00000000000E+00 0. -1.
         -2    1    1    2    0  501 -0.21931208795E+03  0.16657572387E+03  0.80465427083E+03  0.85047854722E+03  0.00000000000E+00 0.  1.
<mgrwt>
<rscale>  0 0.15852443E+03</rscale>
<asrwt>0</asrwt>
<pdfrwt beam="2">  1        2 0.26428354E+00 0.13830920E+03</pdfrwt>
<pdfrwt beam="1">  1       -1 0.20107828E+00 0.18169430E+03</pdfrwt>
<totfact> 0.21865769E+00</totfact>
</mgrwt>
</event>
<event>
13    1  0.1675423E-008  0.7931269E+02  0.7546771E-02  0.1361349E+00
          2   -1    0    0  503    0  0.00000000000E+00  0.00000000000E+00  0.22951986707E+04  0.22951986707E+04  0.00000000000E+00 0. -1.
         -3   -1    0    0    0  501 -0.00000000000E+00 -0.00000000000E+00 -0.13304690571E+04  0.13304690571E+04  0.00000000000E+00 0.  1.
         24    2    1    2    0    0  0.51745332772E+02  0.15480217502E+03  0.12139506544E+04  0.12274600002E+04  0.79627682730E+02 0.  0.
         25    2    1    2    0    0 -0.39147061183E+02 -0.21531597275E+03 -0.18102864054E+03  0.31030392321E+03  0.12499478206E+03 0.  0.
         24    2    1    2    0    0 -0.26618311044E+02  0.32429235714E+02  0.36119191745E+03  0.37238495595E+03  0.80316650665E+02 0.  0.
        -13    1    5    5    0    0  0.26438805335E+02 -0.32237631580E+00  0.76356659648E+02  0.80805035899E+02  0.00000000000E+00 0.  1.
         14    1    5    5    0    0 -0.53057116380E+02  0.32751612030E+02  0.28483525780E+03  0.29157992005E+03  0.00000000000E+00 0. -1.
        -13    1    3    3    0    0  0.33920907202E+02  0.12422003373E+02  0.32521247028E+03  0.32721259899E+03  0.00000000000E+00 0.  1.
         14    1    3    3    0    0  0.17824425570E+02  0.14238017164E+03  0.88873818416E+03  0.90024740123E+03  0.00000000000E+00 0. -1.
          5    1    4    4  502    0 -0.73069285523E+02 -0.14456557545E+03 -0.75650217090E+02  0.17883895392E+03  0.47000000000E+01 0.  1.
         -5    1    4    4    0  502  0.33922224340E+02 -0.70750397299E+02 -0.10537842345E+03  0.13146496929E+03  0.47000000000E+01 0.  1.
          1    1    1    2  503    0 -0.61084219903E+02  0.24350578677E+01  0.64014079551E+03  0.64305322447E+03  0.00000000000E+00 0. -1.
         -4    1    1    2    0  501  0.75104259359E+02  0.25649504153E+02 -0.10695251132E+04  0.10724656240E+04  0.00000000000E+00 0.  1.
<mgrwt>
<rscale>  0 0.69631902E+02</rscale>
<asrwt>0</asrwt>
<pdfrwt beam="1">  1        2 0.33752922E+00 0.61132736E+02</pdfrwt>
<pdfrwt beam="2">  1       -3 0.19565721E+00 0.79312690E+02</pdfrwt>
<totfact> 0.75924182E-01</totfact>
</mgrwt>
</event>
<event>
13    1  0.1675423E-008  0.9495831E+02  0.7546771E-02  0.1372497E+00
          2   -1    0    0  503    0  0.00000000000E+00  0.00000000000E+00  0.29963688841E+03  0.29963688841E+03  0.00000000000E+00 0. -1.
          2   -1    0    0  502    0 -0.00000000000E+00 -0.00000000000E+00 -0.11718347261E+04  0.11718347261E+04  0.00000000000E+00 0. -1.
         24    2    1    2    0    0 -0.13175192443E+02  0.14072641575E+03  0.80625221410E+02  0.18192576809E+03  0.81357537949E+02 0.  0.
         25    2    1    2    0    0  0.13628102323E+02 -0.11088881636E+03 -0.62942601673E+03  0.65137031353E+03  0.12499648017E+03 0.  0.
         24    2    1    2    0    0  0.33692225722E+02 -0.67765837681E+02 -0.59842295727E+01  0.10918277801E+03  0.78470970293E+02 0.  0.
        -11    1    3    3    0    0 -0.45802567924E+02  0.93861967993E+02  0.63836847219E+02  0.12240542197E+03  0.00000000000E+00 0.  1.
         12    1    3    3    0    0  0.32627375482E+02  0.46864447755E+02  0.16788374191E+02  0.59520346119E+02  0.00000000000E+00 0. -1.
        -13    1    5    5    0    0 -0.18981081459E+02 -0.44024873917E+02 -0.16005964150E+02  0.50543662957E+02  0.00000000000E+00 0.  1.
         14    1    5    5    0    0  0.52673307181E+02 -0.23740963764E+02  0.10021734577E+02  0.58639115049E+02  0.00000000000E+00 0. -1.
          5    1    4    4  501    0  0.58484348222E+02 -0.49424679651E+02 -0.18218555408E+03  0.19767873953E+03  0.47000000000E+01 0.  1.
         -5    1    4    4    0  501 -0.44856245898E+02 -0.61464136705E+02 -0.44724046264E+03  0.45369157400E+03  0.47000000000E+01 0.  1.
          1    1    1    2  502    0  0.40587515986E+02 -0.22772031538E+02 -0.39966389060E+03  0.40236443348E+03  0.00000000000E+00 0. -1.
          1    1    1    2  503    0 -0.74732651588E+02  0.60700269826E+02  0.82251077830E+02  0.12662832138E+03  0.00000000000E+00 0. -1.
<mgrwt>
<rscale>  0 0.66477808E+02</rscale>
<asrwt>0</asrwt>
<pdfrwt beam="1">  1        2 0.44064249E-01 0.94958312E+02</pdfrwt>
<pdfrwt beam="2">  1        2 0.17232863E+00 0.46539358E+02</pdfrwt>
<totfact> 0.43725265E+02</totfact>
</mgrwt>
</event>
<event>
13    1  0.1675423E-008  0.3279021E+02  0.7546771E-02  0.1644802E+00
         -3   -1    0    0    0  501 -0.00000000000E+00  0.00000000000E+00  0.19220300656E+04  0.19220300656E+04  0.00000000000E+00 0.  1.
          2   -1    0    0  503    0  0.00000000000E+00 -0.00000000000E+00 -0.15422992198E+04  0.15422992198E+04  0.00000000000E+00 0. -1.
         24    2    1    2    0    0  0.47133626522E+03  0.32927328672E+03  0.17554983320E+03  0.60741828082E+03  0.86950857791E+02 0.  0.
         25    2    1    2    0    0 -0.88504198794E+02  0.82584678049E+02  0.50930350092E+01  0.17407749779E+03  0.12499525582E+03 0.  0.
         24    2    1    2    0    0 -0.34699660358E+03 -0.39212022721E+03  0.35024917786E+03  0.63510372108E+03  0.80730009678E+02 0.  0.
        -11    1    3    3    0    0  0.25241814014E+03  0.14338657861E+03  0.12382365977E+03  0.31560565127E+03  0.00000000000E+00 0.  1.
         12    1    3    3    0    0  0.21891812508E+03  0.18588670812E+03  0.51726173429E+02  0.29181262954E+03  0.00000000000E+00 0. -1.
        -11    1    5    5    0    0  0.49267128144E+00 -0.22385716143E+02  0.14212716759E+02  0.26521016758E+02  0.00000000000E+00 0.  1.
         12    1    5    5    0    0 -0.34748927486E+03 -0.36973451106E+03  0.33603646110E+03  0.60858270433E+03  0.00000000000E+00 0. -1.
          5    1    4    4  502    0 -0.46463636306E+02  0.20791185801E+02 -0.57167559703E+02  0.76690043606E+02  0.47000000000E+01 0. -1.
         -5    1    4    4    0  502 -0.42040562488E+02  0.61793492248E+02  0.62260594713E+02  0.97387454184E+02  0.47000000000E+01 0. -1.
          1    1    1    2  503    0 -0.32776779261E+02  0.91648420741E+00 -0.10990860287E+04  0.10995750342E+04  0.00000000000E+00 0. -1.
         -4    1    1    2    0  501 -0.30586835854E+01 -0.20654221775E+02  0.94792482847E+03  0.94815475153E+03  0.00000000000E+00 0.  1.
<mgrwt>
<rscale>  0 0.26165672E+02</rscale>
<asrwt>0</asrwt>
<pdfrwt beam="2">  1        2 0.22680871E+00 0.32790213E+02</pdfrwt>
<pdfrwt beam="1">  1       -3 0.28265148E+00 0.20879474E+02</pdfrwt>
<totfact> 0.66832716E-01</totfact>
</mgrwt>
</event>
<event>
13    1  0.1675423E-008  0.1451697E+03  0.7546771E-02  0.1403875E+00
          2   -1    0    0  502    0  0.00000000000E+00  0.00000000000E+00  0.15328418234E+04  0.15328418234E+04  0.00000000000E+00 0. -1.
          2   -1    0    0  503    0 -0.00000000000E+00 -0.00000000000E+00 -0.13220239335E+04  0.13220239335E+04  0.00000000000E+00 0. -1.
         24    2    1    2    0    0 -0.16026524470E+03  0.16445330255E+03  0.30844478229E+03  0.39346332533E+03  0.83338870177E+02 0.  0.
         25    2    1    2    0    0  0.98560125348E+02  0.10815929881E+03 -0.10669142298E+04  0.10841324026E+04  0.12499824102E+03 0.  0.
         24    2    1    2    0    0  0.60042112927E+01  0.98583860953E+01  0.82673099982E+02  0.11764255793E+03  0.82895667235E+02 0.  0.
        -11    1    3    3    0    0 -0.28892032570E+02  0.51072986874E+02  0.13920378884E+03  0.15106586101E+03  0.00000000000E+00 0.  1.
         12    1    3    3    0    0 -0.13137321213E+03  0.11338031567E+03  0.16924099345E+03  0.24239746432E+03  0.00000000000E+00 0. -1.
        -13    1    5    5    0    0 -0.53177196894E+01 -0.32275080212E+02  0.12509101904E+02  0.35020516499E+02  0.00000000000E+00 0.  1.
         14    1    5    5    0    0  0.11321930982E+02  0.42133466308E+02  0.70163998077E+02  0.82622041432E+02  0.00000000000E+00 0. -1.
          5    1    4    4  501    0  0.45178679289E+02 -0.72063435753E+01 -0.54513025421E+03  0.54706684098E+03  0.47000000000E+01 0.  1.
         -5    1    4    4    0  501  0.53381446059E+02  0.11536564238E+03 -0.52178397561E+03  0.53706556157E+03  0.47000000000E+01 0.  1.
          1    1    1    2  502    0  0.76139464646E+02 -0.27058912121E+03  0.10538673651E+04  0.10907117464E+04  0.00000000000E+00 0. -1.
          1    1    1    2  503    0 -0.20438556591E+02 -0.11881866243E+02 -0.16725312764E+03  0.16891572469E+03  0.00000000000E+00 0. -1.
<mgrwt>
<rscale>  0 0.58583333E+02</rscale>
<asrwt>0</asrwt>
<pdfrwt beam="1">  1        2 0.22541792E+00 0.14516968E+03</pdfrwt>
<pdfrwt beam="2">  1        2 0.19441528E+00 0.23641348E+02</pdfrwt>
<totfact> 0.50958587E+01</totfact>
</mgrwt>
</event>
<event>
13    1  0.1675423E-008  0.5918563E+02  0.7546771E-02  0.1411380E+00
          2   -1    0    0  503    0  0.00000000000E+00  0.00000000000E+00  0.28144531463E+04  0.28144531463E+04  0.00000000000E+00 0. -1.
          2   -1    0    0  502    0 -0.00000000000E+00 -0.00000000000E+00 -0.56293637072E+03  0.56293637072E+03  0.00000000000E+00 0. -1.
         24    2    1    2    0    0 -0.66571249455E+02 -0.36151031280E+02  0.78400132828E+03  0.79169063272E+03  0.79858292402E+02 0.  0.
         25    2    1    2    0    0  0.13086844101E+03 -0.89610898936E+02  0.15451809375E+04  0.15583206772E+04  0.12499016414E+03 0.  0.
         24    2    1    2    0    0  0.45328734870E+02  0.13763158695E+03  0.13246832346E+02  0.16654274949E+03  0.81017658020E+02 0.  0.
        -13    1    5    5    0    0 -0.18700282487E+02  0.19939044256E+02 -0.12583374624E+02  0.30093311015E+02  0.00000000000E+00 0.  1.
         14    1    5    5    0    0  0.64029017357E+02  0.11769254269E+03  0.25830206970E+02  0.13644943848E+03  0.00000000000E+00 0. -1.
        -13    1    3    3    0    0  0.45785719032E+01 -0.17393792953E+02  0.41689687091E+03  0.41728468499E+03  0.00000000000E+00 0.  1.
         14    1    3    3    0    0 -0.71149821358E+02 -0.18757238327E+02  0.36710445738E+03  0.37440594773E+03  0.00000000000E+00 0. -1.
          5    1    4    4  501    0 -0.17691537606E+02  0.78015358763E+01  0.28187804884E+03  0.28257950895E+03  0.47000000000E+01 0. -1.
         -5    1    4    4    0  501  0.14855997861E+03 -0.97412434812E+02  0.12633028887E+04  0.12757411682E+04  0.47000000000E+01 0. -1.
          1    1    1    2  502    0 -0.58626536174E+02  0.78461323427E+01 -0.47207744212E+03  0.47576858229E+03  0.00000000000E+00 0. -1.
          1    1    1    2  503    0 -0.50999390248E+02 -0.19715789073E+02  0.38116511952E+03  0.38506687533E+03  0.00000000000E+00 0. -1.
<mgrwt>
<rscale>  0 0.56887025E+02</rscale>
<asrwt>0</asrwt>
<pdfrwt beam="1">  1        2 0.41389016E+00 0.54677693E+02</pdfrwt>
<pdfrwt beam="2">  1        2 0.82784761E-01 0.59185628E+02</pdfrwt>
<totfact> 0.36282672E+01</totfact>
</mgrwt>
</event>
<event>
13    1  0.1675423E-008  0.5909065E+02  0.7546771E-02  0.1418996E+00
          2   -1    0    0  503    0  0.00000000000E+00  0.00000000000E+00  0.17236900559E+04  0.17236900559E+04  0.00000000000E+00 0. -1.
          2   -1    0    0  502    0 -0.00000000000E+00 -0.00000000000E+00 -0.11450916372E+04  0.11450916372E+04  0.00000000000E+00 0. -1.
         24    2    1    2    0    0  0.64563442861E+02 -0.13085510279E+03  0.82857844411E+03  0.84502946229E+03  0.79000367195E+02 0.  0.
         25    2    1    2    0    0  0.67596849449E+02 -0.14529120751E+03  0.15396839446E+03  0.25496878735E+03  0.12499578792E+03 0.  0.
         24    2    1    2    0    0 -0.12985867100E+03  0.35720004420E+03  0.12858115915E+02  0.38884282242E+03  0.81106494153E+02 0.  0.
        -11    1    3    3    0    0 -0.21292749029E+00 -0.80755549467E+02  0.49515278113E+03  0.50169490805E+03  0.00000000000E+00 0.  1.
         12    1    3    3    0    0  0.64776370351E+02 -0.50099553319E+02  0.33342566298E+03  0.34333455424E+03  0.00000000000E+00 0. -1.
        -13    1    5    5    0    0 -0.10145232342E+03  0.26489765774E+03 -0.25771434510E+02  0.28482891328E+03  0.00000000000E+00 0.  1.
         14    1    5    5    0    0 -0.28406347580E+02  0.92302386467E+02  0.38629550425E+02  0.10401390915E+03  0.00000000000E+00 0. -1.
          5    1    4    4  501    0  0.70439390033E+01  0.20053960496E+02  0.38873313707E+02  0.44553371666E+02  0.47000000000E+01 0. -1.
         -5    1    4    4    0  501  0.60552910446E+02 -0.16534516800E+03  0.11509508075E+03  0.21041541569E+03  0.47000000000E+01 0. -1.
          1    1    1    2  502    0  0.36495006162E+02 -0.36519335995E+02 -0.89581649791E+03  0.89730303984E+03  0.00000000000E+00 0. -1.
          1    1    1    2  503    0 -0.38796627476E+02 -0.44534397918E+02  0.47900996212E+03  0.48263758112E+03  0.00000000000E+00 0. -1.
<mgrwt>
<rscale>  0 0.55233936E+02</rscale>
<asrwt>0</asrwt>
<pdfrwt beam="1">  1        2 0.25348383E+00 0.59090652E+02</pdfrwt>
<pdfrwt beam="2">  1        2 0.16839583E+00 0.51628939E+02</pdfrwt>
<totfact> 0.51562353E+01</totfact>
</mgrwt>
</event>
<event>
13    1  0.1675423E-008  0.8499483E+02  0.7546771E-02  0.1478739E+00
          2   -1    0    0  503    0  0.00000000000E+00  0.00000000000E+00  0.50490559576E+03  0.50490559576E+03  0.00000000000E+00 0. -1.
         -3   -1    0    0    0  501 -0.00000000000E+00 -0.00000000000E+00 -0.43180619107E+03  0.43180619107E+03  0.00000000000E+00 0.  1.
         24    2    1    2    0    0 -0.53344166438E+02  0.39939575903E+02  0.22399801445E+03  0.24719915247E+03  0.80570097955E+02 0.  0.
         25    2    1    2    0    0  0.76424010038E+02 -0.27480979636E+02 -0.31389943565E+02  0.15235465599E+03  0.12502311423E+03 0.  0.
         24    2    1    2    0    0  0.52552360749E+02  0.24158554754E+02  0.44191390811E+02  0.11142658521E+03  0.84365979411E+02 0.  0.
        -11    1    3    3    0    0  0.55889470886E+00 -0.19279055366E+02  0.81415413484E+02  0.83668774892E+02  0.00000000000E+00 0.  1.
         12    1    3    3    0    0 -0.53903061147E+02  0.59218631269E+02  0.14258260097E+03  0.16353037758E+03  0.00000000000E+00 0. -1.
        -13    1    5    5    0    0 -0.22141309622E+02  0.15195321151E+02  0.14775689763E+02  0.30650552762E+02  0.00000000000E+00 0.  1.
         14    1    5    5    0    0  0.74693670371E+02  0.89632336029E+01  0.29415701049E+02  0.80776032450E+02  0.00000000000E+00 0. -1.
          5    1    4    4  502    0  0.15876522890E+02 -0.48316569340E+02 -0.62743492233E+02  0.80903588731E+02  0.47000000000E+01 0. -1.
         -5    1    4    4    0  502  0.60547487147E+02  0.20835589704E+02  0.31353548668E+02  0.71451067258E+02  0.47000000000E+01 0. -1.
          1    1    1    2  503    0 -0.63970416370E+02 -0.56549130486E+02  0.11657961682E+03  0.14450199095E+03  0.00000000000E+00 0. -1.
         -4    1    1    2    0  501 -0.11661787979E+02  0.19931979464E+02 -0.28027967383E+03  0.28122940221E+03  0.00000000000E+00 0.  1.
<mgrwt>
<rscale>  0 0.44303222E+02</rscale>
<asrwt>0</asrwt>
<pdfrwt beam="1">  1        2 0.74250823E-01 0.84994832E+02</pdfrwt>
<pdfrwt beam="2">  1       -3 0.63500910E-01 0.23092880E+02</pdfrwt>
<totfact> 0.88316035E+01</totfact>
</mgrwt>
</event>
<event>
13    1  0.1675423E-008  0.1435052E+03  0.7546771E-02  0.1328631E+00
          2   -1    0    0  503    0  0.00000000000E+00  0.00000000000E+00  0.16849534838E+04  0.16849534838E+04  0.00000000000E+00 0. -1.
          2   -1    0    0  502    0 -0.00000000000E+00 -0.00000000000E+00 -0.13311336145E+04  0.13311336145E+04  0.00000000000E+00 0. -1.
         24    2    1    2    0    0  0.12702627092E+03 -0.12291910124E+02  0.13088771853E+03  0.20583897835E+03  0.94611445342E+02 0.  0.
         25    2    1    2    0    0  0.29391877380E+02  0.10397418676E+03  0.13155105105E+03  0.21120223828E+03  0.12500476972E+03 0.  0.
         24    2    1    2    0    0 -0.29366362560E+02 -0.16004167092E+03 -0.80363659730E+03  0.82426933345E+03  0.84335246942E+02 0.  0.
        -11    1    3    3    0    0 -0.20017942259E+01 -0.24835930382E+01  0.56481824012E+02  0.56571829192E+02  0.00000000000E+00 0.  1.
         12    1    3    3    0    0  0.12902806515E+03 -0.98083170858E+01  0.74405894515E+02  0.14926714916E+03  0.00000000000E+00 0. -1.
        -13    1    5    5    0    0 -0.47791464479E+02 -0.66096924125E+02 -0.26773003987E+03  0.27987890543E+03  0.00000000000E+00 0.  1.
         14    1    5    5    0    0  0.18425101920E+02 -0.93944746797E+02 -0.53590655743E+03  0.54439042802E+03  0.00000000000E+00 0. -1.
          5    1    4    4  501    0  0.25680366827E+02  0.33489573493E+02  0.13385218522E+03  0.14042624491E+03  0.47000000000E+01 0.  1.
         -5    1    4    4    0  501  0.37115105531E+01  0.70484613268E+02 -0.23011341687E+01  0.70775993364E+02  0.47000000000E+01 0.  1.
          1    1    1    2  502    0 -0.99527993514E+02  0.10366077038E+03 -0.42775376811E+03  0.45124789523E+03  0.00000000000E+00 0. -1.
          1    1    1    2  503    0 -0.27523792231E+02 -0.35301376097E+02  0.13227714651E+04  0.13235286530E+04  0.00000000000E+00 0. -1.
<mgrwt>
<rscale>  0 0.80148341E+02</rscale>
<asrwt>0</asrwt>
<pdfrwt beam="1">  1        2 0.24778728E+00 0.44763225E+02</pdfrwt>
<pdfrwt beam="2">  1        2 0.19575494E+00 0.14350522E+03</pdfrwt>
<totfact> 0.41415968E+01</totfact>
</mgrwt>
</event>
<event>
13    1  0.1675423E-008  0.9331206E+02  0.7546771E-02  0.1433280E+00
          2   -1    0    0  503    0  0.00000000000E+00  0.00000000000E+00  0.45054287579E+04  0.45054287579E+04  0.00000000000E+00 0. -1.
          2   -1    0    0  502    0 -0.00000000000E+00 -0.00000000000E+00 -0.85030446329E+03  0.85030446329E+03  0.00000000000E+00 0. -1.
         24    2    1    2    0    0  0.21764509025E+02 -0.29477232911E+02  0.11162120014E+03  0.14836877694E+03  0.90616778456E+02 0.  0.
         25    2    1    2    0    0  0.15838476775E+02 -0.11890157036E+03 -0.51765330308E+03  0.54587382465E+03  0.12499939788E+03 0.  0.
         24    2    1    2    0    0 -0.82911207680E+02  0.54666891547E+02 -0.53983313748E+02  0.13856019814E+03  0.80137338091E+02 0.  0.
        -11    1    3    3    0    0 -0.19874192788E+02  0.21889098100E+02  0.21339094852E+02  0.36461940756E+02  0.00000000000E+00 0.  1.
         12    1    3    3    0    0  0.41638701814E+02 -0.51366331010E+02  0.90282105288E+02  0.11190683619E+03  0.00000000000E+00 0. -1.
        -13    1    5    5    0    0  0.10693584703E+02 -0.86472502270E+01 -0.11134183871E+01  0.13797368980E+02  0.00000000000E+00 0.  1.
         14    1    5    5    0    0 -0.93604792383E+02  0.63314141774E+02 -0.52869895361E+02  0.12476282916E+03  0.00000000000E+00 0. -1.
          5    1    4    4  501    0  0.45322326188E+02  0.44729998719E+01 -0.11922303192E+03  0.12771195057E+03  0.47000000000E+01 0.  1.
         -5    1    4    4    0  501 -0.29483849413E+02 -0.12337457023E+03 -0.39843027116E+03  0.41816187408E+03  0.47000000000E+01 0.  1.
          1    1    1    2  502    0 -0.16769951485E+02  0.24052370348E+02 -0.20233452524E+03  0.20444805672E+03  0.00000000000E+00 0. -1.
          1    1    1    2  503    0  0.62078173365E+02  0.69659541373E+02  0.43174742366E+04  0.43184823648E+04  0.00000000000E+00 0. -1.
<mgrwt>
<rscale>  0 0.52307222E+02</rscale>
<asrwt>0</asrwt>
<pdfrwt beam="1">  1        2 0.66256304E+00 0.93312060E+02</pdfrwt>
<pdfrwt beam="2">  1        2 0.12504478E+00 0.29321456E+02</pdfrwt>
<totfact> 0.18997515E+00</totfact>
</mgrwt>
</event>
<event>
13    1  0.1675423E-008  0.1017002E+03  0.7546771E-02  0.1306324E+00
          2   -1    0    0  503    0  0.00000000000E+00  0.00000000000E+00  0.25405769706E+04  0.25405769706E+04  0.00000000000E+00 0. -1.
          2   -1    0    0  502    0 -0.00000000000E+00 -0.00000000000E+00 -0.24161203728E+04  0.24161203728E+04  0.00000000000E+00 0. -1.
         24    2    1    2    0    0 -0.98141401704E+01 -0.70721448253E+02  0.50704063093E+03  0.51817809823E+03  0.79501569049E+02 0.  0.
         25    2    1    2    0    0 -0.97014697405E+02  0.58732241496E+01 -0.12018812136E+03  0.19878831794E+03  0.12500105823E+03 0.  0.
         24    2    1    2    0    0 -0.36206434332E+02 -0.75231734733E+02  0.17318108120E+03  0.20877431720E+03  0.81389857088E+02 0.  0.
        -11    1    5    5    0    0 -0.56586010576E+02 -0.61011406153E+02  0.92822774012E+02  0.12466128368E+03  0.00000000000E+00 0.  1.
         12    1    5    5    0    0  0.20379576244E+02 -0.14220328579E+02  0.80358307190E+02  0.84113033516E+02  0.00000000000E+00 0. -1.
        -13    1    3    3    0    0  0.27075448178E+02 -0.90870389269E+00  0.15915805345E+03  0.16144717903E+03  0.00000000000E+00 0.  1.
         14    1    3    3    0    0 -0.36889588348E+02 -0.69812744361E+02  0.34788257748E+03  0.35673091920E+03  0.00000000000E+00 0. -1.
          5    1    4    4  501    0 -0.99162644469E+02  0.20545401614E+02 -0.14046762029E+03  0.17322986445E+03  0.47000000000E+01 0. -1.
         -5    1    4    4    0  501  0.21479470640E+01 -0.14672177464E+02  0.20279498930E+02  0.25558453493E+02  0.47000000000E+01 0. -1.
          1    1    1    2  502    0  0.77144247856E+02  0.12642236665E+01 -0.22293146384E+04  0.22306493651E+04  0.00000000000E+00 0. -1.
          1    1    1    2  503    0  0.65891024051E+02  0.13881573517E+03  0.17937376454E+04  0.18003072449E+04  0.00000000000E+00 0. -1.
<mgrwt>
<rscale>  0 0.88581275E+02</rscale>
<asrwt>0</asrwt>
<pdfrwt beam="1">  1        2 0.37361426E+00 0.10170024E+03</pdfrwt>
<pdfrwt beam="2">  1        2 0.35531182E+00 0.77154606E+02</pdfrwt>
<totfact> 0.46085273E+00</totfact>
</mgrwt>
</event>
<event>
13    1  0.1675423E-008  0.9782604E+02  0.7546771E-02  0.1464952E+00
          2   -1    0    0  502    0  0.00000000000E+00  0.00000000000E+00  0.39923454641E+03  0.39923454641E+03  0.00000000000E+00 0. -1.
          2   -1    0    0  503    0 -0.00000000000E+00 -0.00000000000E+00 -0.21360315357E+04  0.21360315357E+04  0.00000000000E+00 0. -1.
         24    2    1    2    0    0 -0.42865023164E+02 -0.58139655983E+02 -0.53076720197E+01  0.10836126020E+03  0.80600009438E+02 0.  0.
         25    2    1    2    0    0 -0.63818808496E+02  0.32257480252E+02 -0.10602429161E+04  0.10699748240E+04  0.12497078614E+03 0.  0.
         24    2    1    2    0    0 -0.37431156932E+02 -0.63950237499E+02 -0.41497014045E+03  0.42935707333E+03  0.81587710904E+02 0.  0.
        -11    1    5    5    0    0 -0.18976145348E+02 -0.62231251841E+01 -0.15404765978E+02  0.25221581912E+02  0.00000000000E+00 0.  1.
         12    1    5    5    0    0 -0.18455011583E+02 -0.57727112315E+02 -0.39956537447E+03  0.40413549142E+03  0.00000000000E+00 0. -1.
        -11    1    3    3    0    0 -0.64416612573E+02 -0.42611446094E+02 -0.17407285117E+02  0.79172273485E+02  0.00000000000E+00 0.  1.
         12    1    3    3    0    0  0.21551589409E+02 -0.15528209889E+02  0.12099613097E+02  0.29188986716E+02  0.00000000000E+00 0. -1.
          5    1    4    4  501    0  0.33913015230E+02  0.23717930993E+02 -0.44460033851E+03  0.44654695593E+03  0.47000000000E+01 0.  1.
         -5    1    4    4    0  501 -0.97731823726E+02  0.85395492587E+01 -0.61564257763E+03  0.62342786805E+03  0.47000000000E+01 0.  1.
          1    1    1    2  502    0  0.12200048244E+03  0.90911726660E+02  0.31818206180E+03  0.35268808346E+03  0.00000000000E+00 0. -1.
          1    1    1    2  503    0  0.22114506155E+02 -0.10793134304E+01 -0.57445832252E+03  0.57488484118E+03  0.00000000000E+00 0. -1.
<mgrwt>
<rscale>  0 0.46539764E+02</rscale>
<asrwt>0</asrwt>
<pdfrwt beam="1">  1        2 0.58710963E-01 0.97826039E+02</pdfrwt>
<pdfrwt beam="2">  1        2 0.31412228E+00 0.22140829E+02</pdfrwt>
<totfact> 0.12411892E+02</totfact>
</mgrwt>
</event>
<event>
13    1  0.1675423E-008  0.1606209E+03  0.7546771E-02  0.1200501E+00
          2   -1    0    0  503    0  0.00000000000E+00  0.00000000000E+00  0.14665781538E+04  0.14665781538E+04  0.00000000000E+00 0. -1.
          2   -1    0    0  502    0 -0.00000000000E+00 -0.00000000000E+00 -0.28676238045E+04  0.28676238045E+04  0.00000000000E+00 0. -1.
         24    2    1    2    0    0  0.26105611348E+02 -0.68484730080E+02  0.86849825986E+03  0.87535884953E+03  0.81192529611E+02 0.  0.
         25    2    1    2    0    0 -0.19083379094E+03  0.78768554351E+02 -0.83434373852E+03  0.86854789269E+03  0.12499578780E+03 0.  0.
         24    2    1    2    0    0 -0.91634977111E+02  0.18184587753E+03 -0.40714723013E+03  0.46219943514E+03  0.79965984242E+02 0.  0.
        -11    1    3    3    0    0 -0.10704999810E+02 -0.57733070125E+02  0.70423365992E+03  0.70667726168E+03  0.00000000000E+00 0.  1.
         12    1    3    3    0    0  0.36810611158E+02 -0.10751659955E+02  0.16426459994E+03  0.16868158785E+03  0.00000000000E+00 0. -1.
        -11    1    5    5    0    0 -0.85732368587E+02  0.17629686981E+03 -0.40929303211E+03  0.45381869889E+03  0.00000000000E+00 0.  1.
         12    1    5    5    0    0 -0.59026085245E+01  0.55490077261E+01  0.21458019721E+01  0.83807362589E+01  0.00000000000E+00 0. -1.
          5    1    4    4  501    0 -0.17751562930E+03  0.10056487098E+03 -0.79922739186E+03  0.82487066005E+03  0.47000000000E+01 0.  1.
         -5    1    4    4    0  501 -0.13318161636E+02 -0.21796316625E+02 -0.35116346664E+02  0.43677232637E+02  0.47000000000E+01 0. -1.
          1    1    1    2  502    0  0.10446337008E+03 -0.92752026733E+02 -0.15598909734E+04  0.15661338969E+04  0.00000000000E+00 0. -1.
          1    1    1    2  503    0  0.15189978662E+03 -0.99377675071E+02  0.53183803147E+03  0.56196188411E+03  0.00000000000E+00 0. -1.
<mgrwt>
<rscale>  0 0.14997745E+03</rscale>
<asrwt>0</asrwt>
<pdfrwt beam="1">  1        2 0.21567326E+00 0.16062090E+03</pdfrwt>
<pdfrwt beam="2">  1        2 0.42170938E+00 0.14003928E+03</pdfrwt>
<totfact> 0.81001778E+00</totfact>
</mgrwt>
</event>
<event>
13    1  0.1675423E-008  0.1034561E+03  0.7546771E-02  0.1310263E+00
          2   -1    0    0  503    0  0.00000000000E+00  0.00000000000E+00  0.20405634787E+04  0.20405634787E+04  0.00000000000E+00 0. -1.
          2   -1    0    0  502    0 -0.00000000000E+00 -0.00000000000E+00 -0.40934552320E+03  0.40934552320E+03  0.00000000000E+00 0. -1.
         24    2    1    2    0    0  0.14952012087E+03  0.25409624614E+02  0.88803457072E+03  0.90429916365E+03  0.78419787174E+02 0.  0.
         25    2    1    2    0    0 -0.25040699207E+03 -0.37598848992E+02  0.14803023184E+02  0.28277586823E+03  0.12500290810E+03 0.  0.
         24    2    1    2    0    0 -0.53805398167E+01  0.36625788586E+01  0.13383542012E+03  0.16707598434E+03  0.99800301452E+02 0.  0.
        -13    1    5    5    0    0 -0.48292203341E+02  0.21369176650E+02  0.60752227934E+02  0.80496036009E+02  0.00000000000E+00 0.  1.
         14    1    5    5    0    0  0.42911663525E+02 -0.17706597791E+02  0.73083192188E+02  0.86579948327E+02  0.00000000000E+00 0. -1.
        -13    1    3    3    0    0  0.11041023807E+02 -0.21430460638E+02  0.15016420525E+03  0.15208700598E+03  0.00000000000E+00 0.  1.
         14    1    3    3    0    0  0.13847909706E+03  0.46840085252E+02  0.73787036547E+03  0.75221215767E+03  0.00000000000E+00 0. -1.
          5    1    4    4  501    0 -0.18253427566E+03 -0.50456713001E+02  0.61603957671E+02  0.19920285962E+03  0.47000000000E+01 0.  1.
         -5    1    4    4    0  501 -0.67872716407E+02  0.12857864009E+02 -0.46800934487E+02  0.83573008611E+02  0.47000000000E+01 0.  1.
          1    1    1    2  502    0  0.83837245386E+02 -0.61125838872E+02 -0.23819389806E+03  0.25981028649E+03  0.00000000000E+00 0. -1.
          1    1    1    2  503    0  0.22430165631E+02  0.69652484391E+02  0.83273883956E+03  0.83594769921E+03  0.00000000000E+00 0. -1.
<mgrwt>
<rscale>  0 0.87008030E+02</rscale>
<asrwt>0</asrwt>
<pdfrwt beam="1">  1        2 0.30008286E+00 0.73175002E+02</pdfrwt>
<pdfrwt beam="2">  1        2 0.60197872E-01 0.10345606E+03</pdfrwt>
<totfact> 0.11561469E+02</totfact>
</mgrwt>
</event>
<event>
13    1  0.1675423E-008  0.7236148E+02  0.7546771E-02  0.1356145E+00
          2   -1    0    0  502    0  0.00000000000E+00  0.00000000000E+00  0.10143986124E+04  0.10143986124E+04  0.00000000000E+00 0. -1.
          2   -1    0    0  503    0 -0.00000000000E+00 -0.00000000000E+00 -0.26819136053E+04  0.26819136053E+04  0.00000000000E+00 0. -1.
         24    2    1    2    0    0  0.72435358509E+03  0.32918354748E+03 -0.63782591099E+03  0.10244316604E+04  0.97920427085E+02 0.  0.
         25    2    1    2    0    0 -0.42760569410E+03 -0.13078630151E+03 -0.19567362950E+03  0.50385025074E+03  0.12500087840E+03 0.  0.
         24    2    1    2    0    0 -0.31118220371E+03 -0.81540577764E+02 -0.27604813275E+03  0.43060562124E+03  0.75732421835E+02 0.  0.
        -13    1    5    5    0    0 -0.21610120515E+03 -0.91574883306E+02 -0.20234964786E+03  0.30988880281E+03  0.00000000000E+00 0.  1.
         14    1    5    5    0    0 -0.95080998561E+02  0.10034305543E+02 -0.73698484892E+02  0.12071681842E+03  0.00000000000E+00 0. -1.
        -13    1    3    3    0    0  0.54056850311E+03  0.22253243940E+03 -0.41767855594E+03  0.71846389557E+03  0.00000000000E+00 0.  1.
         14    1    3    3    0    0  0.18378508197E+03  0.10665110807E+03 -0.22014735505E+03  0.30596776488E+03  0.00000000000E+00 0. -1.
          5    1    4    4  501    0 -0.33977778736E+03 -0.71792725228E+02 -0.19423344697E+03  0.39793449473E+03  0.47000000000E+01 0.  1.
         -5    1    4    4    0  501 -0.87827906743E+02 -0.58993576278E+02 -0.14401825299E+01  0.10591575601E+03  0.47000000000E+01 0.  1.
          1    1    1    2  502    0  0.46692251648E+02 -0.52160723319E+02  0.58650657944E+03  0.59066985292E+03  0.00000000000E+00 0. -1.
          1    1    1    2  503    0 -0.32257938925E+02 -0.64695944888E+02 -0.11444738991E+04  0.11467548324E+04  0.00000000000E+00 0. -1.
<mgrwt>
<rscale>  0 0.71174240E+02</rscale>
<asrwt>0</asrwt>
<pdfrwt beam="1">  1        2 0.14917627E+00 0.70006481E+02</pdfrwt>
<pdfrwt beam="2">  1        2 0.39439906E+00 0.72361478E+02</pdfrwt>
<totfact> 0.20244710E+01</totfact>
</mgrwt>
</event>
<event>
13    1  0.1675423E-008  0.1533206E+03  0.7546771E-02  0.1297945E+00
          2   -1    0    0  503    0  0.00000000000E+00  0.00000000000E+00  0.13896933261E+04  0.13896933261E+04  0.00000000000E+00 0. -1.
          2   -1    0    0  502    0 -0.00000000000E+00 -0.00000000000E+00 -0.29319373210E+04  0.29319373210E+04  0.00000000000E+00 0. -1.
         24    2    1    2    0    0 -0.66216999496E+02  0.17871699184E+03 -0.11573826061E+04  0.11751470064E+04  0.71495003567E+02 0.  0.
         25    2    1    2    0    0  0.21009108685E+03 -0.93110083275E+02 -0.32034969868E+02  0.26355239767E+03  0.12500349851E+03 0.  0.
         24    2    1    2    0    0 -0.12349225706E+03  0.28313120805E+02 -0.67419243576E+03  0.69108472415E+03  0.83729834379E+02 0.  0.
        -11    1    5    5    0    0 -0.10657173787E+03  0.10382738745E+01 -0.61081323407E+03  0.62004146655E+03  0.00000000000E+00 0.  1.
         12    1    5    5    0    0 -0.16920519193E+02  0.27274846931E+02 -0.63379201685E+02  0.71043257605E+02  0.00000000000E+00 0. -1.
        -13    1    3    3    0    0  0.12444387428E+02  0.11449767385E+02 -0.14968434471E+03  0.15063652612E+03  0.00000000000E+00 0.  1.
         14    1    3    3    0    0 -0.78661386924E+02  0.16726722445E+03 -0.10076982614E+04  0.10245104802E+04  0.00000000000E+00 0. -1.
          5    1    4    4  501    0 -0.58963682227E+01  0.72996119889E+01  0.17328988846E+02  0.20259204028E+02  0.47000000000E+01 0. -1.
         -5    1    4    4    0  501  0.21598745507E+03 -0.10040969526E+03 -0.49363958715E+02  0.24329319364E+03  0.47000000000E+01 0. -1.
          1    1    1    2  502    0 -0.39896007833E+02  0.38255188471E+02 -0.92973353147E+03  0.93137510726E+03  0.00000000000E+00 0. -1.
          1    1    1    2  503    0  0.19514177540E+02 -0.15217521784E+03  0.12510995483E+04  0.12604714117E+04  0.00000000000E+00 0. -1.
<mgrwt>
<rscale>  0 0.92057344E+02</rscale>
<asrwt>0</asrwt>
<pdfrwt beam="1">  1        2 0.20436667E+00 0.15332061E+03</pdfrwt>
<pdfrwt beam="2">  1        2 0.43116724E+00 0.55273419E+02</pdfrwt>
<totfact> 0.94867613E+00</totfact>
</mgrwt>
</event>
<event>
13    1  0.1675423E-008  0.1293119E+03  0.7546771E-02  0.1269093E+00
          2   -1    0    0  502    0  0.00000000000E+00  0.00000000000E+00  0.24950569585E+04  0.24950569585E+04  0.00000000000E+00 0. -1.
          2   -1    0    0  503    0 -0.00000000000E+00 -0.00000000000E+00 -0.21967830657E+04  0.21967830657E+04  0.00000000000E+00 0. -1.
         24    2    1    2    0    0 -0.18221083327E+02 -0.53592974426E+02  0.16694227925E+03  0.19379794034E+03  0.80521439957E+02 0.  0.
         25    2    1    2    0    0  0.17348915291E+03  0.55631784968E+02 -0.69770102611E+03  0.73185048774E+03  0.12500013160E+03 0.  0.
         24    2    1    2    0    0  0.87287577006E+01  0.52035292731E+02  0.70688115719E+01  0.98315015168E+02  0.82655981090E+02 0.  0.
        -11    1    3    3    0    0  0.12732704484E+02 -0.94747136035E+01 -0.24316592406E+01  0.16056304930E+02  0.00000000000E+00 0.  1.
         12    1    3    3    0    0 -0.30953787811E+02 -0.44118260822E+02  0.16937393849E+03  0.17774163541E+03  0.00000000000E+00 0. -1.
        -13    1    5    5    0    0 -0.32292686378E+02  0.32087160600E+02  0.21673207528E+02  0.50419553681E+02  0.00000000000E+00 0.  1.
         14    1    5    5    0    0  0.41021444079E+02  0.19948132131E+02 -0.14604395956E+02  0.47895461487E+02  0.00000000000E+00 0. -1.
          5    1    4    4  501    0  0.17658693817E+03  0.35246808192E+02 -0.47270890926E+03  0.50586666930E+03  0.47000000000E+01 0. -1.
         -5    1    4    4    0  501 -0.30977852597E+01  0.20384976776E+02 -0.22499211685E+03  0.22598381844E+03  0.47000000000E+01 0. -1.
          1    1    1    2  502    0 -0.83666634916E+02 -0.85091579137E+02  0.22420292002E+04  0.22452028009E+04  0.00000000000E+00 0. -1.
          1    1    1    2  503    0 -0.80330192371E+02  0.31017475863E+02 -0.14200653720E+04  0.14226737801E+04  0.00000000000E+00 0. -1.
<mgrwt>
<rscale>  0 0.10552304E+03</rscale>
<asrwt>0</asrwt>
<pdfrwt beam="1">  1        2 0.36692014E+00 0.12931186E+03</pdfrwt>
<pdfrwt beam="2">  1        2 0.32305633E+00 0.86110531E+02</pdfrwt>
<totfact> 0.59342599E+00</totfact>
</mgrwt>
</event>
<event>
13    1  0.1675423E-008  0.9936398E+02  0.7546771E-02  0.1454476E+00
          2   -1    0    0  503    0  0.00000000000E+00  0.00000000000E+00  0.75198184063E+03  0.75198184063E+03  0.00000000000E+00 0. -1.
          2   -1    0    0  502    0 -0.00000000000E+00 -0.00000000000E+00 -0.78421312798E+03  0.78421312798E+03  0.00000000000E+00 0. -1.
         24    2    1    2    0    0  0.85269312464E+01 -0.11026991382E+02  0.37378665788E+02  0.10431443138E+03  0.96384816457E+02 0.  0.
         25    2    1    2    0    0 -0.29467910099E+01 -0.40957546837E+02 -0.33165370231E+02  0.13567127908E+03  0.12498219859E+03 0.  0.
         24    2    1    2    0    0  0.80297525014E+02  0.12618208676E+02 -0.28057639742E+03  0.30313877570E+03  0.81012905338E+02 0.  0.
        -11    1    3    3    0    0  0.83064148469E+01 -0.48584554660E+02  0.44125270887E+02  0.66155083024E+02  0.00000000000E+00 0.  1.
         12    1    3    3    0    0  0.22051639957E+00  0.37557563278E+02 -0.67466050993E+01  0.38159348359E+02  0.00000000000E+00 0. -1.
        -11    1    5    5    0    0  0.54949919510E+02 -0.22008627152E+02 -0.22648426059E+03  0.23409184868E+03  0.00000000000E+00 0.  1.
         12    1    5    5    0    0  0.25347605504E+02  0.34626835828E+02 -0.54092136823E+02  0.69046927015E+02  0.00000000000E+00 0. -1.
          5    1    4    4  501    0  0.21188565357E+02 -0.51780952720E+02  0.32394322947E+02  0.64820556351E+02  0.47000000000E+01 0.  1.
         -5    1    4    4    0  501 -0.24135356367E+02  0.10823405883E+02 -0.65559693178E+02  0.70850722731E+02  0.47000000000E+01 0.  1.
          1    1    1    2  502    0  0.22400689034E+02  0.71768397166E+01 -0.36893471677E+03  0.36968381509E+03  0.00000000000E+00 0. -1.
          1    1    1    2  503    0 -0.10827835428E+03  0.32189489826E+02  0.61306653128E+03  0.62338666736E+03  0.00000000000E+00 0. -1.
<mgrwt>
<rscale>  0 0.48345298E+02</rscale>
<asrwt>0</asrwt>
<pdfrwt beam="1">  1        2 0.11058556E+00 0.99363978E+02</pdfrwt>
<pdfrwt beam="2">  1        2 0.11532546E+00 0.23522285E+02</pdfrwt>
<totfact> 0.27324656E+02</totfact>
</mgrwt>
</event>
<event>
13    1  0.1675423E-008  0.7166002E+02  0.7546771E-02  0.1355143E+00
          2   -1    0    0  502    0  0.00000000000E+00  0.00000000000E+00  0.14499573089E+04  0.14499573089E+04  0.00000000000E+00 0. -1.
          2   -1    0    0  503    0 -0.00000000000E+00 -0.00000000000E+00 -0.24898611236E+04  0.24898611236E+04  0.00000000000E+00 0. -1.
         24    2    1    2    0    0 -0.18511797021E+03  0.22505651026E+02  0.53578754482E+03  0.57322550889E+03  0.82122004616E+02 0.  0.
         25    2    1    2    0    0  0.10877168566E+03  0.12521156649E+03 -0.15774909715E+04  0.15911040592E+04  0.12500058465E+03 0.  0.
         24    2    1    2    0    0  0.49706179440E+02 -0.81008458229E+01 -0.10996998749E+02  0.96263967945E+02  0.81298767306E+02 0.  0.
        -11    1    5    5    0    0  0.43509210439E+02  0.19912126014E+02  0.21892302960E+02  0.52619550400E+02  0.00000000000E+00 0.  1.
         12    1    5    5    0    0  0.61969690012E+01 -0.28012971837E+02 -0.32889301709E+02  0.43644417545E+02  0.00000000000E+00 0. -1.
        -13    1    3    3    0    0 -0.17018343485E+03  0.44658074386E+01  0.38956107631E+03  0.42513548089E+03  0.00000000000E+00 0.  1.
         14    1    3    3    0    0 -0.14934535362E+02  0.18039843587E+02  0.14622646850E+03  0.14809002800E+03  0.00000000000E+00 0. -1.
          5    1    4    4  501    0  0.10591823893E+03  0.11372164621E+03 -0.15667401869E+04  0.15744358321E+04  0.47000000000E+01 0.  1.
         -5    1    4    4    0  501  0.28534467277E+01  0.11489920275E+02 -0.10750784591E+02  0.16668227124E+02  0.47000000000E+01 0.  1.
          1    1    1    2  502    0  0.61459825419E+01 -0.71331871678E+02  0.84296541891E+03  0.84600041755E+03  0.00000000000E+00 0. -1.
          1    1    1    2  503    0  0.20494122567E+02 -0.68284500015E+02 -0.83016880821E+03  0.83322447883E+03  0.00000000000E+00 0. -1.
<mgrwt>
<rscale>  0 0.71476594E+02</rscale>
<asrwt>0</asrwt>
<pdfrwt beam="1">  1        2 0.21322902E+00 0.71660025E+02</pdfrwt>
<pdfrwt beam="2">  1        2 0.36615604E+00 0.71293632E+02</pdfrwt>
<totfact> 0.14975879E+01</totfact>
</mgrwt>
</event>
<event>
13    1  0.1675423E-008  0.5947983E+02  0.7546771E-02  0.1489973E+00
          2   -1    0    0  502    0  0.00000000000E+00  0.00000000000E+00  0.13276325833E+04  0.13276325833E+04  0.00000000000E+00 0. -1.
          2   -1    0    0  503    0 -0.00000000000E+00 -0.00000000000E+00 -0.75102019895E+03  0.75102019895E+03  0.00000000000E+00 0. -1.
         24    2    1    2    0    0 -0.10789484138E+03  0.47582865023E+02  0.96593873050E+03  0.97636601941E+03  0.79671493901E+02 0.  0.
         25    2    1    2    0    0 -0.12408831221E+02 -0.10793152569E+03 -0.10451986327E+03  0.19584068132E+03  0.12500390919E+03 0.  0.
         24    2    1    2    0    0  0.46348858363E+02  0.32941068330E+02 -0.20035882954E+02  0.10116470597E+03  0.81237494262E+02 0.  0.
        -11    1    5    5    0    0  0.45679930049E+02 -0.12976898460E+02 -0.27139658265E+02  0.54695675822E+02  0.00000000000E+00 0.  1.
         12    1    5    5    0    0  0.66892831386E+00  0.45917966790E+02  0.71037753114E+01  0.46469030148E+02  0.00000000000E+00 0. -1.
        -13    1    3    3    0    0  0.72507183697E+01 -0.10928928574E+02  0.82708490557E+02  0.83741917860E+02  0.00000000000E+00 0.  1.
         14    1    3    3    0    0 -0.11514555975E+03  0.58511793597E+02  0.88323023994E+03  0.89262410155E+03  0.00000000000E+00 0. -1.
          5    1    4    4  501    0 -0.25830260796E+02 -0.46855974965E+02 -0.11980662412E+03  0.13129509490E+03  0.47000000000E+01 0.  1.
         -5    1    4    4    0  501  0.13421429575E+02 -0.61075550730E+02  0.15286760852E+02  0.64545586419E+02  0.47000000000E+01 0.  1.
          1    1    1    2  502    0  0.45391013474E+02  0.38090681089E+02  0.26656481889E+03  0.27307150485E+03  0.00000000000E+00 0. -1.
          1    1    1    2  503    0  0.28563800768E+02 -0.10683088747E+02 -0.53133541886E+03  0.53220987066E+03  0.00000000000E+00 0. -1.
<mgrwt>
<rscale>  0 0.42590018E+02</rscale>
<asrwt>0</asrwt>
<pdfrwt beam="1">  1        2 0.19524009E+00 0.59479831E+02</pdfrwt>
<pdfrwt beam="2">  1        2 0.11044415E+00 0.30496215E+02</pdfrwt>
<totfact> 0.13748287E+02</totfact>
</mgrwt>
</event>
<event>
13    1  0.1675423E-008  0.7442138E+02  0.7546771E-02  0.1346043E+00
          2   -1    0    0  502    0  0.00000000000E+00  0.00000000000E+00  0.12178082530E+04  0.12178082530E+04  0.00000000000E+00 0. -1.
          4   -1    0    0  503    0 -0.00000000000E+00 -0.00000000000E+00 -0.83964899125E+03  0.83964899125E+03  0.00000000000E+00 0. -1.
         24    2    1    2    0    0 -0.21320146144E+03  0.91341878208E+02  0.61422594058E+03  0.66133025536E+03  0.79284290350E+02 0.  0.
         25    2    1    2    0    0  0.24347121684E+03 -0.84522769558E+02 -0.37608133736E+03  0.47274696809E+03  0.12502076438E+03 0.  0.
         24    2    1    2    0    0 -0.17012798418E+02 -0.16591006964E+02  0.42392530676E+02  0.93326449416E+02  0.79674353975E+02 0.  0.
        -11    1    5    5    0    0 -0.38153712211E+02 -0.37121374545E+02  0.22623256068E+02  0.57840417691E+02  0.00000000000E+00 0.  1.
         12    1    5    5    0    0  0.21140913794E+02  0.20530367581E+02  0.19769274608E+02  0.35486031724E+02  0.00000000000E+00 0. -1.
        -13    1    3    3    0    0 -0.42971132361E+02  0.73739063373E+00  0.55071692711E+02  0.69856662527E+02  0.00000000000E+00 0.  1.
         14    1    3    3    0    0 -0.17023032908E+03  0.90604487574E+02  0.55915424787E+03  0.59147359283E+03  0.00000000000E+00 0. -1.
          5    1    4    4  501    0  0.44856881220E+02 -0.69428023502E+02 -0.15053873876E+03  0.17180335301E+03  0.47000000000E+01 0. -1.
         -5    1    4    4    0  501  0.19861433562E+03 -0.15094746056E+02 -0.22554259860E+03  0.30094361508E+03  0.47000000000E+01 0. -1.
          1    1    1    2  502    0  0.34738969100E+02  0.66338871883E+02  0.45700206091E+03  0.46309666979E+03  0.00000000000E+00 0. -1.
          3    1    1    2  503    0 -0.47995926078E+02 -0.56566973569E+02 -0.35937993300E+03  0.36695690164E+03  0.00000000000E+00 0. -1.
<mgrwt>
<rscale>  0 0.74303153E+02</rscale>
<asrwt>0</asrwt>
<pdfrwt beam="1">  1        2 0.17908945E+00 0.74421378E+02</pdfrwt>
<pdfrwt beam="2">  1        4 0.12347779E+00 0.74185116E+02</pdfrwt>
<totfact> 0.60243723E+00</totfact>
</mgrwt>
</event>
<event>
13    1  0.1675423E-008  0.7016876E+02  0.7546771E-02  0.1497768E+00
          2   -1    0    0  503    0  0.00000000000E+00  0.00000000000E+00  0.67615507438E+03  0.67615507438E+03  0.00000000000E+00 0. -1.
          2   -1    0    0  502    0 -0.00000000000E+00 -0.00000000000E+00 -0.13171293668E+04  0.13171293668E+04  0.00000000000E+00 0. -1.
         24    2    1    2    0    0  0.66180415850E+02 -0.23339409767E+02  0.93151637327E+02  0.14095441115E+03  0.79160236203E+02 0.  0.
         25    2    1    2    0    0 -0.17838068755E+03 -0.21784879975E+02 -0.71073613174E+03  0.74368332500E+03  0.12499915297E+03 0.  0.
         24    2    1    2    0    0  0.16114310630E+03 -0.30483373022E+02  0.13867148301E+03  0.23823888191E+03  0.10310988271E+03 0.  0.
        -13    1    3    3    0    0  0.15286420825E+02 -0.36255765241E+02  0.68556101311E+01  0.39939386139E+02  0.00000000000E+00 0.  1.
         14    1    3    3    0    0  0.50893995025E+02  0.12916355474E+02  0.86296027196E+02  0.10101502501E+03  0.00000000000E+00 0. -1.
        -13    1    5    5    0    0  0.86172092093E+02 -0.17840684607E+02  0.97095206078E+01  0.88533577096E+02  0.00000000000E+00 0.  1.
         14    1    5    5    0    0  0.74971014208E+02 -0.12642688414E+02  0.12896196241E+03  0.14970530481E+03  0.00000000000E+00 0. -1.
          5    1    4    4  501    0 -0.15441822252E+03  0.28532849986E+02 -0.59106589343E+03  0.61158817136E+03  0.47000000000E+01 0.  1.
         -5    1    4    4    0  501 -0.23962465031E+02 -0.50317729961E+02 -0.11967023831E+03  0.13209515364E+03  0.47000000000E+01 0.  1.
          1    1    1    2  502    0 -0.10113692604E+01  0.24470573546E+02 -0.51247170525E+03  0.51305660557E+03  0.00000000000E+00 0. -1.
          1    1    1    2  503    0 -0.47931465343E+02  0.51137089218E+02  0.35041042423E+03  0.35735121754E+03  0.00000000000E+00 0. -1.
<mgrwt>
<rscale>  0 0.41455225E+02</rscale>
<asrwt>0</asrwt>
<pdfrwt beam="1">  1        2 0.99434570E-01 0.70168758E+02</pdfrwt>
<pdfrwt beam="2">  1        2 0.19369550E+00 0.24491465E+02</pdfrwt>
<totfact> 0.16310410E+02</totfact>
</mgrwt>
</event>
<event>
13    1  0.1675423E-008  0.4605188E+02  0.7546771E-02  0.1531219E+00
         -3   -1    0    0    0  501 -0.00000000000E+00  0.00000000000E+00  0.11537240083E+04  0.11537240083E+04  0.00000000000E+00 0.  1.
          2   -1    0    0  503    0  0.00000000000E+00 -0.00000000000E+00 -0.39227163538E+03  0.39227163538E+03  0.00000000000E+00 0. -1.
         24    2    1    2    0    0  0.85766671186E+02 -0.13018292804E+03  0.51431701610E+03  0.54273575075E+03  0.75740249874E+02 0.  0.
         25    2    1    2    0    0 -0.48958872814E+02  0.12854805940E+03  0.21690167101E+03  0.28564924701E+03  0.12501033008E+03 0.  0.
         24    2    1    2    0    0 -0.88063058822E+01  0.15297034680E+02  0.14851070321E+03  0.16981078995E+03  0.80428385048E+02 0.  0.
        -11    1    3    3    0    0  0.97849885880E+02 -0.97109813240E+02  0.39746851961E+03  0.42069720712E+03  0.00000000000E+00 0.  1.
         12    1    3    3    0    0 -0.12083214695E+02 -0.33073114798E+02  0.11684849649E+03  0.12203854363E+03  0.00000000000E+00 0. -1.
        -13    1    5    5    0    0 -0.21929736845E+02 -0.32521653737E+01  0.28076691443E+01  0.22346653972E+02  0.00000000000E+00 0.  1.
         14    1    5    5    0    0  0.13123430963E+02  0.18549200053E+02  0.14570303407E+03  0.14746413598E+03  0.00000000000E+00 0. -1.
          5    1    4    4  502    0 -0.31406026434E+02  0.70953431854E+02  0.20816674006E+02  0.80474541968E+02  0.47000000000E+01 0.  1.
         -5    1    4    4    0  502 -0.17552846380E+02  0.57594627544E+02  0.19608499700E+03  0.20517470504E+03  0.47000000000E+01 0.  1.
          1    1    1    2  503    0 -0.77821262906E+01  0.28752665461E+02 -0.32978902641E+03  0.33113151345E+03  0.00000000000E+00 0. -1.
         -4    1    1    2    0  501 -0.20219366199E+02 -0.42414831500E+02  0.21151200903E+03  0.21666834256E+03  0.00000000000E+00 0.  1.
<mgrwt>
<rscale>  0 0.37037233E+02</rscale>
<asrwt>0</asrwt>
<pdfrwt beam="2">  1        2 0.57687006E-01 0.29787200E+02</pdfrwt>
<pdfrwt beam="1">  1       -3 0.16966529E+00 0.46051883E+02</pdfrwt>
<totfact> 0.13526026E+01</totfact>
</mgrwt>
</event>
<event>
13    1  0.1675423E-008  0.1171768E+03  0.7546771E-02  0.1451328E+00
          2   -1    0    0  502    0  0.00000000000E+00  0.00000000000E+00  0.91612561749E+03  0.91612561749E+03  0.00000000000E+00 0. -1.
          2   -1    0    0  503    0 -0.00000000000E+00 -0.00000000000E+00 -0.87875862866E+03  0.87875862866E+03  0.00000000000E+00 0. -1.
         24    2    1    2    0    0  0.81177171704E+01 -0.17169791388E+02 -0.60880359061E+02  0.10262377640E+03  0.80402253040E+02 0.  0.
         25    2    1    2    0    0 -0.16703495941E+03  0.44634673870E+01 -0.12130594582E+03  0.24137228980E+03  0.12499939834E+03 0.  0.
         24    2    1    2    0    0  0.22073585673E+02 -0.17561102556E+02 -0.28403317278E+03  0.29680878365E+03  0.81393951279E+02 0.  0.
        -11    1    5    5    0    0 -0.27965521796E+02 -0.22374033899E+02 -0.12359536064E+03  0.12867976132E+03  0.00000000000E+00 0.  1.
         12    1    5    5    0    0  0.50039107470E+02  0.48129313429E+01 -0.16043781214E+03  0.16812902233E+03  0.00000000000E+00 0. -1.
        -13    1    3    3    0    0 -0.36118568786E+02 -0.33759563306E+01 -0.27077232795E+02  0.45267257793E+02  0.00000000000E+00 0.  1.
         14    1    3    3    0    0  0.44236285956E+02 -0.13793835057E+02 -0.33803126266E+02  0.57356518602E+02  0.00000000000E+00 0. -1.
          5    1    4    4  501    0 -0.27359760838E+02  0.37760086363E+02  0.86400935690E+01  0.47656288695E+02  0.47000000000E+01 0.  1.
         -5    1    4    4    0  501 -0.13967519858E+03 -0.33296618976E+02 -0.12994603939E+03  0.19371600111E+03  0.47000000000E+01 0.  1.
          1    1    1    2  502    0 -0.44202198194E+01 -0.19928339462E+02  0.81142231686E+03  0.81167903346E+03  0.00000000000E+00 0. -1.
          1    1    1    2  503    0  0.14126387639E+03  0.50195766019E+02 -0.30783585038E+03  0.34240036285E+03  0.00000000000E+00 0. -1.
<mgrwt>
<rscale>  0 0.48906958E+02</rscale>
<asrwt>0</asrwt>
<pdfrwt beam="1">  1        2 0.13472436E+00 0.20412669E+02</pdfrwt>
<pdfrwt beam="2">  1        2 0.12922921E+00 0.11717676E+03</pdfrwt>
<totfact> 0.18935931E+02</totfact>
</mgrwt>
</event>
<event>
13    1  0.1675423E-008  0.7666053E+02  0.7546771E-02  0.1343274E+00
          2   -1    0    0  503    0  0.00000000000E+00  0.00000000000E+00  0.87022909413E+03  0.87022909413E+03  0.00000000000E+00 0. -1.
          2   -1    0    0  502    0 -0.00000000000E+00 -0.00000000000E+00 -0.22398437795E+04  0.22398437795E+04  0.00000000000E+00 0. -1.
         24    2    1    2    0    0  0.11528590035E+03  0.25523641299E+02 -0.58392982156E+02  0.15492927478E+03  0.81553937576E+02 0.  0.
         25    2    1    2    0    0 -0.64093422983E+02 -0.37716909922E+01  0.31817885358E+03  0.34782692183E+03  0.12499436853E+03 0.  0.
         24    2    1    2    0    0 -0.10094026433E+03 -0.95359307924E+01 -0.74561406484E+03  0.75675590194E+03  0.80369711278E+02 0.  0.
        -13    1    3    3    0    0  0.12798618199E+00 -0.10248375784E+02  0.11618116127E+02  0.15492779254E+02  0.00000000000E+00 0.  1.
         14    1    3    3    0    0  0.11515791417E+03  0.35772017083E+02 -0.70011098283E+02  0.13943649552E+03  0.00000000000E+00 0. -1.
        -13    1    5    5    0    0 -0.11416240034E+03 -0.14540815014E+02 -0.67500647524E+03  0.68474683684E+03  0.00000000000E+00 0.  1.
         14    1    5    5    0    0  0.13222136004E+02  0.50048842214E+01 -0.70607589603E+02  0.72009065097E+02  0.00000000000E+00 0. -1.
          5    1    4    4  501    0  0.85272107580E+01  0.23409246961E+02  0.59000687828E+01  0.26030885084E+02  0.47000000000E+01 0. -1.
         -5    1    4    4    0  501 -0.72620633741E+02 -0.27180937953E+02  0.31227878480E+03  0.32179603675E+03  0.47000000000E+01 0. -1.
          1    1    1    2  502    0  0.46101164574E+02  0.61447323878E+02 -0.13632727630E+04  0.13654353582E+04  0.00000000000E+00 0. -1.
          1    1    1    2  503    0  0.36466223945E+01 -0.73663343393E+02  0.47948627105E+03  0.48512541692E+03  0.00000000000E+00 0. -1.
<mgrwt>
<rscale>  0 0.75192992E+02</rscale>
<asrwt>0</asrwt>
<pdfrwt beam="1">  1        2 0.12797487E+00 0.73753549E+02</pdfrwt>
<pdfrwt beam="2">  1        2 0.32938879E+00 0.76660528E+02</pdfrwt>
<totfact> 0.40057689E+01</totfact>
</mgrwt>
</event>
<event>
13    1  0.1675423E-008  0.1271200E+03  0.7546771E-02  0.1241709E+00
          2   -1    0    0  502    0  0.00000000000E+00  0.00000000000E+00  0.16719684693E+04  0.16719684693E+04  0.00000000000E+00 0. -1.
          2   -1    0    0  503    0 -0.00000000000E+00 -0.00000000000E+00 -0.30436471040E+04  0.30436471040E+04  0.00000000000E+00 0. -1.
         24    2    1    2    0    0  0.75375693100E+01 -0.11997047694E+03  0.13649752270E+03  0.19914434328E+03  0.81099725464E+02 0.  0.
         25    2    1    2    0    0 -0.12330852334E+03  0.16524545917E+03 -0.14019907710E+04  0.14225729767E+04  0.12499879405E+03 0.  0.
         24    2    1    2    0    0  0.12082399837E+02  0.56390451357E+02 -0.58006165983E+02  0.11484330860E+03  0.80612671752E+02 0.  0.
        -11    1    5    5    0    0  0.29884732212E+02  0.70345483284E+02 -0.46512966273E+02  0.89470890626E+02  0.00000000000E+00 0.  1.
         12    1    5    5    0    0 -0.17802332375E+02 -0.13955031927E+02 -0.11493199710E+02  0.25372417969E+02  0.00000000000E+00 0. -1.
        -13    1    3    3    0    0  0.82316296934E+01  0.91330920018E+01  0.15626440730E+01  0.12394149968E+02  0.00000000000E+00 0.  1.
         14    1    3    3    0    0 -0.69406038342E+00 -0.12910356894E+03  0.13493487863E+03  0.18675019332E+03  0.00000000000E+00 0. -1.
          5    1    4    4  501    0  0.84550638309E+01  0.69231781701E+02 -0.60782617227E+03  0.61183271685E+03  0.47000000000E+01 0.  1.
         -5    1    4    4    0  501 -0.13176358717E+03  0.96013677466E+02 -0.79416459871E+03  0.81074025989E+03  0.47000000000E+01 0.  1.
          1    1    1    2  502    0 -0.17820086374E+02 -0.12591902505E+03  0.14601335876E+04  0.14656613695E+04  0.00000000000E+00 0. -1.
          1    1    1    2  503    0  0.12150864056E+03  0.24253591466E+02 -0.15083128081E+04  0.15133935752E+04  0.00000000000E+00 0. -1.
<mgrwt>
<rscale>  0 0.12084553E+03</rscale>
<asrwt>0</asrwt>
<pdfrwt beam="1">  1        2 0.24587772E+00 0.12711996E+03</pdfrwt>
<pdfrwt beam="2">  1        2 0.44759516E+00 0.11488079E+03</pdfrwt>
<totfact> 0.54015017E+00</totfact>
</mgrwt>
</event>
<event>
13    1  0.1675423E-008  0.6657195E+02  0.7546771E-02  0.1488296E+00
          2   -1    0    0  503    0  0.00000000000E+00  0.00000000000E+00  0.13415443012E+04  0.13415443012E+04  0.00000000000E+00 0. -1.
          2   -1    0    0  502    0 -0.00000000000E+00 -0.00000000000E+00 -0.57888358918E+03  0.57888358918E+03  0.00000000000E+00 0. -1.
         24    2    1    2    0    0  0.61706055451E+02  0.19086235825E+02  0.68901470215E+03  0.69673102782E+03  0.80752360153E+02 0.  0.
         25    2    1    2    0    0 -0.10528593451E+03 -0.56719138418E+02 -0.48196694682E+03  0.51207373791E+03  0.12500074622E+03 0.  0.
         24    2    1    2    0    0 -0.19348592382E+02 -0.18363880961E+02  0.87244532987E+02  0.12117836787E+03  0.79755803253E+02 0.  0.
        -11    1    5    5    0    0 -0.35806274858E+02  0.89978546873E+01  0.11008564089E+02  0.38525824994E+02  0.00000000000E+00 0.  1.
         12    1    5    5    0    0  0.16457682476E+02 -0.27361735648E+02  0.76235968898E+02  0.82652542877E+02  0.00000000000E+00 0. -1.
        -13    1    3    3    0    0 -0.15702324829E+02  0.20356601915E+02  0.15057016120E+03  0.15274923139E+03  0.00000000000E+00 0.  1.
         14    1    3    3    0    0  0.77408380280E+02 -0.12703660892E+01  0.53844454095E+03  0.54398179643E+03  0.00000000000E+00 0. -1.
          5    1    4    4  501    0 -0.45581025475E+02  0.88165953852E+01 -0.40558555922E+02  0.61825954874E+02  0.47000000000E+01 0.  1.
         -5    1    4    4    0  501 -0.59704909037E+02 -0.65535733803E+02 -0.44140839090E+03  0.45024778303E+03  0.47000000000E+01 0.  1.
          1    1    1    2  502    0  0.27565857634E+02 -0.33766656713E+00 -0.55712410030E+02  0.62159980350E+02  0.00000000000E+00 0. -1.
          1    1    1    2  503    0  0.35362613809E+02  0.56334450120E+02  0.52408083372E+03  0.52828477643E+03  0.00000000000E+00 0. -1.
<mgrwt>
<rscale>  0 0.42839826E+02</rscale>
<asrwt>0</asrwt>
<pdfrwt beam="1">  1        2 0.19728593E+00 0.66571953E+02</pdfrwt>
<pdfrwt beam="2">  1        2 0.85129939E-01 0.27567926E+02</pdfrwt>
<totfact> 0.17778819E+02</totfact>
</mgrwt>
</event>
<event>
13    1  0.1675423E-008  0.8302006E+02  0.7546771E-02  0.1360192E+00
          2   -1    0    0  503    0  0.00000000000E+00  0.00000000000E+00  0.16226662617E+04  0.16226662617E+04  0.00000000000E+00 0. -1.
          2   -1    0    0  502    0 -0.00000000000E+00 -0.00000000000E+00 -0.24774622756E+04  0.24774622756E+04  0.00000000000E+00 0. -1.
         24    2    1    2    0    0  0.21056358155E+02  0.54885124255E+02  0.41471723085E+02  0.10914359144E+03  0.82077235901E+02 0.  0.
         25    2    1    2    0    0 -0.74749926617E+02 -0.20761266543E+02  0.12171887879E+03  0.19094280744E+03  0.12500035416E+03 0.  0.
         24    2    1    2    0    0 -0.40742574638E+01 -0.13263372937E+02 -0.40037398205E+03  0.40852827547E+03  0.80021932761E+02 0.  0.
        -11    1    5    5    0    0 -0.19139128967E+02 -0.43438642069E+02 -0.22947019554E+03  0.23432838608E+03  0.00000000000E+00 0.  1.
         12    1    5    5    0    0  0.15064871503E+02  0.30175269132E+02 -0.17090378650E+03  0.17419988939E+03  0.00000000000E+00 0. -1.
        -11    1    3    3    0    0  0.38659675210E+02  0.67860845870E+02  0.25845986069E+02  0.82265909619E+02  0.00000000000E+00 0.  1.
         12    1    3    3    0    0 -0.17603317054E+02 -0.12975721615E+02  0.15625737016E+02  0.26877681820E+02  0.00000000000E+00 0. -1.
          5    1    4    4  501    0 -0.99667644880E+02  0.90524807276E+01  0.56884472304E+02  0.11521076353E+03  0.47000000000E+01 0.  1.
         -5    1    4    4    0  501  0.24917718264E+02 -0.29813747271E+02  0.64834406489E+02  0.75732043908E+02  0.47000000000E+01 0.  1.
          1    1    1    2  502    0  0.87692682786E+02  0.29955834387E+02 -0.20028645742E+04  0.20050071973E+04  0.00000000000E+00 0. -1.
          1    1    1    2  503    0 -0.29924856861E+02 -0.50816319162E+02  0.13852519404E+04  0.13865066656E+04  0.00000000000E+00 0. -1.
<mgrwt>
<rscale>  0 0.69970912E+02</rscale>
<asrwt>0</asrwt>
<pdfrwt beam="1">  1        2 0.23862739E+00 0.58972836E+02</pdfrwt>
<pdfrwt beam="2">  1        2 0.36433268E+00 0.83020063E+02</pdfrwt>
<totfact> 0.12485314E+01</totfact>
</mgrwt>
</event>
<event>
13    1  0.1675423E-008  0.7214195E+02  0.7546771E-02  0.1430304E+00
          2   -1    0    0  502    0  0.00000000000E+00  0.00000000000E+00  0.13737086027E+04  0.13737086027E+04  0.00000000000E+00 0. -1.
          2   -1    0    0  503    0 -0.00000000000E+00 -0.00000000000E+00 -0.21737469648E+04  0.21737469648E+04  0.00000000000E+00 0. -1.
         24    2    1    2    0    0 -0.54120573732E+02  0.26423591512E+02  0.41985767393E+03  0.43145386337E+03  0.79023586156E+02 0.  0.
         25    2    1    2    0    0 -0.61095228749E+02  0.79524014420E+02 -0.32931706767E+03  0.36623996816E+03  0.12500114948E+03 0.  0.
         24    2    1    2    0    0  0.58621194465E+01 -0.93634747803E+02  0.32260778842E+03  0.34660581273E+03  0.85193742886E+02 0.  0.
        -11    1    3    3    0    0 -0.74927432208E+02  0.19822394171E+02  0.32363135999E+03  0.33278266869E+03  0.00000000000E+00 0.  1.
         12    1    3    3    0    0  0.20806858477E+02  0.66011973407E+01  0.96226313937E+02  0.98671194682E+02  0.00000000000E+00 0. -1.
        -13    1    5    5    0    0 -0.31022492328E+02 -0.82300124039E+02  0.23272612474E+03  0.24879138768E+03  0.00000000000E+00 0.  1.
         14    1    5    5    0    0  0.36884611774E+02 -0.11334623764E+02  0.89881663677E+02  0.97814425045E+02  0.00000000000E+00 0. -1.
          5    1    4    4  501    0 -0.34784388871E+02  0.74112349109E+02 -0.77113213281E+02  0.11256612129E+03  0.47000000000E+01 0. -1.
         -5    1    4    4    0  501 -0.26310839878E+02  0.54116653114E+01 -0.25220385439E+03  0.25367384687E+03  0.47000000000E+01 0. -1.
          1    1    1    2  502    0  0.70591389868E+02 -0.13753022997E+02  0.59260225799E+03  0.59695035484E+03  0.00000000000E+00 0. -1.
          1    1    1    2  503    0  0.38762293167E+02  0.14401648685E+01 -0.18057890148E+04  0.18062055684E+04  0.00000000000E+00 0. -1.
<mgrwt>
<rscale>  0 0.52899119E+02</rscale>
<asrwt>0</asrwt>
<pdfrwt beam="1">  1        2 0.20201597E+00 0.72141950E+02</pdfrwt>
<pdfrwt beam="2">  1        2 0.31966867E+00 0.38789038E+02</pdfrwt>
<totfact> 0.24981431E+01</totfact>
</mgrwt>
</event>
<event>
13    1  0.1675423E-008  0.1091883E+03  0.7546771E-02  0.1402186E+00
          2   -1    0    0  502    0  0.00000000000E+00  0.00000000000E+00  0.26540112845E+04  0.26540112845E+04  0.00000000000E+00 0. -1.
          2   -1    0    0  503    0 -0.00000000000E+00 -0.00000000000E+00 -0.12036243982E+04  0.12036243982E+04  0.00000000000E+00 0. -1.
         24    2    1    2    0    0 -0.13080235804E+03 -0.15664157593E+03  0.13230869413E+04  0.13410863279E+04  0.79420679231E+02 0.  0.
         25    2    1    2    0    0  0.18092453970E+03  0.71872736473E+02 -0.34270770332E+03  0.41349405756E+03  0.12501754440E+03 0.  0.
         24    2    1    2    0    0  0.43696991072E+02 -0.79856602961E+01 -0.40622611300E+02  0.99962761354E+02  0.79807012909E+02 0.  0.
        -11    1    3    3    0    0 -0.93977256818E+01 -0.55899507685E+02  0.48301516816E+03  0.48632985193E+03  0.00000000000E+00 0.  1.
         12    1    3    3    0    0 -0.12140463236E+03 -0.10074206825E+03  0.84007177317E+03  0.85475647594E+03  0.00000000000E+00 0. -1.
        -11    1    5    5    0    0  0.36778773657E+02 -0.13727022084E+02 -0.63907903559E+02  0.75002196396E+02  0.00000000000E+00 0.  1.
         12    1    5    5    0    0  0.69182174158E+01  0.57413617879E+01  0.23285292259E+02  0.24960564957E+02  0.00000000000E+00 0. -1.
          5    1    4    4  501    0  0.13941218847E+03  0.32829395215E+02 -0.32239967899E+03  0.35281322324E+03  0.47000000000E+01 0. -1.
         -5    1    4    4    0  501  0.41512351224E+02  0.39043341259E+02 -0.20308024333E+02  0.60680834314E+02  0.47000000000E+01 0. -1.
          1    1    1    2  502    0 -0.62094670252E+02  0.89894501665E+02  0.12541454311E+04  0.12588953617E+04  0.00000000000E+00 0. -1.
          1    1    1    2  503    0 -0.31724502473E+02  0.28599980918E+01 -0.74351517154E+03  0.74419717411E+03  0.00000000000E+00 0. -1.
<mgrwt>
<rscale>  0 0.58974510E+02</rscale>
<asrwt>0</asrwt>
<pdfrwt beam="1">  1        2 0.39029578E+00 0.10918832E+03</pdfrwt>
<pdfrwt beam="2">  1        2 0.17700359E+00 0.31853158E+02</pdfrwt>
<totfact> 0.16415651E+01</totfact>
</mgrwt>
</event>
<event>
13    1  0.1675423E-008  0.1342295E+03  0.7546771E-02  0.1329152E+00
          2   -1    0    0  502    0  0.00000000000E+00  0.00000000000E+00  0.21563852941E+04  0.21563852941E+04  0.00000000000E+00 0. -1.
          2   -1    0    0  503    0 -0.00000000000E+00 -0.00000000000E+00 -0.18112805570E+04  0.18112805570E+04  0.00000000000E+00 0. -1.
         24    2    1    2    0    0 -0.22074471673E+02  0.10848440403E+03 -0.10066706954E+03  0.16978404469E+03  0.80228515667E+02 0.  0.
         25    2    1    2    0    0 -0.11591827900E+03 -0.82226645288E+02 -0.97654206706E+03  0.99471386557E+03  0.12499198776E+03 0.  0.
         24    2    1    2    0    0 -0.67576948487E+01  0.24439686765E+02 -0.44135149529E+03  0.44886212532E+03  0.77737381104E+02 0.  0.
        -11    1    3    3    0    0  0.28014549120E+02  0.61112656542E+02 -0.57323508863E+02  0.88349060099E+02  0.00000000000E+00 0.  1.
         12    1    3    3    0    0 -0.50089020793E+02  0.47371747484E+02 -0.43343560673E+02  0.81434984592E+02  0.00000000000E+00 0. -1.
        -13    1    5    5    0    0 -0.20363549756E+02 -0.57715233934E+01 -0.36522213096E+03  0.36583492122E+03  0.00000000000E+00 0.  1.
         14    1    5    5    0    0  0.13605854907E+02  0.30211210159E+02 -0.76129364331E+02  0.83027204098E+02  0.00000000000E+00 0. -1.
          5    1    4    4  501    0 -0.13835215010E+03 -0.89428750029E+02 -0.82813789955E+03  0.84437745674E+03  0.47000000000E+01 0.  1.
         -5    1    4    4    0  501  0.22433871100E+02  0.72021047411E+01 -0.14840416751E+03  0.15033640883E+03  0.47000000000E+01 0.  1.
          1    1    1    2  502    0  0.10750633186E+03 -0.80399232436E+02  0.21045139847E+04  0.21087913031E+04  0.00000000000E+00 0. -1.
          1    1    1    2  503    0  0.37244113667E+02  0.29701786931E+02 -0.24084861568E+03  0.24551451245E+03  0.00000000000E+00 0. -1.
<mgrwt>
<rscale>  0 0.79964637E+02</rscale>
<asrwt>0</asrwt>
<pdfrwt beam="1">  1        2 0.31711548E+00 0.13422953E+03</pdfrwt>
<pdfrwt beam="2">  1        2 0.26636479E+00 0.47637382E+02</pdfrwt>
<totfact> 0.14103222E+01</totfact>
</mgrwt>
</event>
<event>
13    1  0.1675423E-008  0.3002440E+03  0.7546771E-02  0.1199735E+00
          2   -1    0    0  502    0  0.00000000000E+00  0.00000000000E+00  0.98803779871E+03  0.98803779871E+03  0.00000000000E+00 0. -1.
          2   -1    0    0  503    0 -0.00000000000E+00 -0.00000000000E+00 -0.18029855947E+04  0.18029855947E+04  0.00000000000E+00 0. -1.
         24    2    1    2    0    0 -0.76686128337E+02 -0.50285530286E+01 -0.12526955343E+03  0.16804326434E+03  0.81486373400E+02 0.  0.
         25    2    1    2    0    0 -0.26469043791E+03 -0.61466755240E+02 -0.54220574979E+03  0.61923461748E+03  0.12500098582E+03 0.  0.
         24    2    1    2    0    0 -0.33025053531E+02  0.58964003346E+02 -0.25453325463E+03  0.27505259275E+03  0.79368401864E+02 0.  0.
        -11    1    5    5    0    0 -0.54966799619E+02  0.24308641033E+02 -0.11701600643E+03  0.13154848859E+03  0.00000000000E+00 0.  1.
         12    1    5    5    0    0  0.21941746088E+02  0.34655362313E+02 -0.13751724820E+03  0.14350410416E+03  0.00000000000E+00 0. -1.
        -13    1    3    3    0    0 -0.58954256116E+01  0.27712151939E+02 -0.12590951261E+02  0.31004055572E+02  0.00000000000E+00 0.  1.
         14    1    3    3    0    0 -0.70790702726E+02 -0.32740704968E+02 -0.11267860217E+03  0.13703920877E+03  0.00000000000E+00 0. -1.
          5    1    4    4  501    0 -0.20381753980E+03 -0.92822532378E+02 -0.35418713862E+03  0.41908022050E+03  0.47000000000E+01 0.  1.
         -5    1    4    4    0  501 -0.60872898107E+02  0.31355777137E+02 -0.18801861117E+03  0.20015439698E+03  0.47000000000E+01 0.  1.
          1    1    1    2  502    0  0.30064246831E+03  0.23845428418E+02  0.89123960946E+03  0.94088391403E+03  0.00000000000E+00 0. -1.
          1    1    1    2  503    0  0.73759151468E+02 -0.16314123495E+02 -0.78417884760E+03  0.78780900482E+03  0.00000000000E+00 0. -1.
<mgrwt>
<rscale>  0 0.15060203E+03</rscale>
<asrwt>0</asrwt>
<pdfrwt beam="1">  1        2 0.14529968E+00 0.30024401E+03</pdfrwt>
<pdfrwt beam="2">  1        2 0.26514494E+00 0.75541797E+02</pdfrwt>
<totfact> 0.51730683E+01</totfact>
</mgrwt>
</event>
<event>
13    1  0.1675423E-008  0.1059280E+03  0.7546771E-02  0.1375567E+00
         -3   -1    0    0    0  501 -0.00000000000E+00  0.00000000000E+00  0.79074482856E+03  0.79074482856E+03  0.00000000000E+00 0.  1.
          2   -1    0    0  503    0  0.00000000000E+00 -0.00000000000E+00 -0.19439339209E+04  0.19439339209E+04  0.00000000000E+00 0. -1.
         24    2    1    2    0    0  0.80079480700E+02 -0.11071629000E+03 -0.17040243015E+03  0.23292412230E+03  0.80906356036E+02 0.  0.
         25    2    1    2    0    0  0.27925474739E+01 -0.68867537408E+02 -0.12649625881E+03  0.19073158880E+03  0.12500679759E+03 0.  0.
         24    2    1    2    0    0  0.42901615653E+02  0.10576620722E+03  0.32682037884E+03  0.35569536333E+03  0.81734890071E+02 0.  0.
        -11    1    5    5    0    0  0.40978765230E+02  0.11959543535E+03  0.29406877524E+03  0.32009181796E+03  0.00000000000E+00 0.  1.
         12    1    5    5    0    0  0.19228504227E+01 -0.13829228128E+02  0.32751603599E+02  0.35603545366E+02  0.00000000000E+00 0. -1.
        -11    1    3    3    0    0  0.29347884260E+02 -0.47355273284E+02 -0.15152011938E+02  0.57735636172E+02  0.00000000000E+00 0.  1.
         12    1    3    3    0    0  0.50731596440E+02 -0.63361016714E+02 -0.15525041821E+03  0.17518848612E+03  0.00000000000E+00 0. -1.
          5    1    4    4  502    0 -0.57057546701E+02 -0.89969235783E+01 -0.50265881371E+02  0.76715429344E+02  0.47000000000E+01 0. -1.
         -5    1    4    4    0  502  0.59850094175E+02 -0.59870613830E+02 -0.76230377440E+02  0.11401615946E+03  0.47000000000E+01 0. -1.
          1    1    1    2  503    0 -0.34718828382E+02  0.21199519681E+02 -0.15617884969E+04  0.15623181897E+04  0.00000000000E+00 0. -1.
         -4    1    1    2    0  501 -0.91054815444E+02  0.52618100502E+02  0.37867771473E+03  0.39300948532E+03  0.00000000000E+00 0.  1.
<mgrwt>
<rscale>  0 0.65643658E+02</rscale>
<asrwt>0</asrwt>
<pdfrwt beam="2">  1        2 0.28587264E+00 0.40679438E+02</pdfrwt>
<pdfrwt beam="1">  1       -3 0.11628600E+00 0.10592796E+03</pdfrwt>
<totfact> 0.42139983E+00</totfact>
</mgrwt>
</event>
<event>
13    1  0.1675423E-008  0.4510400E+02  0.7546771E-02  0.1484868E+00
          2   -1    0    0  503    0  0.00000000000E+00  0.00000000000E+00  0.17375968412E+04  0.17375968412E+04  0.00000000000E+00 0. -1.
          2   -1    0    0  502    0 -0.00000000000E+00 -0.00000000000E+00 -0.16538068357E+04  0.16538068357E+04  0.00000000000E+00 0. -1.
         24    2    1    2    0    0  0.11945338865E+03 -0.11541963253E+03  0.58020509039E+03  0.60909384083E+03  0.82259080877E+02 0.  0.
         25    2    1    2    0    0 -0.19197498496E+03  0.13276498635E+03  0.16841339482E+02  0.26530434976E+03  0.12498732269E+03 0.  0.
         24    2    1    2    0    0  0.66784124757E+02 -0.15922341394E+02 -0.15413674064E+03  0.18674131259E+03  0.80003392032E+02 0.  0.
        -11    1    3    3    0    0 -0.33752636099E+00 -0.46092718580E+01 -0.15584559233E+01  0.48773041703E+01  0.00000000000E+00 0.  1.
         12    1    3    3    0    0  0.11979091501E+03 -0.11081036067E+03  0.58176354631E+03  0.60421653666E+03  0.00000000000E+00 0. -1.
        -13    1    5    5    0    0  0.67722510733E+02  0.19098240743E+02 -0.10090805070E+03  0.12301835617E+03  0.00000000000E+00 0.  1.
         14    1    5    5    0    0 -0.93838597593E+00 -0.35020582136E+02 -0.53228689942E+02  0.63722956416E+02  0.00000000000E+00 0. -1.
          5    1    4    4  501    0 -0.40462579609E+02  0.56232173757E+02 -0.47047033801E+02  0.83873661560E+02  0.47000000000E+01 0.  1.
         -5    1    4    4    0  501 -0.15151240535E+03  0.76532812592E+02  0.63888373283E+02  0.18143068820E+03  0.47000000000E+01 0.  1.
          1    1    1    2  502    0  0.18967298936E+02 -0.40945000900E+02 -0.13438724521E+04  0.13446298447E+04  0.00000000000E+00 0. -1.
          1    1    1    2  503    0 -0.13229827376E+02  0.39521988476E+02  0.98475276834E+03  0.98563432908E+03  0.00000000000E+00 0. -1.
<mgrwt>
<rscale>  0 0.43356923E+02</rscale>
<asrwt>0</asrwt>
<pdfrwt beam="1">  1        2 0.25552895E+00 0.41677523E+02</pdfrwt>
<pdfrwt beam="2">  1        2 0.24320689E+00 0.45103996E+02</pdfrwt>
<totfact> 0.29976956E+01</totfact>
</mgrwt>
</event>
<event>
13    1  0.1675423E-008  0.4850967E+02  0.7546771E-02  0.1577455E+00
          2   -1    0    0  502    0  0.00000000000E+00  0.00000000000E+00  0.32155020120E+03  0.32155020120E+03  0.00000000000E+00 0. -1.
          2   -1    0    0  503    0 -0.00000000000E+00 -0.00000000000E+00 -0.16378696929E+04  0.16378696929E+04  0.00000000000E+00 0. -1.
         24    2    1    2    0    0  0.13583581459E+02  0.11092076717E+03  0.54092026952E+02  0.14794400742E+03  0.80458384745E+02 0.  0.
         25    2    1    2    0    0  0.72222046245E+02 -0.33562666014E+03 -0.10647997766E+04  0.11257371289E+04  0.12499696072E+03 0.  0.
         24    2    1    2    0    0 -0.75830882990E+02  0.25592282644E+03 -0.22929559382E+01  0.28495692822E+03  0.99741552970E+02 0.  0.
        -11    1    5    5    0    0 -0.80892746731E+02  0.14192522767E+03  0.30599570886E+02  0.16620090391E+03  0.00000000000E+00 0.  1.
         12    1    5    5    0    0  0.50618637410E+01  0.11399759877E+03 -0.32892526824E+02  0.11875602431E+03  0.00000000000E+00 0. -1.
        -13    1    3    3    0    0  0.41700682060E+02  0.62866657886E+02  0.83742767870E+01  0.75903175623E+02  0.00000000000E+00 0.  1.
         14    1    3    3    0    0 -0.28117100601E+02  0.48054109287E+02  0.45717750165E+02  0.72040831795E+02  0.00000000000E+00 0. -1.
          5    1    4    4  501    0  0.98287414886E+02 -0.28906500435E+03 -0.81662912433E+03  0.87185102476E+03  0.47000000000E+01 0. -1.
         -5    1    4    4    0  501 -0.26065368641E+02 -0.46561655789E+02 -0.24817065225E+03  0.25388610413E+03  0.47000000000E+01 0. -1.
          1    1    1    2  502    0  0.18270919621E+01 -0.48643607389E+02  0.36167696383E+02  0.60643557502E+02  0.00000000000E+00 0. -1.
          1    1    1    2  503    0 -0.11801836676E+02  0.17426673919E+02 -0.33948648253E+03  0.34013827208E+03  0.00000000000E+00 0. -1.
<mgrwt>
<rscale>  0 0.31952753E+02</rscale>
<asrwt>0</asrwt>
<pdfrwt beam="1">  1        2 0.47286794E-01 0.48509665E+02</pdfrwt>
<pdfrwt beam="2">  1        2 0.24086319E+00 0.21046907E+02</pdfrwt>
<totfact> 0.25883659E+02</totfact>
</mgrwt>
</event>
<event>
13    1  0.1675423E-008  0.1349677E+03  0.7546771E-02  0.1378630E+00
          2   -1    0    0  502    0  0.00000000000E+00  0.00000000000E+00  0.38076807405E+04  0.38076807405E+04  0.00000000000E+00 0. -1.
          2   -1    0    0  503    0 -0.00000000000E+00 -0.00000000000E+00 -0.30928720980E+04  0.30928720980E+04  0.00000000000E+00 0. -1.
         24    2    1    2    0    0  0.38419855543E+02 -0.54623244054E+02  0.59397092320E+03  0.60295913262E+03  0.79362925331E+02 0.  0.
         25    2    1    2    0    0 -0.70558213772E+02  0.23457690534E+03 -0.16673638121E+04  0.16898913420E+04  0.12500351889E+03 0.  0.
         24    2    1    2    0    0 -0.31315657900E+02 -0.65010717195E+02  0.45609667216E+03  0.46804691657E+03  0.76398154278E+02 0.  0.
        -13    1    5    5    0    0 -0.38848704867E+02 -0.35595368742E+02  0.12622763176E+03  0.13678328540E+03  0.00000000000E+00 0.  1.
         14    1    5    5    0    0  0.75330469665E+01 -0.29415348453E+02  0.32986904040E+03  0.33126363117E+03  0.00000000000E+00 0. -1.
        -13    1    3    3    0    0  0.21155986061E+02 -0.73684938157E+02  0.39884834193E+03  0.40614904372E+03  0.00000000000E+00 0.  1.
         14    1    3    3    0    0  0.17263869483E+02  0.19061694103E+02  0.19512258127E+03  0.19681008890E+03  0.00000000000E+00 0. -1.
          5    1    4    4  501    0 -0.86061515814E+02  0.73951159915E+02 -0.68483469738E+03  0.69418730275E+03  0.47000000000E+01 0.  1.
         -5    1    4    4    0  501  0.15503302042E+02  0.16062574542E+03 -0.98252911475E+03  0.99570403926E+03  0.47000000000E+01 0.  1.
          1    1    1    2  502    0  0.79451850994E+02 -0.88231519440E+02  0.27344190704E+04  0.27369956248E+04  0.00000000000E+00 0. -1.
          1    1    1    2  503    0 -0.15997834865E+02 -0.26711424648E+02 -0.14023142111E+04  0.14026598225E+04  0.00000000000E+00 0. -1.
<mgrwt>
<rscale>  0 0.64825230E+02</rscale>
<asrwt>0</asrwt>
<pdfrwt beam="1">  1        2 0.55995305E+00 0.13496765E+03</pdfrwt>
<pdfrwt beam="2">  1        2 0.45483413E+00 0.31135686E+02</pdfrwt>
<totfact> 0.45733273E-01</totfact>
</mgrwt>
</event>
<event>
13    1  0.1675423E-008  0.1432843E+03  0.7546771E-02  0.1265096E+00
          2   -1    0    0  503    0  0.00000000000E+00  0.00000000000E+00  0.18122774506E+04  0.18122774506E+04  0.00000000000E+00 0. -1.
          2   -1    0    0  502    0 -0.00000000000E+00 -0.00000000000E+00 -0.16887021078E+04  0.16887021078E+04  0.00000000000E+00 0. -1.
         24    2    1    2    0    0 -0.61645843866E+02 -0.51879014575E+02  0.77619295832E+02  0.13716822231E+03  0.79364500291E+02 0.  0.
         25    2    1    2    0    0 -0.13342147757E+03  0.75849833171E+02 -0.50809760095E+03  0.54529153372E+03  0.12500078714E+03 0.  0.
         24    2    1    2    0    0 -0.68579925102E+02  0.83550981999E+02  0.20403435751E+03  0.24531340711E+03  0.82853339967E+02 0.  0.
        -11    1    3    3    0    0  0.16612311824E+02 -0.25632419288E+02  0.21662675630E+02  0.37446780077E+02  0.00000000000E+00 0.  1.
         12    1    3    3    0    0 -0.78258155690E+02 -0.26246595287E+02  0.55956620203E+02  0.99721442231E+02  0.00000000000E+00 0. -1.
        -11    1    5    5    0    0 -0.13963586451E+02 -0.16157694191E+02  0.21742369246E+02  0.30475948690E+02  0.00000000000E+00 0.  1.
         12    1    5    5    0    0 -0.54616338652E+02  0.99708676190E+02  0.18229198827E+03  0.21483745842E+03  0.00000000000E+00 0. -1.
          5    1    4    4  501    0 -0.80190053771E+02  0.72591640718E+02 -0.46238998717E+03  0.47489639003E+03  0.47000000000E+01 0. -1.
         -5    1    4    4    0  501 -0.53231423798E+02  0.32581924526E+01 -0.45707613774E+02  0.70395143686E+02  0.47000000000E+01 0. -1.
          1    1    1    2  502    0  0.77882887725E+02 -0.21478936636E+02 -0.11029400487E+04  0.11058950402E+04  0.00000000000E+00 0. -1.
          1    1    1    2  503    0  0.18576435881E+03 -0.86042863959E+02  0.14529593391E+04  0.14673113550E+04  0.00000000000E+00 0. -1.
<mgrwt>
<rscale>  0 0.10759179E+03</rscale>
<asrwt>0</asrwt>
<pdfrwt beam="1">  1        2 0.26651139E+00 0.14328426E+03</pdfrwt>
<pdfrwt beam="2">  1        2 0.24833854E+00 0.80790401E+02</pdfrwt>
<totfact> 0.22425712E+01</totfact>
</mgrwt>
</event>
<event>
13    1  0.1675423E-008  0.8185298E+02  0.7546771E-02  0.1441414E+00
          2   -1    0    0  503    0  0.00000000000E+00  0.00000000000E+00  0.63879912365E+03  0.63879912365E+03  0.00000000000E+00 0. -1.
          2   -1    0    0  502    0 -0.00000000000E+00 -0.00000000000E+00 -0.90088644194E+03  0.90088644194E+03  0.00000000000E+00 0. -1.
         24    2    1    2    0    0  0.23128095950E+03  0.15274090569E+02  0.97585787888E+02  0.26555310059E+03  0.85271819281E+02 0.  0.
         25    2    1    2    0    0 -0.34223414701E+03 -0.98975146430E+02  0.16471368135E+03  0.41191659833E+03  0.12499758463E+03 0.  0.
         24    2    1    2    0    0  0.27807221324E+02  0.10041992367E+02  0.40719919106E+02  0.93766289345E+02  0.79119669091E+02 0.  0.
        -13    1    5    5    0    0  0.27741004487E+02  0.42555279230E+02  0.32237925921E+02  0.60164765336E+02  0.00000000000E+00 0.  1.
         14    1    5    5    0    0  0.66216837249E-01 -0.32513286863E+02  0.84819931841E+01  0.33601524009E+02  0.00000000000E+00 0. -1.
        -13    1    3    3    0    0 -0.87143364947E+00 -0.12201818502E+02  0.77933677671E-02  0.12232899578E+02  0.00000000000E+00 0.  1.
         14    1    3    3    0    0  0.23215239315E+03  0.27475909071E+02  0.97577994520E+02  0.25332020101E+03  0.00000000000E+00 0. -1.
          5    1    4    4  501    0 -0.21486947070E+03  0.69227621995E+00  0.10746982915E+03  0.24029403418E+03  0.47000000000E+01 0. -1.
         -5    1    4    4    0  501 -0.12736467631E+03 -0.99667422650E+02  0.57243852201E+02  0.17162256415E+03  0.47000000000E+01 0. -1.
          1    1    1    2  502    0  0.54344997633E+02  0.61030744158E+02 -0.66177144707E+03  0.66679800439E+03  0.00000000000E+00 0. -1.
          1    1    1    2  503    0  0.28800968558E+02  0.12628319336E+02  0.96664740431E+02  0.10165157294E+03  0.00000000000E+00 0. -1.
<mgrwt>
<rscale>  0 0.50735629E+02</rscale>
<asrwt>0</asrwt>
<pdfrwt beam="1">  1        2 0.93941048E-01 0.31447897E+02</pdfrwt>
<pdfrwt beam="2">  1        2 0.13248330E+00 0.81852978E+02</pdfrwt>
<totfact> 0.27395352E+02</totfact>
</mgrwt>
</event>
<event>
13    1  0.1675423E-008  0.1086275E+03  0.7546771E-02  0.1459993E+00
          2   -1    0    0  502    0  0.00000000000E+00  0.00000000000E+00  0.79739220497E+03  0.79739220497E+03  0.00000000000E+00 0. -1.
          2   -1    0    0  503    0 -0.00000000000E+00 -0.00000000000E+00 -0.13696929167E+04  0.13696929167E+04  0.00000000000E+00 0. -1.
         24    2    1    2    0    0 -0.38073555911E+02  0.91125714642E+02  0.13948313206E+03  0.18885154860E+03  0.80348439621E+02 0.  0.
         25    2    1    2    0    0 -0.92594255690E+02 -0.15836941616E+03 -0.72583682638E+03  0.75902476297E+03  0.12499969643E+03 0.  0.
         24    2    1    2    0    0 -0.15269787336E+02  0.26763387125E+02  0.12532679546E+02  0.85344389946E+02  0.78594856975E+02 0.  0.
        -11    1    3    3    0    0 -0.46028936568E+02  0.13370373261E+02  0.66025794888E+02  0.81589432363E+02  0.00000000000E+00 0.  1.
         12    1    3    3    0    0  0.79553806571E+01  0.77755341380E+02  0.73457337171E+02  0.10726211623E+03  0.00000000000E+00 0. -1.
        -11    1    5    5    0    0  0.25192226753E+02  0.34945918368E+02  0.79853706470E+01  0.43813601127E+02  0.00000000000E+00 0.  1.
         12    1    5    5    0    0 -0.40462014089E+02 -0.81825312431E+01  0.45473088987E+01  0.41530788819E+02  0.00000000000E+00 0. -1.
          5    1    4    4  501    0  0.22674970057E+02 -0.47988383442E+02 -0.29017660161E+03  0.29502811617E+03  0.47000000000E+01 0. -1.
         -5    1    4    4    0  501 -0.11526922575E+03 -0.11038103272E+03 -0.43566022477E+03  0.46399664679E+03  0.47000000000E+01 0. -1.
          1    1    1    2  502    0  0.14508993944E+03  0.19829713058E+02  0.55805371810E+03  0.57694736357E+03  0.00000000000E+00 0. -1.
          1    1    1    2  503    0  0.84765949959E+00  0.20650601334E+02 -0.55653341509E+03  0.55691705663E+03  0.00000000000E+00 0. -1.
<mgrwt>
<rscale>  0 0.47382617E+02</rscale>
<asrwt>0</asrwt>
<pdfrwt beam="1">  1        2 0.11726356E+00 0.10862751E+03</pdfrwt>
<pdfrwt beam="2">  1        2 0.20142543E+00 0.20667991E+02</pdfrwt>
<totfact> 0.12717926E+02</totfact>
</mgrwt>
</event>
<event>
13    1  0.1675423E-008  0.1458689E+03  0.7546771E-02  0.1232747E+00
         -1   -1    0    0    0  501  0.00000000000E+00  0.00000000000E+00  0.12983496797E+03  0.12983496797E+03  0.00000000000E+00 0.  1.
         -1   -1    0    0    0  502 -0.00000000000E+00 -0.00000000000E+00 -0.26538484000E+04  0.26538484000E+04  0.00000000000E+00 0.  1.
         24    2    1    2    0    0 -0.22090263623E+02  0.38969728307E+02 -0.43056938380E+03  0.44028923209E+03  0.80361646059E+02 0.  0.
         25    2    1    2    0    0  0.45611343219E+02 -0.17037424887E+03 -0.13029326037E+04  0.13207444786E+04  0.12499931492E+03 0.  0.
         24    2    1    2    0    0  0.45605939323E+02  0.71345412389E+02 -0.28392519328E+02  0.12082213237E+03  0.81374338379E+02 0.  0.
        -11    1    5    5    0    0  0.47305924744E+02  0.74255855767E+02 -0.48442317020E+02  0.10049099815E+03  0.00000000000E+00 0.  1.
         12    1    5    5    0    0 -0.16999854212E+01 -0.29104433777E+01  0.20049797693E+02  0.20331134218E+02  0.00000000000E+00 0. -1.
        -13    1    3    3    0    0  0.19489442492E+02 -0.14288830286E+02 -0.99173088588E+02  0.10207502407E+03  0.00000000000E+00 0.  1.
         14    1    3    3    0    0 -0.41579706114E+02  0.53258558593E+02 -0.33139629522E+03  0.33821420802E+03  0.00000000000E+00 0. -1.
          5    1    4    4  503    0  0.61176233645E+02 -0.14843986862E+03 -0.12576650260E+04  0.12678802521E+04  0.47000000000E+01 0. -1.
         -5    1    4    4    0  503 -0.15564890426E+02 -0.21934380242E+02 -0.45267577710E+02  0.52864226489E+02  0.47000000000E+01 0. -1.
         -2    1    1    2    0  502 -0.12325714007E+03 -0.52490961934E+02 -0.76525973586E+03  0.77689773265E+03  0.00000000000E+00 0.  1.
         -2    1    1    2    0  501  0.54130121154E+02  0.11255007011E+03  0.31408106453E+01  0.12492979224E+03  0.00000000000E+00 0.  1.
<mgrwt>
<rscale>  0 0.12649760E+03</rscale>
<asrwt>0</asrwt>
<pdfrwt beam="1">  1       -1 0.19093380E-01 0.14586893E+03</pdfrwt>
<pdfrwt beam="2">  1       -1 0.39027178E+00 0.10969877E+03</pdfrwt>
<totfact> 0.21154765E+00</totfact>
</mgrwt>
</event>
<event>
13    1  0.1675423E-008  0.3850473E+02  0.7546771E-02  0.1586449E+00
         -1   -1    0    0    0  501 -0.00000000000E+00  0.00000000000E+00  0.93512356155E+03  0.93512356155E+03  0.00000000000E+00 0.  1.
          2   -1    0    0  503    0  0.00000000000E+00 -0.00000000000E+00 -0.10455060078E+04  0.10455060078E+04  0.00000000000E+00 0. -1.
         24    2    1    2    0    0 -0.27419039669E+02 -0.19169428768E+02 -0.85431329563E+03  0.85872801816E+03  0.80270364098E+02 0.  0.
         25    2    1    2    0    0 -0.14196643354E+02  0.11376800988E+03  0.18382516528E+03  0.25012232538E+03  0.12499912604E+03 0.  0.
         24    2    1    2    0    0  0.32726373048E+02 -0.84114006042E+02  0.10828295753E+02  0.12187935755E+03  0.81185862706E+02 0.  0.
        -11    1    3    3    0    0 -0.49092921577E+02 -0.55692563102E+01 -0.31900089471E+03  0.32280443366E+03  0.00000000000E+00 0.  1.
         12    1    3    3    0    0  0.21673881908E+02 -0.13600172458E+02 -0.53531240092E+03  0.53592358450E+03  0.00000000000E+00 0. -1.
        -11    1    5    5    0    0  0.51378211481E+02 -0.22874740992E+02  0.13386606665E+02  0.57811552724E+02  0.00000000000E+00 0.  1.
         12    1    5    5    0    0 -0.18651838433E+02 -0.61239265050E+02 -0.25583109115E+01  0.64067804828E+02  0.00000000000E+00 0. -1.
          5    1    4    4  502    0 -0.23073820185E+02  0.83677882358E+01 -0.11835834478E+02  0.27651365892E+02  0.47000000000E+01 0. -1.
         -5    1    4    4    0  502  0.88771768310E+01  0.10540022165E+03  0.19566099976E+03  0.22247095949E+03  0.47000000000E+01 0. -1.
          1    1    1    2  503    0  0.25437391654E+02 -0.29339668440E+02 -0.96300469278E+02  0.10383476018E+03  0.00000000000E+00 0. -1.
         -2    1    1    2    0  501 -0.16548081678E+02  0.18855093366E+02  0.64557785764E+03  0.64606510804E+03  0.00000000000E+00 0.  1.
<mgrwt>
<rscale>  0 0.31079978E+02</rscale>
<asrwt>0</asrwt>
<pdfrwt beam="2">  1        2 0.15375088E+00 0.38504729E+02</pdfrwt>
<pdfrwt beam="1">  1       -1 0.13751817E+00 0.25086920E+02</pdfrwt>
<totfact> 0.18374396E+01</totfact>
</mgrwt>
</event>
<event>
13    1  0.1675423E-008  0.1687056E+03  0.7546771E-02  0.1239341E+00
          2   -1    0    0  502    0  0.00000000000E+00  0.00000000000E+00  0.34287336088E+04  0.34287336088E+04  0.00000000000E+00 0. -1.
          2   -1    0    0  503    0 -0.00000000000E+00 -0.00000000000E+00 -0.10263107645E+04  0.10263107645E+04  0.00000000000E+00 0. -1.
         24    2    1    2    0    0 -0.15784316424E+03  0.20378625030E+03  0.96538702998E+03  0.10025214895E+04  0.81448873071E+02 0.  0.
         25    2    1    2    0    0 -0.68726593523E+02  0.25319879229E+03  0.15661957212E+03  0.33013397150E+03  0.12500310274E+03 0.  0.
         24    2    1    2    0    0 -0.16610241800E+02 -0.22220312105E+02  0.17116392870E+03  0.19165416307E+03  0.81636911589E+02 0.  0.
        -11    1    3    3    0    0 -0.10137466331E+03  0.18375196371E+03  0.77647628440E+03  0.80433638906E+03  0.00000000000E+00 0.  1.
         12    1    3    3    0    0 -0.56468500936E+02  0.20034286590E+02  0.18891074558E+03  0.19818510043E+03  0.00000000000E+00 0. -1.
        -11    1    5    5    0    0 -0.46130535320E+02 -0.20815244980E+02  0.13923221394E+03  0.14814489567E+03  0.00000000000E+00 0.  1.
         12    1    5    5    0    0  0.29520293521E+02 -0.14050671252E+01  0.31931714753E+02  0.43509267406E+02  0.00000000000E+00 0. -1.
          5    1    4    4  501    0 -0.94165125075E+02  0.11359159645E+03  0.93586568767E+02  0.17478746356E+03  0.47000000000E+01 0.  1.
         -5    1    4    4    0  501  0.25438531552E+02  0.13960719583E+03  0.63033003354E+02  0.15534650794E+03  0.47000000000E+01 0.  1.
          1    1    1    2  502    0  0.21208129108E+03 -0.35174053012E+03  0.19968836124E+04  0.20386868411E+04  0.00000000000E+00 0. -1.
          1    1    1    2  503    0  0.31098708490E+02 -0.83024200364E+02 -0.88763129893E+03  0.89204790811E+03  0.00000000000E+00 0. -1.
<mgrwt>
<rscale>  0 0.12230590E+03</rscale>
<asrwt>0</asrwt>
<pdfrwt beam="1">  1        2 0.50422553E+00 0.16870562E+03</pdfrwt>
<pdfrwt beam="2">  1        2 0.15092805E+00 0.88667663E+02</pdfrwt>
<totfact> 0.68025055E+00</totfact>
</mgrwt>
</event>
<event>
13    1  0.1675423E-008  0.1165370E+03  0.7546771E-02  0.1277734E+00
          2   -1    0    0  502    0  0.00000000000E+00  0.00000000000E+00  0.80071108852E+03  0.80071108852E+03  0.00000000000E+00 0. -1.
          4   -1    0    0  503    0 -0.00000000000E+00 -0.00000000000E+00 -0.10598574696E+04  0.10598574696E+04  0.00000000000E+00 0. -1.
         24    2    1    2    0    0 -0.33361083691E+02  0.96319489220E+02  0.36304994415E+03  0.38581714191E+03  0.81603916144E+02 0.  0.
         25    2    1    2    0    0 -0.91267210140E+02 -0.15010235274E+03  0.82437074988E+02  0.23082805822E+03  0.12500120473E+03 0.  0.
         24    2    1    2    0    0  0.65477967828E+00  0.41708127525E+01  0.74252439590E+02  0.10895944727E+03  0.79629843337E+02 0.  0.
        -11    1    5    5    0    0  0.21574666798E+02 -0.20958768206E+02  0.69742391862E+02  0.75952204937E+02  0.00000000000E+00 0.  1.
         12    1    5    5    0    0 -0.20919887120E+02  0.25129580958E+02  0.45100477281E+01  0.33007242338E+02  0.00000000000E+00 0. -1.
        -11    1    3    3    0    0 -0.30380168245E+02  0.10613210472E+03  0.26281762595E+03  0.28506154210E+03  0.00000000000E+00 0.  1.
         12    1    3    3    0    0 -0.29809154460E+01 -0.98126154988E+01  0.10023231820E+03  0.10075559980E+03  0.00000000000E+00 0. -1.
          5    1    4    4  501    0  0.47281666225E+01 -0.52207832909E+02  0.77334373394E+02  0.93545222673E+02  0.47000000000E+01 0.  1.
         -5    1    4    4    0  501 -0.95995376762E+02 -0.97894519831E+02  0.51027015943E+01  0.13728283555E+03  0.47000000000E+01 0.  1.
          1    1    1    2  502    0  0.16279995507E+02  0.94531129240E+02  0.16124488236E+03  0.18761952120E+03  0.00000000000E+00 0. -1.
          3    1    1    2  503    0  0.10769351865E+03 -0.44919078472E+02 -0.94013072216E+03  0.94734438950E+03  0.00000000000E+00 0. -1.
<mgrwt>
<rscale>  0 0.10122847E+03</rscale>
<asrwt>0</asrwt>
<pdfrwt beam="1">  1        2 0.11775163E+00 0.87930923E+02</pdfrwt>
<pdfrwt beam="2">  1        4 0.15586139E+00 0.11653696E+03</pdfrwt>
<totfact> 0.58923504E+00</totfact>
</mgrwt>
</event>
<event>
13    1  0.1675423E-008  0.5018895E+02  0.7546771E-02  0.1497129E+00
          2   -1    0    0  502    0  0.00000000000E+00  0.00000000000E+00  0.26360642179E+04  0.26360642179E+04  0.00000000000E+00 0. -1.
          2   -1    0    0  503    0 -0.00000000000E+00 -0.00000000000E+00 -0.16287501824E+04  0.16287501824E+04  0.00000000000E+00 0. -1.
         24    2    1    2    0    0  0.54051669556E+02 -0.31200789175E+03  0.34461270338E+03  0.47521299764E+03  0.82455868780E+02 0.  0.
         25    2    1    2    0    0 -0.24492588280E+02 -0.27576994927E+03 -0.77712085395E+03  0.83438012456E+03  0.12499767523E+03 0.  0.
         24    2    1    2    0    0 -0.93191607772E+02  0.61933924435E+03  0.42987724805E+03  0.76529392123E+03  0.92814665541E+02 0.  0.
        -11    1    3    3    0    0  0.66916196746E+01 -0.21114759408E+03  0.26168791473E+03  0.33631629305E+03  0.00000000000E+00 0.  1.
         12    1    3    3    0    0  0.47360049881E+02 -0.10086029767E+03  0.82924788654E+02  0.13889670458E+03  0.00000000000E+00 0. -1.
        -11    1    5    5    0    0 -0.99825747861E+01  0.29433138019E+03  0.23919532337E+03  0.37940086438E+03  0.00000000000E+00 0.  1.
         12    1    5    5    0    0 -0.83209032986E+02  0.32500786415E+03  0.19068192467E+03  0.38589305686E+03  0.00000000000E+00 0. -1.
          5    1    4    4  501    0  0.20388932196E+02 -0.23337033543E+03 -0.67964537099E+03  0.71890009203E+03  0.47000000000E+01 0.  1.
         -5    1    4    4    0  501 -0.44881520476E+02 -0.42399613835E+02 -0.97475482959E+02  0.11548003252E+03  0.47000000000E+01 0.  1.
          1    1    1    2  502    0  0.50183785833E+02  0.92617764338E-01  0.15990409572E+04  0.15998282419E+04  0.00000000000E+00 0. -1.
          1    1    1    2  503    0  0.13448740663E+02 -0.31654021090E+02 -0.58909601918E+03  0.59009911497E+03  0.00000000000E+00 0. -1.
<mgrwt>
<rscale>  0 0.41546654E+02</rscale>
<asrwt>0</asrwt>
<pdfrwt beam="1">  1        2 0.38765650E+00 0.50188945E+02</pdfrwt>
<pdfrwt beam="2">  1        2 0.23952209E+00 0.34392524E+02</pdfrwt>
<totfact> 0.11688246E+01</totfact>
</mgrwt>
</event>
<event>
13    1  0.1675423E-008  0.1485583E+03  0.7546771E-02  0.1348375E+00
          2   -1    0    0  503    0  0.00000000000E+00  0.00000000000E+00  0.20003058847E+04  0.20003058847E+04  0.00000000000E+00 0. -1.
          2   -1    0    0  502    0 -0.00000000000E+00 -0.00000000000E+00 -0.22789948591E+04  0.22789948591E+04  0.00000000000E+00 0. -1.
         24    2    1    2    0    0 -0.10507871307E+02  0.43756217248E+01  0.93224706941E+03  0.93624720256E+03  0.85701017844E+02 0.  0.
         25    2    1    2    0    0 -0.47496298914E+02 -0.93533159982E+02 -0.25352481032E+03  0.30150339750E+03  0.12500047530E+03 0.  0.
         24    2    1    2    0    0 -0.30618970085E+02  0.94930513422E+01  0.32236027228E+02  0.95108518287E+02  0.83539388592E+02 0.  0.
        -11    1    3    3    0    0  0.13057087116E+02  0.40563381088E+02  0.40549035225E+03  0.40772331449E+03  0.00000000000E+00 0.  1.
         12    1    3    3    0    0 -0.23564958423E+02 -0.36187759363E+02  0.52675671716E+03  0.52852388808E+03  0.00000000000E+00 0. -1.
        -13    1    5    5    0    0 -0.23923024141E+02 -0.10433289812E+02 -0.23761382269E+02  0.35295437491E+02  0.00000000000E+00 0.  1.
         14    1    5    5    0    0 -0.66959459448E+01  0.19926341154E+02  0.55997409497E+02  0.59813080796E+02  0.00000000000E+00 0. -1.
          5    1    4    4  501    0  0.20969151866E+02 -0.60445382457E+02 -0.42002669832E+02  0.76678966238E+02  0.47000000000E+01 0.  1.
         -5    1    4    4    0  501 -0.68465450780E+02 -0.33087777524E+02 -0.21152214049E+03  0.22482443126E+03  0.47000000000E+01 0.  1.
          1    1    1    2  502    0  0.10860770915E+03  0.11012161473E+03 -0.19646649265E+04  0.19707436865E+04  0.00000000000E+00 0. -1.
          1    1    1    2  503    0 -0.19984568840E+02 -0.30457127818E+02  0.97501766579E+03  0.97569793903E+03  0.00000000000E+00 0. -1.
<mgrwt>
<rscale>  0 0.73564418E+02</rscale>
<asrwt>0</asrwt>
<pdfrwt beam="1">  1        2 0.29416263E+00 0.36428281E+02</pdfrwt>
<pdfrwt beam="2">  1        2 0.33514630E+00 0.14855830E+03</pdfrwt>
<totfact> 0.10229358E+01</totfact>
</mgrwt>
</event>
<event>
13    1  0.1675423E-008  0.6229592E+02  0.7546771E-02  0.1435365E+00
          2   -1    0    0  503    0  0.00000000000E+00  0.00000000000E+00  0.23123323161E+04  0.23123323161E+04  0.00000000000E+00 0. -1.
          2   -1    0    0  502    0 -0.00000000000E+00 -0.00000000000E+00 -0.22334405127E+04  0.22334405127E+04  0.00000000000E+00 0. -1.
         24    2    1    2    0    0  0.82387255523E+02 -0.13007664924E+03  0.19590996448E+03  0.26202367256E+03  0.81043792168E+02 0.  0.
         25    2    1    2    0    0  0.75107909339E+02  0.90854735193E+02 -0.57388785821E+03  0.59905620391E+03  0.12500112276E+03 0.  0.
         24    2    1    2    0    0 -0.13058574877E+03  0.97712232484E+02 -0.14430287774E+03  0.23333064127E+03  0.83782751631E+02 0.  0.
        -13    1    3    3    0    0  0.30553832364E+02 -0.66189194128E+02  0.34061179355E+02  0.80465582894E+02  0.00000000000E+00 0.  1.
         14    1    3    3    0    0  0.51833423159E+02 -0.63887455116E+02  0.16184878512E+03  0.18155808966E+03  0.00000000000E+00 0. -1.
        -13    1    5    5    0    0 -0.89670245844E+02  0.98040665516E+02 -0.13863718785E+03  0.19202342289E+03  0.00000000000E+00 0.  1.
         14    1    5    5    0    0 -0.40915502924E+02 -0.32843303197E+00 -0.56656898916E+01  0.41307218373E+02  0.00000000000E+00 0. -1.
          5    1    4    4  501    0  0.92720320196E+02  0.45335043037E+02 -0.23593963863E+03  0.25756926637E+03  0.47000000000E+01 0.  1.
         -5    1    4    4    0  501 -0.17612410857E+02  0.45519692155E+02 -0.33794821958E+03  0.34148693754E+03  0.47000000000E+01 0.  1.
          1    1    1    2  502    0 -0.43204503983E+02  0.16445439684E+01 -0.14242878225E+04  0.14249439059E+04  0.00000000000E+00 0. -1.
          1    1    1    2  503    0  0.16295087889E+02 -0.60134862402E+02  0.20254603973E+04  0.20264184051E+04  0.00000000000E+00 0. -1.
<mgrwt>
<rscale>  0 0.51898105E+02</rscale>
<asrwt>0</asrwt>
<pdfrwt beam="1">  1        2 0.34004887E+00 0.62295916E+02</pdfrwt>
<pdfrwt beam="2">  1        2 0.32844713E+00 0.43235792E+02</pdfrwt>
<totfact> 0.83569562E+00</totfact>
</mgrwt>
</event>
<event>
13    1  0.1675423E-008  0.1936937E+03  0.7546771E-02  0.1193671E+00
          2   -1    0    0  502    0  0.00000000000E+00  0.00000000000E+00  0.16906419355E+04  0.16906419355E+04  0.00000000000E+00 0. -1.
          2   -1    0    0  503    0 -0.00000000000E+00 -0.00000000000E+00 -0.84009540274E+03  0.84009540274E+03  0.00000000000E+00 0. -1.
         24    2    1    2    0    0 -0.96220263468E+01  0.70652634375E+02 -0.10826483443E+02  0.10730235802E+03  0.79449387394E+02 0.  0.
         25    2    1    2    0    0  0.68964734459E+02 -0.90907239426E+02 -0.63370619871E+02  0.18072185603E+03  0.12499717198E+03 0.  0.
         24    2    1    2    0    0 -0.12597409228E+03  0.30506226106E+01 -0.49937691459E+01  0.14849025341E+03  0.78394128624E+02 0.  0.
        -11    1    5    5    0    0  0.69349405845E+01 -0.12282660473E+02 -0.41280468320E+01  0.14696867688E+02  0.00000000000E+00 0.  1.
         12    1    5    5    0    0 -0.13290903287E+03  0.15333283083E+02 -0.86572231396E+00  0.13379338572E+03  0.00000000000E+00 0. -1.
        -13    1    3    3    0    0  0.19282151840E+02  0.75067360579E+02 -0.71689392201E+01  0.77835105790E+02  0.00000000000E+00 0.  1.
         14    1    3    3    0    0 -0.28904178186E+02 -0.44147262043E+01 -0.36575442225E+01  0.29467252227E+02  0.00000000000E+00 0. -1.
          5    1    4    4  501    0 -0.22992928010E+02 -0.57054267444E+02 -0.54325215726E+02  0.82202087782E+02  0.47000000000E+01 0.  1.
         -5    1    4    4    0  501  0.91957662469E+02 -0.33852971982E+02 -0.90454041449E+01  0.98519768245E+02  0.47000000000E+01 0.  1.
          1    1    1    2  502    0  0.19839497275E+03  0.22160769233E+02  0.14978066713E+04  0.15110514516E+04  0.00000000000E+00 0. -1.
          1    1    1    2  503    0 -0.13176358858E+03 -0.49567867916E+01 -0.56806926610E+03  0.58317141914E+03  0.00000000000E+00 0. -1.
<mgrwt>
<rscale>  0 0.15567203E+03</rscale>
<asrwt>0</asrwt>
<pdfrwt beam="1">  1        2 0.24862381E+00 0.19369372E+03</pdfrwt>
<pdfrwt beam="2">  1        2 0.12354344E+00 0.12511393E+03</pdfrwt>
<totfact> 0.69175290E+01</totfact>
</mgrwt>
</event>
<event>
13    1  0.1675423E-008  0.8270869E+02  0.7546771E-02  0.1382600E+00
          2   -1    0    0  502    0  0.00000000000E+00  0.00000000000E+00  0.59833292431E+03  0.59833292431E+03  0.00000000000E+00 0. -1.
          4   -1    0    0  503    0 -0.00000000000E+00 -0.00000000000E+00 -0.77153092968E+03  0.77153092968E+03  0.00000000000E+00 0. -1.
         24    2    1    2    0    0  0.25846991225E+02 -0.58360887007E+02  0.36202902551E+02  0.11033033845E+03  0.82389764789E+02 0.  0.
         25    2    1    2    0    0 -0.50157498735E+01 -0.82164505204E+02  0.12180735059E+02  0.15016105949E+03  0.12499523918E+03 0.  0.
         24    2    1    2    0    0  0.82393027381E+01  0.12020382795E+03  0.35948914709E+02  0.14149184881E+03  0.64890464989E+02 0.  0.
        -11    1    5    5    0    0  0.29110952105E+02  0.80897897361E+02  0.28400958457E+01  0.86023156617E+02  0.00000000000E+00 0.  1.
         12    1    5    5    0    0 -0.20871649367E+02  0.39305930593E+02  0.33108818864E+02  0.55468692193E+02  0.00000000000E+00 0. -1.
        -13    1    3    3    0    0 -0.17994338810E+01 -0.64095150596E+02  0.47625470324E+02  0.79872471576E+02  0.00000000000E+00 0.  1.
         14    1    3    3    0    0  0.27646425106E+02  0.57342635884E+01 -0.11422567773E+02  0.30457866875E+02  0.00000000000E+00 0. -1.
          5    1    4    4  501    0 -0.57445444834E+02 -0.21241819203E+02  0.28968843251E+02  0.67915225793E+02  0.47000000000E+01 0.  1.
         -5    1    4    4    0  501  0.52429694960E+02 -0.60922686001E+02 -0.16788108192E+02  0.82245833693E+02  0.47000000000E+01 0.  1.
          1    1    1    2  502    0 -0.74382246997E+02  0.39469654748E+02  0.34917462340E+03  0.35918447898E+03  0.00000000000E+00 0. -1.
          3    1    1    2  503    0  0.45311702908E+02 -0.19148090492E+02 -0.60670518109E+03  0.60869612826E+03  0.00000000000E+00 0. -1.
<mgrwt>
<rscale>  0 0.63785274E+02</rscale>
<asrwt>0</asrwt>
<pdfrwt beam="1">  1        2 0.87990136E-01 0.82708687E+02</pdfrwt>
<pdfrwt beam="2">  1        4 0.11346043E+00 0.49191461E+02</pdfrwt>
<totfact> 0.17311546E+01</totfact>
</mgrwt>
</event>
<event>
13    1  0.1675423E-008  0.1713691E+03  0.7546771E-02  0.1240949E+00
          2   -1    0    0  503    0  0.00000000000E+00  0.00000000000E+00  0.18341107189E+04  0.18341107189E+04  0.00000000000E+00 0. -1.
          2   -1    0    0  502    0 -0.00000000000E+00 -0.00000000000E+00 -0.16351246535E+04  0.16351246535E+04  0.00000000000E+00 0. -1.
         24    2    1    2    0    0  0.20185606619E+02  0.66376495292E+02 -0.18933997915E+03  0.21716739265E+03  0.80614830418E+02 0.  0.
         25    2    1    2    0    0  0.18085984856E+03 -0.15072498660E+03  0.11591705490E+03  0.29067244542E+03  0.12500160200E+03 0.  0.
         24    2    1    2    0    0 -0.93033369587E+02 -0.32009855353E+02  0.35635394450E+02  0.12878380850E+03  0.75070295704E+02 0.  0.
        -11    1    3    3    0    0 -0.30488925716E+02  0.15736896051E+02 -0.70462232289E+02  0.78371874214E+02  0.00000000000E+00 0.  1.
         12    1    3    3    0    0  0.50674532336E+02  0.50639599241E+02 -0.11887774686E+03  0.13879551843E+03  0.00000000000E+00 0. -1.
        -13    1    5    5    0    0 -0.14101515794E+02  0.89687114442E+01 -0.18291318925E+02  0.24776256390E+02  0.00000000000E+00 0.  1.
         14    1    5    5    0    0 -0.78931853793E+02 -0.40978566797E+02  0.53926713376E+02  0.10400755211E+03  0.00000000000E+00 0. -1.
          5    1    4    4  501    0  0.30037573958E+02 -0.51542290692E+02 -0.21681911081E+02  0.63647928853E+02  0.47000000000E+01 0. -1.
         -5    1    4    4    0  501  0.15082227460E+03 -0.99182695906E+02  0.13759896598E+03  0.22702451656E+03  0.47000000000E+01 0. -1.
          1    1    1    2  502    0 -0.24623803518E+03  0.10610643452E+03 -0.12808796849E+04  0.13086422401E+04  0.00000000000E+00 0. -1.
          1    1    1    2  503    0  0.13822594960E+03  0.10251912139E+02  0.15176532800E+04  0.15239694857E+04  0.00000000000E+00 0. -1.
<mgrwt>
<rscale>  0 0.12131173E+03</rscale>
<asrwt>0</asrwt>
<pdfrwt beam="1">  1        2 0.26972217E+00 0.85876245E+02</pdfrwt>
<pdfrwt beam="2">  1        2 0.24045951E+00 0.17136911E+03</pdfrwt>
<totfact> 0.22886903E+01</totfact>
</mgrwt>
</event>
<event>
13    1  0.1675423E-008  0.5290916E+02  0.7546771E-02  0.1531177E+00
          2   -1    0    0  502    0  0.00000000000E+00  0.00000000000E+00  0.32702544001E+04  0.32702544001E+04  0.00000000000E+00 0. -1.
          2   -1    0    0  503    0 -0.00000000000E+00 -0.00000000000E+00 -0.39884090865E+03  0.39884090865E+03  0.00000000000E+00 0. -1.
         24    2    1    2    0    0  0.25431433263E+02  0.84151495808E+01  0.75637408826E+03  0.76121548309E+03  0.81422833245E+02 0.  0.
         25    2    1    2    0    0  0.20777572079E+02 -0.25280717679E+03  0.13444224561E+04  0.13738412186E+04  0.12499910918E+03 0.  0.
         24    2    1    2    0    0 -0.85894983905E+02  0.17637993119E+03 -0.14094520608E+03  0.25473486075E+03  0.80848437082E+02 0.  0.
        -11    1    3    3    0    0  0.34781740351E+02 -0.29719935623E+02  0.45502605110E+03  0.45732018457E+03  0.00000000000E+00 0.  1.
         12    1    3    3    0    0 -0.93503070885E+01  0.38135085204E+02  0.30134803716E+03  0.30389529853E+03  0.00000000000E+00 0. -1.
        -11    1    5    5    0    0  0.79923820091E+01 -0.36805450179E+01 -0.88716782387E+01  0.12495249360E+02  0.00000000000E+00 0.  1.
         12    1    5    5    0    0 -0.93887365914E+02  0.18006047621E+03 -0.13207352784E+03  0.24223961139E+03  0.00000000000E+00 0. -1.
          5    1    4    4  501    0  0.57856549524E+02 -0.66452135929E+02  0.54767032453E+03  0.55473249505E+03  0.47000000000E+01 0. -1.
         -5    1    4    4    0  501 -0.37078977445E+02 -0.18635504086E+03  0.79675213159E+03  0.81910872356E+03  0.47000000000E+01 0. -1.
          1    1    1    2  502    0  0.11869949722E+02  0.23057957525E+02  0.10914760492E+04  0.10917841046E+04  0.00000000000E+00 0. -1.
          1    1    1    2  503    0  0.27816028840E+02  0.44954138488E+02 -0.17991389604E+03  0.18751964168E+03  0.00000000000E+00 0. -1.
<mgrwt>
<rscale>  0 0.37042392E+02</rscale>
<asrwt>0</asrwt>
<pdfrwt beam="1">  1        2 0.48091975E+00 0.25933860E+02</pdfrwt>
<pdfrwt beam="2">  1        2 0.58653076E-01 0.52909162E+02</pdfrwt>
<totfact> 0.34718868E+01</totfact>
</mgrwt>
</event>
<event>
13    1  0.1675423E-008  0.1161444E+03  0.7546771E-02  0.1314369E+00
          2   -1    0    0  503    0  0.00000000000E+00  0.00000000000E+00  0.43266425534E+04  0.43266425534E+04  0.00000000000E+00 0. -1.
          2   -1    0    0  502    0 -0.00000000000E+00 -0.00000000000E+00 -0.11262776765E+04  0.11262776765E+04  0.00000000000E+00 0. -1.
         24    2    1    2    0    0  0.17427532702E+02 -0.92264522497E+01  0.26463147562E+04  0.26475906834E+04  0.79785912259E+02 0.  0.
         25    2    1    2    0    0 -0.72519016567E+02 -0.12268435985E+03 -0.13756997607E+03  0.23422378395E+03  0.12499929093E+03 0.  0.
         24    2    1    2    0    0  0.42967233068E+02 -0.16260465356E+02 -0.11177472775E+01  0.93674000672E+02  0.81627098391E+02 0.  0.
        -11    1    3    3    0    0 -0.25540776619E+02  0.16107005700E+02  0.72497137378E+03  0.72559993088E+03  0.00000000000E+00 0.  1.
         12    1    3    3    0    0  0.42968309321E+02 -0.25333457950E+02  0.19213433824E+04  0.19219907525E+04  0.00000000000E+00 0. -1.
        -11    1    5    5    0    0  0.28699895114E+02 -0.38678100767E+02 -0.28135199694E+02  0.55778749720E+02  0.00000000000E+00 0.  1.
         12    1    5    5    0    0  0.14267337954E+02  0.22417635410E+02  0.27017452416E+02  0.37895250952E+02  0.00000000000E+00 0. -1.
          5    1    4    4  501    0 -0.82292787284E-01 -0.84244684667E+02 -0.12546526944E+03  0.15119787532E+03  0.47000000000E+01 0.  1.
         -5    1    4    4    0  501 -0.72436723780E+02 -0.38439675188E+02 -0.12104706633E+02  0.83025908626E+02  0.47000000000E+01 0.  1.
          1    1    1    2  502    0  0.58296075861E+02 -0.23369382235E+02 -0.88625481361E+03  0.88847743648E+03  0.00000000000E+00 0. -1.
          1    1    1    2  503    0 -0.46171825063E+02  0.17154065970E+03  0.15789926577E+04  0.15889543254E+04  0.00000000000E+00 0. -1.
<mgrwt>
<rscale>  0 0.85408054E+02</rscale>
<asrwt>0</asrwt>
<pdfrwt beam="1">  1        2 0.63627096E+00 0.11614442E+03</pdfrwt>
<pdfrwt beam="2">  1        2 0.16562907E+00 0.62805736E+02</pdfrwt>
<totfact> 0.16770868E+00</totfact>
</mgrwt>
</event>
<event>
13    1  0.1675423E-008  0.4980050E+02  0.7546771E-02  0.1549612E+00
          2   -1    0    0  502    0  0.00000000000E+00  0.00000000000E+00  0.17382511489E+04  0.17382511489E+04  0.00000000000E+00 0. -1.
          2   -1    0    0  503    0 -0.00000000000E+00 -0.00000000000E+00 -0.36640217194E+04  0.36640217194E+04  0.00000000000E+00 0. -1.
         24    2    1    2    0    0  0.48549865531E+02 -0.21031589165E+03  0.83436900758E+03  0.86522899790E+03  0.76548770577E+02 0.  0.
         25    2    1    2    0    0 -0.80498126163E+01  0.54721919028E+02  0.17182283229E+03  0.21955985614E+03  0.12499662726E+03 0.  0.
         24    2    1    2    0    0 -0.41875007396E+02  0.11893994623E+03 -0.60824554470E+01  0.14867393049E+03  0.78528429809E+02 0.  0.
        -11    1    3    3    0    0 -0.18675729334E+01  0.30073370302E+01  0.68960839299E+02  0.69051641990E+02  0.00000000000E+00 0.  1.
         12    1    3    3    0    0  0.50417438464E+02 -0.21332322868E+03  0.76540816828E+03  0.79617735591E+03  0.00000000000E+00 0. -1.
        -13    1    5    5    0    0 -0.20176564889E+02  0.74110587407E+02 -0.41743691308E+02  0.87418583268E+02  0.00000000000E+00 0.  1.
         14    1    5    5    0    0 -0.21698442507E+02  0.44829358827E+02  0.35661235861E+02  0.61255347221E+02  0.00000000000E+00 0. -1.
          5    1    4    4  501    0 -0.59810959450E+02  0.98783604585E+01  0.11643579500E+03  0.13135568976E+03  0.47000000000E+01 0.  1.
         -5    1    4    4    0  501  0.51761146834E+02  0.44843558570E+02  0.55387037292E+02  0.88204166380E+02  0.47000000000E+01 0.  1.
          1    1    1    2  502    0 -0.23571996972E+02 -0.64506239209E+01  0.62104992215E+03  0.62153057479E+03  0.00000000000E+00 0. -1.
          1    1    1    2  503    0  0.24946951454E+02  0.43104650310E+02 -0.35469298771E+04  0.35472795089E+04  0.00000000000E+00 0. -1.
<mgrwt>
<rscale>  0 0.34886374E+02</rscale>
<asrwt>0</asrwt>
<pdfrwt beam="1">  1        2 0.25562517E+00 0.24438690E+02</pdfrwt>
<pdfrwt beam="2">  1        2 0.53882671E+00 0.49800504E+02</pdfrwt>
<totfact> 0.30452267E+00</totfact>
</mgrwt>
</event>
<event>
13    1  0.1675423E-008  0.1110179E+03  0.7546771E-02  0.1410142E+00
          2   -1    0    0  502    0  0.00000000000E+00  0.00000000000E+00  0.19544962219E+04  0.19544962219E+04  0.00000000000E+00 0. -1.
          2   -1    0    0  503    0 -0.00000000000E+00 -0.00000000000E+00 -0.23733422806E+04  0.23733422806E+04  0.00000000000E+00 0. -1.
         24    2    1    2    0    0 -0.11498017913E+01 -0.17326913594E+00  0.42121435179E+03  0.42885299963E+03  0.80573029401E+02 0.  0.
         25    2    1    2    0    0  0.54429562579E+02 -0.13602919627E+03 -0.33876194742E+03  0.38968322927E+03  0.12500737032E+03 0.  0.
         24    2    1    2    0    0  0.80470516839E+02  0.13136137409E+02  0.27228071203E+03  0.29537709289E+03  0.80391409203E+02 0.  0.
        -11    1    5    5    0    0  0.16062184288E+02  0.40934453765E+02  0.93437789711E+02  0.10326782565E+03  0.00000000000E+00 0.  1.
         12    1    5    5    0    0  0.64408332551E+02 -0.27798316356E+02  0.17884292232E+03  0.19210926724E+03  0.00000000000E+00 0. -1.
        -13    1    3    3    0    0  0.14343424303E+02  0.33177132863E+02  0.11785991340E+03  0.12327779667E+03  0.00000000000E+00 0.  1.
         14    1    3    3    0    0 -0.15493226094E+02 -0.33350401999E+02  0.30335443839E+03  0.30557520296E+03  0.00000000000E+00 0. -1.
          5    1    4    4  501    0  0.47986567130E+02 -0.73489371632E+02 -0.66499532195E+02  0.11021649672E+03  0.47000000000E+01 0.  1.
         -5    1    4    4    0  501  0.64429954486E+01 -0.62539824638E+02 -0.27226241522E+03  0.27946673255E+03  0.47000000000E+01 0.  1.
          1    1    1    2  502    0 -0.10913079346E+03  0.10693743101E+03  0.12152805301E+04  0.12248477093E+04  0.00000000000E+00 0. -1.
          1    1    1    2  503    0 -0.24619484165E+02  0.16128896986E+02 -0.19888597052E+04  0.19890774714E+04  0.00000000000E+00 0. -1.
<mgrwt>
<rscale>  0 0.57162145E+02</rscale>
<asrwt>0</asrwt>
<pdfrwt beam="1">  1        2 0.28742592E+00 0.11101785E+03</pdfrwt>
<pdfrwt beam="2">  1        2 0.34902092E+00 0.29432301E+02</pdfrwt>
<totfact> 0.10549827E+01</totfact>
</mgrwt>
</event>
<event>
13    1  0.1675423E-008  0.1296559E+03  0.7546771E-02  0.1270803E+00
          2   -1    0    0  502    0  0.00000000000E+00  0.00000000000E+00  0.14630843061E+04  0.14630843061E+04  0.00000000000E+00 0. -1.
          2   -1    0    0  503    0 -0.00000000000E+00 -0.00000000000E+00 -0.21726315399E+04  0.21726315399E+04  0.00000000000E+00 0. -1.
         24    2    1    2    0    0  0.27987902632E+02  0.52833231777E+02  0.61037591123E+02  0.11600448760E+03  0.78465154933E+02 0.  0.
         25    2    1    2    0    0 -0.23358866836E+03 -0.17504107136E+03 -0.34622198885E+03  0.46978621028E+03  0.12500550050E+03 0.  0.
         24    2    1    2    0    0  0.27596658179E+02  0.33985591843E+02 -0.21325295408E+03  0.23273742152E+03  0.82299993666E+02 0.  0.
        -13    1    5    5    0    0  0.18260380257E+01  0.51702602583E+02 -0.75803172628E+02  0.91774803237E+02  0.00000000000E+00 0.  1.
         14    1    5    5    0    0  0.25770620153E+02 -0.17717010740E+02 -0.13744978145E+03  0.14096261828E+03  0.00000000000E+00 0. -1.
        -13    1    3    3    0    0 -0.22496332308E+02  0.23959136482E+02  0.16863227317E+01  0.32908492409E+02  0.00000000000E+00 0.  1.
         14    1    3    3    0    0  0.50484234940E+02  0.28874095295E+02  0.59351268391E+02  0.83095995187E+02  0.00000000000E+00 0. -1.
          5    1    4    4  501    0 -0.20167848212E+03 -0.16058543506E+03 -0.22075605335E+03  0.33943661734E+03  0.47000000000E+01 0. -1.
         -5    1    4    4    0  501 -0.31910186245E+02 -0.14455636293E+02 -0.12546593550E+03  0.13034959293E+03  0.47000000000E+01 0. -1.
          1    1    1    2  502    0  0.51285326908E+02  0.67122833484E+02  0.12989397670E+04  0.13016835936E+04  0.00000000000E+00 0. -1.
          1    1    1    2  503    0  0.12671878064E+03  0.21099414252E+02 -0.15100496490E+04  0.15155041330E+04  0.00000000000E+00 0. -1.
<mgrwt>
<rscale>  0 0.10465372E+03</rscale>
<asrwt>0</asrwt>
<pdfrwt beam="1">  1        2 0.21515946E+00 0.84472833E+02</pdfrwt>
<pdfrwt beam="2">  1        2 0.31950464E+00 0.12965589E+03</pdfrwt>
<totfact> 0.19363539E+01</totfact>
</mgrwt>
</event>
<event>
13    1  0.1675423E-008  0.1327161E+03  0.7546771E-02  0.1326856E+00
          2   -1    0    0  502    0  0.00000000000E+00  0.00000000000E+00  0.55484000652E+03  0.55484000652E+03  0.00000000000E+00 0. -1.
          4   -1    0    0  503    0 -0.00000000000E+00 -0.00000000000E+00 -0.22649301115E+04  0.22649301115E+04  0.00000000000E+00 0. -1.
         24    2    1    2    0    0 -0.17082899412E+02 -0.30637429541E+02  0.45548094398E+03  0.46400562627E+03  0.81288703638E+02 0.  0.
         25    2    1    2    0    0  0.18204668792E+03 -0.91192179322E+01 -0.55272301896E+03  0.59527633423E+03  0.12500808650E+03 0.  0.
         24    2    1    2    0    0 -0.87117666739E+02  0.48285318017E+02 -0.57619670789E+02  0.14055679126E+03  0.80716945644E+02 0.  0.
        -11    1    5    5    0    0 -0.89553526468E+02  0.62104091686E+02 -0.62584552828E+02  0.12567250519E+03  0.00000000000E+00 0.  1.
         12    1    5    5    0    0  0.24358597289E+01 -0.13818773669E+02  0.49648820394E+01  0.14884286077E+02  0.00000000000E+00 0. -1.
        -13    1    3    3    0    0 -0.38789929060E+02  0.12065116304E+02  0.20584451490E+03  0.20981465617E+03  0.00000000000E+00 0.  1.
         14    1    3    3    0    0  0.21707029648E+02 -0.42702545845E+02  0.24963642908E+03  0.25419097011E+03  0.00000000000E+00 0. -1.
          5    1    4    4  501    0  0.12131971470E+03  0.53899712673E+02 -0.35314397180E+03  0.37730148028E+03  0.47000000000E+01 0. -1.
         -5    1    4    4    0  501  0.60726973224E+02 -0.63018930605E+02 -0.19957904716E+03  0.21797485395E+03  0.47000000000E+01 0. -1.
          1    1    1    2  502    0  0.48905119214E+02 -0.50659343154E+01  0.94980086262E+01  0.50075807968E+02  0.00000000000E+00 0. -1.
          3    1    1    2  503    0 -0.12675124098E+03 -0.34627362287E+01 -0.15647263678E+04  0.15698555582E+04  0.00000000000E+00 0. -1.
<mgrwt>
<rscale>  0 0.80778877E+02</rscale>
<asrwt>0</asrwt>
<pdfrwt beam="1">  1        2 0.81594118E-01 0.49166802E+02</pdfrwt>
<pdfrwt beam="2">  1        4 0.33307796E+00 0.13271612E+03</pdfrwt>
<totfact> 0.76718002E-01</totfact>
</mgrwt>
</event>
<event>
13    1  0.1675423E-008  0.1058299E+03  0.7546771E-02  0.1307872E+00
          2   -1    0    0  503    0  0.00000000000E+00  0.00000000000E+00  0.12447945635E+04  0.12447945635E+04  0.00000000000E+00 0. -1.
          2   -1    0    0  502    0 -0.00000000000E+00 -0.00000000000E+00 -0.60337987889E+03  0.60337987889E+03  0.00000000000E+00 0. -1.
         24    2    1    2    0    0  0.30880486852E+02  0.96342710938E+02  0.41418460333E+03  0.43353029843E+03  0.78511856465E+02 0.  0.
         25    2    1    2    0    0 -0.18001035538E+03  0.71752143261E+02 -0.98503330217E+02  0.25075681726E+03  0.12499590886E+03 0.  0.
         24    2    1    2    0    0  0.54342671742E+02 -0.18357715481E+02  0.73750479207E+01  0.99144056885E+02  0.80529628051E+02 0.  0.
        -13    1    5    5    0    0 -0.75716995940E+01  0.18698190064E+02  0.16958426623E+02  0.26354149198E+02  0.00000000000E+00 0.  1.
         14    1    5    5    0    0  0.61914371336E+02 -0.37055905545E+02 -0.95833787027E+01  0.72789907686E+02  0.00000000000E+00 0. -1.
        -13    1    3    3    0    0  0.99682718411E+01 -0.11884972197E+02  0.84336269393E+02  0.85750949516E+02  0.00000000000E+00 0.  1.
         14    1    3    3    0    0  0.20912215011E+02  0.10822768313E+03  0.32984833393E+03  0.34777934891E+03  0.00000000000E+00 0. -1.
          5    1    4    4  501    0  0.17335662933E+02 -0.47238772099E+01 -0.44045716520E+01  0.19087442905E+02  0.47000000000E+01 0. -1.
         -5    1    4    4    0  501 -0.19734601831E+03  0.76476020471E+02 -0.94098758565E+02  0.23166937435E+03  0.47000000000E+01 0. -1.
          1    1    1    2  502    0  0.54307055875E+02 -0.88862340134E+02 -0.36393605143E+03  0.37854355277E+03  0.00000000000E+00 0. -1.
          1    1    1    2  503    0  0.40480140906E+02 -0.60874798584E+02  0.68229441501E+03  0.68619971704E+03  0.00000000000E+00 0. -1.
<mgrwt>
<rscale>  0 0.87958643E+02</rscale>
<asrwt>0</asrwt>
<pdfrwt beam="1">  1        2 0.18305802E+00 0.73105286E+02</pdfrwt>
<pdfrwt beam="2">  1        2 0.88732335E-01 0.10582987E+03</pdfrwt>
<totfact> 0.18463395E+02</totfact>
</mgrwt>
</event>
<event>
13    1  0.1675423E-008  0.1377697E+03  0.7546771E-02  0.1361321E+00
          2   -1    0    0  503    0  0.00000000000E+00  0.00000000000E+00  0.20941316120E+04  0.20941316120E+04  0.00000000000E+00 0. -1.
          2   -1    0    0  502    0 -0.00000000000E+00 -0.00000000000E+00 -0.90460038056E+03  0.90460038056E+03  0.00000000000E+00 0. -1.
         24    2    1    2    0    0  0.46566297097E+01 -0.14745975927E+03  0.10338802935E+03  0.19811808872E+03  0.82435597047E+02 0.  0.
         25    2    1    2    0    0  0.81448319978E+02 -0.97553793309E+02  0.30550454459E+03  0.35370645774E+03  0.12499864024E+03 0.  0.
         24    2    1    2    0    0  0.94388956507E+01  0.34623518974E+03 -0.26289790550E+03  0.44178264424E+03  0.78030101071E+02 0.  0.
        -11    1    3    3    0    0  0.38264062270E+02 -0.57764918353E+02  0.64751294353E+02  0.94834879523E+02  0.00000000000E+00 0.  1.
         12    1    3    3    0    0 -0.33607432561E+02 -0.89694840919E+02  0.38636734994E+02  0.10328320920E+03  0.00000000000E+00 0. -1.
        -13    1    5    5    0    0 -0.85419218740E+01  0.18304700697E+02  0.13594784305E+01  0.20245361902E+02  0.00000000000E+00 0.  1.
         14    1    5    5    0    0  0.17980817525E+02  0.32793048904E+03 -0.26425738393E+03  0.42153728234E+03  0.00000000000E+00 0. -1.
          5    1    4    4  501    0  0.32879857233E+02 -0.11990985201E+03  0.20648751355E+03  0.24107808045E+03  0.47000000000E+01 0.  1.
         -5    1    4    4    0  501  0.48568462745E+02  0.22356058703E+02  0.99017031041E+02  0.11262837729E+03  0.47000000000E+01 0.  1.
          1    1    1    2  502    0 -0.66304765572E+02 -0.12082411051E+03 -0.47070857762E+03  0.49047054210E+03  0.00000000000E+00 0. -1.
          1    1    1    2  503    0 -0.29239079766E+02  0.19602473356E+02  0.15142451407E+04  0.15146542598E+04  0.00000000000E+00 0. -1.
<mgrwt>
<rscale>  0 0.69640288E+02</rscale>
<asrwt>0</asrwt>
<pdfrwt beam="1">  1        2 0.30796053E+00 0.35201999E+02</pdfrwt>
<pdfrwt beam="2">  1        2 0.13302947E+00 0.13776972E+03</pdfrwt>
<totfact> 0.47867677E+01</totfact>
</mgrwt>
</event>
<event>
13    1  0.1675423E-008  0.1219625E+03  0.7546771E-02  0.1313985E+00
          2   -1    0    0  502    0  0.00000000000E+00  0.00000000000E+00  0.23050939828E+04  0.23050939828E+04  0.00000000000E+00 0. -1.
          2   -1    0    0  503    0 -0.00000000000E+00 -0.00000000000E+00 -0.36510901633E+04  0.36510901633E+04  0.00000000000E+00 0. -1.
         24    2    1    2    0    0 -0.30216942901E+02 -0.41292404959E+02  0.68457712359E+03  0.69103847883E+03  0.79184687458E+02 0.  0.
         25    2    1    2    0    0 -0.20259482430E+01 -0.19674667837E+03 -0.62404038243E+03  0.66615627485E+03  0.12499769478E+03 0.  0.
         24    2    1    2    0    0  0.14718622349E+03  0.18536036116E+03  0.72004022557E+02  0.25939005350E+03  0.77951091818E+02 0.  0.
        -13    1    5    5    0    0  0.14949685066E+03  0.17968522971E+03  0.81962630556E+02  0.24769732122E+03  0.00000000000E+00 0.  1.
         14    1    5    5    0    0 -0.23106271663E+01  0.56751314496E+01 -0.99586079990E+01  0.11692732279E+02  0.00000000000E+00 0. -1.
        -13    1    3    3    0    0  0.20887900027E+02 -0.26765202432E+00  0.31531003594E+03  0.31600125754E+03  0.00000000000E+00 0.  1.
         14    1    3    3    0    0 -0.51104842928E+02 -0.41024752935E+02  0.36926708766E+03  0.37503722129E+03  0.00000000000E+00 0. -1.
          5    1    4    4  501    0  0.24377693261E+02 -0.15447094270E+02 -0.21319284007E+02  0.36186828000E+02  0.47000000000E+01 0.  1.
         -5    1    4    4    0  501 -0.26403641504E+02 -0.18129958410E+03 -0.60272109842E+03  0.62996944685E+03  0.47000000000E+01 0.  1.
          1    1    1    2  502    0 -0.12560781193E+03 -0.63833139001E+01  0.14274563801E+04  0.14329863175E+04  0.00000000000E+00 0. -1.
          1    1    1    2  503    0  0.10664479582E+02  0.59062036070E+02 -0.29059933243E+04  0.29066130214E+04  0.00000000000E+00 0. -1.
<mgrwt>
<rscale>  0 0.85556053E+02</rscale>
<asrwt>0</asrwt>
<pdfrwt beam="1">  1        2 0.33898441E+00 0.12196249E+03</pdfrwt>
<pdfrwt beam="2">  1        2 0.53692502E+00 0.60017124E+02</pdfrwt>
<totfact> 0.13519095E+00</totfact>
</mgrwt>
</event>
<event>
13    1  0.1675423E-008  0.1248197E+03  0.7546771E-02  0.1349403E+00
          2   -1    0    0  502    0  0.00000000000E+00  0.00000000000E+00  0.19724758171E+04  0.19724758171E+04  0.00000000000E+00 0. -1.
          2   -1    0    0  503    0 -0.00000000000E+00 -0.00000000000E+00 -0.64753244798E+03  0.64753244798E+03  0.00000000000E+00 0. -1.
         24    2    1    2    0    0  0.16019464550E+02 -0.15976973854E+02  0.20972804575E+02  0.89744570028E+02  0.84275396052E+02 0.  0.
         25    2    1    2    0    0  0.45408414123E+02 -0.16775368489E+03  0.10537516939E+04  0.10752777848E+04  0.12500583705E+03 0.  0.
         24    2    1    2    0    0 -0.10834872581E+03 -0.12639917931E+02  0.51145099911E+01  0.13474586317E+03  0.78937161829E+02 0.  0.
        -11    1    5    5    0    0 -0.26466178671E+02  0.30170978814E+02 -0.93839524772E+01  0.41216563905E+02  0.00000000000E+00 0.  1.
         12    1    5    5    0    0 -0.81882547141E+02 -0.42810896745E+02  0.14498462468E+02  0.93529299262E+02  0.00000000000E+00 0. -1.
        -11    1    3    3    0    0  0.12125658005E+02  0.10772226191E+02 -0.28829747496E+02  0.33079098837E+02  0.00000000000E+00 0.  1.
         12    1    3    3    0    0  0.38938065448E+01 -0.26749200045E+02  0.49802552071E+02  0.56665471191E+02  0.00000000000E+00 0. -1.
          5    1    4    4  501    0  0.71279781944E+02 -0.16698902609E+03  0.81014456615E+03  0.83025444908E+03  0.47000000000E+01 0.  1.
         -5    1    4    4    0  501 -0.25871367822E+02 -0.76465880387E+00  0.24360712775E+03  0.24502333576E+03  0.47000000000E+01 0.  1.
          1    1    1    2  502    0 -0.34162061589E+02  0.26076454172E+02  0.76550670054E+03  0.76671216013E+03  0.00000000000E+00 0. -1.
          1    1    1    2  503    0  0.81082908728E+02  0.17029412251E+03 -0.52040233988E+03  0.55352788693E+03  0.00000000000E+00 0. -1.
<mgrwt>
<rscale>  0 0.73241954E+02</rscale>
<asrwt>0</asrwt>
<pdfrwt beam="1">  1        2 0.29006997E+00 0.42977063E+02</pdfrwt>
<pdfrwt beam="2">  1        2 0.95225360E-01 0.12481969E+03</pdfrwt>
<totfact> 0.79819573E+01</totfact>
</mgrwt>
</event>
<event>
13    1  0.1675423E-008  0.1736471E+03  0.7546771E-02  0.1222221E+00
          2   -1    0    0  503    0  0.00000000000E+00  0.00000000000E+00  0.71335314040E+03  0.71335314040E+03  0.00000000000E+00 0. -1.
          2   -1    0    0  502    0 -0.00000000000E+00 -0.00000000000E+00 -0.29965062720E+04  0.29965062720E+04  0.00000000000E+00 0. -1.
         24    2    1    2    0    0  0.42752549319E+02  0.18146644001E+03  0.35419129542E+03  0.40747706341E+03  0.76342872170E+02 0.  0.
         25    2    1    2    0    0  0.15226697526E+03 -0.66797965449E+02 -0.19784118908E+02  0.20895996801E+03  0.12500262767E+03 0.  0.
         24    2    1    2    0    0 -0.65824916408E+02 -0.82517683168E+02 -0.63218796281E+03  0.64636467990E+03  0.83567885225E+02 0.  0.
        -13    1    3    3    0    0  0.23329706867E+02  0.66872084831E+02  0.21375018119E+03  0.22517835355E+03  0.00000000000E+00 0.  1.
         14    1    3    3    0    0  0.19422842452E+02  0.11459435518E+03  0.14044111423E+03  0.18229870986E+03  0.00000000000E+00 0. -1.
        -13    1    5    5    0    0 -0.35916366144E+02 -0.16420503006E+01 -0.33488324336E+03  0.33680776174E+03  0.00000000000E+00 0.  1.
         14    1    5    5    0    0 -0.29908550264E+02 -0.80875632867E+02 -0.29730471945E+03  0.30955691816E+03  0.00000000000E+00 0. -1.
          5    1    4    4  501    0  0.11178698190E+03 -0.78194256694E+02 -0.61340705334E+02  0.14965107161E+03  0.47000000000E+01 0.  1.
         -5    1    4    4    0  501  0.40479993362E+02  0.11396291245E+02  0.41556586426E+02  0.59308896400E+02  0.47000000000E+01 0.  1.
          1    1    1    2  502    0 -0.17215160593E+03  0.61217337949E+02 -0.22007990622E+04  0.22083704966E+04  0.00000000000E+00 0. -1.
          1    1    1    2  503    0  0.42956997759E+02 -0.93368129347E+02  0.21542671692E+03  0.23868720451E+03  0.00000000000E+00 0. -1.
<mgrwt>
<rscale>  0 0.13359175E+03</rscale>
<asrwt>0</asrwt>
<pdfrwt beam="1">  1        2 0.10490487E+00 0.10277602E+03</pdfrwt>
<pdfrwt beam="2">  1        2 0.44066269E+00 0.17364707E+03</pdfrwt>
<totfact> 0.18569352E+01</totfact>
</mgrwt>
</event>
<event>
13    1  0.1675423E-008  0.7582042E+02  0.7546771E-02  0.1418319E+00
          2   -1    0    0  503    0  0.00000000000E+00  0.00000000000E+00  0.19657443764E+04  0.19657443764E+04  0.00000000000E+00 0. -1.
          2   -1    0    0  502    0 -0.00000000000E+00 -0.00000000000E+00 -0.24998760204E+03  0.24998760204E+03  0.00000000000E+00 0. -1.
         24    2    1    2    0    0 -0.13692569539E+03  0.21212849678E+03  0.10333483619E+04  0.10667615824E+04  0.80151678214E+02 0.  0.
         25    2    1    2    0    0  0.17144648024E+03 -0.66991459315E+02  0.26908112722E+02  0.22412190033E+03  0.12499931387E+03 0.  0.
         24    2    1    2    0    0  0.32927554287E+02 -0.58392823188E+02  0.17944600656E+03  0.20693846935E+03  0.78286111139E+02 0.  0.
        -11    1    3    3    0    0 -0.63167569485E+02  0.16097668307E+03  0.61221500306E+03  0.63616888033E+03  0.00000000000E+00 0.  1.
         12    1    3    3    0    0 -0.73758125902E+02  0.51151813716E+02  0.42113335883E+03  0.43059270210E+03  0.00000000000E+00 0. -1.
        -13    1    5    5    0    0  0.11848831227E+02  0.19080949460E+02  0.46232173972E+02  0.51399332135E+02  0.00000000000E+00 0.  1.
         14    1    5    5    0    0  0.21078723060E+02 -0.77473772648E+02  0.13321383259E+03  0.15553913722E+03  0.00000000000E+00 0. -1.
          5    1    4    4  501    0  0.42713303803E+02 -0.30383420519E+02  0.66187787210E+02  0.84560580296E+02  0.47000000000E+01 0. -1.
         -5    1    4    4    0  501  0.12873317644E+03 -0.36608038796E+02 -0.39279674488E+02  0.13956132003E+03  0.47000000000E+01 0. -1.
          1    1    1    2  502    0 -0.89265482204E+01 -0.39449980246E+02 -0.11509299648E+03  0.12199336885E+03  0.00000000000E+00 0. -1.
          1    1    1    2  503    0 -0.58521790925E+02 -0.47294234036E+02  0.59114728968E+03  0.59591665749E+03  0.00000000000E+00 0. -1.
<mgrwt>
<rscale>  0 0.55378075E+02</rscale>
<asrwt>0</asrwt>
<pdfrwt beam="1">  1        2 0.28908005E+00 0.75820416E+02</pdfrwt>
<pdfrwt beam="2">  1        2 0.36762884E-01 0.40447302E+02</pdfrwt>
<totfact> 0.20634967E+02</totfact>
</mgrwt>
</event>
<event>
13    1  0.1675423E-008  0.8206472E+02  0.7546771E-02  0.1432611E+00
          2   -1    0    0  502    0  0.00000000000E+00  0.00000000000E+00  0.12141017461E+04  0.12141017461E+04  0.00000000000E+00 0. -1.
          2   -1    0    0  503    0 -0.00000000000E+00 -0.00000000000E+00 -0.80111298656E+03  0.80111298656E+03  0.00000000000E+00 0. -1.
         24    2    1    2    0    0 -0.62691034811E+02  0.37684701117E+02  0.15456621844E+03  0.18877822061E+03  0.79976234911E+02 0.  0.
         25    2    1    2    0    0  0.61278536134E+02  0.34473981293E+02  0.18589735771E+03  0.23478837867E+03  0.12499696308E+03 0.  0.
         24    2    1    2    0    0  0.68038088653E+01  0.25670671876E+02 -0.41522290055E+03  0.42261399728E+03  0.74076030827E+02 0.  0.
        -11    1    3    3    0    0  0.28889957717E+01  0.41189252945E+02  0.74948007123E+02  0.85569297218E+02  0.00000000000E+00 0.  1.
         12    1    3    3    0    0 -0.65580030582E+02 -0.35045518279E+01  0.79618211316E+02  0.10320892339E+03  0.00000000000E+00 0. -1.
        -11    1    5    5    0    0 -0.20011217942E+02  0.41867217226E+02 -0.27923077690E+03  0.28306031070E+03  0.00000000000E+00 0.  1.
         12    1    5    5    0    0  0.26815026807E+02 -0.16196545351E+02 -0.13599212365E+03  0.13955368658E+03  0.00000000000E+00 0. -1.
          5    1    4    4  501    0  0.15819898875E+02 -0.96618031663E+01  0.16757877536E+03  0.16866640327E+03  0.47000000000E+01 0.  1.
         -5    1    4    4    0  501  0.45458637259E+02  0.44135784459E+02  0.18318582343E+02  0.66121975396E+02  0.47000000000E+01 0.  1.
          1    1    1    2  502    0 -0.33265246795E+02  0.40325555626E+01  0.81985552014E+03  0.82054001246E+03  0.00000000000E+00 0. -1.
          1    1    1    2  503    0  0.27873936607E+02 -0.10186190985E+03 -0.33210743621E+03  0.34849412363E+03  0.00000000000E+00 0. -1.
<mgrwt>
<rscale>  0 0.52439379E+02</rscale>
<asrwt>0</asrwt>
<pdfrwt beam="1">  1        2 0.17854438E+00 0.33508777E+02</pdfrwt>
<pdfrwt beam="2">  1        2 0.11781073E+00 0.82064722E+02</pdfrwt>
<totfact> 0.14630650E+02</totfact>
</mgrwt>
</event>
<event>
13    1  0.1675423E-008  0.1342557E+03  0.7546771E-02  0.1276110E+00
          2   -1    0    0  502    0  0.00000000000E+00  0.00000000000E+00  0.35242730503E+04  0.35242730503E+04  0.00000000000E+00 0. -1.
          2   -1    0    0  503    0 -0.00000000000E+00 -0.00000000000E+00 -0.17082350687E+04  0.17082350687E+04  0.00000000000E+00 0. -1.
         24    2    1    2    0    0  0.14382787047E+01 -0.44601420554E+02  0.10326941346E+04  0.10369105715E+04  0.82067059730E+02 0.  0.
         25    2    1    2    0    0 -0.24903143867E+03  0.45663422429E+02 -0.34950300265E+03  0.44931039105E+03  0.12500269218E+03 0.  0.
         24    2    1    2    0    0  0.16857769938E+02 -0.15519041690E+02 -0.21716211660E+03  0.23220177764E+03  0.78950969547E+02 0.  0.
        -11    1    5    5    0    0  0.48005296792E+02 -0.68514552033E+01 -0.15038104720E+03  0.15800604518E+03  0.00000000000E+00 0.  1.
         12    1    5    5    0    0 -0.31147526854E+02 -0.86675864871E+01 -0.66781069400E+02  0.74195732457E+02  0.00000000000E+00 0. -1.
        -11    1    3    3    0    0 -0.24372854627E+02 -0.11295195765E+02  0.10919815293E+03  0.11245378648E+03  0.00000000000E+00 0.  1.
         12    1    3    3    0    0  0.25811133332E+02 -0.33306224790E+02  0.92349598170E+03  0.92445678505E+03  0.00000000000E+00 0. -1.
          5    1    4    4  501    0 -0.19974696919E+02 -0.29702878625E+02 -0.79258018480E+02  0.87092898728E+02  0.47000000000E+01 0.  1.
         -5    1    4    4    0  501 -0.22905674176E+03  0.75366301054E+02 -0.27024498417E+03  0.36221749232E+03  0.47000000000E+01 0.  1.
          1    1    1    2  502    0  0.38211446973E+02 -0.67448660864E+02  0.24213072694E+04  0.24225479003E+04  0.00000000000E+00 0. -1.
          1    1    1    2  503    0  0.19252394306E+03  0.81905700680E+02 -0.10712983032E+04  0.10915374784E+04  0.00000000000E+00 0. -1.
<mgrwt>
<rscale>  0 0.10201754E+03</rscale>
<asrwt>0</asrwt>
<pdfrwt beam="1">  1        2 0.51827545E+00 0.77520556E+02</pdfrwt>
<pdfrwt beam="2">  1        2 0.25121104E+00 0.13425572E+03</pdfrwt>
<totfact> 0.29635354E+00</totfact>
</mgrwt>
</event>
<event>
13    1  0.1675423E-008  0.1754367E+03  0.7546771E-02  0.1206204E+00
          2   -1    0    0  503    0  0.00000000000E+00  0.00000000000E+00  0.18279808601E+04  0.18279808601E+04  0.00000000000E+00 0. -1.
          2   -1    0    0  502    0 -0.00000000000E+00 -0.00000000000E+00 -0.20556821050E+04  0.20556821050E+04  0.00000000000E+00 0. -1.
         24    2    1    2    0    0  0.13777135629E+03 -0.96376721390E+02  0.28012028726E+03  0.33644119915E+03  0.80348528965E+02 0.  0.
         25    2    1    2    0    0  0.11139502755E+03 -0.10863175670E+03  0.16990873646E+03  0.26211435315E+03  0.12500097868E+03 0.  0.
         24    2    1    2    0    0  0.16760566482E+02  0.71152799067E+02 -0.14875690133E+04  0.14915250757E+04  0.80261104421E+02 0.  0.
        -11    1    3    3    0    0  0.90925951004E+02 -0.22943428708E+02  0.10450157648E+03  0.14040836504E+03  0.00000000000E+00 0.  1.
         12    1    3    3    0    0  0.46845405291E+02 -0.73433292682E+02  0.17561871078E+03  0.19603283411E+03  0.00000000000E+00 0. -1.
        -13    1    5    5    0    0  0.18490802983E+02 -0.13952687294E+02 -0.36379970361E+03  0.36453643387E+03  0.00000000000E+00 0.  1.
         14    1    5    5    0    0 -0.17302365011E+01  0.85105486362E+02 -0.11237693097E+04  0.11269886419E+04  0.00000000000E+00 0. -1.
          5    1    4    4  501    0  0.10293158819E+03 -0.37285745982E+02  0.15293788063E+03  0.18814150002E+03  0.47000000000E+01 0. -1.
         -5    1    4    4    0  501  0.84634393685E+01 -0.71346010719E+02  0.16970855835E+02  0.73972853124E+02  0.47000000000E+01 0. -1.
          1    1    1    2  502    0 -0.15562477408E+03  0.18305837718E+03 -0.45949149006E+03  0.51851891884E+03  0.00000000000E+00 0. -1.
          1    1    1    2  503    0 -0.11030217626E+03 -0.49202698155E+02  0.12693302347E+04  0.12750634181E+04  0.00000000000E+00 0. -1.
<mgrwt>
<rscale>  0 0.14542942E+03</rscale>
<asrwt>0</asrwt>
<pdfrwt beam="1">  1        2 0.26882072E+00 0.12055471E+03</pdfrwt>
<pdfrwt beam="2">  1        2 0.30230619E+00 0.17543668E+03</pdfrwt>
<totfact> 0.13790183E+01</totfact>
</mgrwt>
</event>
<event>
13    1  0.1675423E-008  0.1377182E+03  0.7546771E-02  0.1344511E+00
          2   -1    0    0  503    0  0.00000000000E+00  0.00000000000E+00  0.25874945122E+04  0.25874945122E+04  0.00000000000E+00 0. -1.
          2   -1    0    0  502    0 -0.00000000000E+00 -0.00000000000E+00 -0.12467205811E+04  0.12467205811E+04  0.00000000000E+00 0. -1.
         24    2    1    2    0    0 -0.66480318159E+03  0.54522653552E+02  0.48811314538E+03  0.83041286644E+03  0.79969344479E+02 0.  0.
         25    2    1    2    0    0  0.40616345312E+03 -0.20520457502E+03  0.89114591766E+03  0.10083866827E+04  0.12499994825E+03 0.  0.
         24    2    1    2    0    0  0.20525943546E+03  0.25239364136E+03 -0.46761592120E+03  0.58009424777E+03  0.10959334147E+03 0.  0.
        -11    1    5    5    0    0  0.15959740691E+03  0.24725243940E+03 -0.42806870981E+03  0.51946888396E+03  0.00000000000E+00 0.  1.
         12    1    5    5    0    0  0.45662028548E+02  0.51412019577E+01 -0.39547211392E+02  0.60625363814E+02  0.00000000000E+00 0. -1.
        -13    1    3    3    0    0 -0.46096442598E+03  0.74108261045E+02  0.34735140097E+03  0.58192201551E+03  0.00000000000E+00 0.  1.
         14    1    3    3    0    0 -0.20383875561E+03 -0.19585607493E+02  0.14076174440E+03  0.24849085093E+03  0.00000000000E+00 0. -1.
          5    1    4    4  501    0  0.30202040982E+03 -0.10263773579E+03  0.68488851135E+03  0.75554298073E+03  0.47000000000E+01 0.  1.
         -5    1    4    4    0  501  0.10414304330E+03 -0.10256683922E+03  0.20625740632E+03  0.25284370199E+03  0.47000000000E+01 0.  1.
          1    1    1    2  502    0  0.93991579732E+02 -0.10087031519E+03 -0.48299668889E+03  0.50228979586E+03  0.00000000000E+00 0. -1.
          1    1    1    2  503    0 -0.40611286716E+02 -0.84140470958E+00  0.91212747817E+03  0.91303150056E+03  0.00000000000E+00 0. -1.
<mgrwt>
<rscale>  0 0.74793806E+02</rscale>
<asrwt>0</asrwt>
<pdfrwt beam="1">  1        2 0.38051390E+00 0.40620002E+02</pdfrwt>
<pdfrwt beam="2">  1        2 0.18334126E+00 0.13771819E+03</pdfrwt>
<totfact> 0.17655718E+01</totfact>
</mgrwt>
</event>
<event>
13    1  0.1675423E-008  0.4112942E+02  0.7546771E-02  0.1582383E+00
          2   -1    0    0  503    0  0.00000000000E+00  0.00000000000E+00  0.92414924181E+03  0.92414924181E+03  0.00000000000E+00 0. -1.
          2   -1    0    0  502    0 -0.00000000000E+00 -0.00000000000E+00 -0.32667842301E+03  0.32667842301E+03  0.00000000000E+00 0. -1.
         24    2    1    2    0    0  0.88696942080E+01 -0.89758762980E+01  0.32981971388E+03  0.33975113444E+03  0.80563961298E+02 0.  0.
         25    2    1    2    0    0  0.72813921440E+02 -0.35995159698E+01 -0.26642208979E+02  0.14713952688E+03  0.12500163760E+03 0.  0.
         24    2    1    2    0    0 -0.45382458439E+02 -0.35378411260E+02 -0.15938920792E+03  0.18748734088E+03  0.80220844375E+02 0.  0.
        -13    1    3    3    0    0  0.31852676745E+02 -0.17388288754E+02  0.70620189462E+02  0.79398720149E+02  0.00000000000E+00 0.  1.
         14    1    3    3    0    0 -0.22982982537E+02  0.84124124558E+01  0.25919952442E+03  0.26035241429E+03  0.00000000000E+00 0. -1.
        -13    1    5    5    0    0  0.14584125279E+01 -0.41906820470E+02 -0.35720890637E+02  0.55084395221E+02  0.00000000000E+00 0.  1.
         14    1    5    5    0    0 -0.46840870967E+02  0.65284092106E+01 -0.12366831728E+03  0.13240294566E+03  0.00000000000E+00 0. -1.
          5    1    4    4  501    0  0.10120723963E+03  0.46804945179E+01 -0.46117351627E+02  0.11141684120E+03  0.47000000000E+01 0.  1.
         -5    1    4    4    0  501 -0.28393318187E+02 -0.82800104876E+01  0.19475142648E+02  0.35722685685E+02  0.47000000000E+01 0.  1.
          1    1    1    2  502    0 -0.32985116904E+02  0.24103611908E+02 -0.54269193999E+02  0.67927516232E+02  0.00000000000E+00 0. -1.
          1    1    1    2  503    0 -0.33160403053E+01  0.23850191620E+02  0.50795171582E+03  0.50852214638E+03  0.00000000000E+00 0. -1.
<mgrwt>
<rscale>  0 0.31470311E+02</rscale>
<asrwt>0</asrwt>
<pdfrwt beam="1">  1        2 0.13590430E+00 0.24079613E+02</pdfrwt>
<pdfrwt beam="2">  1        2 0.48040945E-01 0.41129417E+02</pdfrwt>
<totfact> 0.55682383E+02</totfact>
</mgrwt>
</event>
<event>
13    1  0.1675423E-008  0.1295632E+03  0.7546771E-02  0.1345790E+00
          2   -1    0    0  503    0  0.00000000000E+00  0.00000000000E+00  0.32044664746E+04  0.32044664746E+04  0.00000000000E+00 0. -1.
         -1   -1    0    0    0  501 -0.00000000000E+00 -0.00000000000E+00 -0.79569143581E+03  0.79569143581E+03  0.00000000000E+00 0.  1.
         24    2    1    2    0    0  0.17412255907E+02 -0.18614112700E+01  0.14397635707E+04  0.14420586924E+04  0.79419653453E+02 0.  0.
         25    2    1    2    0    0 -0.12822998412E+03 -0.43003624486E+02  0.24536455814E+02  0.18579369640E+03  0.12500007765E+03 0.  0.
         24    2    1    2    0    0  0.23993495480E+02  0.36449781733E+02  0.15805492693E+03  0.18497117608E+03  0.85607836340E+02 0.  0.
        -11    1    3    3    0    0  0.22453481177E+02 -0.28271911387E+02  0.32993045975E+03  0.33189993683E+03  0.00000000000E+00 0.  1.
         12    1    3    3    0    0 -0.50412252697E+01  0.26410500117E+02  0.11098331109E+04  0.11101587556E+04  0.00000000000E+00 0. -1.
        -13    1    5    5    0    0  0.98930534810E+01  0.49915620649E+02  0.38429647439E+02  0.63767385819E+02  0.00000000000E+00 0.  1.
         14    1    5    5    0    0  0.14100441999E+02 -0.13465838916E+02  0.11962527949E+03  0.12120379027E+03  0.00000000000E+00 0. -1.
          5    1    4    4  502    0 -0.13118322988E+03  0.83506421976E+01  0.89362985749E+01  0.13183596042E+03  0.47000000000E+01 0. -1.
         -5    1    4    4    0  502  0.29532457577E+01 -0.51354266684E+02  0.15600157239E+02  0.53957735989E+02  0.47000000000E+01 0. -1.
          1    1    1    2  503    0 -0.42593466004E+02  0.30792902856E+01  0.14805786890E+04  0.14811944301E+04  0.00000000000E+00 0. -1.
         -2    1    1    2    0  501  0.12941769874E+03  0.53359637378E+01 -0.69415860361E+03  0.70613991547E+03  0.00000000000E+00 0.  1.
<mgrwt>
<rscale>  0 0.74383805E+02</rscale>
<asrwt>0</asrwt>
<pdfrwt beam="1">  1        2 0.47124506E+00 0.42704629E+02</pdfrwt>
<pdfrwt beam="2">  1       -1 0.11701345E+00 0.12956325E+03</pdfrwt>
<totfact> 0.21881720E+00</totfact>
</mgrwt>
</event>
<event>
13    1  0.1675423E-008  0.1426441E+03  0.7546771E-02  0.1309390E+00
          2   -1    0    0  503    0  0.00000000000E+00  0.00000000000E+00  0.32562692643E+04  0.32562692643E+04  0.00000000000E+00 0. -1.
          2   -1    0    0  502    0 -0.00000000000E+00 -0.00000000000E+00 -0.83054581961E+03  0.83054581961E+03  0.00000000000E+00 0. -1.
         24    2    1    2    0    0 -0.62890893416E+00  0.45683782084E+02  0.36701583534E+03  0.37845715079E+03  0.80260750828E+02 0.  0.
         25    2    1    2    0    0 -0.25321913810E+03 -0.14420195821E+03  0.19851033421E+02  0.31769967072E+03  0.12499952239E+03 0.  0.
         24    2    1    2    0    0  0.95867891596E+02 -0.55486257886E+01  0.14004355206E+03  0.18905176340E+03  0.83107959220E+02 0.  0.
        -11    1    3    3    0    0  0.37815163324E+02  0.37073733529E+02  0.21077742282E+03  0.21732825464E+03  0.00000000000E+00 0.  1.
         12    1    3    3    0    0 -0.38444072258E+02  0.86100485542E+01  0.15623841252E+03  0.16112889615E+03  0.00000000000E+00 0. -1.
        -13    1    5    5    0    0  0.77876663650E+02  0.28725586417E+02  0.11871417692E+03  0.14485506501E+03  0.00000000000E+00 0.  1.
         14    1    5    5    0    0  0.17991227946E+02 -0.34274212206E+02  0.21329375135E+02  0.44196698395E+02  0.00000000000E+00 0. -1.
          5    1    4    4  501    0  0.87993668872E+01 -0.28991673744E+02 -0.97418568057E+00  0.30675479488E+02  0.47000000000E+01 0. -1.
         -5    1    4    4    0  501 -0.26201850498E+03 -0.11521028447E+03  0.20825219101E+02  0.28702419123E+03  0.47000000000E+01 0.  1.
          1    1    1    2  502    0  0.12786496162E+03  0.59854828852E+02 -0.64346232447E+03  0.65876840540E+03  0.00000000000E+00 0. -1.
          1    1    1    2  503    0  0.30115193812E+02  0.44211973064E+02  0.25422753484E+04  0.25428380936E+04  0.00000000000E+00 0. -1.
<mgrwt>
<rscale>  0 0.87353439E+02</rscale>
<asrwt>0</asrwt>
<pdfrwt beam="1">  1        2 0.47886312E+00 0.53494144E+02</pdfrwt>
<pdfrwt beam="2">  1        2 0.12213909E+00 0.14264409E+03</pdfrwt>
<totfact> 0.13371315E+01</totfact>
</mgrwt>
</event>
<event>
13    1  0.1675423E-008  0.1190941E+03  0.7546771E-02  0.1273935E+00
          2   -1    0    0  502    0  0.00000000000E+00  0.00000000000E+00  0.19533512057E+04  0.19533512057E+04  0.00000000000E+00 0. -1.
          4   -1    0    0  503    0 -0.00000000000E+00 -0.00000000000E+00 -0.80540050773E+03  0.80540050773E+03  0.00000000000E+00 0. -1.
         24    2    1    2    0    0  0.22340276040E+02  0.28951936426E+02  0.45473962422E+03  0.46338941578E+03  0.81266981370E+02 0.  0.
         25    2    1    2    0    0 -0.19208895540E+03  0.12316938343E+03  0.27599352514E+02  0.26164012079E+03  0.12499985898E+03 0.  0.
         24    2    1    2    0    0 -0.39489569871E+02 -0.54347707760E+01  0.31814295665E+03  0.33086181803E+03  0.81643364082E+02 0.  0.
        -11    1    3    3    0    0 -0.13092540283E+02  0.44742859947E+02  0.31236199888E+03  0.31582171628E+03  0.00000000000E+00 0.  1.
         12    1    3    3    0    0  0.35432816323E+02 -0.15790923521E+02  0.14237762534E+03  0.14756769950E+03  0.00000000000E+00 0. -1.
        -13    1    5    5    0    0 -0.51481559881E+01  0.32773148875E+02  0.70087873720E+02  0.77542845188E+02  0.00000000000E+00 0.  1.
         14    1    5    5    0    0 -0.34341413883E+02 -0.38207919651E+02  0.24805508293E+03  0.25331897284E+03  0.00000000000E+00 0. -1.
          5    1    4    4  501    0 -0.61317689287E+02  0.33565726669E+02  0.68366143849E+02  0.97890431867E+02  0.47000000000E+01 0. -1.
         -5    1    4    4    0  501 -0.13077126611E+03  0.89603656762E+02 -0.40766791335E+02  0.16374968892E+03  0.47000000000E+01 0. -1.
          1    1    1    2  502    0  0.13019669810E+03 -0.71284028754E+02  0.10153308411E+04  0.10261234380E+04  0.00000000000E+00 0. -1.
          3    1    1    2  503    0  0.79041551129E+02 -0.75402520326E+02 -0.66786207652E+03  0.67673692092E+03  0.00000000000E+00 0. -1.
<mgrwt>
<rscale>  0 0.10308690E+03</rscale>
<asrwt>0</asrwt>
<pdfrwt beam="1">  1        2 0.28725753E+00 0.11909406E+03</pdfrwt>
<pdfrwt beam="2">  1        4 0.11844125E+00 0.89231233E+02</pdfrwt>
<totfact> 0.27958786E+00</totfact>
</mgrwt>
</event>
<event>
13    1  0.1675423E-008  0.2115221E+03  0.7546771E-02  0.1216928E+00
          2   -1    0    0  503    0  0.00000000000E+00  0.00000000000E+00  0.24402073722E+04  0.24402073722E+04  0.00000000000E+00 0. -1.
          2   -1    0    0  502    0 -0.00000000000E+00 -0.00000000000E+00 -0.18885920337E+04  0.18885920337E+04  0.00000000000E+00 0. -1.
         24    2    1    2    0    0  0.15414728529E+03  0.21432123151E+03  0.15880283795E+03  0.31816636310E+03  0.79476521227E+02 0.  0.
         25    2    1    2    0    0 -0.24266091077E+03  0.63878930862E+02 -0.45979388535E+03  0.53851442788E+03  0.12499014602E+03 0.  0.
         24    2    1    2    0    0  0.10850329580E+03  0.59229481591E+01  0.25110267559E+03  0.28492765476E+03  0.79518351611E+02 0.  0.
        -11    1    5    5    0    0  0.33705916667E+02 -0.33397211942E+02  0.11898456566E+03  0.12809679718E+03  0.00000000000E+00 0.  1.
         12    1    5    5    0    0  0.74797379133E+02  0.39320160101E+02  0.13211810994E+03  0.15683085758E+03  0.00000000000E+00 0. -1.
        -11    1    3    3    0    0  0.24550993069E+02  0.18090510932E+01  0.26907604699E+02  0.36469756198E+02  0.00000000000E+00 0.  1.
         12    1    3    3    0    0  0.12959629222E+03  0.21251218042E+03  0.13189523325E+03  0.28169660690E+03  0.00000000000E+00 0. -1.
          5    1    4    4  501    0 -0.58903050960E+02  0.63608207805E+02 -0.87233949950E+02  0.12307487776E+03  0.47000000000E+01 0.  1.
         -5    1    4    4    0  501 -0.18375785981E+03  0.27072305670E+00 -0.37255993540E+03  0.41543955011E+03  0.47000000000E+01 0.  1.
          1    1    1    2  502    0 -0.83903268735E+02  0.30273945837E+02 -0.12776936999E+04  0.12808034435E+04  0.00000000000E+00 0. -1.
          1    1    1    2  503    0  0.63913598414E+02 -0.31439705637E+03  0.18791974102E+04  0.19063875166E+04  0.00000000000E+00 0. -1.
<mgrwt>
<rscale>  0 0.13735841E+03</rscale>
<asrwt>0</asrwt>
<pdfrwt beam="1">  1        2 0.35885402E+00 0.21152211E+03</pdfrwt>
<pdfrwt beam="2">  1        2 0.27773412E+00 0.89197928E+02</pdfrwt>
<totfact> 0.83466326E+00</totfact>
</mgrwt>
</event>
<event>
13    1  0.1675423E-008  0.1242330E+03  0.7546771E-02  0.1243220E+00
          2   -1    0    0  502    0  0.00000000000E+00  0.00000000000E+00  0.15188794576E+04  0.15188794576E+04  0.00000000000E+00 0. -1.
          2   -1    0    0  503    0 -0.00000000000E+00 -0.00000000000E+00 -0.17438042376E+04  0.17438042376E+04  0.00000000000E+00 0. -1.
         24    2    1    2    0    0 -0.56243790595E+02 -0.10761711824E+03  0.70459218422E+02  0.16172337598E+03  0.80281634013E+02 0.  0.
         25    2    1    2    0    0  0.10262172584E+03  0.29404155939E+03 -0.34266334220E+03  0.47962033646E+03  0.12500337513E+03 0.  0.
         24    2    1    2    0    0  0.54627860505E+02  0.32632300673E+02  0.17572848875E+03  0.20302558486E+03  0.79308361215E+02 0.  0.
        -11    1    3    3    0    0 -0.55846013494E+02 -0.88792715841E+02  0.87293581372E+02  0.13646645360E+03  0.00000000000E+00 0.  1.
         12    1    3    3    0    0 -0.39777710130E+00 -0.18824402397E+02 -0.16834362950E+02  0.25256922381E+02  0.00000000000E+00 0. -1.
        -13    1    5    5    0    0  0.41297253224E+02 -0.20985169441E+02  0.84803437306E+02  0.96630551273E+02  0.00000000000E+00 0.  1.
         14    1    5    5    0    0  0.13330607281E+02  0.53617470114E+02  0.90925051444E+02  0.10639503359E+03  0.00000000000E+00 0. -1.
          5    1    4    4  501    0  0.11415737176E+03  0.13849567696E+03 -0.18361844947E+03  0.25680884535E+03  0.47000000000E+01 0.  1.
         -5    1    4    4    0  501 -0.11535645918E+02  0.15554588243E+03 -0.15904489273E+03  0.22281149111E+03  0.47000000000E+01 0.  1.
          1    1    1    2  502    0 -0.15214663979E+03 -0.10581993632E+03  0.11343640312E+04  0.11494034167E+04  0.00000000000E+00 0. -1.
          1    1    1    2  503    0  0.51140844040E+02 -0.11323680550E+03 -0.12628131763E+04  0.12689109812E+04  0.00000000000E+00 0. -1.
<mgrwt>
<rscale>  0 0.11992544E+03</rscale>
<asrwt>0</asrwt>
<pdfrwt beam="1">  1        2 0.22336463E+00 0.11576720E+03</pdfrwt>
<pdfrwt beam="2">  1        2 0.25644180E+00 0.12423303E+03</pdfrwt>
<totfact> 0.28821857E+01</totfact>
</mgrwt>
</event>
<event>
13    1  0.1675423E-008  0.3305558E+03  0.7546771E-02  0.1215293E+00
          2   -1    0    0  502    0  0.00000000000E+00  0.00000000000E+00  0.12322132839E+04  0.12322132839E+04  0.00000000000E+00 0. -1.
          2   -1    0    0  503    0 -0.00000000000E+00 -0.00000000000E+00 -0.32449873931E+04  0.32449873931E+04  0.00000000000E+00 0. -1.
         24    2    1    2    0    0  0.18372554931E+03 -0.12916378874E+03  0.23085754962E+03  0.33221715049E+03  0.81453453414E+02 0.  0.
         25    2    1    2    0    0 -0.55658008663E+03 -0.24537351002E+03 -0.17982745948E+04  0.19024736998E+04  0.12500043211E+03 0.  0.
         24    2    1    2    0    0  0.11746268207E+03  0.14602726127E+03 -0.20421619233E+02  0.20886134122E+03  0.89914262547E+02 0.  0.
        -11    1    3    3    0    0  0.36835049162E-01 -0.16425694823E+02  0.48645270923E-01  0.16425808156E+02  0.00000000000E+00 0.  1.
         12    1    3    3    0    0  0.18368871426E+03 -0.11273809392E+03  0.23080890435E+03  0.31579134234E+03  0.00000000000E+00 0. -1.
        -13    1    5    5    0    0  0.36261287607E+02 -0.45869914692E+01 -0.10569885365E+00  0.36550412335E+02  0.00000000000E+00 0.  1.
         14    1    5    5    0    0  0.81201394468E+02  0.15061425274E+03 -0.20315920380E+02  0.17231092889E+03  0.00000000000E+00 0. -1.
          5    1    4    4  501    0 -0.24416273882E+03 -0.42978818347E+02 -0.67384974606E+03  0.71802381027E+03  0.47000000000E+01 0. -1.
         -5    1    4    4    0  501 -0.31241734781E+03 -0.20239469168E+03 -0.11244248487E+04  0.11844498895E+04  0.47000000000E+01 0. -1.
          1    1    1    2  502    0  0.28667973419E+03  0.27743316059E+03  0.75413152645E+03  0.85315226529E+03  0.00000000000E+00 0. -1.
          1    1    1    2  503    0 -0.31287878946E+02 -0.48923123090E+02 -0.11790669713E+04  0.11804962203E+04  0.00000000000E+00 0. -1.
<mgrwt>
<rscale>  0 0.13855023E+03</rscale>
<asrwt>0</asrwt>
<pdfrwt beam="1">  1        2 0.18120784E+00 0.33055575E+03</pdfrwt>
<pdfrwt beam="2">  1        2 0.47720403E+00 0.58072397E+02</pdfrwt>
<totfact> 0.74322285E+00</totfact>
</mgrwt>
</event>
<event>
13    1  0.1675423E-008  0.5806605E+02  0.7546771E-02  0.1533496E+00
          2   -1    0    0  503    0  0.00000000000E+00  0.00000000000E+00  0.27040333271E+04  0.27040333271E+04  0.00000000000E+00 0. -1.
          2   -1    0    0  502    0 -0.00000000000E+00 -0.00000000000E+00 -0.33549821824E+04  0.33549821824E+04  0.00000000000E+00 0. -1.
         24    2    1    2    0    0  0.87319760312E+03 -0.95626312372E+03  0.11344702021E+04  0.17243457975E+04  0.97121440033E+02 0.  0.
         25    2    1    2    0    0 -0.16037017960E+03  0.42764481797E+03  0.47653758586E+02  0.47591470895E+03  0.12500097855E+03 0.  0.
         24    2    1    2    0    0 -0.74452334315E+03  0.57284118420E+03  0.13246520931E+03  0.95213925048E+03  0.80994381406E+02 0.  0.
        -11    1    5    5    0    0 -0.46456429900E+03  0.38638545126E+03  0.53376488216E+02  0.60659933593E+03  0.00000000000E+00 0.  1.
         12    1    5    5    0    0 -0.27995904415E+03  0.18645573294E+03  0.79088721091E+02  0.34553991456E+03  0.00000000000E+00 0. -1.
        -11    1    3    3    0    0  0.54754145928E+03 -0.66359619295E+03  0.77257699989E+03  0.11563030648E+04  0.00000000000E+00 0.  1.
         12    1    3    3    0    0  0.32565614384E+03 -0.29266693077E+03  0.36189320222E+03  0.56804273272E+03  0.00000000000E+00 0. -1.
          5    1    4    4  501    0 -0.56597803064E+02  0.29100007413E+03 -0.44845215338E+01  0.29652412278E+03  0.47000000000E+01 0.  1.
         -5    1    4    4    0  501 -0.10377237653E+03  0.13664474384E+03  0.52138280120E+02  0.17939058616E+03  0.47000000000E+01 0.  1.
          1    1    1    2  502    0  0.49890533519E+02 -0.29711088822E+02 -0.24354428327E+04  0.24361349728E+04  0.00000000000E+00 0. -1.
          1    1    1    2  503    0 -0.18194613896E+02 -0.14511789631E+02  0.46990480743E+03  0.47048077969E+03  0.00000000000E+00 0. -1.
<mgrwt>
<rscale>  0 0.36761061E+02</rscale>
<asrwt>0</asrwt>
<pdfrwt beam="1">  1        2 0.39765196E+00 0.23273075E+02</pdfrwt>
<pdfrwt beam="2">  1        2 0.49337973E+00 0.58066053E+02</pdfrwt>
<totfact> 0.16364463E+00</totfact>
</mgrwt>
</event>
<event>
13    1  0.1675423E-008  0.9417702E+02  0.7546771E-02  0.1317766E+00
          2   -1    0    0  503    0  0.00000000000E+00  0.00000000000E+00  0.20507757259E+04  0.20507757259E+04  0.00000000000E+00 0. -1.
          2   -1    0    0  502    0 -0.00000000000E+00 -0.00000000000E+00 -0.20758012472E+04  0.20758012472E+04  0.00000000000E+00 0. -1.
         24    2    1    2    0    0 -0.87576520535E+02  0.20643400170E+02  0.52609517040E+02  0.13177371260E+03  0.80627248062E+02 0.  0.
         25    2    1    2    0    0  0.19578140482E+02 -0.23709732237E+02 -0.14183806514E+04  0.14242098962E+04  0.12499880479E+03 0.  0.
         24    2    1    2    0    0  0.13583735998E+03  0.53613192547E+02 -0.17773986240E+02  0.16631509196E+03  0.77579845615E+02 0.  0.
        -11    1    3    3    0    0 -0.54594785484E+02  0.47251149866E+02  0.52712226145E+02  0.89397094757E+02  0.00000000000E+00 0.  1.
         12    1    3    3    0    0 -0.32981735050E+02 -0.26607749695E+02 -0.10270910571E+00  0.42376617845E+02  0.00000000000E+00 0. -1.
        -13    1    5    5    0    0  0.98089209688E+02  0.72986292436E+02 -0.19705928675E+02  0.12384189746E+03  0.00000000000E+00 0.  1.
         14    1    5    5    0    0  0.37748150293E+02 -0.19373099889E+02  0.19319424341E+01  0.42473194504E+02  0.00000000000E+00 0. -1.
          5    1    4    4  501    0 -0.21888512875E+02  0.32912775082E+02 -0.92326994063E+03  0.92412760538E+03  0.47000000000E+01 0. -1.
         -5    1    4    4    0  501  0.41466653357E+02 -0.56622507319E+02 -0.49511071074E+03  0.50008229079E+03  0.47000000000E+01 0. -1.
          1    1    1    2  502    0  0.24084786723E+02 -0.71160514257E+02 -0.51899376512E+03  0.52440292140E+03  0.00000000000E+00 0. -1.
          1    1    1    2  503    0 -0.91923766650E+02  0.20613653776E+02  0.18775133644E+04  0.18798753509E+04  0.00000000000E+00 0. -1.
<mgrwt>
<rscale>  0 0.84113792E+02</rscale>
<asrwt>0</asrwt>
<pdfrwt beam="1">  1        2 0.30158467E+00 0.94177017E+02</pdfrwt>
<pdfrwt beam="2">  1        2 0.30526489E+00 0.75125866E+02</pdfrwt>
<totfact> 0.11797468E+01</totfact>
</mgrwt>
</event>
<event>
13    1  0.1675423E-008  0.4826499E+02  0.7546771E-02  0.1490246E+00
          2   -1    0    0  503    0  0.00000000000E+00  0.00000000000E+00  0.15443750381E+04  0.15443750381E+04  0.00000000000E+00 0. -1.
          2   -1    0    0  502    0 -0.00000000000E+00 -0.00000000000E+00 -0.30074261731E+04  0.30074261731E+04  0.00000000000E+00 0. -1.
         24    2    1    2    0    0  0.64210361093E+02 -0.13885526780E+03  0.40826459158E+03  0.44317734496E+03  0.79513687374E+02 0.  0.
         25    2    1    2    0    0 -0.78919850047E+02  0.11796382323E+01 -0.38915368900E+03  0.41628724768E+03  0.12499897857E+03 0.  0.
         24    2    1    2    0    0  0.38079793362E+02  0.12037590515E+03 -0.20734542242E+04  0.20787760326E+04  0.78466201808E+02 0.  0.
        -11    1    3    3    0    0  0.47885003691E+02 -0.28423212570E+02  0.89271272427E+02  0.10521507816E+03  0.00000000000E+00 0.  1.
         12    1    3    3    0    0  0.16325357402E+02 -0.11043205523E+03  0.31899331915E+03  0.33796226680E+03  0.00000000000E+00 0. -1.
        -13    1    5    5    0    0  0.19692178550E+02  0.78197695709E-01 -0.12663607463E+03  0.12815804075E+03  0.00000000000E+00 0.  1.
         14    1    5    5    0    0  0.18387614811E+02  0.12029770745E+03 -0.19468181495E+04  0.19506179919E+04  0.00000000000E+00 0. -1.
          5    1    4    4  501    0 -0.91384287781E+02 -0.42870594785E+02 -0.24703825968E+03  0.26690629011E+03  0.47000000000E+01 0. -1.
         -5    1    4    4    0  501  0.12464437734E+02  0.44050233017E+02 -0.14211542931E+03  0.14938095758E+03  0.47000000000E+01 0. -1.
          1    1    1    2  502    0 -0.22367487077E+01  0.48290569188E+02 -0.50967103360E+03  0.51195853797E+03  0.00000000000E+00 0. -1.
          1    1    1    2  503    0 -0.21133555700E+02 -0.30990844764E+02  0.11009632202E+04  0.11016020479E+04  0.00000000000E+00 0. -1.
<mgrwt>
<rscale>  0 0.42549479E+02</rscale>
<asrwt>0</asrwt>
<pdfrwt beam="1">  1        2 0.22711398E+00 0.37510794E+02</pdfrwt>
<pdfrwt beam="2">  1        2 0.44226855E+00 0.48264991E+02</pdfrwt>
<totfact> 0.83107749E+00</totfact>
</mgrwt>
</event>
<event>
13    1  0.1675423E-008  0.7349831E+02  0.7546771E-02  0.1381552E+00
          2   -1    0    0  503    0  0.00000000000E+00  0.00000000000E+00  0.23242639513E+04  0.23242639513E+04  0.00000000000E+00 0. -1.
         -1   -1    0    0    0  501 -0.00000000000E+00 -0.00000000000E+00 -0.27042480989E+03  0.27042480989E+03  0.00000000000E+00 0.  1.
         24    2    1    2    0    0 -0.54803882688E+01  0.25956364108E+02  0.20503703664E+04  0.20521288486E+04  0.80687076296E+02 0.  0.
         25    2    1    2    0    0  0.14927338597E+02  0.56582687773E+02 -0.14552846335E+02  0.13878652540E+03  0.12500195320E+03 0.  0.
         24    2    1    2    0    0 -0.70494331667E+02 -0.66249450389E+02  0.47798530984E+02  0.13258935268E+03  0.77050609385E+02 0.  0.
        -13    1    3    3    0    0 -0.41942184672E+02  0.94884000561E+01  0.84336775150E+03  0.84446334489E+03  0.00000000000E+00 0.  1.
         14    1    3    3    0    0  0.36461796403E+02  0.16467964052E+02  0.12070026149E+04  0.12076655037E+04  0.00000000000E+00 0. -1.
        -13    1    5    5    0    0  0.12071366209E+02 -0.62741319304E+01  0.24330962304E+02  0.27876124915E+02  0.00000000000E+00 0.  1.
         14    1    5    5    0    0 -0.82565697876E+02 -0.59975318459E+02  0.23467568680E+02  0.10471322777E+03  0.00000000000E+00 0. -1.
          5    1    4    4  502    0 -0.53252470417E+02  0.83652776693E+01 -0.14665064921E+01  0.54129881926E+02  0.47000000000E+01 0. -1.
         -5    1    4    4    0  502  0.68179809014E+02  0.48217410103E+02 -0.13086339843E+02  0.84656643477E+02  0.47000000000E+01 0. -1.
          1    1    1    2  503    0  0.65584130878E+02  0.39355353309E+02  0.10233500515E+03  0.12775983459E+03  0.00000000000E+00 0. -1.
         -2    1    1    2    0  501 -0.45367495390E+01 -0.55644954801E+02 -0.13211191480E+03  0.14342419992E+03  0.00000000000E+00 0.  1.
<mgrwt>
<rscale>  0 0.64057633E+02</rscale>
<asrwt>0</asrwt>
<pdfrwt beam="1">  1        2 0.34180351E+00 0.73498307E+02</pdfrwt>
<pdfrwt beam="2">  1       -1 0.39768356E-01 0.55829590E+02</pdfrwt>
<totfact> 0.47184880E+01</totfact>
</mgrwt>
</event>
<event>
13    1  0.1675423E-008  0.2766754E+03  0.7546771E-02  0.1299641E+00
          2   -1    0    0  502    0  0.00000000000E+00  0.00000000000E+00  0.28993145601E+04  0.28993145601E+04  0.00000000000E+00 0. -1.
          2   -1    0    0  503    0 -0.00000000000E+00 -0.00000000000E+00 -0.24621687880E+04  0.24621687880E+04  0.00000000000E+00 0. -1.
         24    2    1    2    0    0  0.47830770879E+03  0.82222917769E+02  0.72439032421E+03  0.87555052876E+03  0.79426155067E+02 0.  0.
         25    2    1    2    0    0 -0.14236719814E+03 -0.21694856230E+03 -0.13246049478E+04  0.13555582821E+04  0.12499956250E+03 0.  0.
         24    2    1    2    0    0 -0.10597999111E+03  0.16831298808E+03  0.25395584096E+03  0.33263503850E+03  0.81187925247E+02 0.  0.
        -13    1    3    3    0    0  0.15264873539E+03  0.49373488710E+02  0.18766620785E+03  0.24689670588E+03  0.00000000000E+00 0.  1.
         14    1    3    3    0    0  0.32565897340E+03  0.32849429060E+02  0.53672411636E+03  0.62865382289E+03  0.00000000000E+00 0. -1.
        -13    1    5    5    0    0 -0.38601335461E+02  0.13240355539E+03  0.15171995516E+03  0.20503587338E+03  0.00000000000E+00 0.  1.
         14    1    5    5    0    0 -0.67378655653E+02  0.35909432695E+02  0.10223588580E+03  0.12759916512E+03  0.00000000000E+00 0. -1.
          5    1    4    4  501    0 -0.26642994046E+02 -0.15358727860E+03 -0.70382255771E+03  0.72089332361E+03  0.47000000000E+01 0. -1.
         -5    1    4    4    0  501 -0.11572420410E+03 -0.63361283702E+02 -0.62078239005E+03  0.63466495845E+03  0.47000000000E+01 0. -1.
          1    1    1    2  502    0 -0.23130394120E+03 -0.34634275160E+01  0.17828721286E+04  0.17978171585E+04  0.00000000000E+00 0. -1.
          1    1    1    2  503    0  0.13434216655E+01 -0.30123916035E+02 -0.99946757397E+03  0.99992234025E+03  0.00000000000E+00 0. -1.
<mgrwt>
<rscale>  0 0.91339091E+02</rscale>
<asrwt>0</asrwt>
<pdfrwt beam="1">  1        2 0.42636979E+00 0.27667537E+03</pdfrwt>
<pdfrwt beam="2">  1        2 0.36208364E+00 0.30153857E+02</pdfrwt>
<totfact> 0.28431906E+00</totfact>
</mgrwt>
</event>
<event>
13    1  0.1675423E-008  0.1278816E+03  0.7546771E-02  0.1232206E+00
          2   -1    0    0  502    0  0.00000000000E+00  0.00000000000E+00  0.42551218637E+03  0.42551218637E+03  0.00000000000E+00 0. -1.
          2   -1    0    0  503    0 -0.00000000000E+00 -0.00000000000E+00 -0.23479096675E+04  0.23479096675E+04  0.00000000000E+00 0. -1.
         24    2    1    2    0    0  0.57722372451E+02 -0.44967115990E+00  0.24713982779E+03  0.26610268591E+03  0.80002940450E+02 0.  0.
         25    2    1    2    0    0 -0.19622828621E+03  0.17709820770E+03 -0.17046895344E+03  0.33845767582E+03  0.12499847501E+03 0.  0.
         24    2    1    2    0    0  0.37982695786E+02  0.65006691777E+01  0.26615679194E+02  0.92540660276E+02  0.79815008278E+02 0.  0.
        -11    1    5    5    0    0 -0.16946543449E+01 -0.26116879495E+02 -0.11492766289E+02  0.28584032691E+02  0.00000000000E+00 0.  1.
         12    1    5    5    0    0  0.39677350131E+02  0.32617548673E+02  0.38108445483E+02  0.63956627584E+02  0.00000000000E+00 0. -1.
        -11    1    3    3    0    0 -0.16545030885E+02  0.13817214988E+00  0.14863271163E+02  0.22241267234E+02  0.00000000000E+00 0.  1.
         12    1    3    3    0    0  0.74267403336E+02 -0.58784330978E+00  0.23227655663E+03  0.24386141867E+03  0.00000000000E+00 0. -1.
          5    1    4    4  501    0 -0.88298335714E+02  0.11601731362E+03 -0.15589730815E+03  0.21350099259E+03  0.47000000000E+01 0. -1.
         -5    1    4    4    0  501 -0.10792995050E+03  0.61080894083E+02 -0.14571645285E+02  0.12495668323E+03  0.47000000000E+01 0. -1.
          1    1    1    2  502    0  0.11848125919E+03 -0.53370598745E+02 -0.16036029499E+03  0.20640168071E+03  0.00000000000E+00 0. -1.
          1    1    1    2  503    0 -0.17958041212E+02 -0.12977860697E+03 -0.18653237397E+04  0.18699191512E+04  0.00000000000E+00 0. -1.
<mgrwt>
<rscale>  0 0.12685003E+03</rscale>
<asrwt>0</asrwt>
<pdfrwt beam="1">  1        2 0.62575323E-01 0.12788155E+03</pdfrwt>
<pdfrwt beam="2">  1        2 0.34528082E+00 0.12582682E+03</pdfrwt>
<totfact> 0.73949416E+01</totfact>
</mgrwt>
</event>
<event>
13    1  0.1675423E-008  0.1488413E+03  0.7546771E-02  0.1279414E+00
          2   -1    0    0  502    0  0.00000000000E+00  0.00000000000E+00  0.12569035816E+04  0.12569035816E+04  0.00000000000E+00 0. -1.
          2   -1    0    0  503    0 -0.00000000000E+00 -0.00000000000E+00 -0.31102245847E+04  0.31102245847E+04  0.00000000000E+00 0. -1.
         24    2    1    2    0    0 -0.63293172962E+02 -0.79967965468E+02  0.12649840121E+03  0.18030531784E+03  0.78148966014E+02 0.  0.
         25    2    1    2    0    0  0.34601305623E+03 -0.30056381010E+02 -0.20000501863E+03  0.41982764854E+03  0.12499930350E+03 0.  0.
         24    2    1    2    0    0  0.26111477167E+02 -0.23231030761E+02 -0.11909390903E+04  0.11941423638E+04  0.80116030398E+02 0.  0.
        -13    1    3    3    0    0 -0.59325969308E+02 -0.68863583512E+02  0.51671115750E+02  0.10455461717E+03  0.00000000000E+00 0.  1.
         14    1    3    3    0    0 -0.39672036532E+01 -0.11104381956E+02  0.74827285457E+02  0.75750700672E+02  0.00000000000E+00 0. -1.
        -13    1    5    5    0    0 -0.86926759221E+01 -0.33296905431E+02 -0.93699932935E+03  0.93763105203E+03  0.00000000000E+00 0.  1.
         14    1    5    5    0    0  0.34804153089E+02  0.10065874670E+02 -0.25393976090E+03  0.25651131178E+03  0.00000000000E+00 0. -1.
          5    1    4    4  501    0  0.12490487417E+03  0.45871896242E+02 -0.51113415339E+02  0.14261882654E+03  0.47000000000E+01 0. -1.
         -5    1    4    4    0  501  0.22110818206E+03 -0.75928277252E+02 -0.14889160329E+03  0.27720882199E+03  0.47000000000E+01 0. -1.
          1    1    1    2  502    0 -0.53304261866E+02  0.41820875383E+02  0.97916173140E+03  0.98150294253E+03  0.00000000000E+00 0. -1.
          1    1    1    2  503    0 -0.25552709857E+03  0.91434501856E+02 -0.15680370268E+04  0.15913498936E+04  0.00000000000E+00 0. -1.
<mgrwt>
<rscale>  0 0.10042059E+03</rscale>
<asrwt>0</asrwt>
<pdfrwt beam="1">  1        2 0.18483876E+00 0.67751974E+02</pdfrwt>
<pdfrwt beam="2">  1        2 0.45738597E+00 0.14884134E+03</pdfrwt>
<totfact> 0.80585923E+00</totfact>
</mgrwt>
</event>
<event>
13    1  0.1675423E-008  0.1806509E+03  0.7546771E-02  0.1268314E+00
          2   -1    0    0  503    0  0.00000000000E+00  0.00000000000E+00  0.19587647822E+04  0.19587647822E+04  0.00000000000E+00 0. -1.
          2   -1    0    0  502    0 -0.00000000000E+00 -0.00000000000E+00 -0.12022551689E+04  0.12022551689E+04  0.00000000000E+00 0. -1.
         24    2    1    2    0    0 -0.78730738298E+02 -0.93177819580E+02  0.88713798919E+02  0.16949051666E+03  0.77306286328E+02 0.  0.
         25    2    1    2    0    0  0.41525747442E+02 -0.15412228918E+03 -0.37502317916E+03  0.42631678843E+03  0.12500220584E+03 0.  0.
         24    2    1    2    0    0 -0.56322666389E+02  0.23225170879E+02 -0.52678515957E+02  0.11320487044E+03  0.79552909044E+02 0.  0.
        -11    1    5    5    0    0  0.99677356599E+01 -0.58828630293E+01  0.11601265251E+02  0.16387592472E+02  0.00000000000E+00 0.  1.
         12    1    5    5    0    0 -0.66290402048E+02  0.29108033908E+02 -0.64279781208E+02  0.96817277972E+02  0.00000000000E+00 0. -1.
        -11    1    3    3    0    0 -0.92921169016E+02 -0.69461665563E+02  0.64454810913E+02  0.13271657502E+03  0.00000000000E+00 0.  1.
         12    1    3    3    0    0  0.14190430717E+02 -0.23716154017E+02  0.24258988006E+02  0.36773941648E+02  0.00000000000E+00 0. -1.
          5    1    4    4  501    0 -0.39119571426E+02 -0.85972806224E+02 -0.14416591612E+03  0.17241683691E+03  0.47000000000E+01 0.  1.
         -5    1    4    4    0  501  0.80645318868E+02 -0.68149482952E+02 -0.23085726304E+03  0.25389995152E+03  0.47000000000E+01 0.  1.
          1    1    1    2  502    0  0.30220588649E+02  0.54256952776E+02 -0.67219047452E+03  0.67505343117E+03  0.00000000000E+00 0. -1.
          1    1    1    2  503    0  0.63307068596E+02  0.16981798510E+03  0.17676879840E+04  0.17769543443E+04  0.00000000000E+00 0. -1.
<mgrwt>
<rscale>  0 0.10592178E+03</rscale>
<asrwt>0</asrwt>
<pdfrwt beam="1">  1        2 0.28805364E+00 0.18065085E+03</pdfrwt>
<pdfrwt beam="2">  1        2 0.17680223E+00 0.62105563E+02</pdfrwt>
<totfact> 0.32969558E+01</totfact>
</mgrwt>
</event>
<event>
13    1  0.1675423E-008  0.7233949E+02  0.7546771E-02  0.1397923E+00
          2   -1    0    0  502    0  0.00000000000E+00  0.00000000000E+00  0.89482753629E+03  0.89482753629E+03  0.00000000000E+00 0. -1.
          2   -1    0    0  503    0 -0.00000000000E+00 -0.00000000000E+00 -0.17730208382E+04  0.17730208382E+04  0.00000000000E+00 0. -1.
         24    2    1    2    0    0 -0.43375148669E+02 -0.39197771100E+02  0.20118156489E+03  0.22428380421E+03  0.80070806134E+02 0.  0.
         25    2    1    2    0    0  0.14417958502E+03 -0.96050020037E+02 -0.36059660491E+03  0.41913249315E+03  0.12501510409E+03 0.  0.
         24    2    1    2    0    0 -0.38558068772E+02  0.10664199721E+03  0.95095637439E+02  0.16771133059E+03  0.78896577308E+02 0.  0.
        -11    1    3    3    0    0 -0.77311281494E+01  0.22243171221E+02  0.25111304893E+02  0.34425377876E+02  0.00000000000E+00 0.  1.
         12    1    3    3    0    0 -0.35644020520E+02 -0.61440942321E+02  0.17607026000E+03  0.18985842633E+03  0.00000000000E+00 0. -1.
        -13    1    5    5    0    0  0.60103639338E+01  0.44646727377E+02 -0.89393397652E+00  0.45058338386E+02  0.00000000000E+00 0.  1.
         14    1    5    5    0    0 -0.44568432706E+02  0.61995269834E+02  0.95989571415E+02  0.12265299220E+03  0.00000000000E+00 0. -1.
          5    1    4    4  501    0  0.29685523443E+02 -0.89370438528E+01 -0.20413777105E+03  0.20653188767E+03  0.47000000000E+01 0.  1.
         -5    1    4    4    0  501  0.11449406158E+03 -0.87112976184E+02 -0.15645883386E+03  0.21260060548E+03  0.47000000000E+01 0.  1.
          1    1    1    2  502    0  0.71530646000E+01  0.49212302596E+02  0.51925338242E+03  0.52162926702E+03  0.00000000000E+00 0. -1.
          1    1    1    2  503    0 -0.69399432178E+02 -0.20606508671E+02 -0.13331272818E+04  0.13350914796E+04  0.00000000000E+00 0. -1.
<mgrwt>
<rscale>  0 0.59978347E+02</rscale>
<asrwt>0</asrwt>
<pdfrwt beam="1">  1        2 0.13159229E+00 0.49729439E+02</pdfrwt>
<pdfrwt beam="2">  1        2 0.26073836E+00 0.72339488E+02</pdfrwt>
<totfact> 0.66032079E+01</totfact>
</mgrwt>
</event>
<event>
13    1  0.1675423E-008  0.1265505E+03  0.7546771E-02  0.1283042E+00
          2   -1    0    0  502    0  0.00000000000E+00  0.00000000000E+00  0.50049032800E+03  0.50049032800E+03  0.00000000000E+00 0. -1.
          2   -1    0    0  503    0 -0.00000000000E+00 -0.00000000000E+00 -0.14506819752E+04  0.14506819752E+04  0.00000000000E+00 0. -1.
         24    2    1    2    0    0  0.27151761480E+02  0.62238645171E+02 -0.14313441650E+03  0.17853815037E+03  0.82325833408E+02 0.  0.
         25    2    1    2    0    0 -0.27556330743E+03  0.53988938305E+02 -0.17724814415E+03  0.35481288102E+03  0.12500133629E+03 0.  0.
         24    2    1    2    0    0  0.14213447746E+03 -0.40877520962E+02 -0.25992653784E+02  0.17040452442E+03  0.80553724250E+02 0.  0.
        -11    1    3    3    0    0  0.56060075265E+02  0.34667050679E+02 -0.99778188449E+02  0.11958354122E+03  0.00000000000E+00 0.  1.
         12    1    3    3    0    0 -0.28908313785E+02  0.27571594492E+02 -0.43356228056E+02  0.58954609149E+02  0.00000000000E+00 0. -1.
        -11    1    5    5    0    0  0.45216807650E+02 -0.53797274309E+02 -0.53891780515E+01  0.70482264841E+02  0.00000000000E+00 0.  1.
         12    1    5    5    0    0  0.96917669805E+02  0.12919753347E+02 -0.20603475732E+02  0.99922259578E+02  0.00000000000E+00 0. -1.
          5    1    4    4  501    0 -0.20342088639E+02  0.45379604767E+02 -0.14717869162E+02  0.52075087822E+02  0.47000000000E+01 0. -1.
         -5    1    4    4    0  501 -0.25522121879E+03  0.86093335380E+01 -0.16253027498E+03  0.30273779320E+03  0.47000000000E+01 0. -1.
          1    1    1    2  502    0  0.12630709583E+03 -0.10145718532E+01  0.30771995042E+03  0.33263505482E+03  0.00000000000E+00 0. -1.
          1    1    1    2  503    0 -0.20030027335E+02 -0.74335490660E+02 -0.91153638321E+03  0.91478169258E+03  0.00000000000E+00 0. -1.
<mgrwt>
<rscale>  0 0.98705218E+02</rscale>
<asrwt>0</asrwt>
<pdfrwt beam="1">  1        2 0.73601520E-01 0.12655053E+03</pdfrwt>
<pdfrwt beam="2">  1        2 0.21333558E+00 0.76986799E+02</pdfrwt>
<totfact> 0.17755150E+02</totfact>
</mgrwt>
</event>
<event>
13    1  0.1675423E-008  0.1653341E+03  0.7546771E-02  0.1346278E+00
          2   -1    0    0  502    0  0.00000000000E+00  0.00000000000E+00  0.24278860635E+04  0.24278860635E+04  0.00000000000E+00 0. -1.
          2   -1    0    0  503    0 -0.00000000000E+00 -0.00000000000E+00 -0.13997725225E+04  0.13997725225E+04  0.00000000000E+00 0. -1.
         24    2    1    2    0    0 -0.20275013164E+03  0.13701619453E+03  0.38383509667E+03  0.46210058644E+03  0.79539405997E+02 0.  0.
         25    2    1    2    0    0  0.34009288906E+03 -0.36561306438E+03 -0.59730583840E+03  0.78849727307E+03  0.12497039259E+03 0.  0.
         24    2    1    2    0    0 -0.47826952856E+02  0.18647668653E+02  0.16492149773E+03  0.18936785162E+03  0.77626862932E+02 0.  0.
        -11    1    5    5    0    0  0.19478076456E+02 -0.47593663122E+01  0.53223691047E+02  0.56875375329E+02  0.00000000000E+00 0.  1.
         12    1    5    5    0    0 -0.67305029312E+02  0.23407034965E+02  0.11169780668E+03  0.13249247629E+03  0.00000000000E+00 0. -1.
        -13    1    3    3    0    0 -0.27550060683E+02  0.94293200959E+01  0.11556920313E+02  0.31328586438E+02  0.00000000000E+00 0.  1.
         14    1    3    3    0    0 -0.17520007095E+03  0.12758687443E+03  0.37227817636E+03  0.43077200000E+03  0.00000000000E+00 0. -1.
          5    1    4    4  501    0  0.24710965593E+03 -0.25620463414E+03 -0.50455921333E+03  0.61749986750E+03  0.47000000000E+01 0.  1.
         -5    1    4    4    0  501  0.92983233133E+02 -0.10940843023E+03 -0.92746625067E+02  0.17099740557E+03  0.47000000000E+01 0.  1.
          1    1    1    2  502    0 -0.11580909390E+03  0.23042443274E+03  0.17221468235E+04  0.17413491457E+04  0.00000000000E+00 0. -1.
          1    1    1    2  503    0  0.26293289332E+02 -0.20475231546E+02 -0.64548403852E+03  0.64634372910E+03  0.00000000000E+00 0. -1.
<mgrwt>
<rscale>  0 0.74228024E+02</rscale>
<asrwt>0</asrwt>
<pdfrwt beam="1">  1        2 0.35704207E+00 0.16533409E+03</pdfrwt>
<pdfrwt beam="2">  1        2 0.20584890E+00 0.33325248E+02</pdfrwt>
<totfact> 0.16231469E+01</totfact>
</mgrwt>
</event>
<event>
13    1  0.1675423E-008  0.8312544E+02  0.7546771E-02  0.1394253E+00
          2   -1    0    0  503    0  0.00000000000E+00  0.00000000000E+00  0.42452705468E+03  0.42452705468E+03  0.00000000000E+00 0. -1.
          2   -1    0    0  502    0 -0.00000000000E+00 -0.00000000000E+00 -0.16478969629E+04  0.16478969629E+04  0.00000000000E+00 0. -1.
         24    2    1    2    0    0  0.88172486661E+02 -0.15795510538E+03  0.17444694731E+03  0.26307755221E+03  0.77806544272E+02 0.  0.
         25    2    1    2    0    0 -0.45840329150E+02  0.26148585951E+03 -0.26246265455E+03  0.39368533046E+03  0.12500121552E+03 0.  0.
         24    2    1    2    0    0 -0.56353039860E+02 -0.14465591320E+02  0.21868245965E+02  0.10739037101E+03  0.87575985128E+02 0.  0.
        -11    1    3    3    0    0  0.28093408945E+02 -0.95379244879E+02  0.49771099422E+02  0.11119173673E+03  0.00000000000E+00 0.  1.
         12    1    3    3    0    0  0.60079077716E+02 -0.62575860501E+02  0.12467584789E+03  0.15188581548E+03  0.00000000000E+00 0. -1.
        -13    1    5    5    0    0 -0.38177861563E+02 -0.46705973799E+02 -0.66187338365E+01  0.60686116532E+02  0.00000000000E+00 0.  1.
         14    1    5    5    0    0 -0.18175178296E+02  0.32240382479E+02  0.28486979802E+02  0.46704254482E+02  0.00000000000E+00 0. -1.
          5    1    4    4  501    0 -0.61096659844E+02  0.77010966062E+02 -0.14205204156E+03  0.17281308761E+03  0.47000000000E+01 0. -1.
         -5    1    4    4    0  501  0.15256330694E+02  0.18447489345E+03 -0.12041061299E+03  0.22087224285E+03  0.47000000000E+01 0. -1.
          1    1    1    2  502    0  0.51632075060E+02 -0.65169246622E+02 -0.12246392214E+04  0.12274584003E+04  0.00000000000E+00 0. -1.
          1    1    1    2  503    0 -0.37611192711E+02 -0.23895916193E+02  0.67416774466E+02  0.80812363579E+02  0.00000000000E+00 0. -1.
<mgrwt>
<rscale>  0 0.60861246E+02</rscale>
<asrwt>0</asrwt>
<pdfrwt beam="1">  1        2 0.62430449E-01 0.44560258E+02</pdfrwt>
<pdfrwt beam="2">  1        2 0.24233779E+00 0.83125443E+02</pdfrwt>
<totfact> 0.16955723E+02</totfact>
</mgrwt>
</event>
<event>
13    1  0.1675423E-008  0.1587097E+03  0.7546771E-02  0.1229861E+00
         -1   -1    0    0    0  501 -0.00000000000E+00  0.00000000000E+00  0.90300175253E+03  0.90300175253E+03  0.00000000000E+00 0.  1.
          2   -1    0    0  503    0  0.00000000000E+00 -0.00000000000E+00 -0.15966357881E+04  0.15966357881E+04  0.00000000000E+00 0. -1.
         24    2    1    2    0    0  0.16400279320E+03  0.23589321576E+03 -0.57682043033E+03  0.64937925546E+03  0.80181563701E+02 0.  0.
         25    2    1    2    0    0 -0.20620265251E+03 -0.24521328666E+03 -0.21005978091E+03  0.40298824423E+03  0.12500129431E+03 0.  0.
         24    2    1    2    0    0  0.47137350579E+02 -0.15101062094E+03  0.14086880548E+03  0.22661546957E+03  0.80525854462E+02 0.  0.
        -11    1    5    5    0    0  0.25149770574E+02 -0.20271671713E+01  0.10140718317E+02  0.27192913316E+02  0.00000000000E+00 0.  1.
         12    1    5    5    0    0  0.21987580005E+02 -0.14898345376E+03  0.13072808716E+03  0.19942255626E+03  0.00000000000E+00 0. -1.
        -13    1    3    3    0    0  0.16501674164E+03  0.18822467795E+03 -0.49454866363E+03  0.55429002797E+03  0.00000000000E+00 0.  1.
         14    1    3    3    0    0 -0.10139484413E+01  0.47668537810E+02 -0.82271766702E+02  0.95089227490E+02  0.00000000000E+00 0. -1.
          5    1    4    4  502    0 -0.38014637573E+02  0.72842300405E+01 -0.36640282107E+02  0.53504887159E+02  0.47000000000E+01 0. -1.
         -5    1    4    4    0  502 -0.16818801493E+03 -0.25249751670E+03 -0.17341949881E+03  0.34948335707E+03  0.47000000000E+01 0. -1.
          1    1    1    2  503    0 -0.10164051826E+03 -0.21388196293E+02 -0.61156256618E+03  0.62032009660E+03  0.00000000000E+00 0. -1.
         -2    1    1    2    0  501  0.96703026988E+02  0.18171888812E+03  0.56393993639E+03  0.60033447475E+03  0.00000000000E+00 0.  1.
<mgrwt>
<rscale>  0 0.12839244E+03</rscale>
<asrwt>0</asrwt>
<pdfrwt beam="2">  1        2 0.23479938E+00 0.10386650E+03</pdfrwt>
<pdfrwt beam="1">  1       -1 0.13279438E+00 0.15870969E+03</pdfrwt>
<totfact> 0.88047326E+00</totfact>
</mgrwt>
</event>
<event>
13    1  0.1675423E-008  0.1744783E+03  0.7546771E-02  0.1207193E+00
         -3   -1    0    0    0  501 -0.00000000000E+00  0.00000000000E+00  0.67664353965E+03  0.67664353965E+03  0.00000000000E+00 0.  1.
          2   -1    0    0  503    0  0.00000000000E+00 -0.00000000000E+00 -0.56876243656E+03  0.56876243656E+03  0.00000000000E+00 0. -1.
         24    2    1    2    0    0  0.87863470965E+02  0.22978691196E+02  0.66774638550E+02  0.13799252447E+03  0.79593182355E+02 0.  0.
         25    2    1    2    0    0 -0.35146242991E+02  0.86683365575E+01  0.43542530034E+02  0.13722684071E+03  0.12499942174E+03 0.  0.
         24    2    1    2    0    0  0.42217019545E+02  0.70709060022E+02  0.11226201781E+03  0.16111990831E+03  0.81085240978E+02 0.  0.
        -11    1    3    3    0    0  0.62133449071E+02 -0.36213161506E+01  0.77560272659E+02  0.99444835558E+02  0.00000000000E+00 0.  1.
         12    1    3    3    0    0  0.25730021894E+02  0.26600007347E+02 -0.10785634108E+02  0.38547688914E+02  0.00000000000E+00 0. -1.
        -13    1    5    5    0    0  0.13650332945E+02 -0.12131325268E+02 -0.55375587788E+00  0.18270393752E+02  0.00000000000E+00 0.  1.
         14    1    5    5    0    0  0.28566686599E+02  0.82840385290E+02  0.11281577369E+03  0.14284951456E+03  0.00000000000E+00 0. -1.
          5    1    4    4  502    0  0.14452926815E+02 -0.50239899615E+02  0.23535712992E+02  0.57523511653E+02  0.47000000000E+01 0. -1.
         -5    1    4    4    0  502 -0.49599169805E+02  0.58908236173E+02  0.20006817043E+02  0.79703329056E+02  0.47000000000E+01 0. -1.
          1    1    1    2  503    0  0.11377663730E+03  0.10674640343E+03 -0.38075994495E+03  0.41148274996E+03  0.00000000000E+00 0. -1.
         -4    1    1    2    0  501 -0.20871088481E+03 -0.20910249121E+03  0.26606186164E+03  0.39758395275E+03  0.00000000000E+00 0.  1.
<mgrwt>
<rscale>  0 0.14465968E+03</rscale>
<asrwt>0</asrwt>
<pdfrwt beam="2">  1        2 0.83641534E-01 0.17447831E+03</pdfrwt>
<pdfrwt beam="1">  1       -3 0.99506404E-01 0.11993711E+03</pdfrwt>
<totfact> 0.32033308E+01</totfact>
</mgrwt>
</event>
<event>
13    1  0.1675423E-008  0.1780507E+03  0.7546771E-02  0.1259145E+00
          2   -1    0    0  502    0  0.00000000000E+00  0.00000000000E+00  0.21717061137E+04  0.21717061137E+04  0.00000000000E+00 0. -1.
          2   -1    0    0  503    0 -0.00000000000E+00 -0.00000000000E+00 -0.26220812215E+04  0.26220812215E+04  0.00000000000E+00 0. -1.
         24    2    1    2    0    0 -0.32579592907E+03 -0.21796557961E+03  0.21239070894E+02  0.40041502321E+03  0.78924719759E+02 0.  0.
         25    2    1    2    0    0 -0.63853911407E+02  0.41386126367E+02 -0.82348300026E+03  0.83638603629E+03  0.12500886576E+03 0.  0.
         24    2    1    2    0    0  0.14161187676E+02  0.10199544186E+02  0.12867900946E+03  0.15201155822E+03  0.79023138492E+02 0.  0.
        -11    1    5    5    0    0 -0.14282588043E+02 -0.22356595472E+02  0.15196933192E+02  0.30573787151E+02  0.00000000000E+00 0.  1.
         12    1    5    5    0    0  0.28443775719E+02  0.32556139658E+02  0.11348207627E+03  0.12143777107E+03  0.00000000000E+00 0. -1.
        -11    1    3    3    0    0 -0.39030885042E+02 -0.13043722004E+02  0.24591228121E+02  0.47940350138E+02  0.00000000000E+00 0.  1.
         12    1    3    3    0    0 -0.28676504403E+03 -0.20492185761E+03 -0.33521572272E+01  0.35247467308E+03  0.00000000000E+00 0. -1.
          5    1    4    4  501    0 -0.48829547948E+02  0.85190580086E+02 -0.50011303099E+03  0.50968313044E+03  0.47000000000E+01 0. -1.
         -5    1    4    4    0  501 -0.15024363459E+02 -0.43804453719E+02 -0.32336996927E+03  0.32670290585E+03  0.47000000000E+01 0. -1.
          1    1    1    2  502    0  0.36661271462E+03  0.98037016611E+02  0.17934712276E+04  0.18331817104E+04  0.00000000000E+00 0. -1.
          1    1    1    2  503    0  0.88759381793E+01  0.68342892449E+02 -0.15702814155E+04  0.15717930070E+04  0.00000000000E+00 0. -1.
<mgrwt>
<rscale>  0 0.11077318E+03</rscale>
<asrwt>0</asrwt>
<pdfrwt beam="1">  1        2 0.31936855E+00 0.17805074E+03</pdfrwt>
<pdfrwt beam="2">  1        2 0.38560018E+00 0.68916857E+02</pdfrwt>
<totfact> 0.52942062E+00</totfact>
</mgrwt>
</event>
<event>
13    1  0.1675423E-008  0.1795656E+03  0.7546771E-02  0.1203045E+00
          2   -1    0    0  503    0  0.00000000000E+00  0.00000000000E+00  0.17997604277E+04  0.17997604277E+04  0.00000000000E+00 0. -1.
         -3   -1    0    0    0  501 -0.00000000000E+00 -0.00000000000E+00 -0.14557076152E+04  0.14557076152E+04  0.00000000000E+00 0.  1.
         24    2    1    2    0    0 -0.24995311580E+03 -0.39964412280E+03  0.78460727580E+03  0.91813987152E+03  0.71974033153E+02 0.  0.
         25    2    1    2    0    0  0.35139062129E+03  0.20692977485E+03 -0.73375182980E+03  0.84871316343E+03  0.12500794213E+03 0.  0.
         24    2    1    2    0    0  0.39949336682E+02  0.56151338187E+02  0.13712390285E+03  0.17286276996E+03  0.79559098954E+02 0.  0.
        -13    1    3    3    0    0 -0.14337968284E+03 -0.18803930653E+03  0.44698459995E+03  0.50567949024E+03  0.00000000000E+00 0.  1.
         14    1    3    3    0    0 -0.10657343296E+03 -0.21160481626E+03  0.33762267584E+03  0.41246038128E+03  0.00000000000E+00 0. -1.
        -13    1    5    5    0    0  0.54690309389E+02  0.62546710114E+02  0.87323800181E+02  0.12053450529E+03  0.00000000000E+00 0.  1.
         14    1    5    5    0    0 -0.14740972707E+02 -0.63953719272E+01  0.49800102665E+02  0.52328264675E+02  0.00000000000E+00 0. -1.
          5    1    4    4  502    0  0.23693354287E+03  0.87383113676E+02 -0.35832659835E+03  0.43839862383E+03  0.47000000000E+01 0.  1.
         -5    1    4    4    0  502  0.11445707842E+03  0.11954666118E+03 -0.37542523144E+03  0.41031453960E+03  0.47000000000E+01 0.  1.
          1    1    1    2  503    0 -0.14691588483E+03  0.25852219264E+03  0.69881597030E+03  0.75944832718E+03  0.00000000000E+00 0. -1.
         -4    1    1    2    0  501  0.55290426560E+01 -0.12195918288E+03 -0.54274250668E+03  0.55630391079E+03  0.00000000000E+00 0.  1.
<mgrwt>
<rscale>  0 0.14792566E+03</rscale>
<asrwt>0</asrwt>
<pdfrwt beam="1">  1        2 0.26467065E+00 0.17956556E+03</pdfrwt>
<pdfrwt beam="2">  1       -3 0.21407465E+00 0.12186078E+03</pdfrwt>
<totfact> 0.90374881E-01</totfact>
</mgrwt>
</event>
<event>
13    1  0.1675423E-008  0.1701448E+03  0.7546771E-02  0.1197748E+00
          2   -1    0    0  502    0  0.00000000000E+00  0.00000000000E+00  0.18664476624E+04  0.18664476624E+04  0.00000000000E+00 0. -1.
          2   -1    0    0  503    0 -0.00000000000E+00 -0.00000000000E+00 -0.71893804188E+03  0.71893804188E+03  0.00000000000E+00 0. -1.
         24    2    1    2    0    0 -0.12475010253E+03  0.11157516730E+03  0.69107336018E+03  0.71556910167E+03  0.80281654665E+02 0.  0.
         25    2    1    2    0    0  0.24904944936E+03  0.22354964960E+03  0.13712958905E+03  0.38266010270E+03  0.12499662375E+03 0.  0.
         24    2    1    2    0    0  0.28670650898E+02  0.65101979823E+01  0.15606107310E+03  0.17886870695E+03  0.82307757166E+02 0.  0.
        -11    1    3    3    0    0 -0.10297043038E+03  0.76254188297E+02  0.36439693824E+03  0.38626770427E+03  0.00000000000E+00 0.  1.
         12    1    3    3    0    0 -0.21779672149E+02  0.35320979007E+02  0.32667642194E+03  0.32930139740E+03  0.00000000000E+00 0. -1.
        -13    1    5    5    0    0  0.38666341107E+02  0.37013238959E+02  0.11416085809E+03  0.12608634864E+03  0.00000000000E+00 0.  1.
         14    1    5    5    0    0 -0.99956902089E+01 -0.30503040977E+02  0.41900215011E+02  0.52782358318E+02  0.00000000000E+00 0. -1.
          5    1    4    4  501    0  0.54242855331E+02  0.13013120458E+03  0.58233437485E+02  0.15260943942E+03  0.47000000000E+01 0.  1.
         -5    1    4    4    0  501  0.19480659403E+03  0.93418445021E+02  0.78896151561E+02  0.23005066328E+03  0.47000000000E+01 0.  1.
          1    1    1    2  502    0 -0.66505771710E+02 -0.19491872192E+03  0.70809813037E+03  0.73744104040E+03  0.00000000000E+00 0. -1.
          1    1    1    2  503    0 -0.86464226017E+02 -0.14671629296E+03 -0.54485253221E+03  0.57084675251E+03  0.00000000000E+00 0. -1.
<mgrwt>
<rscale>  0 0.15223908E+03</rscale>
<asrwt>0</asrwt>
<pdfrwt beam="1">  1        2 0.27447760E+00 0.13621774E+03</pdfrwt>
<pdfrwt beam="2">  1        2 0.10572618E+00 0.17014477E+03</pdfrwt>
<totfact> 0.69873324E+01</totfact>
</mgrwt>
</event>
<event>
13    1  0.1675423E-008  0.1188561E+03  0.7546771E-02  0.1262645E+00
          2   -1    0    0  502    0  0.00000000000E+00  0.00000000000E+00  0.24683445651E+04  0.24683445651E+04  0.00000000000E+00 0. -1.
          2   -1    0    0  503    0 -0.00000000000E+00 -0.00000000000E+00 -0.22602595239E+04  0.22602595239E+04  0.00000000000E+00 0. -1.
         24    2    1    2    0    0  0.65876308620E+02 -0.10208217974E+03  0.28183345615E+03  0.31692237430E+03  0.79052102242E+02 0.  0.
         25    2    1    2    0    0 -0.29876377501E+03  0.17277842551E+03 -0.13897261427E+03  0.39249322365E+03  0.12500146206E+03 0.  0.
         24    2    1    2    0    0  0.32263790248E+02  0.36182755855E+01  0.25185101762E+03  0.26617686034E+03  0.79794372108E+02 0.  0.
        -11    1    3    3    0    0  0.68365729542E+02 -0.50733500477E+02  0.22351730621E+03  0.23918141069E+03  0.00000000000E+00 0.  1.
         12    1    3    3    0    0 -0.24894209224E+01 -0.51348679264E+02  0.58316149945E+02  0.77740963611E+02  0.00000000000E+00 0. -1.
        -13    1    5    5    0    0 -0.14786592915E+02 -0.26429551832E+02  0.92225719445E+02  0.97070839428E+02  0.00000000000E+00 0.  1.
         14    1    5    5    0    0  0.47050383163E+02  0.30047827417E+02  0.15962529818E+03  0.16910602091E+03  0.00000000000E+00 0. -1.
          5    1    4    4  501    0 -0.35888754110E+02  0.43039344772E+02  0.19123676512E+02  0.59398593192E+02  0.47000000000E+01 0.  1.
         -5    1    4    4    0  501 -0.26287502090E+03  0.12973908074E+03 -0.15809629078E+03  0.33309463046E+03  0.47000000000E+01 0.  1.
          1    1    1    2  502    0  0.10277644564E+03 -0.93629889294E+02  0.17792163322E+04  0.17846401068E+04  0.00000000000E+00 0. -1.
          1    1    1    2  503    0  0.97847230497E+02  0.19315367942E+02 -0.19658431505E+04  0.19683715240E+04  0.00000000000E+00 0. -1.
<mgrwt>
<rscale>  0 0.10888695E+03</rscale>
<asrwt>0</asrwt>
<pdfrwt beam="1">  1        2 0.36299185E+00 0.11885608E+03</pdfrwt>
<pdfrwt beam="2">  1        2 0.33239111E+00 0.99753983E+02</pdfrwt>
<totfact> 0.56647081E+00</totfact>
</mgrwt>
</event>
<event>
13    1  0.1675423E-008  0.1159843E+03  0.7546771E-02  0.1268216E+00
          2   -1    0    0  502    0  0.00000000000E+00  0.00000000000E+00  0.65143646246E+03  0.65143646246E+03  0.00000000000E+00 0. -1.
          2   -1    0    0  503    0 -0.00000000000E+00 -0.00000000000E+00 -0.14083654871E+04  0.14083654871E+04  0.00000000000E+00 0. -1.
         24    2    1    2    0    0  0.59795661191E+02 -0.29425797887E+02 -0.66766491183E+02  0.12411622122E+03  0.80657754414E+02 0.  0.
         25    2    1    2    0    0  0.22140210874E+03  0.51719147669E+02 -0.19804807423E+03  0.32640657427E+03  0.12499779210E+03 0.  0.
         24    2    1    2    0    0  0.70825415339E+01 -0.67014461078E+01 -0.12133890249E+03  0.14442701976E+03  0.77723632203E+02 0.  0.
        -11    1    5    5    0    0  0.23796730040E+02 -0.36845297080E+02 -0.67276234318E+02  0.80311593070E+02  0.00000000000E+00 0.  1.
         12    1    5    5    0    0 -0.16714188506E+02  0.30143850973E+02 -0.54062668177E+02  0.64115426687E+02  0.00000000000E+00 0. -1.
        -11    1    3    3    0    0  0.76722594487E+01  0.25780408817E+02 -0.28151603311E+02  0.38935919314E+02  0.00000000000E+00 0.  1.
         12    1    3    3    0    0  0.52123401743E+02 -0.55206206704E+02 -0.38614887872E+02  0.85180301909E+02  0.00000000000E+00 0. -1.
          5    1    4    4  501    0  0.19634840943E+03  0.65455702188E+02 -0.11149666458E+03  0.23513983722E+03  0.47000000000E+01 0.  1.
         -5    1    4    4    0  501  0.25053699307E+02 -0.13736554519E+02 -0.86551409649E+02  0.91266737047E+02  0.47000000000E+01 0.  1.
          1    1    1    2  502    0 -0.12375706034E+03 -0.27531527699E+02  0.53211833805E+03  0.54701345568E+03  0.00000000000E+00 0. -1.
          1    1    1    2  503    0 -0.16452325112E+03  0.11939624025E+02 -0.90289389475E+03  0.91783867862E+03  0.00000000000E+00 0. -1.
<mgrwt>
<rscale>  0 0.10597239E+03</rscale>
<asrwt>0</asrwt>
<pdfrwt beam="1">  1        2 0.95799480E-01 0.96824694E+02</pdfrwt>
<pdfrwt beam="2">  1        2 0.20711257E+00 0.11598434E+03</pdfrwt>
<totfact> 0.13575078E+02</totfact>
</mgrwt>
</event>
<event>
13    1  0.1675423E-008  0.1211157E+03  0.7546771E-02  0.1242854E+00
          2   -1    0    0  503    0  0.00000000000E+00  0.00000000000E+00  0.13286644435E+04  0.13286644435E+04  0.00000000000E+00 0. -1.
          2   -1    0    0  502    0 -0.00000000000E+00 -0.00000000000E+00 -0.46554358406E+04  0.46554358406E+04  0.00000000000E+00 0. -1.
         24    2    1    2    0    0  0.32028897649E+02 -0.80687270407E+01  0.11797975472E+03  0.14655898775E+03  0.80432330112E+02 0.  0.
         25    2    1    2    0    0 -0.11754487340E+02  0.25691965356E+03 -0.80506570912E+03  0.85434323157E+03  0.12500273985E+03 0.  0.
         24    2    1    2    0    0 -0.24077326374E+02 -0.49349269231E+02 -0.32851279579E+03  0.34131596843E+03  0.74571209527E+02 0.  0.
        -11    1    3    3    0    0  0.71860308472E+01  0.35175605358E+02  0.61494095423E+02  0.71207345292E+02  0.00000000000E+00 0.  1.
         12    1    3    3    0    0  0.24842866802E+02 -0.43244332399E+02  0.56485659293E+02  0.75351642460E+02  0.00000000000E+00 0. -1.
        -11    1    5    5    0    0 -0.18622135509E+02 -0.55998124695E+02 -0.32736238038E+03  0.33263899650E+03  0.00000000000E+00 0.  1.
         12    1    5    5    0    0 -0.54551908657E+01  0.66488554643E+01 -0.11504154069E+01  0.86769719358E+01  0.00000000000E+00 0. -1.
          5    1    4    4  501    0 -0.48227545935E+02  0.23686434224E+03 -0.64297500843E+03  0.68692762667E+03  0.47000000000E+01 0. -1.
         -5    1    4    4    0  501  0.36473058595E+02  0.20055311323E+02 -0.16209070069E+03  0.16741560490E+03  0.47000000000E+01 0. -1.
          1    1    1    2  502    0 -0.75559275078E+02 -0.80994591310E+02 -0.34712766858E+04  0.34730435006E+04  0.00000000000E+00 0. -1.
          1    1    1    2  503    0  0.79362191143E+02 -0.11850706598E+03  0.11601040388E+04  0.11688385958E+04  0.00000000000E+00 0. -1.
<mgrwt>
<rscale>  0 0.12014733E+03</rscale>
<asrwt>0</asrwt>
<pdfrwt beam="1">  1        2 0.19539183E+00 0.12111573E+03</pdfrwt>
<pdfrwt beam="2">  1        2 0.68462290E+00 0.11918668E+03</pdfrwt>
<totfact> 0.68738493E-01</totfact>
</mgrwt>
</event>
<event>
13    1  0.1675423E-008  0.9916788E+02  0.7546771E-02  0.1360454E+00
          2   -1    0    0  503    0  0.00000000000E+00  0.00000000000E+00  0.16275497339E+04  0.16275497339E+04  0.00000000000E+00 0. -1.
          2   -1    0    0  502    0 -0.00000000000E+00 -0.00000000000E+00 -0.25126059116E+04  0.25126059116E+04  0.00000000000E+00 0. -1.
         24    2    1    2    0    0 -0.21976714046E+03 -0.17383155170E+03 -0.89226516101E+01  0.28698644819E+03  0.61372659562E+02 0.  0.
         25    2    1    2    0    0 -0.35005103170E+02  0.11957989146E+03 -0.45817572344E+02  0.18234654167E+03  0.12500521443E+03 0.  0.
         24    2    1    2    0    0  0.27743364301E+03  0.11847206878E+03  0.48710265654E+02  0.31578413259E+03  0.79635865431E+02 0.  0.
        -11    1    3    3    0    0 -0.12052631473E+03 -0.74006382426E+02 -0.30210302647E+02  0.14462433947E+03  0.00000000000E+00 0.  1.
         12    1    3    3    0    0 -0.99240825731E+02 -0.99825169275E+02  0.21287651037E+02  0.14236210872E+03  0.00000000000E+00 0. -1.
        -13    1    5    5    0    0  0.98510115589E+02  0.23074927163E+02  0.50346827735E+02  0.11301105344E+03  0.00000000000E+00 0.  1.
         14    1    5    5    0    0  0.17892352742E+03  0.95397141617E+02 -0.16365620804E+01  0.20277307915E+03  0.00000000000E+00 0. -1.
          5    1    4    4  501    0  0.31230949053E+02  0.20700142939E+02  0.23558212338E+02  0.44507835995E+02  0.47000000000E+01 0. -1.
         -5    1    4    4    0  501 -0.66236052223E+02  0.98879748523E+02 -0.69375784682E+02  0.13783870568E+03  0.47000000000E+01 0. -1.
          1    1    1    2  502    0  0.12755671948E+02 -0.98459757053E+02 -0.21153775826E+04  0.21177061524E+04  0.00000000000E+00 0. -1.
          1    1    1    2  503    0 -0.35417071329E+02  0.34239348513E+02  0.12363513632E+04  0.12373323706E+04  0.00000000000E+00 0. -1.
<mgrwt>
<rscale>  0 0.69893956E+02</rscale>
<asrwt>0</asrwt>
<pdfrwt beam="1">  1        2 0.23934555E+00 0.49261566E+02</pdfrwt>
<pdfrwt beam="2">  1        2 0.36950087E+00 0.99167878E+02</pdfrwt>
<totfact> 0.11847571E+01</totfact>
</mgrwt>
</event>
<event>
13    1  0.1675423E-008  0.1379557E+03  0.7546771E-02  0.1342823E+00
          4   -1    0    0  503    0 -0.00000000000E+00  0.00000000000E+00  0.91187330099E+03  0.91187330099E+03  0.00000000000E+00 0. -1.
          2   -1    0    0  502    0  0.00000000000E+00 -0.00000000000E+00 -0.32735938126E+04  0.32735938126E+04  0.00000000000E+00 0. -1.
         24    2    1    2    0    0 -0.18282886286E+03 -0.83276215159E+02 -0.25818806141E+03  0.33678112246E+03  0.79994551595E+02 0.  0.
         25    2    1    2    0    0 -0.44576850745E+02 -0.10492408028E+03 -0.63016011517E+03  0.65247453482E+03  0.12500035839E+03 0.  0.
         24    2    1    2    0    0  0.15152732362E+03  0.10018223760E+03 -0.35972646111E+02  0.20201027355E+03  0.80728612135E+02 0.  0.
        -13    1    3    3    0    0 -0.12699320292E+03 -0.20351600858E+02 -0.18476111641E+03  0.22511803877E+03  0.00000000000E+00 0.  1.
         14    1    3    3    0    0 -0.55835659948E+02 -0.62924614301E+02 -0.73426945000E+02  0.11166308369E+03  0.00000000000E+00 0. -1.
        -13    1    5    5    0    0  0.91865783856E+02  0.33088778973E+02  0.14965993871E+02  0.98783452612E+02  0.00000000000E+00 0.  1.
         14    1    5    5    0    0  0.59661539760E+02  0.67093458627E+02 -0.50938639982E+02  0.10322682093E+03  0.00000000000E+00 0. -1.
          5    1    4    4  501    0 -0.28719008295E+02 -0.12819995417E+03 -0.58041806273E+03  0.59511950668E+03  0.47000000000E+01 0. -1.
         -5    1    4    4    0  501 -0.15857842450E+02  0.23275873890E+02 -0.49742052441E+02  0.57355028145E+02  0.47000000000E+01 0. -1.
          1    1    1    2  502    0  0.58598563200E+02  0.12535727962E+03 -0.22130942885E+04  0.22174161921E+04  0.00000000000E+00 0. -1.
          3    1    1    2  503    0  0.17279826794E+02 -0.37339221782E+02  0.77569459959E+03  0.77678499067E+03  0.00000000000E+00 0. -1.
<mgrwt>
<rscale>  0 0.75339359E+02</rscale>
<asrwt>0</asrwt>
<pdfrwt beam="2">  1        2 0.48141085E+00 0.13795573E+03</pdfrwt>
<pdfrwt beam="1">  1        4 0.13409902E+00 0.41143771E+02</pdfrwt>
<totfact> 0.41258064E-01</totfact>
</mgrwt>
</event>
<event>
13    1  0.1675423E-008  0.1858310E+03  0.7546771E-02  0.1393122E+00
          2   -1    0    0  502    0  0.00000000000E+00  0.00000000000E+00  0.99983146178E+03  0.99983146178E+03  0.00000000000E+00 0. -1.
          2   -1    0    0  503    0 -0.00000000000E+00 -0.00000000000E+00 -0.88308978890E+03  0.88308978890E+03  0.00000000000E+00 0. -1.
         24    2    1    2    0    0 -0.44762172429E+02  0.59473262682E+02  0.57403440727E+02  0.12461095800E+03  0.81804735753E+02 0.  0.
         25    2    1    2    0    0  0.49558930798E+01  0.30060396716E+03 -0.41445913368E+02  0.32822448537E+03  0.12500497234E+03 0.  0.
         24    2    1    2    0    0  0.16317841815E+03 -0.20580476114E+03  0.13467005961E+02  0.27532009755E+03  0.81467785123E+02 0.  0.
        -11    1    5    5    0    0  0.13862915514E+03 -0.18215967555E+03 -0.17084157017E+02  0.22954750809E+03  0.00000000000E+00 0.  1.
         12    1    5    5    0    0  0.24549263010E+02 -0.23645085582E+02  0.30551162978E+02  0.45772589459E+02  0.00000000000E+00 0. -1.
        -13    1    3    3    0    0  0.12353202549E+01  0.63950919817E+02  0.27910442430E+02  0.69787097362E+02  0.00000000000E+00 0.  1.
         14    1    3    3    0    0 -0.45997492684E+02 -0.44776571347E+01  0.29492998297E+02  0.54823860637E+02  0.00000000000E+00 0. -1.
          5    1    4    4  501    0 -0.25917221324E+02  0.21738172394E+03 -0.77528728218E+02  0.23229143326E+03  0.47000000000E+01 0.  1.
         -5    1    4    4    0  501  0.30873114404E+02  0.83222243219E+02  0.36082814850E+02  0.95933052109E+02  0.47000000000E+01 0.  1.
          1    1    1    2  502    0 -0.10327895457E+03 -0.15517445026E+03  0.60685559600E+03  0.63483806350E+03  0.00000000000E+00 0. -1.
          1    1    1    2  503    0 -0.20093184224E+02  0.90198154760E+00 -0.51953845644E+03  0.51992764626E+03  0.00000000000E+00 0. -1.
<mgrwt>
<rscale>  0 0.61136710E+02</rscale>
<asrwt>0</asrwt>
<pdfrwt beam="1">  1        2 0.14703404E+00 0.18583103E+03</pdfrwt>
<pdfrwt beam="2">  1        2 0.12986614E+00 0.20113419E+02</pdfrwt>
<totfact> 0.16366684E+02</totfact>
</mgrwt>
</event>
<event>
13    1  0.1675423E-008  0.1112290E+03  0.7546771E-02  0.1296814E+00
          2   -1    0    0  503    0  0.00000000000E+00  0.00000000000E+00  0.34440464499E+04  0.34440464499E+04  0.00000000000E+00 0. -1.
          2   -1    0    0  502    0 -0.00000000000E+00 -0.00000000000E+00 -0.33425573512E+04  0.33425573512E+04  0.00000000000E+00 0. -1.
         24    2    1    2    0    0  0.10004562420E+04  0.87804287900E+02  0.13717085644E+04  0.17019495834E+04  0.80160550922E+02 0.  0.
         25    2    1    2    0    0  0.25278924647E+02 -0.91262918119E+02 -0.83173906687E+03  0.84639395626E+03  0.12499963837E+03 0.  0.
         24    2    1    2    0    0 -0.11682084697E+04 -0.40816519309E+02  0.12353474963E+03  0.11782955861E+04  0.82113561331E+02 0.  0.
        -11    1    5    5    0    0 -0.10697257529E+04 -0.18436690366E+02  0.99644548064E+02  0.10745148365E+04  0.00000000000E+00 0.  1.
         12    1    5    5    0    0 -0.98482716760E+02 -0.22379828943E+02  0.23890201567E+02  0.10378074954E+03  0.00000000000E+00 0. -1.
        -13    1    3    3    0    0  0.33948113682E+03  0.66204600087E+01  0.41329703864E+03  0.53488850698E+03  0.00000000000E+00 0.  1.
         14    1    3    3    0    0  0.66097510519E+03  0.81183827891E+02  0.95841152571E+03  0.11670610765E+04  0.00000000000E+00 0. -1.
          5    1    4    4  501    0 -0.30365805894E+02 -0.70900057860E+01 -0.57381156133E+02  0.65475471963E+02  0.47000000000E+01 0.  1.
         -5    1    4    4    0  501  0.55644730541E+02 -0.84172912333E+02 -0.77435791073E+03  0.78091848430E+03  0.47000000000E+01 0.  1.
          1    1    1    2  502    0  0.75280585156E+02  0.81863600563E+02 -0.18080931757E+04  0.18115103498E+04  0.00000000000E+00 0. -1.
          1    1    1    2  503    0  0.67192717847E+02 -0.37588451035E+02  0.12460780272E+04  0.12484543255E+04  0.00000000000E+00 0. -1.
<mgrwt>
<rscale>  0 0.92540456E+02</rscale>
<asrwt>0</asrwt>
<pdfrwt beam="1">  1        2 0.50647742E+00 0.76991902E+02</pdfrwt>
<pdfrwt beam="2">  1        2 0.49155255E+00 0.11122905E+03</pdfrwt>
<totfact> 0.49259842E-01</totfact>
</mgrwt>
</event>
<event>
13    1  0.1675423E-008  0.1298384E+03  0.7546771E-02  0.1276579E+00
          2   -1    0    0  503    0  0.00000000000E+00  0.00000000000E+00  0.51214107446E+03  0.51214107446E+03  0.00000000000E+00 0. -1.
          2   -1    0    0  502    0 -0.00000000000E+00 -0.00000000000E+00 -0.23665929344E+04  0.23665929344E+04  0.00000000000E+00 0. -1.
         24    2    1    2    0    0 -0.51329394497E+02  0.34413188535E+02  0.26339506272E+03  0.28223793523E+03  0.80388548529E+02 0.  0.
         25    2    1    2    0    0  0.11511891997E+03  0.11046112449E+03 -0.82358432151E+03  0.84815218671E+03  0.12496788157E+03 0.  0.
         24    2    1    2    0    0  0.94665802365E+01  0.47568767357E+01 -0.39089407552E+03  0.39834752618E+03  0.75962683721E+02 0.  0.
        -13    1    5    5    0    0 -0.12071521097E+02  0.24687836696E+02 -0.58201065761E+02  0.64362838331E+02  0.00000000000E+00 0.  1.
         14    1    5    5    0    0  0.21538101333E+02 -0.19930959960E+02 -0.33269300976E+03  0.33398468784E+03  0.00000000000E+00 0. -1.
        -13    1    3    3    0    0 -0.96328624825E+00 -0.23766363620E+02  0.49415925923E+02  0.54842517219E+02  0.00000000000E+00 0.  1.
         14    1    3    3    0    0 -0.50366108249E+02  0.58179552156E+02  0.21397913679E+03  0.22739541801E+03  0.00000000000E+00 0. -1.
          5    1    4    4  501    0 -0.83633436989E+01 -0.18825297120E+02 -0.52347782945E+02  0.56451020440E+02  0.47000000000E+01 0.  1.
         -5    1    4    4    0  501  0.12348226367E+03  0.12928642161E+03 -0.77123653857E+03  0.79170116627E+03  0.47000000000E+01 0.  1.
          1    1    1    2  502    0  0.41253209326E+02 -0.71408453375E+02 -0.11034650794E+04  0.11065424420E+04  0.00000000000E+00 0. -1.
          1    1    1    2  503    0 -0.11450931503E+03 -0.78222736390E+02  0.20009655377E+03  0.24345391874E+03  0.00000000000E+00 0. -1.
<mgrwt>
<rscale>  0 0.10178887E+03</rscale>
<asrwt>0</asrwt>
<pdfrwt beam="1">  1        2 0.75314863E-01 0.12983841E+03</pdfrwt>
<pdfrwt beam="2">  1        2 0.34802838E+00 0.79798992E+02</pdfrwt>
<totfact> 0.62662426E+01</totfact>
</mgrwt>
</event>
<event>
13    1  0.1675423E-008  0.1294210E+03  0.7546771E-02  0.1416926E+00
         -1   -1    0    0    0  501  0.00000000000E+00  0.00000000000E+00  0.22089425022E+04  0.22089425022E+04  0.00000000000E+00 0.  1.
         -1   -1    0    0    0  502 -0.00000000000E+00 -0.00000000000E+00 -0.13491421062E+04  0.13491421062E+04  0.00000000000E+00 0.  1.
         24    2    1    2    0    0  0.50324376864E+02  0.13234141078E+03  0.46819378089E+03  0.49548787872E+03  0.79095066707E+02 0.  0.
         25    2    1    2    0    0 -0.17939081737E+03 -0.25761029395E+03 -0.10480874056E+04  0.11012071067E+04  0.12500301237E+03 0.  0.
         24    2    1    2    0    0  0.24095232085E+02  0.39169970101E+02  0.45294048440E+03  0.46249255308E+03  0.81421204084E+02 0.  0.
        -13    1    5    5    0    0  0.24841787057E+02  0.58485504610E+02  0.22697388671E+03  0.23570068707E+03  0.00000000000E+00 0.  1.
         14    1    5    5    0    0 -0.74655497193E+00 -0.19315534509E+02  0.22596659769E+03  0.22679186601E+03  0.00000000000E+00 0. -1.
        -13    1    3    3    0    0 -0.89876084533E+01  0.67029847169E+02  0.27350146826E+03  0.28173894061E+03  0.00000000000E+00 0.  1.
         14    1    3    3    0    0  0.59311985317E+02  0.65311563607E+02  0.19469231263E+03  0.21374893811E+03  0.00000000000E+00 0. -1.
          5    1    4    4  503    0 -0.17687952510E+03 -0.26901406107E+03 -0.10301126382E+04  0.10792632065E+04  0.47000000000E+01 0. -1.
         -5    1    4    4    0  503 -0.25112922674E+01  0.11403767115E+02 -0.17974767418E+02  0.21943900223E+02  0.47000000000E+01 0. -1.
         -2    1    1    2    0  502 -0.22054818146E+02  0.93426379728E+01 -0.25106891085E+03  0.25220883783E+03  0.00000000000E+00 0.  1.
         -2    1    1    2    0  501  0.12702602657E+03  0.76756275100E+02  0.12378224471E+04  0.12466882320E+04  0.00000000000E+00 0.  1.
<mgrwt>
<rscale>  0 0.55676712E+02</rscale>
<asrwt>0</asrwt>
<pdfrwt beam="1">  1       -1 0.32484449E+00 0.12942101E+03</pdfrwt>
<pdfrwt beam="2">  1       -1 0.19840325E+00 0.23952033E+02</pdfrwt>
<totfact> 0.53846711E-02</totfact>
</mgrwt>
</event>
<event>
13    1  0.1675423E-008  0.1057612E+03  0.7546771E-02  0.1290867E+00
          2   -1    0    0  502    0  0.00000000000E+00  0.00000000000E+00  0.47561033887E+03  0.47561033887E+03  0.00000000000E+00 0. -1.
          2   -1    0    0  503    0 -0.00000000000E+00 -0.00000000000E+00 -0.23308949988E+04  0.23308949988E+04  0.00000000000E+00 0. -1.
         24    2    1    2    0    0  0.30062768835E+01 -0.16654201148E+03  0.10244348027E+03  0.21135233326E+03  0.80186425505E+02 0.  0.
         25    2    1    2    0    0 -0.15294967260E+03  0.86722708484E+02  0.51555201525E+02  0.22178753270E+03  0.12496935761E+03 0.  0.
         24    2    1    2    0    0 -0.32330954337E+02  0.98060817152E+01 -0.35183940615E+03  0.36231463793E+03  0.79620847093E+02 0.  0.
        -11    1    5    5    0    0 -0.35392895850E+02 -0.24557443587E+02 -0.11186240842E+03  0.11987044477E+03  0.00000000000E+00 0.  1.
         12    1    5    5    0    0  0.30619415129E+01  0.34363525303E+02 -0.23997699773E+03  0.24244419316E+03  0.00000000000E+00 0. -1.
        -13    1    3    3    0    0 -0.19577971855E+01 -0.48465661305E+00  0.30075463295E+02  0.30143015016E+02  0.00000000000E+00 0.  1.
         14    1    3    3    0    0  0.49640740690E+01 -0.16605735487E+03  0.72368016979E+02  0.18120931825E+03  0.00000000000E+00 0. -1.
          5    1    4    4  501    0 -0.30885377823E+02  0.30469779084E-01  0.64267183683E+02  0.71458158319E+02  0.47000000000E+01 0.  1.
         -5    1    4    4    0  501 -0.12206429477E+03  0.86692238705E+02 -0.12711982159E+02  0.15032937438E+03  0.47000000000E+01 0.  1.
          1    1    1    2  502    0  0.67976186975E+02  0.73371749685E+02  0.16071626148E+03  0.18929842142E+03  0.00000000000E+00 0. -1.
          1    1    1    2  503    0  0.11429816307E+03 -0.33585284016E+01 -0.18181601971E+04  0.18217524124E+04  0.00000000000E+00 0. -1.
<mgrwt>
<rscale>  0 0.95137277E+02</rscale>
<asrwt>0</asrwt>
<pdfrwt beam="1">  1        2 0.69942698E-01 0.10576118E+03</pdfrwt>
<pdfrwt beam="2">  1        2 0.34277867E+00 0.85580564E+02</pdfrwt>
<totfact> 0.70215258E+01</totfact>
</mgrwt>
</event>
<event>
13    1  0.1675423E-008  0.7535118E+02  0.7546771E-02  0.1360780E+00
          2   -1    0    0  502    0  0.00000000000E+00  0.00000000000E+00  0.15983748984E+04  0.15983748984E+04  0.00000000000E+00 0. -1.
          2   -1    0    0  503    0 -0.00000000000E+00 -0.00000000000E+00 -0.12593797387E+04  0.12593797387E+04  0.00000000000E+00 0. -1.
         24    2    1    2    0    0 -0.10956028528E+02 -0.61706792619E+02  0.81542645187E+00  0.10075913382E+03  0.78892175224E+02 0.  0.
         25    2    1    2    0    0  0.98850560887E+02 -0.10967891016E+03 -0.52542772146E+03  0.55991133957E+03  0.12500208393E+03 0.  0.
         24    2    1    2    0    0 -0.53196257140E+02  0.69331715055E+02 -0.93347834012E+02  0.15124828238E+03  0.80780544201E+02 0.  0.
        -11    1    5    5    0    0 -0.12324629317E+02 -0.17871241309E+02 -0.10075035921E+02  0.23932908359E+02  0.00000000000E+00 0.  1.
         12    1    5    5    0    0 -0.40871627823E+02  0.87202956364E+02 -0.83272798091E+02  0.12731537402E+03  0.00000000000E+00 0. -1.
        -13    1    3    3    0    0  0.14329650254E+02 -0.63907669637E+02  0.20512440857E+02  0.68631547737E+02  0.00000000000E+00 0.  1.
         14    1    3    3    0    0 -0.25285678782E+02  0.22008770179E+01 -0.19697014405E+02  0.32127586084E+02  0.00000000000E+00 0. -1.
          5    1    4    4  501    0  0.11771509169E+03 -0.65758128404E+02 -0.45561518000E+03  0.47517181788E+03  0.47000000000E+01 0.  1.
         -5    1    4    4    0  501 -0.18864530801E+02 -0.43920781752E+02 -0.69812541459E+02  0.84739521695E+02  0.47000000000E+01 0.  1.
          1    1    1    2  502    0  0.26666143328E+02  0.58899343738E+02  0.14981107479E+04  0.14995052614E+04  0.00000000000E+00 0. -1.
          1    1    1    2  503    0 -0.61364418548E+02  0.43154643983E+02 -0.54115545922E+03  0.54633061987E+03  0.00000000000E+00 0. -1.
<mgrwt>
<rscale>  0 0.69798276E+02</rscale>
<asrwt>0</asrwt>
<pdfrwt beam="1">  1        2 0.23505513E+00 0.64654589E+02</pdfrwt>
<pdfrwt beam="2">  1        2 0.18520290E+00 0.75351175E+02</pdfrwt>
<totfact> 0.49987523E+01</totfact>
</mgrwt>
</event>
<event>
13    1  0.1675423E-008  0.1704477E+03  0.7546771E-02  0.1257654E+00
          2   -1    0    0  503    0  0.00000000000E+00  0.00000000000E+00  0.15852688272E+04  0.15852688272E+04  0.00000000000E+00 0. -1.
          2   -1    0    0  502    0 -0.00000000000E+00 -0.00000000000E+00 -0.96723640405E+03  0.96723640405E+03  0.00000000000E+00 0. -1.
         24    2    1    2    0    0  0.15535448477E+03  0.10863381814E+03  0.92619183928E+03  0.94858727008E+03  0.77782796419E+02 0.  0.
         25    2    1    2    0    0 -0.44063469174E+03 -0.12643131670E+03 -0.92171037561E+02  0.48401157831E+03  0.12501159294E+03 0.  0.
         24    2    1    2    0    0  0.43819899319E+02  0.17106688982E+01  0.86436941450E+02  0.12381822048E+03  0.77048665866E+02 0.  0.
        -13    1    5    5    0    0 -0.14678694256E+02 -0.15623265462E+02  0.45636081179E+02  0.50420257775E+02  0.00000000000E+00 0.  1.
         14    1    5    5    0    0  0.58498593575E+02  0.17333934360E+02  0.40800860272E+02  0.73397962707E+02  0.00000000000E+00 0. -1.
        -13    1    3    3    0    0 -0.68142903204E+01  0.37733567750E+01  0.92197355630E+02  0.92525808070E+02  0.00000000000E+00 0.  1.
         14    1    3    3    0    0  0.16216877509E+03  0.10486046137E+03  0.83399448365E+03  0.85606146201E+03  0.00000000000E+00 0. -1.
          5    1    4    4  501    0 -0.60307611815E+02  0.24171245155E+02 -0.23214430723E+02  0.69153864165E+02  0.47000000000E+01 0. -1.
         -5    1    4    4    0  501 -0.38032707992E+03 -0.15060256185E+03 -0.68956606837E+02  0.41485771415E+03  0.47000000000E+01 0. -1.
          1    1    1    2  502    0  0.16841662561E+03  0.17458844785E+02 -0.63417515983E+03  0.65638944567E+03  0.00000000000E+00 0. -1.
          1    1    1    2  503    0  0.73043682050E+02 -0.13720151319E+01  0.33174983981E+03  0.33969871669E+03  0.00000000000E+00 0. -1.
<mgrwt>
<rscale>  0 0.11158998E+03</rscale>
<asrwt>0</asrwt>
<pdfrwt beam="1">  1        2 0.23312777E+00 0.73056567E+02</pdfrwt>
<pdfrwt beam="2">  1        2 0.14224065E+00 0.17044769E+03</pdfrwt>
<totfact> 0.69616077E+01</totfact>
</mgrwt>
</event>
<event>
13    1  0.1675423E-008  0.3552268E+03  0.7546771E-02  0.1190884E+00
          2   -1    0    0  503    0  0.00000000000E+00  0.00000000000E+00  0.17351105060E+04  0.17351105060E+04  0.00000000000E+00 0. -1.
          2   -1    0    0  502    0 -0.00000000000E+00 -0.00000000000E+00 -0.20793875201E+04  0.20793875201E+04  0.00000000000E+00 0. -1.
         24    2    1    2    0    0 -0.11868162200E+02 -0.85581577778E+02 -0.50288168957E+02  0.12888477583E+03  0.81346946925E+02 0.  0.
         25    2    1    2    0    0  0.62422226329E+02 -0.25253775007E+03  0.34486167664E+03  0.44969648694E+03  0.12500201919E+03 0.  0.
         24    2    1    2    0    0  0.20566997218E+03  0.32753655920E+02 -0.16883403585E+03  0.28008651021E+03  0.81059127251E+02 0.  0.
        -11    1    5    5    0    0  0.17177179584E+03  0.44161229379E+02 -0.16802436081E+03  0.24431117423E+03  0.00000000000E+00 0.  1.
         12    1    5    5    0    0  0.33898176336E+02 -0.11407573460E+02 -0.80967503766E+00  0.35775335985E+02  0.00000000000E+00 0. -1.
        -13    1    3    3    0    0  0.20461637859E+02  0.46908227170E+01 -0.86565458665E+00  0.21010278425E+02  0.00000000000E+00 0.  1.
         14    1    3    3    0    0 -0.32329800059E+02 -0.90272400495E+02 -0.49422514370E+02  0.10787449740E+03  0.00000000000E+00 0. -1.
          5    1    4    4  501    0  0.47046146313E+02 -0.26098326550E+03  0.29536875952E+03  0.39697657217E+03  0.47000000000E+01 0. -1.
         -5    1    4    4    0  501  0.15376080015E+02  0.84455154354E+01  0.49492917126E+02  0.52719914769E+02  0.47000000000E+01 0. -1.
          1    1    1    2  502    0 -0.27351515774E+03  0.23717843329E+03 -0.16927724382E+04  0.17310524770E+04  0.00000000000E+00 0. -1.
          1    1    1    2  503    0  0.17291121439E+02  0.68187238631E+02  0.12227559521E+04  0.12247777761E+04  0.00000000000E+00 0. -1.
<mgrwt>
<rscale>  0 0.15807780E+03</rscale>
<asrwt>0</asrwt>
<pdfrwt beam="1">  1        2 0.25516331E+00 0.70345450E+02</pdfrwt>
<pdfrwt beam="2">  1        2 0.30579228E+00 0.35522681E+03</pdfrwt>
<totfact> 0.14596817E+01</totfact>
</mgrwt>
</event>
<event>
13    1  0.1675423E-008  0.2114264E+03  0.7546771E-02  0.1201794E+00
          2   -1    0    0  502    0  0.00000000000E+00  0.00000000000E+00  0.18160495054E+04  0.18160495054E+04  0.00000000000E+00 0. -1.
          2   -1    0    0  503    0 -0.00000000000E+00 -0.00000000000E+00 -0.34173955796E+04  0.34173955796E+04  0.00000000000E+00 0. -1.
         24    2    1    2    0    0  0.56966336396E+02 -0.85550990546E+02  0.18679438777E+03  0.22842812929E+03  0.81994703978E+02 0.  0.
         25    2    1    2    0    0 -0.90273742932E+02  0.15615470920E+03 -0.84099827861E+03  0.86915882349E+03  0.12500125584E+03 0.  0.
         24    2    1    2    0    0 -0.49892898875E+02 -0.15364457573E+03 -0.22575390509E+03  0.28910372023E+03  0.80747621492E+02 0.  0.
        -11    1    5    5    0    0  0.86515424151E+01 -0.99259857590E+02 -0.10961961290E+03  0.14813449310E+03  0.00000000000E+00 0.  1.
         12    1    5    5    0    0 -0.58544441290E+02 -0.54384718141E+02 -0.11613429220E+03  0.14096922713E+03  0.00000000000E+00 0. -1.
        -13    1    3    3    0    0  0.77317519892E+02 -0.61575436686E+02  0.15400972206E+03  0.18299870976E+03  0.00000000000E+00 0.  1.
         14    1    3    3    0    0 -0.20351183496E+02 -0.23975553860E+02  0.32784665713E+02  0.45429419526E+02  0.00000000000E+00 0. -1.
          5    1    4    4  501    0 -0.98738601519E+02  0.86375310863E+02 -0.69206009387E+03  0.70439993561E+03  0.47000000000E+01 0. -1.
         -5    1    4    4    0  501  0.84648585872E+01  0.69779398340E+02 -0.14893818474E+03  0.16475888789E+03  0.47000000000E+01 0. -1.
          1    1    1    2  502    0 -0.63507415325E+02 -0.83499783982E+02  0.15555205622E+04  0.15590540802E+04  0.00000000000E+00 0. -1.
          1    1    1    2  503    0  0.14670772074E+03  0.16654064106E+03 -0.22769088404E+04  0.22877003317E+04  0.00000000000E+00 0. -1.
<mgrwt>
<rscale>  0 0.14892962E+03</rscale>
<asrwt>0</asrwt>
<pdfrwt beam="1">  1        2 0.26706611E+00 0.10490665E+03</pdfrwt>
<pdfrwt beam="2">  1        2 0.50255816E+00 0.21142636E+03</pdfrwt>
<totfact> 0.26105684E+00</totfact>
</mgrwt>
</event>
<event>
13    1  0.1675423E-008  0.1709223E+03  0.7546771E-02  0.1225197E+00
          2   -1    0    0  502    0  0.00000000000E+00  0.00000000000E+00  0.30585960338E+04  0.30585960338E+04  0.00000000000E+00 0. -1.
          2   -1    0    0  503    0 -0.00000000000E+00 -0.00000000000E+00 -0.23261827141E+03  0.23261827141E+03  0.00000000000E+00 0. -1.
         24    2    1    2    0    0 -0.10647767385E+03 -0.19342915192E+02  0.16300753895E+03  0.21139952076E+03  0.80041590604E+02 0.  0.
         25    2    1    2    0    0  0.25034704257E+03  0.38624555874E+03  0.83296720908E+03  0.95985172944E+03  0.12498679027E+03 0.  0.
         24    2    1    2    0    0  0.35462942593E+02 -0.23926861176E+02  0.11370359028E+03  0.14364212058E+03  0.76644878354E+02 0.  0.
        -11    1    5    5    0    0 -0.24425335221E+02 -0.79405171123E+01  0.36591557215E+02  0.44705602245E+02  0.00000000000E+00 0.  1.
         12    1    5    5    0    0  0.59888277814E+02 -0.15986344063E+02  0.77112033070E+02  0.98936518335E+02  0.00000000000E+00 0. -1.
        -11    1    3    3    0    0 -0.40310423663E+02  0.29510128500E+02  0.43015307643E+02  0.65924916622E+02  0.00000000000E+00 0.  1.
         12    1    3    3    0    0 -0.66167250190E+02 -0.48853043691E+02  0.11999223131E+03  0.14547460414E+03  0.00000000000E+00 0. -1.
          5    1    4    4  501    0  0.26459956895E+03  0.36280591738E+03  0.78108489739E+03  0.90097545611E+03  0.47000000000E+01 0.  1.
         -5    1    4    4    0  501 -0.14252526388E+02  0.23439641367E+02  0.51882311689E+02  0.58876273337E+02  0.47000000000E+01 0.  1.
          1    1    1    2  502    0 -0.89967736028E+01 -0.10067644770E+03  0.16741002308E+04  0.16771488520E+04  0.00000000000E+00 0. -1.
          1    1    1    2  503    0 -0.17033553770E+03 -0.24229933467E+03  0.42199193288E+02  0.29917208242E+03  0.00000000000E+00 0. -1.
<mgrwt>
<rscale>  0 0.13153413E+03</rscale>
<asrwt>0</asrwt>
<pdfrwt beam="1">  1        2 0.44979351E+00 0.10122278E+03</pdfrwt>
<pdfrwt beam="2">  1        2 0.34208571E-01 0.17092226E+03</pdfrwt>
<totfact> 0.62662878E+01</totfact>
</mgrwt>
</event>
<event>
13    1  0.1675423E-008  0.1785794E+03  0.7546771E-02  0.1202418E+00
          2   -1    0    0  503    0  0.00000000000E+00  0.00000000000E+00  0.48439220819E+04  0.48439220819E+04  0.00000000000E+00 0. -1.
         -1   -1    0    0    0  501 -0.00000000000E+00 -0.00000000000E+00 -0.12016945696E+03  0.12016945696E+03  0.00000000000E+00 0.  1.
         24    2    1    2    0    0  0.35603696987E+02 -0.34207372731E+02  0.83144559927E+03  0.83673943904E+03  0.79958343535E+02 0.  0.
         25    2    1    2    0    0  0.19538380357E+03  0.36056350764E+03  0.15490625125E+04  0.16072961405E+04  0.12500136746E+03 0.  0.
         24    2    1    2    0    0  0.73927308930E+02 -0.67601295712E+02  0.10229553851E+03  0.16497645255E+03  0.81961396465E+02 0.  0.
        -11    1    3    3    0    0 -0.23777965155E+02 -0.18355997466E+02  0.19049795983E+03  0.19285177461E+03  0.00000000000E+00 0.  1.
         12    1    3    3    0    0  0.59381662142E+02 -0.15851375266E+02  0.64094763945E+03  0.64388766443E+03  0.00000000000E+00 0. -1.
        -13    1    5    5    0    0 -0.40980136709E+01 -0.48726501195E+02  0.43828089129E+02  0.65665569604E+02  0.00000000000E+00 0.  1.
         14    1    5    5    0    0  0.78025322601E+02 -0.18874794517E+02  0.58467449383E+02  0.99310882950E+02  0.00000000000E+00 0. -1.
          5    1    4    4  502    0  0.12827611248E+03  0.33129804384E+03  0.12729926883E+04  0.13216450467E+04  0.47000000000E+01 0.  1.
         -5    1    4    4    0  502  0.67107691092E+02  0.29265463794E+02  0.27606982418E+03  0.28565109382E+03  0.47000000000E+01 0.  1.
          1    1    1    2  503    0 -0.15323737654E+03 -0.26200767815E+03  0.21636000818E+04  0.21847871820E+04  0.00000000000E+00 0. -1.
         -2    1    1    2    0  501 -0.15167743295E+03  0.32528389609E+01  0.77348892851E+02  0.17029232471E+03  0.00000000000E+00 0.  1.
<mgrwt>
<rscale>  0 0.14842791E+03</rscale>
<asrwt>0</asrwt>
<pdfrwt beam="1">  1        2 0.71234136E+00 0.17857939E+03</pdfrwt>
<pdfrwt beam="2">  1       -1 0.17671982E-01 0.12336723E+03</pdfrwt>
<totfact> 0.38743522E+00</totfact>
</mgrwt>
</event>
<event>
13    1  0.1675423E-008  0.2977559E+03  0.7546771E-02  0.1280383E+00
          2   -1    0    0  503    0  0.00000000000E+00  0.00000000000E+00  0.24043399415E+04  0.24043399415E+04  0.00000000000E+00 0. -1.
          2   -1    0    0  502    0 -0.00000000000E+00 -0.00000000000E+00 -0.31667902520E+04  0.31667902520E+04  0.00000000000E+00 0. -1.
         24    2    1    2    0    0  0.18665949908E+03  0.88540830933E+02  0.19133564257E+03  0.29290724127E+03  0.80647855100E+02 0.  0.
         25    2    1    2    0    0 -0.10132922437E+02  0.16063671829E+02 -0.15713273777E+04  0.15764059142E+04  0.12500064240E+03 0.  0.
         24    2    1    2    0    0  0.91846274524E+02  0.16323453696E+02 -0.31743662058E+02  0.12634804694E+03  0.79082081412E+02 0.  0.
        -13    1    5    5    0    0  0.16010385746E+02 -0.25707833361E+02  0.74618609603E+01  0.31191417359E+02  0.00000000000E+00 0.  1.
         14    1    5    5    0    0  0.75835888778E+02  0.42031287057E+02 -0.39205523018E+02  0.95156629582E+02  0.00000000000E+00 0. -1.
        -13    1    3    3    0    0  0.15740112768E+03  0.89714108499E+02  0.12418221854E+03  0.21964735295E+03  0.00000000000E+00 0.  1.
         14    1    3    3    0    0  0.29258371405E+02 -0.11732775658E+01  0.67153424032E+02  0.73259888320E+02  0.00000000000E+00 0. -1.
          5    1    4    4  501    0 -0.10687076539E+02  0.63698435954E+02 -0.12341007822E+04  0.12357987437E+04  0.47000000000E+01 0.  1.
         -5    1    4    4    0  501  0.55415410212E+00 -0.47634764125E+02 -0.33722659549E+03  0.34060717043E+03  0.47000000000E+01 0.  1.
          1    1    1    2  502    0  0.31735888368E+02 -0.10903194309E+02 -0.14508049179E+04  0.14511929424E+04  0.00000000000E+00 0. -1.
          1    1    1    2  503    0 -0.30010873954E+03 -0.11002476215E+03  0.21000900046E+04  0.21242760488E+04  0.00000000000E+00 0. -1.
<mgrwt>
<rscale>  0 0.99958386E+02</rscale>
<asrwt>0</asrwt>
<pdfrwt beam="1">  1        2 0.35357940E+00 0.29775588E+03</pdfrwt>
<pdfrwt beam="2">  1        2 0.46570445E+00 0.33556613E+02</pdfrwt>
<totfact> 0.22757039E+00</totfact>
</mgrwt>
</event>
<event>
13    1  0.1675423E-008  0.1182452E+03  0.7546771E-02  0.1380466E+00
          2   -1    0    0  503    0  0.00000000000E+00  0.00000000000E+00  0.20628785976E+04  0.20628785976E+04  0.00000000000E+00 0. -1.
          2   -1    0    0  502    0 -0.00000000000E+00 -0.00000000000E+00 -0.12208564009E+04  0.12208564009E+04  0.00000000000E+00 0. -1.
         24    2    1    2    0    0 -0.82064111868E+02  0.16744849813E+02  0.10262252820E+03  0.15655566889E+03  0.83446903558E+02 0.  0.
         25    2    1    2    0    0  0.89078070943E+02  0.14512846205E+03 -0.32717854871E+03  0.38944479430E+03  0.12499708737E+03 0.  0.
         24    2    1    2    0    0 -0.28211898593E+02 -0.33759928129E+02  0.82808126938E+02  0.12219002984E+03  0.78342667409E+02 0.  0.
        -11    1    3    3    0    0 -0.67905095698E+01  0.12346034845E+02 -0.12568014596E+02  0.18880958331E+02  0.00000000000E+00 0.  1.
         12    1    3    3    0    0 -0.75273602298E+02  0.43988149684E+01  0.11519054280E+03  0.13767471055E+03  0.00000000000E+00 0. -1.
        -13    1    5    5    0    0 -0.46427454387E+02  0.19158010359E+01  0.60678029912E+02  0.76426449142E+02  0.00000000000E+00 0.  1.
         14    1    5    5    0    0  0.18215555794E+02 -0.35675729165E+02  0.22130097026E+02  0.45763580702E+02  0.00000000000E+00 0. -1.
          5    1    4    4  501    0  0.65610647925E+02  0.15661926515E+03 -0.21416787027E+03  0.27335749120E+03  0.47000000000E+01 0.  1.
         -5    1    4    4    0  501  0.23467423019E+02 -0.11490803107E+02 -0.11301067844E+03  0.11608730310E+03  0.47000000000E+01 0.  1.
          1    1    1    2  502    0  0.34048854252E+02 -0.81486146351E+01 -0.81348812313E+03  0.81424115032E+03  0.00000000000E+00 0. -1.
          1    1    1    2  503    0 -0.12850914734E+02 -0.11996476910E+03  0.17972582134E+04  0.18013033552E+04  0.00000000000E+00 0. -1.
<mgrwt>
<rscale>  0 0.64341314E+02</rscale>
<asrwt>0</asrwt>
<pdfrwt beam="1">  1        2 0.30336450E+00 0.11824518E+03</pdfrwt>
<pdfrwt beam="2">  1        2 0.17953771E+00 0.35010347E+02</pdfrwt>
<totfact> 0.31059692E+01</totfact>
</mgrwt>
</event>
<event>
13    1  0.1675423E-008  0.8470186E+02  0.7546771E-02  0.1487769E+00
          2   -1    0    0  503    0  0.00000000000E+00  0.00000000000E+00  0.33598604948E+04  0.33598604948E+04  0.00000000000E+00 0. -1.
          2   -1    0    0  502    0 -0.00000000000E+00 -0.00000000000E+00 -0.63816296288E+03  0.63816296288E+03  0.00000000000E+00 0. -1.
         24    2    1    2    0    0  0.49850778525E+03 -0.48746476319E+03  0.14479239045E+04  0.16087032540E+04  0.72873993131E+02 0.  0.
         25    2    1    2    0    0  0.13941155986E+03  0.28292112958E+02  0.14939387204E+03  0.24120584643E+03  0.12500281866E+03 0.  0.
         24    2    1    2    0    0 -0.59004411310E+03  0.53146366395E+03  0.51281382214E+02  0.79997587413E+03  0.82011813332E+02 0.  0.
        -11    1    3    3    0    0  0.33506512681E+03 -0.30527893565E+03  0.86750242452E+03  0.97878717008E+03  0.00000000000E+00 0.  1.
         12    1    3    3    0    0  0.16344265844E+03 -0.18218582754E+03  0.58042147999E+03  0.62991608392E+03  0.00000000000E+00 0. -1.
        -11    1    5    5    0    0 -0.83424128778E+02  0.65665598745E+02 -0.20173812579E+02  0.10806728846E+03  0.00000000000E+00 0.  1.
         12    1    5    5    0    0 -0.50661998432E+03  0.46579806520E+03  0.71455194793E+02  0.69190858567E+03  0.00000000000E+00 0. -1.
          5    1    4    4  501    0  0.14995406113E+03  0.41609200511E+02  0.15780342369E+03  0.22167894926E+03  0.47000000000E+01 0. -1.
         -5    1    4    4    0  501 -0.10542501277E+02 -0.13317087553E+02 -0.84095516508E+01  0.19526897169E+02  0.47000000000E+01 0. -1.
          1    1    1    2  502    0 -0.62979865135E+02 -0.56645469776E+02 -0.12436808985E+03  0.15047456407E+03  0.00000000000E+00 0. -1.
          1    1    1    2  503    0  0.15104633129E+02 -0.15645543940E+02  0.11974664630E+04  0.11976639190E+04  0.00000000000E+00 0. -1.
<mgrwt>
<rscale>  0 0.42918681E+02</rscale>
<asrwt>0</asrwt>
<pdfrwt beam="1">  1        2 0.49409712E+00 0.21747022E+02</pdfrwt>
<pdfrwt beam="2">  1        2 0.93847496E-01 0.84701857E+02</pdfrwt>
<totfact> 0.19481888E+01</totfact>
</mgrwt>
</event>
<event>
13    1  0.1675423E-008  0.7237702E+02  0.7546771E-02  0.1417533E+00
          2   -1    0    0  503    0  0.00000000000E+00  0.00000000000E+00  0.59263530984E+03  0.59263530984E+03  0.00000000000E+00 0. -1.
          2   -1    0    0  502    0 -0.00000000000E+00 -0.00000000000E+00 -0.83875996442E+03  0.83875996442E+03  0.00000000000E+00 0. -1.
         24    2    1    2    0    0 -0.58403653085E+02 -0.27445811561E+03 -0.30093052935E+01  0.29023430980E+03  0.74085455722E+02 0.  0.
         25    2    1    2    0    0  0.20634714528E+03  0.31001921100E+03 -0.13873072374E+03  0.41660894558E+03  0.12500297705E+03 0.  0.
         24    2    1    2    0    0 -0.12020555627E+03 -0.20308063126E+02  0.31705269409E+02  0.14936860494E+03  0.80274297547E+02 0.  0.
        -11    1    5    5    0    0 -0.12009048999E+03 -0.35791683803E+02  0.40334842531E+02  0.13164220424E+03  0.00000000000E+00 0.  1.
         12    1    5    5    0    0 -0.11506628442E+00  0.15483620677E+02 -0.86295731227E+01  0.17726400700E+02  0.00000000000E+00 0. -1.
        -13    1    3    3    0    0 -0.16848766582E+02 -0.48693701757E+02 -0.29139208761E+02  0.59195025241E+02  0.00000000000E+00 0.  1.
         14    1    3    3    0    0 -0.41554886503E+02 -0.22576441385E+03  0.26129903467E+02  0.23103928456E+03  0.00000000000E+00 0. -1.
          5    1    4    4  501    0  0.15662410780E+03  0.12964583870E+03 -0.49738899657E+02  0.20936858116E+03  0.47000000000E+01 0.  1.
         -5    1    4    4    0  501  0.49723037479E+02  0.18037337230E+03 -0.88991824087E+02  0.20724036442E+03  0.47000000000E+01 0.  1.
          1    1    1    2  502    0  0.42363974050E+02  0.47507314994E+01 -0.34824929603E+03  0.35084875364E+03  0.00000000000E+00 0. -1.
          1    1    1    2  503    0 -0.70101909976E+02 -0.20003763766E+02  0.21215940107E+03  0.22433466030E+03  0.00000000000E+00 0. -1.
<mgrwt>
<rscale>  0 0.55546356E+02</rscale>
<asrwt>0</asrwt>
<pdfrwt beam="1">  1        2 0.87152252E-01 0.72377025E+02</pdfrwt>
<pdfrwt beam="2">  1        2 0.12334705E+00 0.42629517E+02</pdfrwt>
<totfact> 0.32711187E+02</totfact>
</mgrwt>
</event>
<event>
13    1  0.1675423E-008  0.8196241E+02  0.7546771E-02  0.1423709E+00
          2   -1    0    0  503    0  0.00000000000E+00  0.00000000000E+00  0.29084404759E+04  0.29084404759E+04  0.00000000000E+00 0. -1.
          2   -1    0    0  502    0 -0.00000000000E+00 -0.00000000000E+00 -0.90234815324E+03  0.90234815324E+03  0.00000000000E+00 0. -1.
         24    2    1    2    0    0 -0.71766034181E+03  0.25351656577E+03  0.80007778508E+03  0.11089980149E+04  0.10220136744E+03 0.  0.
         25    2    1    2    0    0  0.24995457264E+03 -0.31603089195E+02 -0.26217093315E+03  0.38449474454E+03  0.12500626688E+03 0.  0.
         24    2    1    2    0    0  0.44283133025E+03 -0.16960709762E+03  0.53907067207E+03  0.72255937114E+03  0.81416833161E+02 0.  0.
        -11    1    3    3    0    0 -0.21636898617E+03  0.33988806937E+02  0.19630881919E+03  0.29412230392E+03  0.00000000000E+00 0.  1.
         12    1    3    3    0    0 -0.50129135563E+03  0.21952775883E+03  0.60376896589E+03  0.81487571095E+03  0.00000000000E+00 0. -1.
        -11    1    5    5    0    0  0.35487332125E+03 -0.10549005385E+03  0.38720801040E+03  0.53571752717E+03  0.00000000000E+00 0.  1.
         12    1    5    5    0    0  0.87958008995E+02 -0.64117043775E+02  0.15186266167E+03  0.18684184397E+03  0.00000000000E+00 0. -1.
          5    1    4    4  501    0  0.21179716018E+03 -0.27658854107E+02 -0.13773881845E+03  0.25419897989E+03  0.47000000000E+01 0. -1.
         -5    1    4    4    0  501  0.38157412464E+02 -0.39442350873E+01 -0.12443211471E+03  0.13029576465E+03  0.47000000000E+01 0. -1.
          1    1    1    2  502    0 -0.35780642277E+02  0.29175972857E+01 -0.33050480624E+03  0.33244878355E+03  0.00000000000E+00 0. -1.
          1    1    1    2  503    0  0.60655081191E+02 -0.55223976235E+02  0.12596196049E+04  0.12622877150E+04  0.00000000000E+00 0. -1.
<mgrwt>
<rscale>  0 0.54243905E+02</rscale>
<asrwt>0</asrwt>
<pdfrwt beam="1">  1        2 0.42771183E+00 0.81962413E+02</pdfrwt>
<pdfrwt beam="2">  1        2 0.13269826E+00 0.35899397E+02</pdfrwt>
<totfact> 0.18193964E+01</totfact>
</mgrwt>
</event>
<event>
13    1  0.1675423E-008  0.7125550E+02  0.7546771E-02  0.1449049E+00
         -3   -1    0    0    0  501 -0.00000000000E+00  0.00000000000E+00  0.39381077366E+03  0.39381077366E+03  0.00000000000E+00 0.  1.
          2   -1    0    0  503    0  0.00000000000E+00 -0.00000000000E+00 -0.14463322903E+04  0.14463322903E+04  0.00000000000E+00 0. -1.
         24    2    1    2    0    0  0.94765418076E+02  0.35340496427E+02 -0.92461255477E+03  0.93352698919E+03  0.79591632488E+02 0.  0.
         25    2    1    2    0    0 -0.93143023734E+02  0.51788750937E+02  0.17302942778E+03  0.23858649076E+03  0.12500653222E+03 0.  0.
         24    2    1    2    0    0 -0.55280081885E+02 -0.55215938777E+02 -0.86719246780E+02  0.13983419529E+03  0.76997967909E+02 0.  0.
        -11    1    5    5    0    0 -0.44752554096E+02  0.76538369035E+01 -0.43035391493E+02  0.62557311630E+02  0.00000000000E+00 0.  1.
         12    1    5    5    0    0 -0.10527527790E+02 -0.62869775680E+02 -0.43683855287E+02  0.77276883660E+02  0.00000000000E+00 0. -1.
        -11    1    3    3    0    0  0.58427139176E+02 -0.45311424921E+01 -0.70318335335E+03  0.70562106706E+03  0.00000000000E+00 0.  1.
         12    1    3    3    0    0  0.36338278900E+02  0.39871638919E+02 -0.22142920142E+03  0.22790592213E+03  0.00000000000E+00 0. -1.
          5    1    4    4  502    0 -0.66776425341E+02 -0.63516248397E+01  0.15959117193E+03  0.17317871196E+03  0.47000000000E+01 0. -1.
         -5    1    4    4    0  502 -0.26366598394E+02  0.58140375776E+02  0.13438255857E+02  0.65407778794E+02  0.47000000000E+01 0. -1.
          1    1    1    2  503    0  0.17227353957E+02  0.29469902488E+02 -0.36224939811E+03  0.36385420611E+03  0.00000000000E+00 0. -1.
         -4    1    1    2    0  501  0.36430333587E+02 -0.61383211074E+02  0.14803025528E+03  0.16434118256E+03  0.00000000000E+00 0.  1.
<mgrwt>
<rscale>  0 0.49319040E+02</rscale>
<asrwt>0</asrwt>
<pdfrwt beam="2">  1        2 0.21269592E+00 0.34135859E+02</pdfrwt>
<pdfrwt beam="1">  1       -3 0.57913349E-01 0.71255499E+02</pdfrwt>
<totfact> 0.32486119E+01</totfact>
</mgrwt>
</event>
<event>
13    1  0.1675423E-008  0.1008846E+03  0.7546771E-02  0.1405203E+00
          2   -1    0    0  502    0  0.00000000000E+00  0.00000000000E+00  0.25711379218E+04  0.25711379218E+04  0.00000000000E+00 0. -1.
          2   -1    0    0  503    0 -0.00000000000E+00 -0.00000000000E+00 -0.40557183352E+03  0.40557183352E+03  0.00000000000E+00 0. -1.
         24    2    1    2    0    0 -0.22777079703E+02  0.41078998650E+02  0.50851287912E+03  0.51721875220E+03  0.81997621383E+02 0.  0.
         25    2    1    2    0    0 -0.10668186082E+03 -0.74249546671E+02  0.15411992549E+03  0.23722445179E+03  0.12501389718E+03 0.  0.
         24    2    1    2    0    0 -0.25157875060E+02  0.16060136157E+02 -0.17229765554E+03  0.19367083321E+03  0.83253005220E+02 0.  0.
        -11    1    3    3    0    0  0.27099760987E+00 -0.24207009776E+02  0.10058679216E+03  0.10345895572E+03  0.00000000000E+00 0.  1.
         12    1    3    3    0    0 -0.23048077313E+02  0.65286008426E+02  0.40792608695E+03  0.41375979648E+03  0.00000000000E+00 0. -1.
        -11    1    5    5    0    0 -0.44924073469E+01 -0.32655745339E+02 -0.44738962945E+02  0.55571163681E+02  0.00000000000E+00 0.  1.
         12    1    5    5    0    0 -0.20665467713E+02  0.48715881496E+02 -0.12755869260E+03  0.13809966952E+03  0.00000000000E+00 0. -1.
          5    1    4    4  501    0 -0.39443837703E+02 -0.80753504346E+02  0.28299171166E+02  0.94339164113E+02  0.47000000000E+01 0. -1.
         -5    1    4    4    0  501 -0.67238023113E+02  0.65039576747E+01  0.12582075432E+03  0.14288528768E+03  0.47000000000E+01 0. -1.
          1    1    1    2  502    0  0.30699352749E+02 -0.13817274191E+02  0.18286570903E+04  0.18289669546E+04  0.00000000000E+00 0. -1.
          1    1    1    2  503    0  0.12391746283E+03  0.30927686055E+02 -0.15342615109E+03  0.19962876345E+03  0.00000000000E+00 0. -1.
<mgrwt>
<rscale>  0 0.58278072E+02</rscale>
<asrwt>0</asrwt>
<pdfrwt beam="1">  1        2 0.37810851E+00 0.33665521E+02</pdfrwt>
<pdfrwt beam="2">  1        2 0.59642918E-01 0.10088463E+03</pdfrwt>
<totfact> 0.72527283E+01</totfact>
</mgrwt>
</event>
<event>
13    1  0.1675423E-008  0.9073757E+02  0.7546771E-02  0.1455313E+00
          2   -1    0    0  502    0  0.00000000000E+00  0.00000000000E+00  0.25221599242E+04  0.25221599242E+04  0.00000000000E+00 0. -1.
          2   -1    0    0  503    0 -0.00000000000E+00 -0.00000000000E+00 -0.39647953926E+04  0.39647953926E+04  0.00000000000E+00 0. -1.
         24    2    1    2    0    0 -0.96009756753E+03  0.38846276810E+03 -0.78852668131E+03  0.13042082961E+04  0.80587164567E+02 0.  0.
         25    2    1    2    0    0  0.18278429152E+03 -0.10591361108E+03  0.86818316731E+01  0.24561746959E+03  0.12499910770E+03 0.  0.
         24    2    1    2    0    0  0.86811153092E+03 -0.30180817150E+03 -0.14241326873E+04  0.16974773331E+04  0.92572041482E+02 0.  0.
        -11    1    5    5    0    0  0.41474570720E+03 -0.18610463227E+03 -0.74586958954E+03  0.87348175734E+03  0.00000000000E+00 0.  1.
         12    1    5    5    0    0  0.45336582371E+03 -0.11570353923E+03 -0.67826309778E+03  0.82399557579E+03  0.00000000000E+00 0. -1.
        -13    1    3    3    0    0 -0.85812108533E+03  0.36543819587E+03 -0.68622888307E+03  0.11579408241E+04  0.00000000000E+00 0.  1.
         14    1    3    3    0    0 -0.10197648220E+03  0.23024572227E+02 -0.10229779824E+03  0.14626747203E+03  0.00000000000E+00 0. -1.
          5    1    4    4  501    0  0.77671765745E+02  0.16275773167E+02  0.25517583971E+02  0.83492760632E+02  0.47000000000E+01 0.  1.
         -5    1    4    4    0  501  0.10511252578E+03 -0.12218938425E+03 -0.16835752298E+02  0.16212470895E+03  0.47000000000E+01 0.  1.
          1    1    1    2  502    0 -0.90516308123E+02 -0.63408957850E+01  0.19993358107E+04  0.20013937876E+04  0.00000000000E+00 0. -1.
          1    1    1    2  503    0 -0.28194678811E+00  0.25599910265E+02 -0.12379937421E+04  0.12382584304E+04  0.00000000000E+00 0. -1.
<mgrwt>
<rscale>  0 0.48197660E+02</rscale>
<asrwt>0</asrwt>
<pdfrwt beam="1">  1        2 0.37090588E+00 0.90737566E+02</pdfrwt>
<pdfrwt beam="2">  1        2 0.58305814E+00 0.25601463E+02</pdfrwt>
<totfact> 0.85330577E-01</totfact>
</mgrwt>
</event>
<event>
13    1  0.1675423E-008  0.8741290E+02  0.7546771E-02  0.1383488E+00
          2   -1    0    0  502    0  0.00000000000E+00  0.00000000000E+00  0.18415827241E+04  0.18415827241E+04  0.00000000000E+00 0. -1.
          2   -1    0    0  503    0 -0.00000000000E+00 -0.00000000000E+00 -0.17974665703E+04  0.17974665703E+04  0.00000000000E+00 0. -1.
         24    2    1    2    0    0  0.12545908288E+02  0.73007008340E+02  0.26982991055E+03  0.29215789599E+03  0.84027569749E+02 0.  0.
         25    2    1    2    0    0 -0.65211184025E+02 -0.15558585765E+03  0.40638675833E+03  0.45742141658E+03  0.12499878951E+03 0.  0.
         24    2    1    2    0    0 -0.47610969476E+02 -0.64886780259E+01 -0.34739098990E+03  0.35994035914E+03  0.81041069292E+02 0.  0.
        -11    1    5    5    0    0 -0.46732408139E+02 -0.18444832418E+02 -0.96786919097E+02  0.10904970207E+03  0.00000000000E+00 0.  1.
         12    1    5    5    0    0 -0.87856133662E+00  0.11956154392E+02 -0.25060407081E+03  0.25089065707E+03  0.00000000000E+00 0. -1.
        -11    1    3    3    0    0  0.44222627827E+02  0.62776060736E+02  0.16144396570E+03  0.17877535813E+03  0.00000000000E+00 0.  1.
         12    1    3    3    0    0 -0.31676719539E+02  0.10230947603E+02  0.10838594486E+03  0.11338253786E+03  0.00000000000E+00 0. -1.
          5    1    4    4  501    0 -0.66239383839E+02 -0.17208138209E+03  0.32009440507E+03  0.36943494175E+03  0.47000000000E+01 0.  1.
         -5    1    4    4    0  501  0.10281998145E+01  0.16495524436E+02  0.86292353259E+02  0.87986474825E+02  0.47000000000E+01 0.  1.
          1    1    1    2  502    0  0.46170408001E+02  0.19048539499E+01  0.11200630931E+04  0.11210159087E+04  0.00000000000E+00 0. -1.
          1    1    1    2  503    0  0.54105837211E+02  0.87162673391E+02 -0.14047726183E+04  0.14085137139E+04  0.00000000000E+00 0. -1.
<mgrwt>
<rscale>  0 0.63555666E+02</rscale>
<asrwt>0</asrwt>
<pdfrwt beam="1">  1        2 0.27082099E+00 0.46209686E+02</pdfrwt>
<pdfrwt beam="2">  1        2 0.26433332E+00 0.87412902E+02</pdfrwt>
<totfact> 0.21340001E+01</totfact>
</mgrwt>
</event>
<event>
13    1  0.1675423E-008  0.2320034E+02  0.7546771E-02  0.1689096E+00
          2   -1    0    0  502    0  0.00000000000E+00  0.00000000000E+00  0.21361267828E+04  0.21361267828E+04  0.00000000000E+00 0. -1.
          2   -1    0    0  503    0 -0.00000000000E+00 -0.00000000000E+00 -0.25712634256E+04  0.25712634256E+04  0.00000000000E+00 0. -1.
         24    2    1    2    0    0  0.11030759477E+04 -0.10157105741E+03  0.47060447009E+03  0.12063186391E+04  0.81503777147E+02 0.  0.
         25    2    1    2    0    0 -0.35498212427E+03 -0.27077635375E+02 -0.77402557288E+03  0.86109245676E+03  0.12497649676E+03 0.  0.
         24    2    1    2    0    0 -0.74887419168E+03  0.88187191086E+02  0.59291980853E+03  0.96285850017E+03  0.83384988925E+02 0.  0.
        -11    1    5    5    0    0 -0.43070970432E+03  0.75552398896E+02  0.30088305873E+03  0.53080093200E+03  0.00000000000E+00 0.  1.
         12    1    5    5    0    0 -0.31816448736E+03  0.12634792191E+02  0.29203674979E+03  0.43205756817E+03  0.00000000000E+00 0. -1.
        -11    1    3    3    0    0  0.40020366330E+03  0.26677955287E+00  0.18358192637E+03  0.44030145013E+03  0.00000000000E+00 0.  1.
         12    1    3    3    0    0  0.70287228442E+03 -0.10183783697E+03  0.28702254371E+03  0.76601718900E+03  0.00000000000E+00 0. -1.
          5    1    4    4  501    0 -0.19711887223E+03  0.29424873363E+02 -0.51773775108E+03  0.55479378318E+03  0.47000000000E+01 0.  1.
         -5    1    4    4    0  501 -0.15786325204E+03 -0.56502508738E+02 -0.25628782179E+03  0.30629867358E+03  0.47000000000E+01 0.  1.
          1    1    1    2  502    0  0.11632110968E+02  0.19956449605E+02  0.47585040172E+03  0.47641071641E+03  0.00000000000E+00 0. -1.
          1    1    1    2  503    0 -0.10851742744E+02  0.20505052097E+02 -0.12004857503E+04  0.12007098959E+04  0.00000000000E+00 0. -1.
<mgrwt>
<rscale>  0 0.23149636E+02</rscale>
<asrwt>0</asrwt>
<pdfrwt beam="1">  1        2 0.31413629E+00 0.23099045E+02</pdfrwt>
<pdfrwt beam="2">  1        2 0.37812697E+00 0.23200338E+02</pdfrwt>
<totfact> 0.87523121E+00</totfact>
</mgrwt>
</event>
<event>
13    1  0.1675423E-008  0.1010784E+03  0.7546771E-02  0.1297630E+00
         -3   -1    0    0    0  501 -0.00000000000E+00  0.00000000000E+00  0.59158214175E+03  0.59158214175E+03  0.00000000000E+00 0.  1.
          2   -1    0    0  503    0  0.00000000000E+00 -0.00000000000E+00 -0.29968000565E+04  0.29968000565E+04  0.00000000000E+00 0. -1.
         24    2    1    2    0    0  0.27463128238E+02 -0.24327967793E+03 -0.14196210170E+04  0.14428145409E+04  0.80316514383E+02 0.  0.
         25    2    1    2    0    0  0.96437025975E+02  0.17414317228E+03  0.24231922787E+03  0.33758730458E+03  0.12498254111E+03 0.  0.
         24    2    1    2    0    0 -0.10574103611E+03  0.64013979204E+02 -0.33860876652E+03  0.36932741851E+03  0.80423187258E+02 0.  0.
        -11    1    5    5    0    0 -0.87906674740E+02  0.89746898624E+01 -0.18057833246E+03  0.20103895811E+03  0.00000000000E+00 0.  1.
         12    1    5    5    0    0 -0.17834361370E+02  0.55039289342E+02 -0.15803043405E+03  0.16828846040E+03  0.00000000000E+00 0. -1.
        -13    1    3    3    0    0 -0.47549031065E+00 -0.38637586696E+02 -0.10143313988E+03  0.10854386700E+03  0.00000000000E+00 0.  1.
         14    1    3    3    0    0  0.27938618548E+02 -0.20464209123E+03 -0.13181878771E+04  0.13342706739E+04  0.00000000000E+00 0. -1.
          5    1    4    4  502    0 -0.13249517727E+02  0.53679186583E+02  0.12501384980E+03  0.13677557323E+03  0.47000000000E+01 0.  1.
         -5    1    4    4    0  502  0.10968654370E+03  0.12046398570E+03  0.11730537807E+03  0.20081173134E+03  0.47000000000E+01 0.  1.
          1    1    1    2  503    0 -0.83248257277E+02  0.58356609527E+02 -0.11552597021E+04  0.11597244265E+04  0.00000000000E+00 0. -1.
         -4    1    1    2    0  501  0.65089139174E+02 -0.53234083089E+02  0.26595234302E+03  0.27892850768E+03  0.00000000000E+00 0.  1.
<mgrwt>
<rscale>  0 0.92191568E+02</rscale>
<asrwt>0</asrwt>
<pdfrwt beam="2">  1        2 0.44070590E+00 0.10107842E+03</pdfrwt>
<pdfrwt beam="1">  1       -3 0.86997373E-01 0.84086049E+02</pdfrwt>
<totfact> 0.21815878E+00</totfact>
</mgrwt>
</event>
<event>
13    1  0.1675423E-008  0.1328580E+03  0.7546771E-02  0.1322385E+00
          2   -1    0    0  502    0  0.00000000000E+00  0.00000000000E+00  0.12510865472E+04  0.12510865472E+04  0.00000000000E+00 0. -1.
          2   -1    0    0  503    0 -0.00000000000E+00 -0.00000000000E+00 -0.80522475683E+03  0.80522475683E+03  0.00000000000E+00 0. -1.
         24    2    1    2    0    0 -0.76133744377E+02  0.39000612317E+02  0.16548142892E+03  0.20260454086E+03  0.79668700667E+02 0.  0.
         25    2    1    2    0    0  0.12602984525E+03  0.68651698561E+02  0.11528131886E+03  0.22251606785E+03  0.12500816119E+03 0.  0.
         24    2    1    2    0    0 -0.16242450651E+03 -0.10824527257E+03 -0.36404938739E+03  0.42076826081E+03  0.80095027882E+02 0.  0.
        -11    1    5    5    0    0 -0.72724572777E+02 -0.84379684651E+02 -0.25019004972E+03  0.27386831808E+03  0.00000000000E+00 0.  1.
         12    1    5    5    0    0 -0.89699933733E+02 -0.23865587922E+02 -0.11385933767E+03  0.14689994273E+03  0.00000000000E+00 0. -1.
        -13    1    3    3    0    0  0.14472279462E+02  0.19216565016E+02  0.37516909900E+02  0.44567272435E+02  0.00000000000E+00 0.  1.
         14    1    3    3    0    0 -0.90606023839E+02  0.19784047301E+02  0.12796451902E+03  0.15803726842E+03  0.00000000000E+00 0. -1.
          5    1    4    4  501    0  0.59651191247E+02 -0.16012360590E+02  0.94271210872E+02  0.11279987371E+03  0.47000000000E+01 0. -1.
         -5    1    4    4    0  501  0.66378654000E+02  0.84664059152E+02  0.21010107983E+02  0.10971619414E+03  0.47000000000E+01 0. -1.
          1    1    1    2  502    0 -0.20813051684E+02  0.46670309410E+02  0.85438197332E+03  0.85590879025E+03  0.00000000000E+00 0. -1.
          1    1    1    2  503    0  0.13334145732E+03 -0.46077347716E+02 -0.32523354337E+03  0.35451364423E+03  0.00000000000E+00 0. -1.
<mgrwt>
<rscale>  0 0.82396366E+02</rscale>
<asrwt>0</asrwt>
<pdfrwt beam="1">  1        2 0.18398332E+00 0.51100889E+02</pdfrwt>
<pdfrwt beam="2">  1        2 0.11841541E+00 0.13285798E+03</pdfrwt>
<totfact> 0.13319257E+02</totfact>
</mgrwt>
</event>
<event>
13    1  0.1675423E-008  0.3796740E+02  0.7546771E-02  0.1613197E+00
          2   -1    0    0  503    0  0.00000000000E+00  0.00000000000E+00  0.15590400108E+04  0.15590400108E+04  0.00000000000E+00 0. -1.
          2   -1    0    0  502    0 -0.00000000000E+00 -0.00000000000E+00 -0.25848520783E+04  0.25848520783E+04  0.00000000000E+00 0. -1.
         24    2    1    2    0    0  0.21214104700E+03  0.20442105802E+03  0.44728949398E+01  0.30878543243E+03  0.92393959239E+02 0.  0.
         25    2    1    2    0    0  0.24526365736E+03 -0.44506636153E+03 -0.15503268820E+04  0.16362704769E+04  0.12501721722E+03 0.  0.
         24    2    1    2    0    0 -0.44378774510E+03  0.26217590997E+03 -0.25334856146E+03  0.58092947951E+03  0.87234145245E+02 0.  0.
        -11    1    5    5    0    0 -0.15392961973E+03  0.13863743414E+03 -0.11334114070E+03  0.23613741794E+03  0.00000000000E+00 0.  1.
         12    1    5    5    0    0 -0.28985812537E+03  0.12353847583E+03 -0.14000742076E+03  0.34479206157E+03  0.00000000000E+00 0. -1.
        -11    1    3    3    0    0  0.50829430590E+02  0.15660665640E+02  0.26665895367E+02  0.59497541446E+02  0.00000000000E+00 0.  1.
         12    1    3    3    0    0  0.16131161641E+03  0.18876039238E+03 -0.22193000427E+02  0.24928789098E+03  0.00000000000E+00 0. -1.
          5    1    4    4  501    0  0.20484585196E+03 -0.43517227312E+03 -0.14434996651E+04  0.15215288704E+04  0.47000000000E+01 0.  1.
         -5    1    4    4    0  501  0.40417805402E+02 -0.98940884067E+01 -0.10682721687E+03  0.11474160641E+03  0.47000000000E+01 0.  1.
          1    1    1    2  502    0  0.20895451571E+02 -0.57004699950E+01 -0.42167865187E+03  0.42223453281E+03  0.00000000000E+00 0. -1.
          1    1    1    2  503    0 -0.34512410833E+02 -0.15830136468E+02  0.11950691329E+04  0.11956721675E+04  0.00000000000E+00 0. -1.
<mgrwt>
<rscale>  0 0.28676447E+02</rscale>
<asrwt>0</asrwt>
<pdfrwt beam="1">  1        2 0.22927059E+00 0.37967405E+02</pdfrwt>
<pdfrwt beam="2">  1        2 0.38012530E+00 0.21659069E+02</pdfrwt>
<totfact> 0.15062213E+01</totfact>
</mgrwt>
</event>
<event>
13    1  0.1675423E-008  0.1061494E+03  0.7546771E-02  0.1351170E+00
          2   -1    0    0  503    0  0.00000000000E+00  0.00000000000E+00  0.24069222533E+04  0.24069222533E+04  0.00000000000E+00 0. -1.
          2   -1    0    0  502    0 -0.00000000000E+00 -0.00000000000E+00 -0.18480411444E+04  0.18480411444E+04  0.00000000000E+00 0. -1.
         24    2    1    2    0    0 -0.23772423064E+03  0.61785018581E+02  0.73454935814E+03  0.77884584344E+03  0.81901709086E+02 0.  0.
         25    2    1    2    0    0  0.20773232648E+03 -0.17546790206E+03 -0.27155598751E+03  0.40411163986E+03  0.12498743537E+03 0.  0.
         24    2    1    2    0    0  0.88910767226E+02  0.11809118382E+03 -0.61106122019E+03  0.63581194105E+03  0.94922902045E+02 0.  0.
        -11    1    5    5    0    0  0.55186431154E+01  0.78922092398E+02 -0.21274893565E+03  0.22698295467E+03  0.00000000000E+00 0.  1.
         12    1    5    5    0    0  0.83392124111E+02  0.39169091423E+02 -0.39831228454E+03  0.40882898638E+03  0.00000000000E+00 0. -1.
        -13    1    3    3    0    0 -0.50297970143E+02 -0.20231928923E+01  0.25694224532E+03  0.26182684457E+03  0.00000000000E+00 0.  1.
         14    1    3    3    0    0 -0.18742626050E+03  0.63808211474E+02  0.47760711282E+03  0.51701899887E+03  0.00000000000E+00 0. -1.
          5    1    4    4  501    0  0.19435737020E+03 -0.16221141850E+03 -0.18034809950E+03  0.31086147822E+03  0.47000000000E+01 0.  1.
         -5    1    4    4    0  501  0.13374956279E+02 -0.13256483557E+02 -0.91207888012E+02  0.93250161648E+02  0.47000000000E+01 0.  1.
          1    1    1    2  502    0  0.46462318774E+02 -0.17870624280E+02 -0.86210826192E+03  0.86354430202E+03  0.00000000000E+00 0. -1.
          1    1    1    2  503    0 -0.10538118184E+03  0.13462323938E+02  0.15690572204E+04  0.15726496713E+04  0.00000000000E+00 0. -1.
<mgrwt>
<rscale>  0 0.72692374E+02</rscale>
<asrwt>0</asrwt>
<pdfrwt beam="1">  1        2 0.35395916E+00 0.10614945E+03</pdfrwt>
<pdfrwt beam="2">  1        2 0.27177076E+00 0.49780581E+02</pdfrwt>
<totfact> 0.10444500E+01</totfact>
</mgrwt>
</event>
<event>
13    1  0.1675423E-008  0.1539743E+03  0.7546771E-02  0.1242529E+00
          2   -1    0    0  502    0  0.00000000000E+00  0.00000000000E+00  0.14163457204E+04  0.14163457204E+04  0.00000000000E+00 0. -1.
          2   -1    0    0  503    0 -0.00000000000E+00 -0.00000000000E+00 -0.11627709569E+04  0.11627709569E+04  0.00000000000E+00 0. -1.
         24    2    1    2    0    0  0.38055386380E+03  0.23581426438E+03 -0.30026855365E+03  0.54504162156E+03  0.80495679308E+02 0.  0.
         25    2    1    2    0    0 -0.17357391944E+03 -0.19409574541E+03  0.19350951700E+03  0.34766772162E+03  0.12500339033E+03 0.  0.
         24    2    1    2    0    0 -0.28337008852E+03 -0.13822426521E+03 -0.19769247996E+03  0.38085858928E+03  0.81033288407E+02 0.  0.
        -13    1    5    5    0    0 -0.40600883062E+02 -0.55190321927E+02 -0.49894164417E+02  0.84757483344E+02  0.00000000000E+00 0.  1.
         14    1    5    5    0    0 -0.24276920546E+03 -0.83033943287E+02 -0.14779831554E+03  0.29610110593E+03  0.00000000000E+00 0. -1.
        -13    1    3    3    0    0  0.20098453137E+03  0.17084098278E+03 -0.18052608448E+03  0.31964212867E+03  0.00000000000E+00 0.  1.
         14    1    3    3    0    0  0.17956933243E+03  0.64973281606E+02 -0.11974246917E+03  0.22539949289E+03  0.00000000000E+00 0. -1.
          5    1    4    4  501    0 -0.83515619663E+02 -0.13616430175E+03  0.47837607420E+02  0.16681157778E+03  0.47000000000E+01 0.  1.
         -5    1    4    4    0  501 -0.90058299781E+02 -0.57931443654E+02  0.14567190958E+03  0.18085614384E+03  0.47000000000E+01 0.  1.
          1    1    1    2  502    0  0.73015946443E+02 -0.59296280868E+02  0.91302156135E+03  0.91785388208E+03  0.00000000000E+00 0. -1.
          1    1    1    2  503    0  0.33741977273E+01  0.15580202710E+03 -0.35499528123E+03  0.38769486269E+03  0.00000000000E+00 0. -1.
<mgrwt>
<rscale>  0 0.12034490E+03</rscale>
<asrwt>0</asrwt>
<pdfrwt beam="1">  1        2 0.20828614E+00 0.94060498E+02</pdfrwt>
<pdfrwt beam="2">  1        2 0.17099573E+00 0.15397426E+03</pdfrwt>
<totfact> 0.64184472E+01</totfact>
</mgrwt>
</event>
<event>
13    1  0.1675423E-008  0.1308241E+03  0.7546771E-02  0.1265188E+00
          2   -1    0    0  503    0  0.00000000000E+00  0.00000000000E+00  0.23599185386E+04  0.23599185386E+04  0.00000000000E+00 0. -1.
          2   -1    0    0  502    0 -0.00000000000E+00 -0.00000000000E+00 -0.13224567165E+04  0.13224567165E+04  0.00000000000E+00 0. -1.
         24    2    1    2    0    0 -0.15132154302E+02  0.34958090496E+02  0.89911866501E+03  0.90362839413E+03  0.81724235933E+02 0.  0.
         25    2    1    2    0    0  0.70698572682E+02 -0.85739540876E+02 -0.21627956424E+03  0.27340688499E+03  0.12499967121E+03 0.  0.
         24    2    1    2    0    0 -0.13298089632E+02  0.57936253870E+02  0.27363134354E+02  0.10387107851E+03  0.80666046946E+02 0.  0.
        -11    1    3    3    0    0 -0.20451261093E+01 -0.25171530796E+02  0.38751856644E+03  0.38834060802E+03  0.00000000000E+00 0.  1.
         12    1    3    3    0    0 -0.13087028193E+02  0.60129621292E+02  0.51160009857E+03  0.51528778611E+03  0.00000000000E+00 0. -1.
        -13    1    5    5    0    0  0.34012385978E+02  0.23565225982E+02  0.15604177547E+02  0.44222761474E+02  0.00000000000E+00 0.  1.
         14    1    5    5    0    0 -0.47310475611E+02  0.34371027888E+02  0.11758956808E+02  0.59648317041E+02  0.00000000000E+00 0. -1.
          5    1    4    4  501    0 -0.18687370544E+02 -0.59864123141E+02 -0.13822325984E+03  0.15185746810E+03  0.47000000000E+01 0. -1.
         -5    1    4    4    0  501  0.89385943225E+02 -0.25875417735E+02 -0.78056304399E+02  0.12154941689E+03  0.47000000000E+01 0. -1.
          1    1    1    2  502    0 -0.12828038572E+03 -0.27588275292E+02 -0.10315121785E+04  0.10398241893E+04  0.00000000000E+00 0. -1.
          1    1    1    2  503    0  0.86012056974E+02  0.20433471802E+02  0.13587717655E+04  0.13616447082E+04  0.00000000000E+00 0. -1.
<mgrwt>
<rscale>  0 0.10754359E+03</rscale>
<asrwt>0</asrwt>
<pdfrwt beam="1">  1        2 0.34704684E+00 0.88405886E+02</pdfrwt>
<pdfrwt beam="2">  1        2 0.19447893E+00 0.13082413E+03</pdfrwt>
<totfact> 0.18729124E+01</totfact>
</mgrwt>
</event>
<event>
13    1  0.1675423E-008  0.5685788E+02  0.7546771E-02  0.1546438E+00
         -3   -1    0    0    0  501 -0.00000000000E+00  0.00000000000E+00  0.25439714562E+04  0.25439714562E+04  0.00000000000E+00 0.  1.
          2   -1    0    0  503    0  0.00000000000E+00 -0.00000000000E+00 -0.14938023179E+04  0.14938023179E+04  0.00000000000E+00 0. -1.
         24    2    1    2    0    0 -0.19606417902E+03 -0.71632358659E+02 -0.33106107374E+03  0.39982297277E+03  0.81759512643E+02 0.  0.
         25    2    1    2    0    0  0.11970821591E+02  0.20626649759E+03  0.13083921085E+04  0.13304959269E+04  0.12506131877E+03 0.  0.
         24    2    1    2    0    0  0.17390646145E+03 -0.20058407616E+03  0.38221217579E+02  0.28026667661E+03  0.81308791664E+02 0.  0.
        -11    1    5    5    0    0  0.10303731133E+03 -0.12168445922E+03  0.62852773783E+02  0.17138922462E+03  0.00000000000E+00 0.  1.
         12    1    5    5    0    0  0.70869150117E+02 -0.78899616939E+02 -0.24631556204E+02  0.10887745199E+03  0.00000000000E+00 0. -1.
        -13    1    3    3    0    0 -0.61552736660E+02 -0.42088228872E+02 -0.59720233898E+02  0.95533579106E+02  0.00000000000E+00 0.  1.
         14    1    3    3    0    0 -0.13451144236E+03 -0.29544129787E+02 -0.27134083985E+03  0.30428939367E+03  0.00000000000E+00 0. -1.
          5    1    4    4  502    0  0.42827213591E+02  0.10415729866E+03  0.39135247585E+03  0.40726129627E+03  0.47000000000E+01 0.  1.
         -5    1    4    4    0  502 -0.30856392000E+02  0.10210919893E+03  0.91703963264E+03  0.92323463066E+03  0.47000000000E+01 0.  1.
          1    1    1    2  503    0 -0.93075038024E+01  0.56087348805E+02 -0.99535860396E+03  0.99698102830E+03  0.00000000000E+00 0. -1.
         -4    1    1    2    0  501  0.19494399782E+02  0.98625884242E+01  0.10299754899E+04  0.10302071695E+04  0.00000000000E+00 0.  1.
<mgrwt>
<rscale>  0 0.35244692E+02</rscale>
<asrwt>0</asrwt>
<pdfrwt beam="2">  1        2 0.21967681E+00 0.56857883E+02</pdfrwt>
<pdfrwt beam="1">  1       -3 0.37411345E+00 0.21847249E+02</pdfrwt>
<totfact> 0.24522168E-01</totfact>
</mgrwt>
</event>
<event>
13    1  0.1675423E-008  0.1649753E+03  0.7546771E-02  0.1330324E+00
          2   -1    0    0  502    0  0.00000000000E+00  0.00000000000E+00  0.13101560357E+04  0.13101560357E+04  0.00000000000E+00 0. -1.
          2   -1    0    0  503    0 -0.00000000000E+00 -0.00000000000E+00 -0.60483792544E+03  0.60483792544E+03  0.00000000000E+00 0. -1.
         24    2    1    2    0    0  0.10648240844E+03  0.30173088693E+02  0.37653600284E+03  0.40059497337E+03  0.80299767551E+02 0.  0.
         25    2    1    2    0    0  0.85303798356E+02 -0.70381118167E+02 -0.27539631091E+03  0.32202251847E+03  0.12500053812E+03 0.  0.
         24    2    1    2    0    0  0.71115933994E+02 -0.93700474212E+02  0.61201279226E+02  0.15537520253E+03  0.80985196474E+02 0.  0.
        -13    1    5    5    0    0 -0.44642759149E+01 -0.14054337720E+01  0.32292221603E+02  0.32629627328E+02  0.00000000000E+00 0.  1.
         14    1    5    5    0    0  0.75580209909E+02 -0.92295040440E+02  0.28909057624E+02  0.12274557521E+03  0.00000000000E+00 0. -1.
        -13    1    3    3    0    0  0.33766321763E+02  0.33399260817E+02  0.25125223469E+03  0.25570170227E+03  0.00000000000E+00 0.  1.
         14    1    3    3    0    0  0.72716086680E+02 -0.32261721238E+01  0.12528376815E+03  0.14489327110E+03  0.00000000000E+00 0. -1.
          5    1    4    4  501    0  0.81945376178E+02 -0.88481926557E+02 -0.27778690614E+03  0.30287249995E+03  0.47000000000E+01 0. -1.
         -5    1    4    4    0  501  0.33584221780E+01  0.18100808391E+02  0.23905952243E+01  0.19150018523E+02  0.47000000000E+01 0. -1.
          1    1    1    2  502    0 -0.25767410105E+03  0.95904632997E+02  0.76436727051E+03  0.81231211071E+03  0.00000000000E+00 0. -1.
          1    1    1    2  503    0 -0.52280397421E+01  0.38003870689E+02 -0.22139013137E+03  0.22468915607E+03  0.00000000000E+00 0. -1.
<mgrwt>
<rscale>  0 0.79553434E+02</rscale>
<asrwt>0</asrwt>
<pdfrwt beam="1">  1        2 0.19267001E+00 0.16497535E+03</pdfrwt>
<pdfrwt beam="2">  1        2 0.88946754E-01 0.38361786E+02</pdfrwt>
<totfact> 0.16488296E+02</totfact>
</mgrwt>
</event>
<event>
13    1  0.1675423E-008  0.8487582E+02  0.7546771E-02  0.1376433E+00
          2   -1    0    0  502    0  0.00000000000E+00  0.00000000000E+00  0.58163830765E+03  0.58163830765E+03  0.00000000000E+00 0. -1.
          2   -1    0    0  503    0 -0.00000000000E+00 -0.00000000000E+00 -0.18731707469E+04  0.18731707469E+04  0.00000000000E+00 0. -1.
         24    2    1    2    0    0 -0.10890028096E+03  0.59167873767E+02  0.22715037843E+03  0.27137749001E+03  0.81782266910E+02 0.  0.
         25    2    1    2    0    0  0.15213610037E+03 -0.69581705830E+02 -0.13217487936E+04  0.13381449723E+04  0.12500034669E+03 0.  0.
         24    2    1    2    0    0 -0.85866358694E+01 -0.21792765026E+02 -0.92043616829E+02  0.12557257959E+03  0.82144935460E+02 0.  0.
        -11    1    3    3    0    0 -0.94983022887E+02  0.24353403435E+02  0.20644153131E+03  0.22854533192E+03  0.00000000000E+00 0.  1.
         12    1    3    3    0    0 -0.13917258069E+02  0.34814470332E+02  0.20708847126E+02  0.42832158082E+02  0.00000000000E+00 0. -1.
        -13    1    5    5    0    0 -0.24957186723E+02 -0.32261429512E+02 -0.97248605148E+02  0.10545592542E+03  0.00000000000E+00 0.  1.
         14    1    5    5    0    0  0.16370550854E+02  0.10468664486E+02  0.52049883187E+01  0.20116654164E+02  0.00000000000E+00 0. -1.
          5    1    4    4  501    0  0.26124943000E+01  0.11688997833E+02 -0.43561642142E+03  0.43580639555E+03  0.47000000000E+01 0.  1.
         -5    1    4    4    0  501  0.14952360607E+03 -0.81270703663E+02 -0.88613237216E+03  0.90233857672E+03  0.47000000000E+01 0.  1.
          1    1    1    2  502    0 -0.83078770783E+02  0.18216891965E+02  0.29993555606E+03  0.31176156771E+03  0.00000000000E+00 0. -1.
          1    1    1    2  503    0  0.48429587243E+02  0.13989705124E+02 -0.40482596337E+03  0.40795244501E+03  0.00000000000E+00 0. -1.
<mgrwt>
<rscale>  0 0.65410730E+02</rscale>
<asrwt>0</asrwt>
<pdfrwt beam="1">  1        2 0.85535046E-01 0.84875817E+02</pdfrwt>
<pdfrwt beam="2">  1        2 0.27546628E+00 0.50409689E+02</pdfrwt>
<totfact> 0.99144423E+01</totfact>
</mgrwt>
</event>
<event>
13    1  0.1675423E-008  0.1220865E+03  0.7546771E-02  0.1331993E+00
          2   -1    0    0  502    0  0.00000000000E+00  0.00000000000E+00  0.14830313206E+04  0.14830313206E+04  0.00000000000E+00 0. -1.
          2   -1    0    0  503    0 -0.00000000000E+00 -0.00000000000E+00 -0.72574243365E+03  0.72574243365E+03  0.00000000000E+00 0. -1.
         24    2    1    2    0    0 -0.12366284020E+02 -0.39655594964E+02  0.47943195314E+03  0.48739531891E+03  0.77289766589E+02 0.  0.
         25    2    1    2    0    0 -0.11726498066E+03 -0.26955460885E+02  0.24240967189E+03  0.29810458695E+03  0.12500489260E+03 0.  0.
         24    2    1    2    0    0 -0.50111048189E+02  0.24912250005E+02 -0.42045449001E+03  0.43146822494E+03  0.79063984253E+02 0.  0.
        -11    1    3    3    0    0  0.32743182285E+02 -0.12232701733E+02  0.19184559644E+03  0.19500381497E+03  0.00000000000E+00 0.  1.
         12    1    3    3    0    0 -0.45109466306E+02 -0.27422893230E+02  0.28758635669E+03  0.29239150395E+03  0.00000000000E+00 0. -1.
        -13    1    5    5    0    0 -0.49812760938E+01  0.43065641394E+02 -0.26675241209E+03  0.27025231162E+03  0.00000000000E+00 0.  1.
         14    1    5    5    0    0 -0.45129772095E+02 -0.18153391389E+02 -0.15370207793E+03  0.16121591332E+03  0.00000000000E+00 0. -1.
          5    1    4    4  501    0 -0.14386760325E+03 -0.18335126620E+02  0.20513216499E+03  0.25126750535E+03  0.47000000000E+01 0.  1.
         -5    1    4    4    0  501  0.26602622595E+02 -0.86203342648E+01  0.37277506898E+02  0.46837081594E+02  0.47000000000E+01 0.  1.
          1    1    1    2  502    0  0.18890287915E+03  0.91954653013E+02  0.70597216422E+03  0.73657087413E+03  0.00000000000E+00 0. -1.
          1    1    1    2  503    0 -0.91605662818E+01 -0.50255847170E+02 -0.25007041230E+03  0.25523474931E+03  0.00000000000E+00 0. -1.
<mgrwt>
<rscale>  0 0.78972487E+02</rscale>
<asrwt>0</asrwt>
<pdfrwt beam="1">  1        2 0.21809284E+00 0.12208645E+03</pdfrwt>
<pdfrwt beam="2">  1        2 0.10672683E+00 0.51083913E+02</pdfrwt>
<totfact> 0.11164007E+02</totfact>
</mgrwt>
</event>
<event>
13    1  0.1675423E-008  0.1587488E+03  0.7546771E-02  0.1282840E+00
          2   -1    0    0  502    0  0.00000000000E+00  0.00000000000E+00  0.92899427788E+03  0.92899427788E+03  0.00000000000E+00 0. -1.
          2   -1    0    0  503    0 -0.00000000000E+00 -0.00000000000E+00 -0.58839376260E+03  0.58839376260E+03  0.00000000000E+00 0. -1.
         24    2    1    2    0    0  0.12054155714E+03  0.58031064355E+01  0.12616367287E+03  0.19222570830E+03  0.80433248951E+02 0.  0.
         25    2    1    2    0    0 -0.11546290186E+03 -0.23538025472E+03 -0.14931792046E+03  0.32658082590E+03  0.12499459370E+03 0.  0.
         24    2    1    2    0    0  0.54764872456E+02  0.84273380186E+02  0.24404129296E+03  0.27594469724E+03  0.80548925532E+02 0.  0.
        -11    1    5    5    0    0 -0.23540061491E+00  0.72351899451E+02  0.14425653471E+03  0.16138401586E+03  0.00000000000E+00 0.  1.
         12    1    5    5    0    0  0.55000273071E+02  0.11921480735E+02  0.99784758247E+02  0.11456068138E+03  0.00000000000E+00 0. -1.
        -13    1    3    3    0    0  0.42451668086E+02 -0.36445745623E+02  0.42884656602E+02  0.70494895341E+02  0.00000000000E+00 0.  1.
         14    1    3    3    0    0  0.78089889053E+02  0.42248852058E+02  0.83279016265E+02  0.12173081295E+03  0.00000000000E+00 0. -1.
          5    1    4    4  501    0 -0.19468624339E+02 -0.15739711519E+03 -0.45567120409E+02  0.16507977364E+03  0.47000000000E+01 0. -1.
         -5    1    4    4    0  501 -0.95994277523E+02 -0.77983139536E+02 -0.10375080005E+03  0.16150105226E+03  0.47000000000E+01 0. -1.
          1    1    1    2  502    0  0.64911629722E+00  0.13427674027E+03  0.40713740322E+03  0.42870914316E+03  0.00000000000E+00 0. -1.
          1    1    1    2  503    0 -0.60492644030E+02  0.11027027832E+02 -0.28742393331E+03  0.29392766587E+03  0.00000000000E+00 0. -1.
<mgrwt>
<rscale>  0 0.98799702E+02</rscale>
<asrwt>0</asrwt>
<pdfrwt beam="1">  1        2 0.13661681E+00 0.15874882E+03</pdfrwt>
<pdfrwt beam="2">  1        2 0.86528495E-01 0.61489473E+02</pdfrwt>
<totfact> 0.27615422E+02</totfact>
</mgrwt>
</event>
<event>
13    1  0.1675423E-008  0.4490810E+02  0.7546771E-02  0.1513272E+00
          2   -1    0    0  503    0  0.00000000000E+00  0.00000000000E+00  0.24145554234E+04  0.24145554234E+04  0.00000000000E+00 0. -1.
         -3   -1    0    0    0  501 -0.00000000000E+00 -0.00000000000E+00 -0.12712164396E+03  0.12712164396E+03  0.00000000000E+00 0.  1.
         24    2    1    2    0    0 -0.16442323374E+02 -0.47552191699E+02  0.12961908211E+03  0.15989957785E+03  0.78963330834E+02 0.  0.
         25    2    1    2    0    0 -0.78199753789E+02  0.16048180260E+03  0.29035707573E+03  0.36304410713E+03  0.12499672729E+03 0.  0.
         24    2    1    2    0    0  0.65247398798E+02 -0.74911209637E+02  0.42807239950E+03  0.44733358707E+03  0.83620849845E+02 0.  0.
        -11    1    3    3    0    0  0.28825075221E+02 -0.59274212270E+01  0.61185191836E+02  0.67894381092E+02  0.00000000000E+00 0.  1.
         12    1    3    3    0    0 -0.45267398595E+02 -0.41624770472E+02  0.68433890270E+02  0.92005196755E+02  0.00000000000E+00 0. -1.
        -13    1    5    5    0    0 -0.17296924306E+02 -0.11871025937E+02  0.13004594787E+03  0.13172719311E+03  0.00000000000E+00 0.  1.
         14    1    5    5    0    0  0.82544323104E+02 -0.63040183700E+02  0.29802645163E+03  0.31560639396E+03  0.00000000000E+00 0. -1.
          5    1    4    4  502    0 -0.10288285022E+03  0.14602981247E+03  0.20023917265E+03  0.26837921541E+03  0.47000000000E+01 0. -1.
         -5    1    4    4    0  502  0.24683096433E+02  0.14451990131E+02  0.90117903077E+02  0.94664891715E+02  0.47000000000E+01 0. -1.
          1    1    1    2  503    0 -0.15040765849E+02 -0.30968974110E+02  0.14975050165E+04  0.14979007231E+04  0.00000000000E+00 0. -1.
         -4    1    1    2    0  501  0.44435444214E+02 -0.70494271549E+01 -0.58119794331E+02  0.73499072231E+02  0.00000000000E+00 0.  1.
<mgrwt>
<rscale>  0 0.39320552E+02</rscale>
<asrwt>0</asrwt>
<pdfrwt beam="1">  1        2 0.35508165E+00 0.34428215E+02</pdfrwt>
<pdfrwt beam="2">  1       -3 0.18694361E-01 0.44908103E+02</pdfrwt>
<totfact> 0.89723808E+01</totfact>
</mgrwt>
</event>
<event>
13    1  0.1675423E-008  0.1184468E+03  0.7546771E-02  0.1335523E+00
         -3   -1    0    0    0  501 -0.00000000000E+00  0.00000000000E+00  0.65100690086E+03  0.65100690086E+03  0.00000000000E+00 0.  1.
          2   -1    0    0  503    0  0.00000000000E+00 -0.00000000000E+00 -0.18038377655E+04  0.18038377655E+04  0.00000000000E+00 0. -1.
         24    2    1    2    0    0 -0.22057926930E+03  0.99747957326E+02  0.15506500203E+03  0.29960861892E+03  0.84352241442E+02 0.  0.
         25    2    1    2    0    0  0.13425086966E+03 -0.17920052222E+03 -0.92638729450E+02  0.27265839272E+03  0.12499816702E+03 0.  0.
         24    2    1    2    0    0  0.23447914082E+03  0.11577330524E+03 -0.14383524687E+03  0.30903099442E+03  0.80172636125E+02 0.  0.
        -11    1    5    5    0    0  0.11369305158E+02  0.12257286461E+02  0.94661959307E+01  0.19212262661E+02  0.00000000000E+00 0.  1.
         12    1    5    5    0    0  0.22310983566E+03  0.10351601878E+03 -0.15330144280E+03  0.28981873176E+03  0.00000000000E+00 0. -1.
        -13    1    3    3    0    0 -0.14834781964E+03  0.30931003375E+02  0.63887053993E+02  0.16445473004E+03  0.00000000000E+00 0.  1.
         14    1    3    3    0    0 -0.72231449658E+02  0.68816953950E+02  0.91177948040E+02  0.13515388888E+03  0.00000000000E+00 0. -1.
          5    1    4    4  502    0  0.13464413654E+03 -0.11138997803E+03 -0.10448934394E+03  0.20365874326E+03  0.47000000000E+01 0. -1.
         -5    1    4    4    0  502 -0.39326687438E+00 -0.67810544191E+02  0.11850614489E+02  0.68999649464E+02  0.47000000000E+01 0. -1.
          1    1    1    2  503    0 -0.46035083944E+02  0.22072183075E+02 -0.13081801985E+04  0.13091760164E+04  0.00000000000E+00 0. -1.
         -4    1    1    2    0  501 -0.10211565724E+03 -0.58392923421E+02  0.23675830805E+03  0.26437064397E+03  0.00000000000E+00 0.  1.
<mgrwt>
<rscale>  0 0.77762875E+02</rscale>
<asrwt>0</asrwt>
<pdfrwt beam="2">  1        2 0.26527026E+00 0.51053014E+02</pdfrwt>
<pdfrwt beam="1">  1       -3 0.95736309E-01 0.11844677E+03</pdfrwt>
<totfact> 0.74539840E+00</totfact>
</mgrwt>
</event>
<event>
13    1  0.1675423E-008  0.1178443E+03  0.7546771E-02  0.1297207E+00
          2   -1    0    0  502    0  0.00000000000E+00  0.00000000000E+00  0.34323586039E+04  0.34323586039E+04  0.00000000000E+00 0. -1.
          2   -1    0    0  503    0 -0.00000000000E+00 -0.00000000000E+00 -0.18341115976E+04  0.18341115976E+04  0.00000000000E+00 0. -1.
         24    2    1    2    0    0  0.71613608734E+01 -0.56672231544E+02  0.33913873513E+03  0.35225498058E+03  0.76193587375E+02 0.  0.
         25    2    1    2    0    0 -0.60968849562E+02  0.10853133230E+03  0.28338530290E+02  0.17866935316E+03  0.12499365885E+03 0.  0.
         24    2    1    2    0    0 -0.39877705935E+02  0.65568877672E+02  0.29314703117E+03  0.31372405062E+03  0.81228621186E+02 0.  0.
        -11    1    5    5    0    0 -0.62391882176E+02  0.35654051625E+02  0.15967382322E+03  0.17509908104E+03  0.00000000000E+00 0.  1.
         12    1    5    5    0    0  0.22514176241E+02  0.29914826047E+02  0.13347320795E+03  0.13862496958E+03  0.00000000000E+00 0. -1.
        -13    1    3    3    0    0  0.98353205301E+01 -0.52204303223E+02  0.34214367670E+03  0.34624314912E+03  0.00000000000E+00 0.  1.
         14    1    3    3    0    0 -0.26739596566E+01 -0.44679283207E+01 -0.30049415655E+01  0.60118314627E+01  0.00000000000E+00 0. -1.
          5    1    4    4  501    0 -0.83973936733E+02  0.11054635020E+03  0.49035335681E+02  0.14730469015E+03  0.47000000000E+01 0.  1.
         -5    1    4    4    0  501  0.23005087171E+02 -0.20150179046E+01 -0.20696805391E+02  0.31364663019E+02  0.47000000000E+01 0.  1.
          1    1    1    2  502    0  0.25270745752E+02 -0.93721448690E+02  0.26780902675E+04  0.26798488392E+04  0.00000000000E+00 0. -1.
          1    1    1    2  503    0  0.68414448872E+02 -0.23706529735E+02 -0.17404675577E+04  0.17419729779E+04  0.00000000000E+00 0. -1.
<mgrwt>
<rscale>  0 0.92371862E+02</rscale>
<asrwt>0</asrwt>
<pdfrwt beam="1">  1        2 0.50475862E+00 0.11784432E+03</pdfrwt>
<pdfrwt beam="2">  1        2 0.26972229E+00 0.72405361E+02</pdfrwt>
<totfact> 0.28632781E+00</totfact>
</mgrwt>
</event>
<event>
13    1  0.1675423E-008  0.1374303E+03  0.7546771E-02  0.1224634E+00
          2   -1    0    0  503    0  0.00000000000E+00  0.00000000000E+00  0.19955272571E+04  0.19955272571E+04  0.00000000000E+00 0. -1.
          2   -1    0    0  502    0 -0.00000000000E+00 -0.00000000000E+00 -0.20996571233E+04  0.20996571233E+04  0.00000000000E+00 0. -1.
         24    2    1    2    0    0  0.11442293449E+02  0.95368991188E+02  0.11762799008E+03  0.17133036288E+03  0.79319471987E+02 0.  0.
         25    2    1    2    0    0 -0.23434701114E+03  0.10052912779E+03  0.48410522315E+03  0.56125354309E+03  0.12499218129E+03 0.  0.
         24    2    1    2    0    0 -0.62664284427E+02  0.18199932184E+02 -0.95878461442E+02  0.14165379782E+03  0.81333074417E+02 0.  0.
        -11    1    5    5    0    0 -0.60442766690E+02 -0.21756859984E+02 -0.60295983121E+02  0.88103885170E+02  0.00000000000E+00 0.  1.
         12    1    5    5    0    0 -0.22215177368E+01  0.39956792168E+02 -0.35582478322E+02  0.53549912651E+02  0.00000000000E+00 0. -1.
        -13    1    3    3    0    0 -0.57165478241E+01  0.74821775661E+02  0.12294644064E+03  0.14403751004E+03  0.00000000000E+00 0.  1.
         14    1    3    3    0    0  0.17158841274E+02  0.20547215527E+02 -0.53184505662E+01  0.27292852841E+02  0.00000000000E+00 0. -1.
          5    1    4    4  501    0 -0.15813822020E+03  0.12046570503E+03  0.39499092217E+03  0.44222121317E+03  0.47000000000E+01 0.  1.
         -5    1    4    4    0  501 -0.76208790936E+02 -0.19936577234E+02  0.89114300982E+02  0.11903232992E+03  0.47000000000E+01 0.  1.
          1    1    1    2  502    0  0.16523854215E+03 -0.16277634656E+03 -0.19051368054E+04  0.19192045649E+04  0.00000000000E+00 0. -1.
          1    1    1    2  503    0  0.12033045997E+03 -0.51321704608E+02  0.12951521873E+04  0.13017421117E+04  0.00000000000E+00 0. -1.
<mgrwt>
<rscale>  0 0.13192019E+03</rscale>
<asrwt>0</asrwt>
<pdfrwt beam="1">  1        2 0.29345989E+00 0.12663097E+03</pdfrwt>
<pdfrwt beam="2">  1        2 0.30877311E+00 0.13743033E+03</pdfrwt>
<totfact> 0.11098784E+01</totfact>
</mgrwt>
</event>
<event>
13    1  0.1675423E-008  0.1600958E+03  0.7546771E-02  0.1302210E+00
          2   -1    0    0  503    0  0.00000000000E+00  0.00000000000E+00  0.39974163449E+04  0.39974163449E+04  0.00000000000E+00 0. -1.
          2   -1    0    0  502    0 -0.00000000000E+00 -0.00000000000E+00 -0.44138049773E+04  0.44138049773E+04  0.00000000000E+00 0. -1.
         24    2    1    2    0    0  0.32009442163E+02  0.98395360826E+02  0.66588102348E+03  0.67881876279E+03  0.81799290106E+02 0.  0.
         25    2    1    2    0    0  0.77327057589E+02 -0.81440401448E+02 -0.13233631430E+04  0.13339889906E+04  0.12499842408E+03 0.  0.
         24    2    1    2    0    0  0.50073818052E+02 -0.13128800279E+03  0.91849634426E+02  0.18615103527E+03  0.80448279378E+02 0.  0.
        -11    1    3    3    0    0  0.40373163655E+02  0.11016281262E+03  0.58281400008E+03  0.59450651495E+03  0.00000000000E+00 0.  1.
         12    1    3    3    0    0 -0.83637214928E+01 -0.11767451795E+02  0.83067023400E+02  0.84312247838E+02  0.00000000000E+00 0. -1.
        -13    1    5    5    0    0  0.12136083865E+02 -0.10033857308E+03  0.92756675438E+02  0.13718204918E+03  0.00000000000E+00 0.  1.
         14    1    5    5    0    0  0.37937734188E+02 -0.30949429715E+02 -0.90704101123E+00  0.48968986087E+02  0.00000000000E+00 0. -1.
          5    1    4    4  501    0 -0.21386883106E+02 -0.10793193704E+01 -0.54437845133E+02  0.58686733441E+02  0.47000000000E+01 0.  1.
         -5    1    4    4    0  501  0.98713940695E+02 -0.80361082078E+02 -0.12689252978E+04  0.12753022571E+04  0.47000000000E+01 0.  1.
          1    1    1    2  502    0 -0.47479949643E+02  0.18324897907E+02 -0.30295863189E+04  0.30300137642E+04  0.00000000000E+00 0. -1.
          1    1    1    2  503    0 -0.11193036816E+03  0.96008145510E+02  0.31788301715E+04  0.31822487695E+04  0.00000000000E+00 0. -1.
<mgrwt>
<rscale>  0 0.90265363E+02</rscale>
<asrwt>0</asrwt>
<pdfrwt beam="1">  1        2 0.58785535E+00 0.16009583E+03</pdfrwt>
<pdfrwt beam="2">  1        2 0.64908896E+00 0.50893492E+02</pdfrwt>
<totfact> 0.46203675E-02</totfact>
</mgrwt>
</event>
<event>
13    1  0.1675423E-008  0.1414579E+03  0.7546771E-02  0.1409370E+00
         -3   -1    0    0    0  501 -0.00000000000E+00  0.00000000000E+00  0.11551990588E+04  0.11551990588E+04  0.00000000000E+00 0.  1.
          2   -1    0    0  503    0  0.00000000000E+00 -0.00000000000E+00 -0.10933919611E+04  0.10933919611E+04  0.00000000000E+00 0. -1.
         24    2    1    2    0    0  0.24679961082E+02  0.47243939511E+02 -0.12227087984E+03  0.15540732313E+03  0.79750722413E+02 0.  0.
         25    2    1    2    0    0  0.20801750106E+03  0.14167513540E+03  0.31085764366E+03  0.41904705861E+03  0.12499935189E+03 0.  0.
         24    2    1    2    0    0 -0.70690352908E+02 -0.41945063467E+02 -0.20570269669E+03  0.23171903887E+03  0.67997052923E+02 0.  0.
        -11    1    3    3    0    0  0.35537554176E+02  0.63223788440E+02 -0.74956947652E+02  0.10430105073E+03  0.00000000000E+00 0.  1.
         12    1    3    3    0    0 -0.10857593094E+02 -0.15979848929E+02 -0.47313932186E+02  0.51106272399E+02  0.00000000000E+00 0. -1.
        -13    1    5    5    0    0 -0.52417561841E+02 -0.19539402270E+02 -0.55652306929E+02  0.78908607243E+02  0.00000000000E+00 0.  1.
         14    1    5    5    0    0 -0.18272791066E+02 -0.22405661198E+02 -0.15005038976E+03  0.15281043163E+03  0.00000000000E+00 0. -1.
          5    1    4    4  502    0  0.15741411098E+03  0.13593365416E+03  0.16828993190E+03  0.26758316809E+03  0.47000000000E+01 0. -1.
         -5    1    4    4    0  502  0.50603390075E+02  0.57414812476E+01  0.14256771176E+03  0.15146389052E+03  0.47000000000E+01 0. -1.
          1    1    1    2  503    0 -0.17098053360E+03 -0.16841004281E+03 -0.66043823938E+03  0.70269122196E+03  0.00000000000E+00 0. -1.
         -4    1    1    2    0  501  0.89734243655E+01  0.21436031360E+02  0.73936126991E+03  0.73972637727E+03  0.00000000000E+00 0.  1.
<mgrwt>
<rscale>  0 0.57334652E+02</rscale>
<asrwt>0</asrwt>
<pdfrwt beam="2">  1        2 0.16079294E+00 0.14145787E+03</pdfrwt>
<pdfrwt beam="1">  1       -3 0.16988221E+00 0.23238455E+02</pdfrwt>
<totfact> 0.40037779E+00</totfact>
</mgrwt>
</event>
<event>
13    1  0.1675423E-008  0.1115552E+03  0.7546771E-02  0.1422776E+00
          2   -1    0    0  502    0  0.00000000000E+00  0.00000000000E+00  0.21665902885E+04  0.21665902885E+04  0.00000000000E+00 0. -1.
          2   -1    0    0  503    0 -0.00000000000E+00 -0.00000000000E+00 -0.18395705766E+04  0.18395705766E+04  0.00000000000E+00 0. -1.
         24    2    1    2    0    0  0.44903418729E+03 -0.18312827813E+03  0.11084382516E+04  0.12128654887E+04  0.85086241211E+02 0.  0.
         25    2    1    2    0    0 -0.46947113189E+03 -0.33080463647E+03 -0.52988898709E+03  0.79135491803E+03  0.12500166585E+03 0.  0.
         24    2    1    2    0    0  0.83622523661E+02  0.44414948538E+03  0.58130346448E+03  0.74099660395E+03  0.83070797661E+02 0.  0.
        -11    1    5    5    0    0 -0.12456480538E+02  0.18890942283E+02  0.39959273231E+02  0.45921401599E+02  0.00000000000E+00 0.  1.
         12    1    5    5    0    0  0.96079004199E+02  0.42525854310E+03  0.54134419125E+03  0.69507520235E+03  0.00000000000E+00 0. -1.
        -11    1    3    3    0    0 -0.97616740779E+00  0.91409669461E+00  0.28498967962E+02  0.28530328608E+02  0.00000000000E+00 0.  1.
         12    1    3    3    0    0  0.45001035470E+03 -0.18404237483E+03  0.10799392837E+04  0.11843351601E+04  0.00000000000E+00 0. -1.
          5    1    4    4  501    0 -0.18310105169E+03 -0.11702553460E+03 -0.28361722353E+03  0.35732588818E+03  0.47000000000E+01 0.  1.
         -5    1    4    4    0  501 -0.28637008020E+03 -0.21377910186E+03 -0.24627176355E+03  0.43402902985E+03  0.47000000000E+01 0.  1.
          1    1    1    2  502    0 -0.57836225038E+02  0.95804413042E+02  0.19924632967E+03  0.22852267803E+03  0.00000000000E+00 0. -1.
          1    1    1    2  503    0 -0.53493540221E+01 -0.26020983821E+02 -0.10320793468E+04  0.10324211763E+04  0.00000000000E+00 0. -1.
<mgrwt>
<rscale>  0 0.54437861E+02</rscale>
<asrwt>0</asrwt>
<pdfrwt beam="1">  1        2 0.31861622E+00 0.11155520E+03</pdfrwt>
<pdfrwt beam="2">  1        2 0.27052508E+00 0.26565150E+02</pdfrwt>
<totfact> 0.14702203E+01</totfact>
</mgrwt>
</event>
<event>
13    1  0.1675423E-008  0.2879065E+03  0.7546771E-02  0.1184997E+00
          2   -1    0    0  503    0  0.00000000000E+00  0.00000000000E+00  0.17191877672E+04  0.17191877672E+04  0.00000000000E+00 0. -1.
          2   -1    0    0  502    0 -0.00000000000E+00 -0.00000000000E+00 -0.13095229311E+04  0.13095229311E+04  0.00000000000E+00 0. -1.
         24    2    1    2    0    0  0.62512341057E+02 -0.23025358583E+02 -0.16222534972E+03  0.19743298851E+03  0.90690467724E+02 0.  0.
         25    2    1    2    0    0  0.34928738937E+03 -0.16765091099E+03 -0.39883124546E+02  0.40905355264E+03  0.12500254788E+03 0.  0.
         24    2    1    2    0    0 -0.12794751158E+03 -0.72969779993E+02 -0.14748785604E+03  0.22278262074E+03  0.78640154573E+02 0.  0.
        -11    1    3    3    0    0  0.23719237161E+02  0.30695474358E+02 -0.28320929922E+02  0.48030088790E+02  0.00000000000E+00 0.  1.
         12    1    3    3    0    0  0.38793103896E+02 -0.53720832941E+02 -0.13390441980E+03  0.14940289972E+03  0.00000000000E+00 0. -1.
        -11    1    5    5    0    0 -0.10580651756E+03 -0.69365668609E+02 -0.15411268846E+03  0.19939241681E+03  0.00000000000E+00 0.  1.
         12    1    5    5    0    0 -0.22140994025E+02 -0.36041113848E+01  0.66248324126E+01  0.23390203928E+02  0.00000000000E+00 0. -1.
          5    1    4    4  501    0  0.93198359881E+02 -0.84722035397E+02  0.32712202189E+02  0.13021495973E+03  0.47000000000E+01 0. -1.
         -5    1    4    4    0  501  0.25608902949E+03 -0.82928875593E+02 -0.72595326735E+02  0.27883859291E+03  0.47000000000E+01 0. -1.
          1    1    1    2  502    0 -0.11182504616E+03  0.37372949845E+02 -0.70147126956E+03  0.71131112767E+03  0.00000000000E+00 0. -1.
          1    1    1    2  503    0 -0.17202717269E+03  0.22627309972E+03  0.14607324360E+04  0.14881304087E+04  0.00000000000E+00 0. -1.
<mgrwt>
<rscale>  0 0.16332120E+03</rscale>
<asrwt>0</asrwt>
<pdfrwt beam="1">  1        2 0.25282173E+00 0.28790649E+03</pdfrwt>
<pdfrwt beam="2">  1        2 0.19257690E+00 0.92647488E+02</pdfrwt>
<totfact> 0.35780844E+01</totfact>
</mgrwt>
</event>
<event>
13    1  0.1675423E-008  0.5621521E+03  0.7546771E-02  0.1117727E+00
          2   -1    0    0  502    0  0.00000000000E+00  0.00000000000E+00  0.21186820987E+03  0.21186820987E+03  0.00000000000E+00 0. -1.
          2   -1    0    0  503    0 -0.00000000000E+00 -0.00000000000E+00 -0.19403356563E+04  0.19403356563E+04  0.00000000000E+00 0. -1.
         24    2    1    2    0    0  0.41743222463E+02  0.15817158102E+03  0.16219559230E+02  0.18255818976E+03  0.79395672951E+02 0.  0.
         25    2    1    2    0    0 -0.12254671887E+03 -0.23311317940E+03 -0.36559755002E+03  0.46759557668E+03  0.12499840812E+03 0.  0.
         24    2    1    2    0    0 -0.41889986641E+02  0.92099555985E+02 -0.34882063724E+03  0.37156787472E+03  0.78420337696E+02 0.  0.
        -11    1    5    5    0    0  0.11837205875E+02  0.37959530672E+02 -0.54120448800E+02  0.67157042743E+02  0.00000000000E+00 0.  1.
         12    1    5    5    0    0 -0.53727192516E+02  0.54140025313E+02 -0.29470018844E+03  0.30441083197E+03  0.00000000000E+00 0. -1.
        -13    1    3    3    0    0 -0.18010044406E+02  0.89617308897E+01  0.79038162706E+01  0.21613528904E+02  0.00000000000E+00 0.  1.
         14    1    3    3    0    0  0.59753266869E+02  0.14920985013E+03  0.83157429595E+01  0.16094466086E+03  0.00000000000E+00 0. -1.
          5    1    4    4  501    0 -0.12963346263E+03 -0.18463381604E+03 -0.34911489045E+03  0.41568952043E+03  0.47000000000E+01 0. -1.
         -5    1    4    4    0  501  0.70867437593E+01 -0.48479363357E+02 -0.16482659566E+02  0.51906056245E+02  0.47000000000E+01 0. -1.
          1    1    1    2  502    0  0.20792788716E+03 -0.78736484001E+02 -0.21780925083E+03  0.31124638138E+03  0.00000000000E+00 0. -1.
          1    1    1    2  503    0 -0.85234404119E+02  0.61578526393E+02 -0.81245956760E+03  0.81923584366E+03  0.00000000000E+00 0. -1.
<mgrwt>
<rscale>  0 0.24312770E+03</rscale>
<asrwt>0</asrwt>
<pdfrwt beam="1">  1        2 0.31157091E-01 0.56215205E+03</pdfrwt>
<pdfrwt beam="2">  1        2 0.28534347E+00 0.10515141E+03</pdfrwt>
<totfact> 0.25516307E+02</totfact>
</mgrwt>
</event>
<event>
13    1  0.1675423E-008  0.3263974E+02  0.7546771E-02  0.1607314E+00
          2   -1    0    0  502    0  0.00000000000E+00  0.00000000000E+00  0.15045977913E+04  0.15045977913E+04  0.00000000000E+00 0. -1.
          2   -1    0    0  503    0 -0.00000000000E+00 -0.00000000000E+00 -0.28837569940E+04  0.28837569940E+04  0.00000000000E+00 0. -1.
         24    2    1    2    0    0  0.83559587235E+02  0.31922824938E+02 -0.29659726285E+02  0.12375895380E+03  0.80220370928E+02 0.  0.
         25    2    1    2    0    0  0.84316969629E+02  0.35498246554E+02 -0.10093414393E+04  0.10211585681E+04  0.12500081342E+03 0.  0.
         24    2    1    2    0    0 -0.11224105313E+03 -0.51463096431E+02 -0.21347608172E+03  0.25811971270E+03  0.76205277482E+02 0.  0.
        -13    1    5    5    0    0 -0.12263234999E+03 -0.40212103877E+02 -0.19799932262E+03  0.23634601397E+03  0.00000000000E+00 0.  1.
         14    1    5    5    0    0  0.10391296865E+02 -0.11250992554E+02 -0.15476759094E+02  0.21773698722E+02  0.00000000000E+00 0. -1.
        -13    1    3    3    0    0  0.25707612030E+02  0.49132052927E+02 -0.30720400727E+02  0.63392294184E+02  0.00000000000E+00 0.  1.
         14    1    3    3    0    0  0.57851975206E+02 -0.17209227989E+02  0.10606744423E+01  0.60366659618E+02  0.00000000000E+00 0. -1.
          5    1    4    4  501    0 -0.27138105208E+02  0.33440963294E+02 -0.27819710693E+03  0.28155016442E+03  0.47000000000E+01 0. -1.
         -5    1    4    4    0  501  0.11145507484E+03  0.20572832597E+01 -0.73114433235E+03  0.73960840372E+03  0.47000000000E+01 0. -1.
          1    1    1    2  502    0 -0.32371678988E+02 -0.41475576089E+01  0.14290221046E+04  0.14293947332E+04  0.00000000000E+00 0. -1.
          1    1    1    2  503    0 -0.23263824749E+02 -0.11810417452E+02 -0.15557040600E+04  0.15559228175E+04  0.00000000000E+00 0. -1.
<mgrwt>
<rscale>  0 0.29181725E+02</rscale>
<asrwt>0</asrwt>
<pdfrwt beam="1">  1        2 0.22126438E+00 0.32639744E+02</pdfrwt>
<pdfrwt beam="2">  1        2 0.42408191E+00 0.26090065E+02</pdfrwt>
<totfact> 0.11288068E+01</totfact>
</mgrwt>
</event>
<event>
13    1  0.1675423E-008  0.5328440E+02  0.7546771E-02  0.1519995E+00
          2   -1    0    0  503    0  0.00000000000E+00  0.00000000000E+00  0.33128950502E+04  0.33128950502E+04  0.00000000000E+00 0. -1.
          2   -1    0    0  502    0 -0.00000000000E+00 -0.00000000000E+00 -0.33108496601E+04  0.33108496601E+04  0.00000000000E+00 0. -1.
         24    2    1    2    0    0 -0.90937428695E+03 -0.68538102740E+02  0.11770476895E+04  0.14912514828E+04  0.82040576426E+02 0.  0.
         25    2    1    2    0    0  0.40678916212E+03  0.23220181886E+03  0.58097252167E+02  0.48825979753E+03  0.12500892796E+03 0.  0.
         24    2    1    2    0    0  0.52158387353E+03 -0.20462391393E+03  0.50981876844E+03  0.76198077837E+03  0.82333751725E+02 0.  0.
        -11    1    3    3    0    0 -0.76129278319E+03 -0.27847411240E+02  0.96597017471E+03  0.12302197196E+04  0.00000000000E+00 0.  1.
         12    1    3    3    0    0 -0.14808150377E+03 -0.40690691500E+02  0.21107751483E+03  0.26103176320E+03  0.00000000000E+00 0. -1.
        -13    1    5    5    0    0  0.24708049104E+03 -0.54489858732E+02  0.21360104085E+03  0.33112432470E+03  0.00000000000E+00 0.  1.
         14    1    5    5    0    0  0.27450338249E+03 -0.15013405520E+03  0.29621772759E+03  0.43085645367E+03  0.00000000000E+00 0. -1.
          5    1    4    4  501    0  0.33668450805E+03  0.22219200356E+03  0.85147529887E+02  0.41230805990E+03  0.47000000000E+01 0. -1.
         -5    1    4    4    0  501  0.70104654069E+02  0.10009815302E+02 -0.27050277720E+02  0.75951737631E+02  0.47000000000E+01 0. -1.
          1    1    1    2  502    0  0.60127461563E+01  0.52945732088E+02 -0.28121532615E+04  0.28126580613E+04  0.00000000000E+00 0. -1.
          1    1    1    2  503    0 -0.25011494854E+02 -0.11985534284E+02  0.10692349413E+04  0.10695945903E+04  0.00000000000E+00 0. -1.
<mgrwt>
<rscale>  0 0.38442692E+02</rscale>
<asrwt>0</asrwt>
<pdfrwt beam="1">  1        2 0.48719045E+00 0.27734958E+02</pdfrwt>
<pdfrwt beam="2">  1        2 0.48688965E+00 0.53284398E+02</pdfrwt>
<totfact> 0.84269456E-01</totfact>
</mgrwt>
</event>
<event>
13    1  0.1675423E-008  0.1264768E+03  0.7546771E-02  0.1326773E+00
          2   -1    0    0  503    0  0.00000000000E+00  0.00000000000E+00  0.76282782039E+03  0.76282782039E+03  0.00000000000E+00 0. -1.
          2   -1    0    0  502    0 -0.00000000000E+00 -0.00000000000E+00 -0.44499308111E+04  0.44499308111E+04  0.00000000000E+00 0. -1.
         24    2    1    2    0    0  0.89433210770E+00  0.34481297676E+02  0.11020042559E+03  0.14090083392E+03  0.80741262558E+02 0.  0.
         25    2    1    2    0    0 -0.97874109851E+02 -0.37072396634E+03 -0.39398722256E+03  0.56379639054E+03  0.12499935142E+03 0.  0.
         24    2    1    2    0    0  0.85977072350E+02  0.13446762553E+03 -0.32839360976E+03  0.37405981522E+03  0.81269816966E+02 0.  0.
        -11    1    5    5    0    0  0.12111713854E+02 -0.10703439835E+02 -0.32471989737E+02  0.36272404859E+02  0.00000000000E+00 0.  1.
         12    1    5    5    0    0  0.73865358496E+02  0.14517106537E+03 -0.29592162002E+03  0.33778741036E+03  0.00000000000E+00 0. -1.
        -11    1    3    3    0    0 -0.39890219723E+02  0.16439403098E+02  0.56761029740E+02  0.71297251706E+02  0.00000000000E+00 0.  1.
         12    1    3    3    0    0  0.40784551830E+02  0.18041894579E+02  0.53439395854E+02  0.69603582215E+02  0.00000000000E+00 0. -1.
          5    1    4    4  501    0  0.24777853094E+02 -0.11489131976E+03 -0.91278747870E+02  0.14888874092E+03  0.47000000000E+01 0. -1.
         -5    1    4    4    0  501 -0.12265196295E+03 -0.25583264658E+03 -0.30270847469E+03  0.41490764963E+03  0.47000000000E+01 0. -1.
          1    1    1    2  502    0  0.98505008987E+01  0.50681650116E+02 -0.35934943830E+04  0.35938652649E+04  0.00000000000E+00 0. -1.
          1    1    1    2  503    0  0.11522044946E+01  0.15109339301E+03  0.51857179894E+03  0.54013632691E+03  0.00000000000E+00 0. -1.
<mgrwt>
<rscale>  0 0.80808441E+02</rscale>
<asrwt>0</asrwt>
<pdfrwt beam="1">  1        2 0.11218056E+00 0.12647681E+03</pdfrwt>
<pdfrwt beam="2">  1        2 0.65440158E+00 0.51630050E+02</pdfrwt>
<totfact> 0.26195076E+00</totfact>
</mgrwt>
</event>
<event>
13    1  0.1675423E-008  0.1474204E+03  0.7546771E-02  0.1305380E+00
          2   -1    0    0  503    0  0.00000000000E+00  0.00000000000E+00  0.13394796231E+04  0.13394796231E+04  0.00000000000E+00 0. -1.
          2   -1    0    0  502    0 -0.00000000000E+00 -0.00000000000E+00 -0.10935582134E+04  0.10935582134E+04  0.00000000000E+00 0. -1.
         24    2    1    2    0    0 -0.44493266869E+03 -0.13111023993E+03  0.63378862675E+02  0.48005932158E+03  0.10623133870E+03 0.  0.
         25    2    1    2    0    0  0.15682128410E+03 -0.16448233226E+03 -0.45428323533E+03  0.52311076346E+03  0.12499704068E+03 0.  0.
         24    2    1    2    0    0  0.17902288732E+03  0.15909009943E+03  0.51712270373E+02  0.25793022093E+03  0.80591476230E+02 0.  0.
        -11    1    5    5    0    0  0.37108712341E+02  0.34867757557E+02  0.46960075350E+02  0.69268071473E+02  0.00000000000E+00 0.  1.
         12    1    5    5    0    0  0.14191417498E+03  0.12422234188E+03  0.47521950232E+01  0.18866214946E+03  0.00000000000E+00 0. -1.
        -13    1    3    3    0    0 -0.27584581332E+03 -0.12010220510E+03  0.75484019388E+02  0.31018267131E+03  0.00000000000E+00 0.  1.
         14    1    3    3    0    0 -0.16908685537E+03 -0.11008034828E+02 -0.12105156713E+02  0.16987665027E+03  0.00000000000E+00 0. -1.
          5    1    4    4  501    0  0.18859093181E+02  0.16319641999E+02 -0.18090430085E+02  0.31166484743E+02  0.47000000000E+01 0. -1.
         -5    1    4    4    0  501  0.13796219092E+03 -0.18080197426E+03 -0.43619280524E+03  0.49194427872E+03  0.47000000000E+01 0. -1.
          1    1    1    2  502    0 -0.11783123884E+02  0.52378247914E+02 -0.28471417738E+03  0.28973174777E+03  0.00000000000E+00 0. -1.
          1    1    1    2  503    0  0.12087162115E+03  0.84124224840E+02  0.86982768938E+03  0.88220578280E+03  0.00000000000E+00 0. -1.
<mgrwt>
<rscale>  0 0.88964037E+02</rscale>
<asrwt>0</asrwt>
<pdfrwt beam="1">  1        2 0.19698230E+00 0.14742042E+03</pdfrwt>
<pdfrwt beam="2">  1        2 0.16081738E+00 0.53687269E+02</pdfrwt>
<totfact> 0.78751153E+01</totfact>
</mgrwt>
</event>
<event>
13    1  0.1675423E-008  0.2361879E+03  0.7546771E-02  0.1311527E+00
          2   -1    0    0  502    0  0.00000000000E+00  0.00000000000E+00  0.15398990155E+04  0.15398990155E+04  0.00000000000E+00 0. -1.
          2   -1    0    0  503    0 -0.00000000000E+00 -0.00000000000E+00 -0.15123451630E+04  0.15123451630E+04  0.00000000000E+00 0. -1.
         24    2    1    2    0    0  0.44667468510E+02 -0.30989723118E+03  0.87011150909E+03  0.92825563079E+03  0.80826983204E+02 0.  0.
         25    2    1    2    0    0 -0.21328547818E+03  0.28197284949E+03  0.49972210771E+03  0.62477675042E+03  0.12499767950E+03 0.  0.
         24    2    1    2    0    0  0.12200283099E+03 -0.21985494182E+03 -0.69200007694E+03  0.74078889844E+03  0.81750837018E+02 0.  0.
        -11    1    5    5    0    0 -0.14907043794E+00 -0.39814728543E+02 -0.18227912994E+03  0.18657683683E+03  0.00000000000E+00 0.  1.
         12    1    5    5    0    0  0.12215190142E+03 -0.18004021328E+03 -0.50972094700E+03  0.55421206161E+03  0.00000000000E+00 0. -1.
        -13    1    3    3    0    0  0.55156538950E+02 -0.11555878603E+03  0.31589947699E+03  0.34086442522E+03  0.00000000000E+00 0.  1.
         14    1    3    3    0    0 -0.10489070440E+02 -0.19433844515E+03  0.55421203210E+03  0.58739120557E+03  0.00000000000E+00 0. -1.
          5    1    4    4  501    0 -0.18282502430E+03  0.18715637852E+03  0.27861770233E+03  0.38223345430E+03  0.47000000000E+01 0. -1.
         -5    1    4    4    0  501 -0.30460453886E+02  0.94816470965E+02  0.22110440538E+03  0.24254329612E+03  0.47000000000E+01 0. -1.
          1    1    1    2  502    0 -0.22636331212E+02  0.22174272805E+02  0.26732675430E+02  0.41457662752E+02  0.00000000000E+00 0. -1.
          1    1    1    2  503    0  0.69251509899E+02  0.22560505071E+03 -0.67701236270E+03  0.71696523610E+03  0.00000000000E+00 0. -1.
<mgrwt>
<rscale>  0 0.86511386E+02</rscale>
<asrwt>0</asrwt>
<pdfrwt beam="1">  1        2 0.22645574E+00 0.31687566E+02</pdfrwt>
<pdfrwt beam="2">  1        2 0.22240370E+00 0.23618791E+03</pdfrwt>
<totfact> 0.38891134E+01</totfact>
</mgrwt>
</event>
<event>
13    1  0.1675423E-008  0.9705566E+02  0.7546771E-02  0.1362410E+00
          2   -1    0    0  503    0  0.00000000000E+00  0.00000000000E+00  0.25862663204E+04  0.25862663204E+04  0.00000000000E+00 0. -1.
          2   -1    0    0  502    0 -0.00000000000E+00 -0.00000000000E+00 -0.15070143946E+04  0.15070143946E+04  0.00000000000E+00 0. -1.
         24    2    1    2    0    0 -0.27206953346E+03 -0.17002605072E+03  0.93627155131E+03  0.99439362147E+03  0.96351272258E+02 0.  0.
         25    2    1    2    0    0  0.22317928424E+03 -0.21896583122E+03  0.21594620256E+03  0.40001580443E+03  0.12499941293E+03 0.  0.
         24    2    1    2    0    0 -0.47639699246E+02  0.28195714761E+03  0.62652597975E+03  0.69330075610E+03  0.79760648647E+02 0.  0.
        -11    1    5    5    0    0 -0.44837264685E+02  0.64209051374E+02  0.18878531162E+03  0.20438462874E+03  0.00000000000E+00 0.  1.
         12    1    5    5    0    0 -0.28024345611E+01  0.21774809624E+03  0.43774066812E+03  0.48891612735E+03  0.00000000000E+00 0. -1.
        -11    1    3    3    0    0 -0.13427756776E+03 -0.13969690069E+03  0.55521721191E+03  0.58805768566E+03  0.00000000000E+00 0.  1.
         12    1    3    3    0    0 -0.13779196570E+03 -0.30329150034E+02  0.38105433940E+03  0.40633593580E+03  0.00000000000E+00 0. -1.
          5    1    4    4  501    0  0.59815925638E+02 -0.87483929918E+01  0.81909163614E+02  0.10191015859E+03  0.47000000000E+01 0. -1.
         -5    1    4    4    0  501  0.16336335861E+03 -0.21021743823E+03  0.13403703895E+03  0.29810564584E+03  0.47000000000E+01 0. -1.
          1    1    1    2  502    0  0.73685912508E+02  0.63104431087E+02 -0.13498492083E+04  0.13533309529E+04  0.00000000000E+00 0. -1.
          1    1    1    2  503    0  0.22844035951E+02  0.43930303241E+02  0.65035740044E+03  0.65223958009E+03  0.00000000000E+00 0. -1.
<mgrwt>
<rscale>  0 0.69323140E+02</rscale>
<asrwt>0</asrwt>
<pdfrwt beam="1">  1        2 0.38033328E+00 0.49514862E+02</pdfrwt>
<pdfrwt beam="2">  1        2 0.22161976E+00 0.97055665E+02</pdfrwt>
<totfact> 0.12951956E+01</totfact>
</mgrwt>
</event>
<event>
13    1  0.1675423E-008  0.4676709E+02  0.7546771E-02  0.1577085E+00
          2   -1    0    0  503    0  0.00000000000E+00  0.00000000000E+00  0.10507232328E+04  0.10507232328E+04  0.00000000000E+00 0. -1.
          2   -1    0    0  502    0 -0.00000000000E+00 -0.00000000000E+00 -0.30124826140E+04  0.30124826140E+04  0.00000000000E+00 0. -1.
         24    2    1    2    0    0 -0.32809509927E+02  0.88000604981E+01  0.12919346053E+03  0.15578595860E+03  0.80152415095E+02 0.  0.
         25    2    1    2    0    0 -0.98345191930E+02 -0.79206363828E+02 -0.16637208607E+04  0.16731823140E+04  0.12500611479E+03 0.  0.
         24    2    1    2    0    0  0.86805880532E+02  0.98937929900E+02  0.17070949426E+03  0.23473988091E+03  0.92936028499E+02 0.  0.
        -11    1    3    3    0    0 -0.48564267435E+02  0.88134593974E-01  0.12893849237E+03  0.13778109687E+03  0.00000000000E+00 0.  1.
         12    1    3    3    0    0  0.15754757508E+02  0.87119259041E+01  0.25496815910E+00  0.18004861729E+02  0.00000000000E+00 0. -1.
        -13    1    5    5    0    0  0.19678801698E+02  0.81292989893E+02  0.12906622853E+03  0.15379823402E+03  0.00000000000E+00 0.  1.
         14    1    5    5    0    0  0.67127078833E+02  0.17644940007E+02  0.41643265730E+02  0.80941646890E+02  0.00000000000E+00 0. -1.
          5    1    4    4  501    0  0.20086304728E+02 -0.46476420761E+02 -0.66043631766E+03  0.66239092462E+03  0.47000000000E+01 0. -1.
         -5    1    4    4    0  501 -0.11843149666E+03 -0.32729943067E+02 -0.10032845430E+04  0.10107913894E+04  0.47000000000E+01 0. -1.
          1    1    1    2  502    0  0.25313358641E+02 -0.39322457282E+02 -0.12981276235E+04  0.12989697259E+04  0.00000000000E+00 0. -1.
          1    1    1    2  503    0  0.19035462684E+02  0.10790830712E+02  0.70018614826E+03  0.70052796738E+03  0.00000000000E+00 0. -1.
<mgrwt>
<rscale>  0 0.31989440E+02</rscale>
<asrwt>0</asrwt>
<pdfrwt beam="1">  1        2 0.15451813E+00 0.21881290E+02</pdfrwt>
<pdfrwt beam="2">  1        2 0.44301214E+00 0.46767090E+02</pdfrwt>
<totfact> 0.14978059E+01</totfact>
</mgrwt>
</event>
<event>
13    1  0.1675423E-008  0.9968904E+02  0.7546771E-02  0.1323402E+00
          2   -1    0    0  502    0  0.00000000000E+00  0.00000000000E+00  0.21193149387E+04  0.21193149387E+04  0.00000000000E+00 0. -1.
          2   -1    0    0  503    0 -0.00000000000E+00 -0.00000000000E+00 -0.47023774304E+04  0.47023774304E+04  0.00000000000E+00 0. -1.
         24    2    1    2    0    0  0.10407409511E+03 -0.96549741285E+01 -0.18020280460E+03  0.22497337262E+03  0.84943109223E+02 0.  0.
         25    2    1    2    0    0 -0.65064943638E+01  0.30679580987E+02  0.37879626940E+02  0.13432901086E+03  0.12500338341E+03 0.  0.
         24    2    1    2    0    0  0.14492517140E+02  0.45496486920E+02 -0.49969546347E+03  0.50794930673E+03  0.77697996265E+02 0.  0.
        -11    1    5    5    0    0  0.75260890418E+01 -0.22033942229E+02 -0.13282786547E+03  0.13485317376E+03  0.00000000000E+00 0.  1.
         12    1    5    5    0    0  0.69664280977E+01  0.67530429149E+02 -0.36686759800E+03  0.37309613298E+03  0.00000000000E+00 0. -1.
        -11    1    3    3    0    0  0.28181682642E+02  0.36296417051E+02 -0.62942450640E+02  0.77931952496E+02  0.00000000000E+00 0.  1.
         12    1    3    3    0    0  0.75892412465E+02 -0.45951391180E+02 -0.11726035396E+03  0.14704142012E+03  0.00000000000E+00 0. -1.
          5    1    4    4  501    0 -0.22157972868E+02 -0.43873679572E+02  0.58045827004E+00  0.49379170230E+02  0.47000000000E+01 0. -1.
         -5    1    4    4    0  501  0.15651478504E+02  0.74553260559E+02  0.37299168670E+02  0.84949840628E+02  0.47000000000E+01 0. -1.
          1    1    1    2  502    0 -0.29516331667E+02  0.60693739567E+02  0.20046739806E+04  0.20058097398E+04  0.00000000000E+00 0. -1.
          1    1    1    2  503    0 -0.82543786216E+02 -0.12721483334E+03 -0.39457178312E+04  0.39486309392E+04  0.00000000000E+00 0. -1.
<mgrwt>
<rscale>  0 0.82024664E+02</rscale>
<asrwt>0</asrwt>
<pdfrwt beam="1">  1        2 0.31166396E+00 0.67490324E+02</pdfrwt>
<pdfrwt beam="2">  1        2 0.69152609E+00 0.99689037E+02</pdfrwt>
<totfact> 0.28494528E-01</totfact>
</mgrwt>
</event>
<event>
13    1  0.1675423E-008  0.1645481E+03  0.7546771E-02  0.1212770E+00
          2   -1    0    0  503    0  0.00000000000E+00  0.00000000000E+00  0.34872229914E+03  0.34872229914E+03  0.00000000000E+00 0. -1.
          2   -1    0    0  502    0 -0.00000000000E+00 -0.00000000000E+00 -0.23282522560E+04  0.23282522560E+04  0.00000000000E+00 0. -1.
         24    2    1    2    0    0 -0.13225313094E+03  0.86888682018E+02  0.17219396031E+03  0.24758696515E+03  0.81289677292E+02 0.  0.
         25    2    1    2    0    0 -0.13363375112E+03 -0.16785042199E+03 -0.96953430098E+03  0.10008259735E+04  0.12499649899E+03 0.  0.
         24    2    1    2    0    0  0.27215230170E+01 -0.16507607636E+02 -0.94621780431E+02  0.12590752063E+03  0.81360399585E+02 0.  0.
        -11    1    5    5    0    0 -0.12780019741E+02 -0.46549205058E+02 -0.64975312855E+02  0.80944108351E+02  0.00000000000E+00 0.  1.
         12    1    5    5    0    0  0.15501542758E+02  0.30041597423E+02 -0.29646467577E+02  0.44963412274E+02  0.00000000000E+00 0. -1.
        -13    1    3    3    0    0 -0.27637096267E+02 -0.14025491812E+02  0.43733617216E+02  0.53601798342E+02  0.00000000000E+00 0.  1.
         14    1    3    3    0    0 -0.10461603468E+03  0.10091417383E+03  0.12846034310E+03  0.19398516680E+03  0.00000000000E+00 0. -1.
          5    1    4    4  501    0 -0.13410599020E+03 -0.15043264847E+03 -0.64447883945E+03  0.67526991851E+03  0.47000000000E+01 0.  1.
         -5    1    4    4    0  501  0.47223908549E+00 -0.17417773519E+02 -0.32505546153E+03  0.32555605495E+03  0.47000000000E+01 0.  1.
          1    1    1    2  502    0  0.16223740404E+03 -0.32925406432E+02 -0.11220494119E+04  0.11341957240E+04  0.00000000000E+00 0. -1.
          1    1    1    2  503    0  0.10092795500E+03  0.13039475404E+03  0.34481576097E+02  0.16845837193E+03  0.00000000000E+00 0. -1.
<mgrwt>
<rscale>  0 0.14041633E+03</rscale>
<asrwt>0</asrwt>
<pdfrwt beam="1">  1        2 0.51282693E-01 0.16454808E+03</pdfrwt>
<pdfrwt beam="2">  1        2 0.34239003E+00 0.11982361E+03</pdfrwt>
<totfact> 0.93983902E+01</totfact>
</mgrwt>
</event>
<event>
13    1  0.1675423E-008  0.9117315E+02  0.7546771E-02  0.1352475E+00
         -1   -1    0    0    0  501 -0.00000000000E+00  0.00000000000E+00  0.59655705296E+03  0.59655705296E+03  0.00000000000E+00 0.  1.
          2   -1    0    0  503    0  0.00000000000E+00 -0.00000000000E+00 -0.84756309482E+03  0.84756309482E+03  0.00000000000E+00 0. -1.
         24    2    1    2    0    0 -0.48967052003E+02  0.70460854397E+02 -0.10769622018E+03  0.15589373987E+03  0.73088152983E+02 0.  0.
         25    2    1    2    0    0 -0.21160651846E+01 -0.12261406514E+03 -0.24244023039E+03  0.29906720950E+03  0.12500097515E+03 0.  0.
         24    2    1    2    0    0  0.50418728819E+01 -0.28325749959E+02 -0.69576079012E+02  0.11358695794E+03  0.85049383602E+02 0.  0.
        -13    1    3    3    0    0  0.10968489954E+02 -0.74237040307E+01 -0.21077892282E+02  0.24893707969E+02  0.00000000000E+00 0.  1.
         14    1    3    3    0    0 -0.59935541956E+02  0.77884558427E+02 -0.86618327898E+02  0.13100003190E+03  0.00000000000E+00 0. -1.
        -13    1    5    5    0    0 -0.16877994773E+02 -0.45807646110E+02 -0.13117216556E+02  0.50549663894E+02  0.00000000000E+00 0.  1.
         14    1    5    5    0    0  0.21919867655E+02  0.17481896151E+02 -0.56458862456E+02  0.63037294048E+02  0.00000000000E+00 0. -1.
          5    1    4    4  502    0 -0.62799948215E+02 -0.73114987973E+02 -0.14008650379E+03  0.17010571274E+03  0.47000000000E+01 0. -1.
         -5    1    4    4    0  502  0.60683883031E+02 -0.49499077165E+02 -0.10235372659E+03  0.12896149676E+03  0.47000000000E+01 0. -1.
          1    1    1    2  503    0  0.85459294534E+02  0.38867417341E+02 -0.34557802628E+03  0.35810353168E+03  0.00000000000E+00 0. -1.
         -2    1    1    2    0  501 -0.39418050228E+02  0.41611543359E+02  0.51428451400E+03  0.51746870878E+03  0.00000000000E+00 0.  1.
<mgrwt>
<rscale>  0 0.72289853E+02</rscale>
<asrwt>0</asrwt>
<pdfrwt beam="2">  1        2 0.12464163E+00 0.91173148E+02</pdfrwt>
<pdfrwt beam="1">  1       -1 0.87728979E-01 0.57317565E+02</pdfrwt>
<totfact> 0.59515559E+01</totfact>
</mgrwt>
</event>
<event>
13    1  0.1675423E-008  0.1356860E+03  0.7546771E-02  0.1238942E+00
          2   -1    0    0  503    0  0.00000000000E+00  0.00000000000E+00  0.42720922887E+04  0.42720922887E+04  0.00000000000E+00 0. -1.
          2   -1    0    0  502    0 -0.00000000000E+00 -0.00000000000E+00 -0.46582356581E+03  0.46582356581E+03  0.00000000000E+00 0. -1.
         24    2    1    2    0    0  0.33368192316E+02  0.72083653542E+02  0.58354716678E+03  0.59433061349E+03  0.79950565430E+02 0.  0.
         25    2    1    2    0    0 -0.62236069044E+02 -0.12585441406E+03 -0.93852799292E+02  0.21010765028E+03  0.12499685973E+03 0.  0.
         24    2    1    2    0    0  0.18329688703E+03 -0.75140926754E+02  0.82736833166E+03  0.85413885590E+03  0.75966579871E+02 0.  0.
        -11    1    3    3    0    0  0.94176379291E+01 -0.14372266071E+02  0.41611669436E+02  0.45019828625E+02  0.00000000000E+00 0.  1.
         12    1    3    3    0    0  0.23950554387E+02  0.86455919614E+02  0.54193549734E+03  0.54931078487E+03  0.00000000000E+00 0. -1.
        -13    1    5    5    0    0 -0.55095159057E+01 -0.11651501800E+02  0.44841731070E+02  0.46657187068E+02  0.00000000000E+00 0.  1.
         14    1    5    5    0    0  0.18880640293E+03 -0.63489424954E+02  0.78252660059E+03  0.80748166883E+03  0.00000000000E+00 0. -1.
          5    1    4    4  501    0  0.10775901146E+02 -0.23014468570E+02 -0.78888757911E+02  0.83013926143E+02  0.47000000000E+01 0.  1.
         -5    1    4    4    0  501 -0.73011970190E+02 -0.10283994549E+03 -0.14964041381E+02  0.12709372414E+03  0.47000000000E+01 0.  1.
          1    1    1    2  502    0 -0.13379236155E+03  0.20159154899E+02 -0.27839085667E+03  0.30952908848E+03  0.00000000000E+00 0. -1.
          1    1    1    2  503    0 -0.20636648748E+02  0.10875253238E+03  0.27675968804E+04  0.27698096464E+04  0.00000000000E+00 0. -1.
<mgrwt>
<rscale>  0 0.12255415E+03</rscale>
<asrwt>0</asrwt>
<pdfrwt beam="1">  1        2 0.62824884E+00 0.11069320E+03</pdfrwt>
<pdfrwt beam="2">  1        2 0.68503468E-01 0.13568602E+03</pdfrwt>
<totfact> 0.51702614E+00</totfact>
</mgrwt>
</event>
<event>
13    1  0.1675423E-008  0.1339906E+03  0.7546771E-02  0.1362921E+00
          2   -1    0    0  503    0  0.00000000000E+00  0.00000000000E+00  0.14438182390E+04  0.14438182390E+04  0.00000000000E+00 0. -1.
          2   -1    0    0  502    0 -0.00000000000E+00 -0.00000000000E+00 -0.39242455370E+03  0.39242455370E+03  0.00000000000E+00 0. -1.
         24    2    1    2    0    0  0.16311962631E+03 -0.97915965790E+02  0.17647471653E+03  0.27162232713E+03  0.80248452829E+02 0.  0.
         25    2    1    2    0    0 -0.19572501428E+03  0.12126122682E+03 -0.17562747033E+03  0.31540980206E+03  0.12500307419E+03 0.  0.
         24    2    1    2    0    0  0.49680166363E+02 -0.12449731201E+03  0.34121993561E+03  0.37549266802E+03  0.81215759853E+02 0.  0.
        -11    1    5    5    0    0  0.62316086387E+01 -0.31966754924E+02  0.19121093582E+03  0.19396476057E+03  0.00000000000E+00 0.  1.
         12    1    5    5    0    0  0.43448557724E+02 -0.92530557088E+02  0.15000899979E+03  0.18152790745E+03  0.00000000000E+00 0. -1.
        -13    1    3    3    0    0  0.13067098257E+03 -0.37392952630E+02  0.13406407824E+03  0.19090918172E+03  0.00000000000E+00 0.  1.
         14    1    3    3    0    0  0.32448643737E+02 -0.60523013160E+02  0.42410638294E+02  0.80713145415E+02  0.00000000000E+00 0. -1.
          5    1    4    4  501    0 -0.25946552551E+02 -0.17748998277E+02  0.36807671283E+01  0.31998258949E+02  0.47000000000E+01 0. -1.
         -5    1    4    4    0  501 -0.16977846173E+03  0.13901022509E+03 -0.17930823746E+03  0.28341154311E+03  0.47000000000E+01 0. -1.
          1    1    1    2  502    0 -0.12727751854E+02 -0.33367711031E+02 -0.72273011652E+02  0.80615060751E+02  0.00000000000E+00 0. -1.
          1    1    1    2  503    0 -0.43470265304E+01  0.13451976202E+03  0.78159951517E+03  0.79310293476E+03  0.00000000000E+00 0. -1.
<mgrwt>
<rscale>  0 0.69174942E+02</rscale>
<asrwt>0</asrwt>
<pdfrwt beam="1">  1        2 0.21232621E+00 0.13399063E+03</pdfrwt>
<pdfrwt beam="2">  1        2 0.57709494E-01 0.35712740E+02</pdfrwt>
<totfact> 0.22290708E+02</totfact>
</mgrwt>
</event>
<event>
13    1  0.1675423E-008  0.4905068E+02  0.7546771E-02  0.1547914E+00
          2   -1    0    0  503    0  0.00000000000E+00  0.00000000000E+00  0.12717046257E+04  0.12717046257E+04  0.00000000000E+00 0. -1.
          2   -1    0    0  502    0 -0.00000000000E+00 -0.00000000000E+00 -0.63695511665E+03  0.63695511665E+03  0.00000000000E+00 0. -1.
         24    2    1    2    0    0  0.75583061681E+02  0.27181723209E+01  0.54916054702E+03  0.56015284892E+03  0.80459431202E+02 0.  0.
         25    2    1    2    0    0 -0.62463221338E+02 -0.32609903758E+01 -0.35457348892E+03  0.38113017278E+03  0.12500224591E+03 0.  0.
         24    2    1    2    0    0 -0.81168441692E+02  0.29652361238E+02 -0.61136944995E+02  0.13286304597E+03  0.80294984196E+02 0.  0.
        -11    1    3    3    0    0 -0.10038979146E+02 -0.18476761132E+02  0.76770134939E+02  0.79597898356E+02  0.00000000000E+00 0.  1.
         12    1    3    3    0    0  0.85622040826E+02  0.21194933453E+02  0.47239041209E+03  0.48055495056E+03  0.00000000000E+00 0. -1.
        -11    1    5    5    0    0 -0.52377921805E+02  0.56795747559E+02 -0.31541399410E+02  0.83450964705E+02  0.00000000000E+00 0.  1.
         12    1    5    5    0    0 -0.28790519887E+02 -0.27143386321E+02 -0.29595545585E+02  0.49412081264E+02  0.00000000000E+00 0. -1.
          5    1    4    4  501    0  0.31708336743E+02  0.10177157877E+02 -0.39003521574E+02  0.51501047142E+02  0.47000000000E+01 0.  1.
         -5    1    4    4    0  501 -0.94171558081E+02 -0.13438148253E+02 -0.31556996734E+03  0.32962912564E+03  0.47000000000E+01 0.  1.
          1    1    1    2  502    0  0.22400384525E+02 -0.11290092205E+02 -0.16475771585E+03  0.16665637804E+03  0.00000000000E+00 0. -1.
          1    1    1    2  503    0  0.45648216825E+02 -0.17819450978E+02  0.66605711176E+03  0.66785729663E+03  0.00000000000E+00 0. -1.
<mgrwt>
<rscale>  0 0.35077384E+02</rscale>
<asrwt>0</asrwt>
<pdfrwt beam="1">  1        2 0.18701539E+00 0.49050683E+02</pdfrwt>
<pdfrwt beam="2">  1        2 0.93669870E-01 0.25084725E+02</pdfrwt>
<totfact> 0.17840550E+02</totfact>
</mgrwt>
</event>
<event>
13    1  0.1675423E-008  0.7227250E+02  0.7546771E-02  0.1367378E+00
          2   -1    0    0  502    0  0.00000000000E+00  0.00000000000E+00  0.35279475021E+03  0.35279475021E+03  0.00000000000E+00 0. -1.
          2   -1    0    0  503    0 -0.00000000000E+00 -0.00000000000E+00 -0.25834155693E+04  0.25834155693E+04  0.00000000000E+00 0. -1.
         24    2    1    2    0    0  0.80843505762E+02  0.27942656701E+02 -0.12624203484E+03  0.17563422074E+03  0.87142777355E+02 0.  0.
         25    2    1    2    0    0 -0.23236836939E+03  0.20495577373E+02 -0.20466698532E+03  0.33455694803E+03  0.12499859523E+03 0.  0.
         24    2    1    2    0    0  0.64817297372E+02  0.72868467058E+01 -0.23423773552E+03  0.25642736077E+03  0.81445039333E+02 0.  0.
        -13    1    3    3    0    0  0.20327924916E+02  0.23607985820E+01 -0.10441690914E+03  0.10640342483E+03  0.00000000000E+00 0.  1.
         14    1    3    3    0    0  0.60515580846E+02  0.25581858119E+02 -0.21825125704E+02  0.69230795908E+02  0.00000000000E+00 0. -1.
        -13    1    5    5    0    0  0.71398795027E+01 -0.24693369571E+02 -0.20902644782E+02  0.33130966466E+02  0.00000000000E+00 0.  1.
         14    1    5    5    0    0  0.57677417870E+02  0.31980216276E+02 -0.21333509074E+03  0.22329639430E+03  0.00000000000E+00 0. -1.
          5    1    4    4  501    0 -0.20199859934E+03 -0.18093401940E+02 -0.20021706237E+03  0.28502590653E+03  0.47000000000E+01 0.  1.
         -5    1    4    4    0  501 -0.30369770054E+02  0.38588979313E+02 -0.44499229437E+01  0.49531041497E+02  0.47000000000E+01 0.  1.
          1    1    1    2  502    0  0.14777044638E+02 -0.62060127296E+02  0.24733011176E+03  0.25542514486E+03  0.00000000000E+00 0. -1.
          1    1    1    2  503    0  0.71930521618E+02  0.63350465161E+01 -0.19128041752E+04  0.19141666451E+04  0.00000000000E+00 0. -1.
<mgrwt>
<rscale>  0 0.67901654E+02</rscale>
<asrwt>0</asrwt>
<pdfrwt beam="1">  1        2 0.51881581E-01 0.63795144E+02</pdfrwt>
<pdfrwt beam="2">  1        2 0.37991406E+00 0.72272500E+02</pdfrwt>
<totfact> 0.73968858E+01</totfact>
</mgrwt>
</event>
<event>
13    1  0.1675423E-008  0.1771056E+03  0.7546771E-02  0.1252016E+00
          2   -1    0    0  502    0  0.00000000000E+00  0.00000000000E+00  0.26444591671E+04  0.26444591671E+04  0.00000000000E+00 0. -1.
          2   -1    0    0  503    0 -0.00000000000E+00 -0.00000000000E+00 -0.18821397530E+04  0.18821397530E+04  0.00000000000E+00 0. -1.
         24    2    1    2    0    0 -0.15068851599E+03  0.58134299925E+01  0.35692228160E+03  0.39570246486E+03  0.80287612825E+02 0.  0.
         25    2    1    2    0    0 -0.11832540819E+03  0.24919533776E+03 -0.10799107426E+04  0.11215754510E+04  0.12500024718E+03 0.  0.
         24    2    1    2    0    0 -0.52770645001E+02  0.31550499405E+02  0.33121718201E+03  0.34635158769E+03  0.80463815785E+02 0.  0.
        -13    1    5    5    0    0  0.14707971818E+02  0.14252525133E+02  0.16299437109E+03  0.16427606008E+03  0.00000000000E+00 0.  1.
         14    1    5    5    0    0 -0.67478616819E+02  0.17297974272E+02  0.16822281092E+03  0.18207552762E+03  0.00000000000E+00 0. -1.
        -13    1    3    3    0    0 -0.13752134236E+03  0.31468954872E+02  0.31060063533E+03  0.34113805035E+03  0.00000000000E+00 0.  1.
         14    1    3    3    0    0 -0.13167173634E+02 -0.25655524879E+02  0.46321646271E+02  0.54564414517E+02  0.00000000000E+00 0. -1.
          5    1    4    4  501    0 -0.12098701448E+03  0.25992774613E+03 -0.98441726881E+03  0.10253290886E+04  0.47000000000E+01 0.  1.
         -5    1    4    4    0  501  0.26616062932E+01 -0.10732408369E+02 -0.95493473781E+02  0.96246362385E+02  0.47000000000E+01 0.  1.
          1    1    1    2  502    0  0.28678235464E+03 -0.22096347357E+03  0.18894698251E+04  0.19238412605E+04  0.00000000000E+00 0. -1.
          1    1    1    2  503    0  0.35002214540E+02 -0.65595793594E+02 -0.73537913207E+03  0.73912815604E+03  0.00000000000E+00 0. -1.
<mgrwt>
<rscale>  0 0.11475124E+03</rscale>
<asrwt>0</asrwt>
<pdfrwt beam="1">  1        2 0.38889105E+00 0.17710555E+03</pdfrwt>
<pdfrwt beam="2">  1        2 0.27678526E+00 0.74350273E+02</pdfrwt>
<totfact> 0.68711117E+00</totfact>
</mgrwt>
</event>
<event>
13    1  0.1675423E-008  0.1499359E+03  0.7546771E-02  0.1328833E+00
          2   -1    0    0  502    0  0.00000000000E+00  0.00000000000E+00  0.14415086135E+04  0.14415086135E+04  0.00000000000E+00 0. -1.
          2   -1    0    0  503    0 -0.00000000000E+00 -0.00000000000E+00 -0.71714208012E+03  0.71714208012E+03  0.00000000000E+00 0. -1.
         24    2    1    2    0    0  0.47022923108E+02 -0.46777085669E+02  0.30468105460E+03  0.32150012272E+03  0.78310489910E+02 0.  0.
         25    2    1    2    0    0 -0.84723913659E+02  0.23635702753E+02  0.31691970481E+03  0.35185348640E+03  0.12500395436E+03 0.  0.
         24    2    1    2    0    0 -0.90196605073E+02 -0.82995741881E+02 -0.15130930572E+03  0.21094190558E+03  0.81106478135E+02 0.  0.
        -11    1    5    5    0    0  0.11544439860E+01  0.98434804582E+01 -0.34817882294E+02  0.36200991366E+02  0.00000000000E+00 0.  1.
         12    1    5    5    0    0 -0.91351049059E+02 -0.92839222339E+02 -0.11649142343E+03  0.17474091421E+03  0.00000000000E+00 0. -1.
        -11    1    3    3    0    0  0.11924674297E+02 -0.62250637151E+02  0.20958918990E+03  0.21896339468E+03  0.00000000000E+00 0.  1.
         12    1    3    3    0    0  0.35098248811E+02  0.15473551483E+02  0.95091864700E+02  0.10253672804E+03  0.00000000000E+00 0. -1.
          5    1    4    4  501    0 -0.44848042841E+02 -0.42436149240E+02  0.71716090182E+02  0.94749465961E+02  0.47000000000E+01 0.  1.
         -5    1    4    4    0  501 -0.39875870819E+02  0.66071851993E+02  0.24520361463E+03  0.25710402044E+03  0.47000000000E+01 0.  1.
          1    1    1    2  502    0 -0.20955881845E+02  0.37281129370E+02  0.75040860440E+03  0.75162630685E+03  0.00000000000E+00 0. -1.
          1    1    1    2  503    0  0.14885347747E+03  0.68855995427E+02 -0.49633352475E+03  0.52272887203E+03  0.00000000000E+00 0. -1.
<mgrwt>
<rscale>  0 0.80077052E+02</rscale>
<asrwt>0</asrwt>
<pdfrwt beam="1">  1        2 0.21198656E+00 0.42767179E+02</pdfrwt>
<pdfrwt beam="2">  1        2 0.10546207E+00 0.14993587E+03</pdfrwt>
<totfact> 0.12466568E+02</totfact>
</mgrwt>
</event>
<event>
13    1  0.1675423E-008  0.6296608E+02  0.7546771E-02  0.1438922E+00
          2   -1    0    0  503    0  0.00000000000E+00  0.00000000000E+00  0.77023055090E+03  0.77023055090E+03  0.00000000000E+00 0. -1.
          2   -1    0    0  502    0 -0.00000000000E+00 -0.00000000000E+00 -0.42897637195E+04  0.42897637195E+04  0.00000000000E+00 0. -1.
         24    2    1    2    0    0 -0.52484947383E+02  0.30975524741E+02  0.33483290683E+03  0.34960344897E+03  0.79970889740E+02 0.  0.
         25    2    1    2    0    0  0.34084176523E+02 -0.28370005221E+02 -0.14899276292E+04  0.14958239965E+04  0.12505398764E+03 0.  0.
         24    2    1    2    0    0  0.14960222412E+02  0.99829584909E+02  0.18579395349E+03  0.22614827568E+03  0.80211564998E+02 0.  0.
        -11    1    3    3    0    0  0.16400367535E+02  0.24697454941E+02  0.73064023150E+02  0.78849780055E+02  0.00000000000E+00 0.  1.
         12    1    3    3    0    0 -0.68885314919E+02  0.62780698000E+01  0.26176888368E+03  0.27075366892E+03  0.00000000000E+00 0. -1.
        -13    1    5    5    0    0  0.28341481607E+01  0.84915816804E+02  0.73869198431E+02  0.11258502039E+03  0.00000000000E+00 0.  1.
         14    1    5    5    0    0  0.12126074251E+02  0.14913768105E+02  0.11192475506E+03  0.11356325529E+03  0.00000000000E+00 0. -1.
          5    1    4    4  501    0 -0.17534615438E+02  0.24046497535E+02 -0.11372469697E+03  0.11764817671E+03  0.47000000000E+01 0. -1.
         -5    1    4    4    0  501  0.51618791961E+02 -0.52416502756E+02 -0.13762029322E+04  0.13781758198E+04  0.47000000000E+01 0. -1.
          1    1    1    2  502    0  0.11326435686E+02 -0.40079133318E+02 -0.27646576616E+04  0.27649713580E+04  0.00000000000E+00 0. -1.
          1    1    1    2  503    0 -0.78858872374E+01 -0.62355971112E+02  0.21442526186E+03  0.22344719125E+03  0.00000000000E+00 0. -1.
<mgrwt>
<rscale>  0 0.51209993E+02</rscale>
<asrwt>0</asrwt>
<pdfrwt beam="1">  1        2 0.11326920E+00 0.62966076E+02</pdfrwt>
<pdfrwt beam="2">  1        2 0.63084761E+00 0.41648830E+02</pdfrwt>
<totfact> 0.36693936E+00</totfact>
</mgrwt>
</event>
<event>
13    1  0.1675423E-008  0.2879298E+03  0.7546771E-02  0.1171097E+00
          2   -1    0    0  502    0  0.00000000000E+00  0.00000000000E+00  0.13729096867E+04  0.13729096867E+04  0.00000000000E+00 0. -1.
          2   -1    0    0  503    0 -0.00000000000E+00 -0.00000000000E+00 -0.15320866848E+04  0.15320866848E+04  0.00000000000E+00 0. -1.
         24    2    1    2    0    0 -0.24311879834E+02  0.39855962004E+02  0.45912008346E+03  0.46845502625E+03  0.80494070467E+02 0.  0.
         25    2    1    2    0    0 -0.13115708617E+03 -0.36909039537E+03 -0.10070837291E+02  0.41128395348E+03  0.12499266945E+03 0.  0.
         24    2    1    2    0    0 -0.11104028373E+03  0.32934068062E+03 -0.23735770673E+03  0.42853746021E+03  0.80687330711E+02 0.  0.
        -13    1    3    3    0    0  0.25429109929E+02 -0.33979766047E+00  0.19756371286E+03  0.19919381449E+03  0.00000000000E+00 0.  1.
         14    1    3    3    0    0 -0.49740989763E+02  0.40195759665E+02  0.26155637060E+03  0.26926121176E+03  0.00000000000E+00 0. -1.
        -13    1    5    5    0    0  0.94828220030E+01  0.14389849572E+02 -0.20997026807E+01  0.17360888088E+02  0.00000000000E+00 0.  1.
         14    1    5    5    0    0 -0.12052310573E+03  0.31495083105E+03 -0.23525800405E+03  0.41117657212E+03  0.00000000000E+00 0. -1.
          5    1    4    4  501    0 -0.16209950210E+02 -0.21391998946E+03  0.21101171230E+02  0.21561974354E+03  0.47000000000E+01 0.  1.
         -5    1    4    4    0  501 -0.11494713596E+03 -0.15517040591E+03 -0.31172008521E+02  0.19566420994E+03  0.47000000000E+01 0.  1.
          1    1    1    2  502    0 -0.99198080548E+01  0.97634967121E+02  0.58691513954E+03  0.59506333312E+03  0.00000000000E+00 0. -1.
          1    1    1    2  503    0  0.27642905779E+03 -0.97741214379E+02 -0.95778367708E+03  0.10016565984E+04  0.00000000000E+00 0. -1.
<mgrwt>
<rscale>  0 0.17663847E+03</rscale>
<asrwt>0</asrwt>
<pdfrwt beam="1">  1        2 0.20189849E+00 0.10836374E+03</pdfrwt>
<pdfrwt beam="2">  1        2 0.22530686E+00 0.28792981E+03</pdfrwt>
<totfact> 0.40954325E+01</totfact>
</mgrwt>
</event>
<event>
13    1  0.1675423E-008  0.1205084E+03  0.7546771E-02  0.1328746E+00
          2   -1    0    0  503    0  0.00000000000E+00  0.00000000000E+00  0.11976722602E+04  0.11976722602E+04  0.00000000000E+00 0. -1.
          2   -1    0    0  502    0 -0.00000000000E+00 -0.00000000000E+00 -0.16627308246E+04  0.16627308246E+04  0.00000000000E+00 0. -1.
         24    2    1    2    0    0  0.83485100021E+02  0.20870503264E+03  0.12876126766E+03  0.27208629041E+03  0.83210172487E+02 0.  0.
         25    2    1    2    0    0 -0.10671535435E+03 -0.21642518225E+03  0.22282443495E+03  0.35142312342E+03  0.12497782402E+03 0.  0.
         24    2    1    2    0    0  0.17796125278E+02 -0.92457361815E+02  0.60845846201E+01  0.12313933924E+03  0.79127800865E+02 0.  0.
        -11    1    3    3    0    0  0.34918219894E+02  0.16609663837E+03  0.11768376129E+03  0.20653533119E+03  0.00000000000E+00 0.  1.
         12    1    3    3    0    0  0.48566880126E+02  0.42608394266E+02  0.11077506373E+02  0.65550959219E+02  0.00000000000E+00 0. -1.
        -11    1    5    5    0    0  0.33706209619E+02 -0.23579187762E+02  0.27255769777E+02  0.49345350829E+02  0.00000000000E+00 0.  1.
         12    1    5    5    0    0 -0.15910084340E+02 -0.68878174053E+02 -0.21171185157E+02  0.73793988411E+02  0.00000000000E+00 0. -1.
          5    1    4    4  501    0 -0.99706776924E+02 -0.66673057745E+02  0.11884179377E+03  0.16891477123E+03  0.47000000000E+01 0. -1.
         -5    1    4    4    0  501 -0.70085774222E+01 -0.14975212450E+03  0.10398264119E+03  0.18250835219E+03  0.47000000000E+01 0. -1.
          1    1    1    2  502    0  0.58412951692E+02  0.10555998188E+03 -0.14646589459E+04  0.14696192740E+04  0.00000000000E+00 0. -1.
          1    1    1    2  503    0 -0.52978822644E+02 -0.53824704548E+01  0.64193009427E+03  0.64413505771E+03  0.00000000000E+00 0. -1.
<mgrwt>
<rscale>  0 0.80107800E+02</rscale>
<asrwt>0</asrwt>
<pdfrwt beam="1">  1        2 0.17612827E+00 0.53251541E+02</pdfrwt>
<pdfrwt beam="2">  1        2 0.24451924E+00 0.12050843E+03</pdfrwt>
<totfact> 0.48524294E+01</totfact>
</mgrwt>
</event>
<event>
13    1  0.1675423E-008  0.6171429E+02  0.7546771E-02  0.1450995E+00
          2   -1    0    0  502    0  0.00000000000E+00  0.00000000000E+00  0.33043306492E+03  0.33043306492E+03  0.00000000000E+00 0. -1.
          2   -1    0    0  503    0 -0.00000000000E+00 -0.00000000000E+00 -0.29811875291E+04  0.29811875291E+04  0.00000000000E+00 0. -1.
         24    2    1    2    0    0 -0.12067930121E+03 -0.20041798880E+03 -0.17648754781E+04  0.17820984913E+04  0.79741555705E+02 0.  0.
         25    2    1    2    0    0  0.15278514865E+03  0.24056605861E+03 -0.12602717202E+03  0.33573790083E+03  0.12498703840E+03 0.  0.
         24    2    1    2    0    0  0.10029227257E+02 -0.51696420515E+02 -0.20331862599E+03  0.22478063319E+03  0.80092222407E+02 0.  0.
        -13    1    3    3    0    0 -0.47895740673E+02 -0.84141683842E+02 -0.10291227452E+04  0.10336669917E+04  0.00000000000E+00 0.  1.
         14    1    3    3    0    0 -0.72783560534E+02 -0.11627630496E+03 -0.73575273283E+03  0.74843149964E+03  0.00000000000E+00 0. -1.
        -13    1    5    5    0    0  0.53751641350E+01 -0.69240776166E+02 -0.18992066732E+03  0.20222026938E+03  0.00000000000E+00 0.  1.
         14    1    5    5    0    0  0.46540631219E+01  0.17544355652E+02 -0.13397958675E+02  0.22560363814E+02  0.00000000000E+00 0. -1.
          5    1    4    4  501    0 -0.26289382491E+01  0.10377305101E+03 -0.47515174631E+02  0.11426083866E+03  0.47000000000E+01 0.  1.
         -5    1    4    4    0  501  0.15541408689E+03  0.13679300760E+03 -0.78511997389E+02  0.22147706217E+03  0.47000000000E+01 0.  1.
          1    1    1    2  502    0  0.14879093347E+02  0.35890627566E+02  0.20313140255E+03  0.20681366315E+03  0.00000000000E+00 0. -1.
          1    1    1    2  503    0 -0.57014168043E+02 -0.24342276856E+02 -0.75966459065E+03  0.76218990553E+03  0.00000000000E+00 0. -1.
<mgrwt>
<rscale>  0 0.48966936E+02</rscale>
<asrwt>0</asrwt>
<pdfrwt beam="1">  1        2 0.48593099E-01 0.38852601E+02</pdfrwt>
<pdfrwt beam="2">  1        2 0.43840992E+00 0.61714294E+02</pdfrwt>
<totfact> 0.50715321E+01</totfact>
</mgrwt>
</event>
<event>
13    1  0.1675423E-008  0.7875345E+02  0.7546771E-02  0.1332766E+00
          2   -1    0    0  503    0  0.00000000000E+00  0.00000000000E+00  0.27413743505E+04  0.27413743505E+04  0.00000000000E+00 0. -1.
          2   -1    0    0  502    0 -0.00000000000E+00 -0.00000000000E+00 -0.26192320932E+04  0.26192320932E+04  0.00000000000E+00 0. -1.
         24    2    1    2    0    0 -0.12325742266E+03  0.31364885582E+02  0.37837159404E+02  0.15805420441E+03  0.85868111730E+02 0.  0.
         25    2    1    2    0    0  0.16203747611E+03 -0.74974337512E+02  0.15954590352E+03  0.27010482620E+03  0.12499770740E+03 0.  0.
         24    2    1    2    0    0 -0.38860204576E+02 -0.11787440881E+02 -0.42784581338E+03  0.43721855028E+03  0.80367664003E+02 0.  0.
        -11    1    3    3    0    0  0.11610144653E+02  0.16009934853E+01  0.13389505446E+02  0.17794310750E+02  0.00000000000E+00 0.  1.
         12    1    3    3    0    0 -0.13486756732E+03  0.29763892096E+02  0.24447653958E+02  0.14025989366E+03  0.00000000000E+00 0. -1.
        -11    1    5    5    0    0 -0.56357687374E+02  0.79451920273E+01 -0.35919594330E+03  0.36367711047E+03  0.00000000000E+00 0.  1.
         12    1    5    5    0    0  0.17497482798E+02 -0.19732632908E+02 -0.68649870087E+02  0.73541439806E+02  0.00000000000E+00 0. -1.
          5    1    4    4  501    0  0.57749661964E+02  0.24943819606E+02  0.13219575020E+02  0.64452034547E+02  0.47000000000E+01 0. -1.
         -5    1    4    4    0  501  0.10428781414E+03 -0.99918157118E+02  0.14632632850E+03  0.20565279165E+03  0.47000000000E+01 0. -1.
          1    1    1    2  502    0 -0.73667225185E+02  0.27570200948E+02 -0.20699239511E+04  0.20714179056E+04  0.00000000000E+00 0. -1.
          1    1    1    2  503    0  0.73747376320E+02  0.27826691864E+02  0.24225289588E+04  0.24238109572E+04  0.00000000000E+00 0. -1.
<mgrwt>
<rscale>  0 0.78705375E+02</rscale>
<asrwt>0</asrwt>
<pdfrwt beam="1">  1        2 0.40314329E+00 0.78753446E+02</pdfrwt>
<pdfrwt beam="2">  1        2 0.38518119E+00 0.78657333E+02</pdfrwt>
<totfact> 0.29968782E+00</totfact>
</mgrwt>
</event>
<event>
13    1  0.1675423E-008  0.1150631E+03  0.7546771E-02  0.1311688E+00
         -1   -1    0    0    0  501 -0.00000000000E+00  0.00000000000E+00  0.44600888654E+03  0.44600888654E+03  0.00000000000E+00 0.  1.
          2   -1    0    0  503    0  0.00000000000E+00 -0.00000000000E+00 -0.20978654120E+04  0.20978654120E+04  0.00000000000E+00 0. -1.
         24    2    1    2    0    0  0.34318737115E+02  0.29378444718E+02 -0.15829721724E+03  0.18374328975E+03  0.81625478930E+02 0.  0.
         25    2    1    2    0    0 -0.16456626359E+02 -0.22394827614E+02  0.17804305890E+03  0.21931109562E+03  0.12500270791E+03 0.  0.
         24    2    1    2    0    0 -0.11614345569E+03 -0.42252011354E+02 -0.25373480258E+03  0.29358538525E+03  0.80848584569E+02 0.  0.
        -11    1    3    3    0    0  0.58279874347E+02  0.92273477198E+01 -0.79904031606E+02  0.99329461726E+02  0.00000000000E+00 0.  1.
         12    1    3    3    0    0 -0.23961137232E+02  0.20151096998E+02 -0.78393185634E+02  0.84413828023E+02  0.00000000000E+00 0. -1.
        -11    1    5    5    0    0  0.26156529344E+01 -0.13350343526E+02 -0.80092874971E+02  0.81240026672E+02  0.00000000000E+00 0.  1.
         12    1    5    5    0    0 -0.11875910862E+03 -0.28901667829E+02 -0.17364192761E+03  0.21234535858E+03  0.00000000000E+00 0. -1.
          5    1    4    4  502    0 -0.19133497742E+01 -0.71912931361E+02  0.12996457568E+03  0.14862036043E+03  0.47000000000E+01 0. -1.
         -5    1    4    4    0  502 -0.14543276585E+02  0.49518103747E+02  0.48078483219E+02  0.70690735187E+02  0.47000000000E+01 0. -1.
          1    1    1    2  503    0  0.31032757661E+02 -0.57056104803E+02 -0.16166603374E+04  0.16179644860E+04  0.00000000000E+00 0. -1.
         -2    1    1    2    0  501  0.67248587270E+02  0.92324499053E+02  0.19879277287E+03  0.22927004201E+03  0.00000000000E+00 0.  1.
<mgrwt>
<rscale>  0 0.86448156E+02</rscale>
<asrwt>0</asrwt>
<pdfrwt beam="2">  1        2 0.30850962E+00 0.64949451E+02</pdfrwt>
<pdfrwt beam="1">  1       -1 0.65589542E-01 0.11506308E+03</pdfrwt>
<totfact> 0.24706152E+01</totfact>
</mgrwt>
</event>
<event>
13    1  0.1675423E-008  0.1647286E+03  0.7546771E-02  0.1192120E+00
          2   -1    0    0  503    0  0.00000000000E+00  0.00000000000E+00  0.15204330557E+04  0.15204330557E+04  0.00000000000E+00 0. -1.
          2   -1    0    0  502    0 -0.00000000000E+00 -0.00000000000E+00 -0.27049645200E+04  0.27049645200E+04  0.00000000000E+00 0. -1.
         24    2    1    2    0    0  0.25079859106E+03 -0.12224871977E+03  0.15202808509E+02  0.29148066984E+03  0.82976941015E+02 0.  0.
         25    2    1    2    0    0 -0.29085027941E+03 -0.31522198085E+03 -0.25349483782E+03  0.51365564318E+03  0.12499481879E+03 0.  0.
         24    2    1    2    0    0 -0.39259365315E+02  0.10152680437E+02 -0.30851016569E+03  0.32130644122E+03  0.80093271580E+02 0.  0.
        -11    1    5    5    0    0 -0.57026484142E+02 -0.12413569665E+02 -0.24050666762E+03  0.24748651231E+03  0.00000000000E+00 0.  1.
         12    1    5    5    0    0  0.17767118827E+02  0.22566250102E+02 -0.68003498069E+02  0.73819928913E+02  0.00000000000E+00 0. -1.
        -13    1    3    3    0    0  0.16593622233E+03 -0.10880922288E+03  0.39217227131E+02  0.20226781200E+03  0.00000000000E+00 0.  1.
         14    1    3    3    0    0  0.84862368731E+02 -0.13439496890E+02 -0.24014418621E+02  0.89212857846E+02  0.00000000000E+00 0. -1.
          5    1    4    4  501    0 -0.12340525274E+03 -0.22421999555E+03 -0.15148149347E+03  0.29744276033E+03  0.47000000000E+01 0. -1.
         -5    1    4    4    0  501 -0.16744502667E+03 -0.91001985293E+02 -0.10201334435E+03  0.21621288285E+03  0.47000000000E+01 0. -1.
          1    1    1    2  502    0  0.15234314577E+02  0.29207005260E+03 -0.18522753008E+04  0.18752228640E+04  0.00000000000E+00 0. -1.
          1    1    1    2  503    0  0.64076739083E+02  0.13524796759E+03  0.12145460314E+04  0.12237319575E+04  0.00000000000E+00 0. -1.
<mgrwt>
<rscale>  0 0.15700549E+03</rscale>
<asrwt>0</asrwt>
<pdfrwt beam="1">  1        2 0.22359310E+00 0.14964443E+03</pdfrwt>
<pdfrwt beam="2">  1        2 0.39778890E+00 0.16472864E+03</pdfrwt>
<totfact> 0.91029670E+00</totfact>
</mgrwt>
</event>
<event>
13    1  0.1675423E-008  0.7140046E+02  0.7546771E-02  0.1474807E+00
          4   -1    0    0  503    0 -0.00000000000E+00  0.00000000000E+00  0.12743259976E+04  0.12743259976E+04  0.00000000000E+00 0. -1.
          2   -1    0    0  502    0  0.00000000000E+00 -0.00000000000E+00 -0.29052161909E+03  0.29052161909E+03  0.00000000000E+00 0. -1.
         24    2    1    2    0    0  0.42927795449E+02  0.25517782989E+01 -0.83559439371E+02  0.12317533822E+03  0.79628367075E+02 0.  0.
         25    2    1    2    0    0  0.77558320761E+02  0.58400777579E+02  0.13126502086E+03  0.20562492358E+03  0.12500063821E+03 0.  0.
         24    2    1    2    0    0 -0.37031513991E+02 -0.58503092177E+02  0.22875580987E+03  0.25278595876E+03  0.82326032160E+02 0.  0.
        -11    1    3    3    0    0  0.66039976000E+02 -0.47653575346E+01 -0.62847910629E+02  0.91289905975E+02  0.00000000000E+00 0.  1.
         12    1    3    3    0    0 -0.23112180551E+02  0.73171358336E+01 -0.20711528741E+02  0.31885432245E+02  0.00000000000E+00 0. -1.
        -13    1    5    5    0    0  0.11844896847E+01  0.16486206974E+02  0.12482159281E+02  0.20712371582E+02  0.00000000000E+00 0.  1.
         14    1    5    5    0    0 -0.38216003676E+02 -0.74989299152E+02  0.21627365059E+03  0.23207358718E+03  0.00000000000E+00 0. -1.
          5    1    4    4  501    0  0.28999444049E+02  0.75761005855E+02  0.21185232246E+02  0.83973816328E+02  0.47000000000E+01 0. -1.
         -5    1    4    4    0  501  0.48558876712E+02 -0.17360228276E+02  0.11007978861E+03  0.12165110725E+03  0.47000000000E+01 0. -1.
          1    1    1    2  502    0 -0.16739400772E+02  0.22777985501E+02 -0.13498803578E+03  0.13791596704E+03  0.00000000000E+00 0. -1.
          3    1    1    2  503    0 -0.66715201447E+02 -0.25227449201E+02  0.84233102297E+03  0.84534542913E+03  0.00000000000E+00 0. -1.
<mgrwt>
<rscale>  0 0.44925530E+02</rscale>
<asrwt>0</asrwt>
<pdfrwt beam="2">  1        2 0.42723768E-01 0.28267369E+02</pdfrwt>
<pdfrwt beam="1">  1        4 0.18740088E+00 0.71400461E+02</pdfrwt>
<totfact> 0.10696481E+01</totfact>
</mgrwt>
</event>
<event>
13    1  0.1675423E-008  0.1061036E+03  0.7546771E-02  0.1289371E+00
         -3   -1    0    0    0  501 -0.00000000000E+00  0.00000000000E+00  0.14980784509E+04  0.14980784509E+04  0.00000000000E+00 0.  1.
          2   -1    0    0  503    0  0.00000000000E+00 -0.00000000000E+00 -0.12775722597E+04  0.12775722597E+04  0.00000000000E+00 0. -1.
         24    2    1    2    0    0 -0.57328609631E+02  0.46157426798E+02 -0.27898869629E+03  0.29375571611E+03  0.55142094272E+02 0.  0.
         25    2    1    2    0    0  0.41454972596E+01 -0.35992155108E+03  0.63052878332E+03  0.73671702705E+03  0.12499889308E+03 0.  0.
         24    2    1    2    0    0  0.93132799884E+00  0.23142877324E+03 -0.11090661274E+03  0.26898131450E+03  0.80563802950E+02 0.  0.
        -11    1    3    3    0    0 -0.42539168849E+01  0.32377630287E+01 -0.12735803338E+03  0.12747018312E+03  0.00000000000E+00 0.  1.
         12    1    3    3    0    0 -0.53074692746E+02  0.42919663769E+02 -0.15163066291E+03  0.16628553299E+03  0.00000000000E+00 0. -1.
        -13    1    5    5    0    0 -0.11994272739E+02  0.19642987254E+03 -0.59753052456E+02  0.20566716968E+03  0.00000000000E+00 0.  1.
         14    1    5    5    0    0  0.12925600738E+02  0.34998900691E+02 -0.51153560287E+02  0.63314144818E+02  0.00000000000E+00 0. -1.
          5    1    4    4  502    0  0.25666559582E+02 -0.82501915099E+02  0.25520384422E+03  0.26947435941E+03  0.47000000000E+01 0.  1.
         -5    1    4    4    0  502 -0.21521062322E+02 -0.27741963598E+03  0.37532493911E+03  0.46724266764E+03  0.47000000000E+01 0.  1.
          1    1    1    2  503    0  0.11734672898E+03 -0.14759346981E+01 -0.73964393136E+03  0.74889624006E+03  0.00000000000E+00 0. -1.
         -4    1    1    2    0  501 -0.65094944602E+02  0.83811285747E+02  0.71951664825E+03  0.72730041285E+03  0.00000000000E+00 0.  1.
<mgrwt>
<rscale>  0 0.95805805E+02</rscale>
<asrwt>0</asrwt>
<pdfrwt beam="2">  1        2 0.18787827E+00 0.86507486E+02</pdfrwt>
<pdfrwt beam="1">  1       -3 0.22030565E+00 0.10610356E+03</pdfrwt>
<totfact> 0.16175876E+00</totfact>
</mgrwt>
</event>
<event>
13    1  0.1675423E-008  0.9266545E+02  0.7546771E-02  0.1412289E+00
          2   -1    0    0  502    0  0.00000000000E+00  0.00000000000E+00  0.17566750417E+04  0.17566750417E+04  0.00000000000E+00 0. -1.
          2   -1    0    0  503    0 -0.00000000000E+00 -0.00000000000E+00 -0.91895254563E+03  0.91895254563E+03  0.00000000000E+00 0. -1.
         24    2    1    2    0    0 -0.70397718806E+02 -0.15748465965E+03  0.88917279980E+03  0.90932868293E+03  0.80579953175E+02 0.  0.
         25    2    1    2    0    0  0.65862053150E+02  0.14212939219E+03 -0.11614879056E+03  0.23163437641E+03  0.12500147445E+03 0.  0.
         24    2    1    2    0    0  0.81872606339E+02  0.10251258593E+02  0.28327975112E+03  0.30586160685E+03  0.80595863293E+02 0.  0.
        -13    1    5    5    0    0  0.35255125781E+02  0.42011493765E+02  0.99427257485E+02  0.11355029297E+03  0.00000000000E+00 0.  1.
         14    1    5    5    0    0  0.46617480558E+02 -0.31760235172E+02  0.18385249363E+03  0.19231131388E+03  0.00000000000E+00 0. -1.
        -13    1    3    3    0    0 -0.52892374325E+02 -0.28598831421E+02  0.30067966554E+03  0.30663293641E+03  0.00000000000E+00 0.  1.
         14    1    3    3    0    0 -0.17505344481E+02 -0.12888582822E+03  0.58849313426E+03  0.60269574652E+03  0.00000000000E+00 0. -1.
          5    1    4    4  501    0  0.61826902299E+02  0.16480506772E+03 -0.95323347921E+02  0.20022963530E+03  0.47000000000E+01 0. -1.
         -5    1    4    4    0  501  0.40351508511E+01 -0.22675675524E+02 -0.20825442639E+02  0.31404741107E+02  0.47000000000E+01 0. -1.
          1    1    1    2  502    0  0.67177717214E+01 -0.34019722336E+02  0.50154024906E+03  0.50273759696E+03  0.00000000000E+00 0. -1.
          1    1    1    2  503    0 -0.84054712404E+02  0.39123731196E+02 -0.72012151334E+03  0.72606532419E+03  0.00000000000E+00 0. -1.
<mgrwt>
<rscale>  0 0.56686219E+02</rscale>
<asrwt>0</asrwt>
<pdfrwt beam="1">  1        2 0.25833457E+00 0.34676649E+02</pdfrwt>
<pdfrwt beam="2">  1        2 0.13514008E+00 0.92665455E+02</pdfrwt>
<totfact> 0.68088104E+01</totfact>
</mgrwt>
</event>
<event>
13    1  0.1675423E-008  0.1036765E+03  0.7546771E-02  0.1361309E+00
          2   -1    0    0  502    0  0.00000000000E+00  0.00000000000E+00  0.76300000092E+03  0.76300000092E+03  0.00000000000E+00 0. -1.
          2   -1    0    0  503    0 -0.00000000000E+00 -0.00000000000E+00 -0.16754659580E+04  0.16754659580E+04  0.00000000000E+00 0. -1.
         24    2    1    2    0    0 -0.26223841494E+02  0.74116744214E+02  0.39889195794E+03  0.41442740624E+03  0.80338653817E+02 0.  0.
         25    2    1    2    0    0 -0.57882948978E+01  0.46877972704E+02 -0.69514304174E+03  0.70787023417E+03  0.12500148500E+03 0.  0.
         24    2    1    2    0    0  0.28324422933E+01  0.38085235112E+02 -0.83414774481E+02  0.12284154588E+03  0.81691571969E+02 0.  0.
        -11    1    3    3    0    0  0.64162302778E+01  0.50618209062E+02  0.33547094871E+03  0.33932893854E+03  0.00000000000E+00 0.  1.
         12    1    3    3    0    0 -0.32640071771E+02  0.23498535152E+02  0.63421009229E+02  0.75098467702E+02  0.00000000000E+00 0. -1.
        -13    1    5    5    0    0 -0.29899464651E+02  0.14313879725E+02 -0.74321421576E+02  0.81378982817E+02  0.00000000000E+00 0.  1.
         14    1    5    5    0    0  0.32731906944E+02  0.23771355387E+02 -0.90933529045E+01  0.41462563068E+02  0.00000000000E+00 0. -1.
          5    1    4    4  501    0 -0.43186322470E+00 -0.40845790512E+02 -0.14443863748E+03  0.15017714575E+03  0.47000000000E+01 0. -1.
         -5    1    4    4    0  501 -0.53564316731E+01  0.87723763216E+02 -0.55070440426E+03  0.55769308842E+03  0.47000000000E+01 0. -1.
          1    1    1    2  502    0  0.75207106731E+02 -0.15070801738E+03  0.30809626007E+03  0.35113006262E+03  0.00000000000E+00 0. -1.
          1    1    1    2  503    0 -0.46027412633E+02 -0.83719346488E+01 -0.84089635883E+03  0.84219670998E+03  0.00000000000E+00 0. -1.
<mgrwt>
<rscale>  0 0.69643774E+02</rscale>
<asrwt>0</asrwt>
<pdfrwt beam="1">  1        2 0.11220588E+00 0.10367647E+03</pdfrwt>
<pdfrwt beam="2">  1        2 0.24639205E+00 0.46782604E+02</pdfrwt>
<totfact> 0.90169919E+01</totfact>
</mgrwt>
</event>
<event>
13    1  0.1675423E-008  0.1035669E+03  0.7546771E-02  0.1285796E+00
          2   -1    0    0  503    0  0.00000000000E+00  0.00000000000E+00  0.74684845189E+03  0.74684845189E+03  0.00000000000E+00 0. -1.
          2   -1    0    0  502    0 -0.00000000000E+00 -0.00000000000E+00 -0.19216712786E+04  0.19216712786E+04  0.00000000000E+00 0. -1.
         24    2    1    2    0    0 -0.30077836019E+02  0.29552049570E+01 -0.21997663568E+02  0.89248970669E+02  0.81043643225E+02 0.  0.
         25    2    1    2    0    0 -0.20529383402E+03  0.10694654093E+03 -0.69750589172E+03  0.74546941218E+03  0.12500821818E+03 0.  0.
         24    2    1    2    0    0  0.81456858213E+02  0.15454895607E+02 -0.25421071186E+02  0.11786474116E+03  0.79823510319E+02 0.  0.
        -13    1    3    3    0    0 -0.25075202830E+02  0.39665804849E+02 -0.15977850716E+01  0.46954177539E+02  0.00000000000E+00 0.  1.
         14    1    3    3    0    0 -0.50026331894E+01 -0.36710599892E+02 -0.20399878497E+02  0.42294793130E+02  0.00000000000E+00 0. -1.
        -13    1    5    5    0    0  0.55124367016E+02  0.29783689735E+02 -0.49148468591E+02  0.79632505787E+02  0.00000000000E+00 0.  1.
         14    1    5    5    0    0  0.26332491198E+02 -0.14328794128E+02  0.23727397405E+02  0.38232235371E+02  0.00000000000E+00 0. -1.
          5    1    4    4  501    0 -0.15053494175E+03  0.57040728441E+02 -0.29427167761E+03  0.33545837839E+03  0.47000000000E+01 0. -1.
         -5    1    4    4    0  501 -0.54758892270E+02  0.49905812485E+02 -0.40323421411E+03  0.41001103379E+03  0.47000000000E+01 0. -1.
          1    1    1    2  502    0  0.97172296156E+02 -0.30239123878E+02 -0.10657059733E+04  0.10705541001E+04  0.00000000000E+00 0. -1.
          1    1    1    2  503    0  0.56742515672E+02 -0.95117517612E+02  0.63580777306E+03  0.64538250637E+03  0.00000000000E+00 0. -1.
<mgrwt>
<rscale>  0 0.97429678E+02</rscale>
<asrwt>0</asrwt>
<pdfrwt beam="1">  1        2 0.10983066E+00 0.91656103E+02</pdfrwt>
<pdfrwt beam="2">  1        2 0.28259871E+00 0.10356694E+03</pdfrwt>
<totfact> 0.65695779E+01</totfact>
</mgrwt>
</event>
<event>
13    1  0.1675423E-008  0.9597500E+02  0.7546771E-02  0.1417931E+00
          2   -1    0    0  503    0  0.00000000000E+00  0.00000000000E+00  0.17947062216E+04  0.17947062216E+04  0.00000000000E+00 0. -1.
          2   -1    0    0  502    0 -0.00000000000E+00 -0.00000000000E+00 -0.93320436463E+03  0.93320436463E+03  0.00000000000E+00 0. -1.
         24    2    1    2    0    0 -0.45546064566E+02  0.40435259957E+01  0.10031213712E+03  0.13663811641E+03  0.80725806920E+02 0.  0.
         25    2    1    2    0    0  0.13525007430E+03  0.13647622388E+03 -0.38670711959E+03  0.44954048838E+03  0.12500364823E+03 0.  0.
         24    2    1    2    0    0 -0.74055271793E+02 -0.24825129685E+02  0.42736434821E+02  0.12058465228E+03  0.81325181591E+02 0.  0.
        -13    1    5    5    0    0  0.90011111520E+01  0.16068203566E+02  0.15532288200E+02  0.24092719741E+02  0.00000000000E+00 0.  1.
         14    1    5    5    0    0 -0.83056382945E+02 -0.40893333251E+02  0.27204146621E+02  0.96491932542E+02  0.00000000000E+00 0. -1.
        -13    1    3    3    0    0 -0.45544549308E+02  0.37613722886E+02  0.67496128390E+02  0.89692951053E+02  0.00000000000E+00 0.  1.
         14    1    3    3    0    0 -0.15152585201E-02 -0.33570196890E+02  0.32816008729E+02  0.46945165357E+02  0.00000000000E+00 0. -1.
          5    1    4    4  501    0  0.15214662455E+03  0.91916034796E+02 -0.26894136270E+03  0.32241076189E+03  0.47000000000E+01 0. -1.
         -5    1    4    4    0  501 -0.16896550244E+02  0.44560189082E+02 -0.11776575689E+03  0.12712972649E+03  0.47000000000E+01 0. -1.
          1    1    1    2  502    0 -0.25096219567E+02 -0.19933335478E+02 -0.45594952903E+03  0.45707453563E+03  0.00000000000E+00 0. -1.
          1    1    1    2  503    0  0.94474816219E+01 -0.95761284711E+02  0.15611099336E+04  0.15640727935E+04  0.00000000000E+00 0. -1.
<mgrwt>
<rscale>  0 0.55461088E+02</rscale>
<asrwt>0</asrwt>
<pdfrwt beam="1">  1        2 0.26392739E+00 0.95974999E+02</pdfrwt>
<pdfrwt beam="2">  1        2 0.13723594E+00 0.32049307E+02</pdfrwt>
<totfact> 0.60825406E+01</totfact>
</mgrwt>
</event>
<event>
13    1  0.1675423E-008  0.8378180E+02  0.7546771E-02  0.1433734E+00
          2   -1    0    0  503    0  0.00000000000E+00  0.00000000000E+00  0.90323068710E+03  0.90323068710E+03  0.00000000000E+00 0. -1.
          2   -1    0    0  502    0 -0.00000000000E+00 -0.00000000000E+00 -0.54979049890E+03  0.54979049890E+03  0.00000000000E+00 0. -1.
         24    2    1    2    0    0  0.12129892651E+03 -0.22059945648E+02  0.27709585882E+03  0.31355276005E+03  0.79581075545E+02 0.  0.
         25    2    1    2    0    0 -0.53173078541E+02 -0.10016336121E+02  0.14251889649E+03  0.19714076557E+03  0.12500056929E+03 0.  0.
         24    2    1    2    0    0 -0.24230497408E+02 -0.36242745730E+02  0.14819512861E+03  0.17530387892E+03  0.82879431707E+02 0.  0.
        -11    1    5    5    0    0 -0.17248543013E+02  0.14070411574E+01  0.13297793335E+03  0.13409930186E+03  0.00000000000E+00 0.  1.
         12    1    5    5    0    0 -0.69819543946E+01 -0.37649786887E+02  0.15217195262E+02  0.41204577069E+02  0.00000000000E+00 0. -1.
        -13    1    3    3    0    0  0.45047914433E+02 -0.46697452875E+02  0.10048056224E+03  0.11960898832E+03  0.00000000000E+00 0.  1.
         14    1    3    3    0    0  0.76251012081E+02  0.24637507227E+02  0.17661529658E+03  0.19394377172E+03  0.00000000000E+00 0. -1.
          5    1    4    4  501    0 -0.85829188356E+02  0.20338456409E+02  0.11314976172E+03  0.14354532719E+03  0.47000000000E+01 0.  1.
         -5    1    4    4    0  501  0.32656109815E+02 -0.30354792530E+02  0.29369134775E+02  0.53595438380E+02  0.47000000000E+01 0.  1.
          1    1    1    2  502    0  0.25661033162E+02  0.20017518264E+02 -0.48364909455E+03  0.48474285587E+03  0.00000000000E+00 0. -1.
          1    1    1    2  503    0 -0.69556383727E+02  0.48301509234E+02  0.26927939883E+03  0.28228092558E+03  0.00000000000E+00 0. -1.
<mgrwt>
<rscale>  0 0.52217766E+02</rscale>
<asrwt>0</asrwt>
<pdfrwt beam="1">  1        2 0.13282804E+00 0.83781805E+02</pdfrwt>
<pdfrwt beam="2">  1        2 0.80851544E-01 0.32545194E+02</pdfrwt>
<totfact> 0.31920163E+02</totfact>
</mgrwt>
</event>
<event>
13    1  0.1675423E-008  0.4733573E+02  0.7546771E-02  0.1549959E+00
         -1   -1    0    0    0  501 -0.00000000000E+00  0.00000000000E+00  0.96447995786E+03  0.96447995786E+03  0.00000000000E+00 0.  1.
          4   -1    0    0  503    0  0.00000000000E+00 -0.00000000000E+00 -0.42359685206E+03  0.42359685206E+03  0.00000000000E+00 0. -1.
         24    2    1    2    0    0 -0.35332618937E+02  0.13545801343E+02 -0.19597295847E+03  0.21532590701E+03  0.80795811063E+02 0.  0.
         25    2    1    2    0    0 -0.11008418189E+02  0.98225021601E+02  0.92417183997E+02  0.18419994672E+03  0.12497737529E+03 0.  0.
         24    2    1    2    0    0  0.21467152893E+02 -0.43410597342E+02 -0.10902972837E+03  0.14688297016E+03  0.85684343027E+02 0.  0.
        -13    1    3    3    0    0  0.23779800075E+02  0.18057928667E+02 -0.61544596808E+02  0.68405446243E+02  0.00000000000E+00 0.  1.
         14    1    3    3    0    0 -0.59112419012E+02 -0.45121273238E+01 -0.13442836166E+03  0.14692046077E+03  0.00000000000E+00 0. -1.
        -13    1    5    5    0    0  0.33351624784E+02  0.16013656591E+02 -0.50764465880E+02  0.62815595749E+02  0.00000000000E+00 0.  1.
         14    1    5    5    0    0 -0.11884471891E+02 -0.59424253933E+02 -0.58265262492E+02  0.84067374414E+02  0.00000000000E+00 0. -1.
          5    1    4    4  502    0 -0.35938271788E+02 -0.11915927116E+02  0.51291759103E+02  0.63925607154E+02  0.47000000000E+01 0. -1.
         -5    1    4    4    0  502  0.24929853599E+02  0.11014094872E+03  0.41125424895E+02  0.12027433956E+03  0.47000000000E+01 0. -1.
          3    1    1    2  503    0  0.11135877647E+02 -0.23110970082E+02 -0.39603944965E+02  0.47186832548E+02  0.00000000000E+00 0. -1.
         -2    1    1    2    0  501  0.13738006586E+02 -0.45249255520E+02  0.79307255360E+03  0.79448115348E+03  0.00000000000E+00 0.  1.
<mgrwt>
<rscale>  0 0.34847497E+02</rscale>
<asrwt>0</asrwt>
<pdfrwt beam="2">  1        4 0.62293655E-01 0.25653941E+02</pdfrwt>
<pdfrwt beam="1">  1       -1 0.14183529E+00 0.47335731E+02</pdfrwt>
<totfact> 0.39096801E+00</totfact>
</mgrwt>
</event>
<event>
13    1  0.1675423E-008  0.1097837E+03  0.7546771E-02  0.1337913E+00
          2   -1    0    0  503    0  0.00000000000E+00  0.00000000000E+00  0.26599443854E+04  0.26599443854E+04  0.00000000000E+00 0. -1.
          2   -1    0    0  502    0 -0.00000000000E+00 -0.00000000000E+00 -0.15330022676E+04  0.15330022676E+04  0.00000000000E+00 0. -1.
         24    2    1    2    0    0 -0.41220125860E+02 -0.85205805032E+02  0.10703858598E+04  0.10779319496E+04  0.85160267517E+02 0.  0.
         25    2    1    2    0    0 -0.37179089551E+02  0.96306006369E+02  0.14418797686E+03  0.21696468734E+03  0.12500548516E+03 0.  0.
         24    2    1    2    0    0  0.81315606116E+01 -0.81012756079E+02 -0.90134772976E+02  0.14603771103E+03  0.81077412504E+02 0.  0.
        -11    1    5    5    0    0  0.64531390794E+01  0.10828392495E+02 -0.38829578447E+02  0.40824419780E+02  0.00000000000E+00 0.  1.
         12    1    5    5    0    0  0.16784215321E+01 -0.91841148574E+02 -0.51305194529E+02  0.10521329125E+03  0.00000000000E+00 0. -1.
        -11    1    3    3    0    0 -0.45049143062E+02 -0.99454731697E+02  0.83870251482E+03  0.84577927222E+03  0.00000000000E+00 0.  1.
         12    1    3    3    0    0  0.38290172014E+01  0.14248926665E+02  0.23168334495E+03  0.23215267737E+03  0.00000000000E+00 0. -1.
          5    1    4    4  501    0 -0.40283315694E+02  0.12555460799E+03  0.11154646878E+03  0.17277560536E+03  0.47000000000E+01 0. -1.
         -5    1    4    4    0  501  0.31042261434E+01 -0.29248601618E+02  0.32641508075E+02  0.44189081977E+02  0.47000000000E+01 0. -1.
          1    1    1    2  502    0  0.29882178921E+02  0.10568020049E+03 -0.13720313120E+04  0.13764196927E+04  0.00000000000E+00 0. -1.
          1    1    1    2  503    0  0.40385475879E+02 -0.35767645747E+02  0.13745343662E+04  0.13755926123E+04  0.00000000000E+00 0. -1.
<mgrwt>
<rscale>  0 0.76958017E+02</rscale>
<asrwt>0</asrwt>
<pdfrwt beam="1">  1        2 0.39116829E+00 0.53947300E+02</pdfrwt>
<pdfrwt beam="2">  1        2 0.22544151E+00 0.10978374E+03</pdfrwt>
<totfact> 0.11317036E+01</totfact>
</mgrwt>
</event>
<event>
13    1  0.1675423E-008  0.1655438E+03  0.7546771E-02  0.1242810E+00
          2   -1    0    0  502    0  0.00000000000E+00  0.00000000000E+00  0.20387734036E+04  0.20387734036E+04  0.00000000000E+00 0. -1.
          2   -1    0    0  503    0 -0.00000000000E+00 -0.00000000000E+00 -0.25452074807E+04  0.25452074807E+04  0.00000000000E+00 0. -1.
         24    2    1    2    0    0 -0.11140434760E+03 -0.82952518959E+01  0.20345182401E+03  0.24566412607E+03  0.80488994767E+02 0.  0.
         25    2    1    2    0    0 -0.69942517426E+02  0.84448991510E+02 -0.37200845905E+03  0.40747779779E+03  0.12499709668E+03 0.  0.
         24    2    1    2    0    0 -0.37635436157E+02 -0.90028639470E+02  0.69331097886E+01  0.12765733971E+03  0.82016744572E+02 0.  0.
        -11    1    5    5    0    0  0.10101128198E+02  0.45116648376E+01  0.18046130477E+02  0.21167208973E+02  0.00000000000E+00 0.  1.
         12    1    5    5    0    0 -0.47736564355E+02 -0.94540304308E+02 -0.11113020689E+02  0.10649013073E+03  0.00000000000E+00 0. -1.
        -13    1    3    3    0    0 -0.34134922741E+00 -0.25301381895E+02  0.39331615006E+02  0.46768070134E+02  0.00000000000E+00 0.  1.
         14    1    3    3    0    0 -0.11106299837E+03  0.17006129999E+02  0.16412020900E+03  0.19889605594E+03  0.00000000000E+00 0. -1.
          5    1    4    4  501    0 -0.40285039432E+02  0.10192474795E+03 -0.16874993081E+03  0.20127137848E+03  0.47000000000E+01 0.  1.
         -5    1    4    4    0  501 -0.29657477994E+02 -0.17475756437E+02 -0.20325852824E+03  0.20620641931E+03  0.47000000000E+01 0.  1.
          1    1    1    2  502    0  0.16064757151E+03  0.78741802861E+02  0.17236360299E+04  0.17328961530E+04  0.00000000000E+00 0. -1.
          1    1    1    2  503    0  0.58334729676E+02 -0.64866903005E+02 -0.20684465817E+04  0.20702854676E+04  0.00000000000E+00 0. -1.
<mgrwt>
<rscale>  0 0.12017440E+03</rscale>
<asrwt>0</asrwt>
<pdfrwt beam="1">  1        2 0.29981962E+00 0.16554379E+03</pdfrwt>
<pdfrwt beam="2">  1        2 0.37429522E+00 0.87239073E+02</pdfrwt>
<totfact> 0.65582362E+00</totfact>
</mgrwt>
</event>
<event>
13    1  0.1675423E-008  0.2414648E+03  0.7546771E-02  0.1240807E+00
          2   -1    0    0  502    0  0.00000000000E+00  0.00000000000E+00  0.20741211014E+04  0.20741211014E+04  0.00000000000E+00 0. -1.
          2   -1    0    0  503    0 -0.00000000000E+00 -0.00000000000E+00 -0.13528137966E+04  0.13528137966E+04  0.00000000000E+00 0. -1.
         24    2    1    2    0    0  0.15679110520E+03  0.45703126156E+02  0.15417518052E+03  0.23793032907E+03  0.78540618714E+02 0.  0.
         25    2    1    2    0    0  0.12950993903E+03  0.53081334410E+02 -0.67156647745E+03  0.69729505386E+03  0.12501362378E+03 0.  0.
         24    2    1    2    0    0  0.13586295048E+03 -0.59696594049E+01 -0.39428772255E+02  0.16328137015E+03  0.81312973196E+02 0.  0.
        -13    1    5    5    0    0  0.14185227185E+03 -0.49255126423E+01 -0.50497398253E+02  0.15065296192E+03  0.00000000000E+00 0.  1.
         14    1    5    5    0    0 -0.59893213727E+01 -0.10441467626E+01  0.11068625998E+02  0.12628408231E+02  0.00000000000E+00 0. -1.
        -13    1    3    3    0    0  0.16278790548E+03  0.52144193088E+02  0.13870344092E+03  0.22013078741E+03  0.00000000000E+00 0.  1.
         14    1    3    3    0    0 -0.59968002749E+01 -0.64410669317E+01  0.15471739603E+02  0.17799541654E+02  0.00000000000E+00 0. -1.
          5    1    4    4  501    0  0.14512743859E+03  0.63174680538E+02 -0.64717297293E+03  0.66626418227E+03  0.47000000000E+01 0.  1.
         -5    1    4    4    0  501 -0.15617499556E+02 -0.10093346129E+02 -0.24393504518E+02  0.31030871582E+02  0.47000000000E+01 0.  1.
          1    1    1    2  502    0 -0.47194251603E+03 -0.57497717802E+02  0.17700221042E+04  0.18327612980E+04  0.00000000000E+00 0. -1.
          1    1    1    2  503    0  0.49778521319E+02 -0.35317083359E+02 -0.49189473026E+03  0.49566684700E+03  0.00000000000E+00 0. -1.
<mgrwt>
<rscale>  0 0.12139876E+03</rscale>
<asrwt>0</asrwt>
<pdfrwt beam="1">  1        2 0.30501781E+00 0.24146481E+03</pdfrwt>
<pdfrwt beam="2">  1        2 0.19894320E+00 0.61034397E+02</pdfrwt>
<totfact> 0.23598377E+01</totfact>
</mgrwt>
</event>
<event>
13    1  0.1675423E-008  0.7771521E+02  0.7546771E-02  0.1467564E+00
         -1   -1    0    0    0  501 -0.00000000000E+00  0.00000000000E+00  0.51965635895E+04  0.51965635895E+04  0.00000000000E+00 0.  1.
          2   -1    0    0  503    0  0.00000000000E+00 -0.00000000000E+00 -0.48447038016E+03  0.48447038016E+03  0.00000000000E+00 0. -1.
         24    2    1    2    0    0  0.54991140127E+03 -0.10010729884E+03  0.15555236532E+03  0.58845899268E+03  0.98302732305E+02 0.  0.
         25    2    1    2    0    0 -0.23003704372E+03  0.31523637323E+03  0.11878283097E+04  0.12565239523E+04  0.12500134693E+03 0.  0.
         24    2    1    2    0    0 -0.39214853176E+03 -0.29127345806E+03  0.92157084284E+03  0.10464557676E+04  0.84594070376E+02 0.  0.
        -11    1    3    3    0    0  0.34082711338E+03 -0.27011583889E+02  0.12881690584E+03  0.36535810119E+03  0.00000000000E+00 0.  1.
         12    1    3    3    0    0  0.20908428789E+03 -0.73095714948E+02  0.26735459483E+02  0.22310089148E+03  0.00000000000E+00 0. -1.
        -11    1    5    5    0    0 -0.25968839408E+03 -0.23862261599E+03  0.63367458434E+03  0.72520500117E+03  0.00000000000E+00 0.  1.
         12    1    5    5    0    0 -0.13246013768E+03 -0.52650842073E+02  0.28789625850E+03  0.32125076639E+03  0.00000000000E+00 0. -1.
          5    1    4    4  502    0 -0.14991435644E+03  0.10634000626E+03  0.60004122844E+03  0.62757794498E+03  0.47000000000E+01 0. -1.
         -5    1    4    4    0  502 -0.80122687282E+02  0.20889636697E+03  0.58778708130E+03  0.62894600729E+03  0.47000000000E+01 0. -1.
          1    1    1    2  503    0  0.19646436392E+02  0.19028840689E+02 -0.16955470130E+03  0.17174654574E+03  0.00000000000E+00 0. -1.
         -2    1    1    2    0  501  0.52627737818E+02  0.57115542988E+02  0.26166963928E+04  0.26178487114E+04  0.00000000000E+00 0.  1.
<mgrwt>
<rscale>  0 0.46104139E+02</rscale>
<asrwt>0</asrwt>
<pdfrwt beam="2">  1        2 0.71245647E-01 0.27351037E+02</pdfrwt>
<pdfrwt beam="1">  1       -1 0.76420050E+00 0.77715210E+02</pdfrwt>
<totfact> 0.15524025E-02</totfact>
</mgrwt>
</event>
<event>
13    1  0.1675423E-008  0.2514188E+03  0.7546771E-02  0.1177271E+00
         -1   -1    0    0    0  501 -0.00000000000E+00  0.00000000000E+00  0.55753492237E+03  0.55753492237E+03  0.00000000000E+00 0.  1.
          2   -1    0    0  503    0  0.00000000000E+00 -0.00000000000E+00 -0.18144327432E+04  0.18144327432E+04  0.00000000000E+00 0. -1.
         24    2    1    2    0    0 -0.17084947471E+03  0.21695849629E+02 -0.46556159891E+03  0.50312182071E+03  0.81998238981E+02 0.  0.
         25    2    1    2    0    0 -0.70102087234E+02 -0.46406849704E+03  0.41058314453E+02  0.48742698080E+03  0.12500161538E+03 0.  0.
         24    2    1    2    0    0  0.14750518804E+03  0.19550726921E+02  0.12162386940E+01  0.17029196545E+03  0.82812214304E+02 0.  0.
        -11    1    3    3    0    0 -0.16299503205E+03  0.42553519392E+02 -0.41110188558E+03  0.44427800172E+03  0.00000000000E+00 0.  1.
         12    1    3    3    0    0 -0.78544426624E+01 -0.20857669762E+02 -0.54459713330E+02  0.58843818991E+02  0.00000000000E+00 0. -1.
        -13    1    5    5    0    0  0.12003745029E+03 -0.18178898911E+02  0.13164048052E+02  0.12211778740E+03  0.00000000000E+00 0.  1.
         14    1    5    5    0    0  0.27467737754E+02  0.37729625833E+02 -0.11947809358E+02  0.48174178055E+02  0.00000000000E+00 0. -1.
          5    1    4    4  502    0 -0.15029550493E+02 -0.41754613821E+02  0.42331923057E+02  0.61509486042E+02  0.47000000000E+01 0. -1.
         -5    1    4    4    0  502 -0.55072536741E+02 -0.42231388322E+03 -0.12736086041E+01  0.42591749476E+03  0.47000000000E+01 0. -1.
          1    1    1    2  503    0  0.88908571681E+02  0.30721278973E+03 -0.97634413387E+03  0.10273910161E+04  0.00000000000E+00 0. -1.
         -2    1    1    2    0  501  0.45378022232E+01  0.11560913076E+03  0.14273335885E+03  0.18373588243E+03  0.00000000000E+00 0.  1.
<mgrwt>
<rscale>  0 0.17055407E+03</rscale>
<asrwt>0</asrwt>
<pdfrwt beam="2">  1        2 0.26682834E+00 0.25141879E+03</pdfrwt>
<pdfrwt beam="1">  1       -1 0.81990430E-01 0.11569815E+03</pdfrwt>
<totfact> 0.19031270E+01</totfact>
</mgrwt>
</event>
<event>
13    1  0.1675423E-008  0.2560248E+03  0.7546771E-02  0.1281580E+00
         -1   -1    0    0    0  501 -0.00000000000E+00  0.00000000000E+00  0.85638660930E+03  0.85638660930E+03  0.00000000000E+00 0.  1.
          2   -1    0    0  503    0  0.00000000000E+00 -0.00000000000E+00 -0.84667488605E+03  0.84667488605E+03  0.00000000000E+00 0. -1.
         24    2    1    2    0    0 -0.39550290961E+02 -0.30488580448E+02  0.10162786954E+03  0.13818729641E+03  0.79206855578E+02 0.  0.
         25    2    1    2    0    0 -0.21722473556E+03  0.29916734179E+03  0.48338512417E+03  0.62127073496E+03  0.12501385407E+03 0.  0.
         24    2    1    2    0    0  0.17119411236E+03  0.42214145857E+02 -0.21274879119E+03  0.28829943824E+03  0.82249983089E+02 0.  0.
        -11    1    5    5    0    0  0.49555118367E+02  0.19769661686E+02 -0.15646856140E+02  0.55600120383E+02  0.00000000000E+00 0.  1.
         12    1    5    5    0    0  0.12163899399E+03  0.22444484172E+02 -0.19710193505E+03  0.23269931786E+03  0.00000000000E+00 0. -1.
        -13    1    3    3    0    0 -0.36835728188E+02  0.19732113763E+02  0.58754584914E+02  0.72099434347E+02  0.00000000000E+00 0.  1.
         14    1    3    3    0    0 -0.27145627726E+01 -0.50220694212E+02  0.42873284625E+02  0.66087862068E+02  0.00000000000E+00 0. -1.
          5    1    4    4  502    0 -0.66832674039E+02  0.15272937480E+03  0.29648334801E+03  0.34017250608E+03  0.47000000000E+01 0.  1.
         -5    1    4    4    0  502 -0.15039206152E+03  0.14643796699E+03  0.18690177616E+03  0.28109822888E+03  0.47000000000E+01 0.  1.
          1    1    1    2  503    0  0.98362568625E+02 -0.27448647123E+03 -0.46330218576E+03  0.54741842600E+03  0.00000000000E+00 0. -1.
         -2    1    1    2    0  501 -0.12781654461E+02 -0.36406435972E+02  0.10074970650E+03  0.10788559973E+03  0.00000000000E+00 0.  1.
<mgrwt>
<rscale>  0 0.99391685E+02</rscale>
<asrwt>0</asrwt>
<pdfrwt beam="2">  1        2 0.12451101E+00 0.25602480E+03</pdfrwt>
<pdfrwt beam="1">  1       -1 0.12593921E+00 0.38584962E+02</pdfrwt>
<totfact> 0.26539475E+01</totfact>
</mgrwt>
</event>
<event>
13    1  0.1675423E-008  0.3399971E+02  0.7546771E-02  0.1615858E+00
          2   -1    0    0  503    0  0.00000000000E+00  0.00000000000E+00  0.16802684563E+04  0.16802684563E+04  0.00000000000E+00 0. -1.
          2   -1    0    0  502    0 -0.00000000000E+00 -0.00000000000E+00 -0.34520950314E+03  0.34520950314E+03  0.00000000000E+00 0. -1.
         24    2    1    2    0    0 -0.89286235053E+02  0.59284225970E+02  0.62126191342E+03  0.63587960839E+03  0.83005181068E+02 0.  0.
         25    2    1    2    0    0  0.13441874726E+03 -0.15581934319E+02  0.42458253014E+02  0.18904787861E+03  0.12500080346E+03 0.  0.
         24    2    1    2    0    0 -0.11972520405E+02 -0.81739059336E+02  0.24259894259E+03  0.26710725419E+03  0.75282290278E+02 0.  0.
        -11    1    3    3    0    0 -0.40134855211E+02  0.41696214450E+02  0.50657923041E+03  0.50987439393E+03  0.00000000000E+00 0.  1.
         12    1    3    3    0    0 -0.49151379841E+02  0.17588011520E+02  0.11468268302E+03  0.12600521447E+03  0.00000000000E+00 0. -1.
        -11    1    5    5    0    0  0.25121727841E+02 -0.58806011985E+02  0.17824132681E+03  0.18936530527E+03  0.00000000000E+00 0.  1.
         12    1    5    5    0    0 -0.37094248246E+02 -0.22933047351E+02  0.64357615776E+02  0.77741948921E+02  0.00000000000E+00 0. -1.
          5    1    4    4  501    0  0.58108504376E+02 -0.47782016668E+02  0.68750933430E+02  0.10202205764E+03  0.47000000000E+01 0. -1.
         -5    1    4    4    0  501  0.76310242880E+02  0.32200082348E+02 -0.26292680416E+02  0.87025820968E+02  0.47000000000E+01 0. -1.
          1    1    1    2  502    0 -0.10008267737E+02  0.32478761608E+02 -0.25099803636E+03  0.25328847119E+03  0.00000000000E+00 0. -1.
          1    1    1    2  503    0 -0.23151724063E+02  0.55580060777E+01  0.67973788052E+03  0.68015474708E+03  0.00000000000E+00 0. -1.
<mgrwt>
<rscale>  0 0.28452013E+02</rscale>
<asrwt>0</asrwt>
<pdfrwt beam="1">  1        2 0.24709830E+00 0.23809531E+02</pdfrwt>
<pdfrwt beam="2">  1        2 0.50766104E-01 0.33999706E+02</pdfrwt>
<totfact> 0.22687014E+02</totfact>
</mgrwt>
</event>
<event>
13    1  0.1675423E-008  0.1582464E+03  0.7546771E-02  0.1340216E+00
          2   -1    0    0  503    0  0.00000000000E+00  0.00000000000E+00  0.27297849286E+04  0.27297849286E+04  0.00000000000E+00 0. -1.
          2   -1    0    0  502    0 -0.00000000000E+00 -0.00000000000E+00 -0.23060676960E+04  0.23060676960E+04  0.00000000000E+00 0. -1.
         24    2    1    2    0    0 -0.23480462942E+03  0.33688553866E+02 -0.23369167494E+03  0.34322734833E+03  0.83217071842E+02 0.  0.
         25    2    1    2    0    0  0.20868335302E+03  0.79387505746E+02 -0.55141623742E+03  0.60789343299E+03  0.12499376419E+03 0.  0.
         24    2    1    2    0    0 -0.25090711356E+02  0.62455348763E+01 -0.13017478697E+03  0.15480075720E+03  0.79682173452E+02 0.  0.
        -11    1    3    3    0    0 -0.21640630375E+03  0.14685847800E+02 -0.17446192600E+03  0.27836006548E+03  0.00000000000E+00 0.  1.
         12    1    3    3    0    0 -0.18398325671E+02  0.19002706065E+02 -0.59229748941E+02  0.64867282854E+02  0.00000000000E+00 0. -1.
        -13    1    5    5    0    0 -0.16001998276E+02 -0.36480314611E+02 -0.68134480259E+02  0.78925184213E+02  0.00000000000E+00 0.  1.
         14    1    5    5    0    0 -0.90887130798E+01  0.42725849487E+02 -0.62040306712E+02  0.75875572991E+02  0.00000000000E+00 0. -1.
          5    1    4    4  501    0  0.16594273224E+03  0.62032130583E+02 -0.52592170994E+03  0.55497811722E+03  0.47000000000E+01 0.  1.
         -5    1    4    4    0  501  0.42740620782E+02  0.17355375163E+02 -0.25494527482E+02  0.52915315773E+02  0.47000000000E+01 0.  1.
          1    1    1    2  502    0 -0.33772512811E+02  0.14326915219E+02 -0.12928247455E+04  0.12933451456E+04  0.00000000000E+00 0. -1.
          1    1    1    2  503    0  0.84984500560E+02 -0.13364850971E+03  0.26318246773E+04  0.26365859405E+04  0.00000000000E+00 0. -1.
<mgrwt>
<rscale>  0 0.76193076E+02</rscale>
<asrwt>0</asrwt>
<pdfrwt beam="1">  1        2 0.40143896E+00 0.15824639E+03</pdfrwt>
<pdfrwt beam="2">  1        2 0.33912760E+00 0.36685735E+02</pdfrwt>
<totfact> 0.43332432E+00</totfact>
</mgrwt>
</event>
<event>
13    1  0.1675423E-008  0.1018569E+03  0.7546771E-02  0.1321426E+00
          2   -1    0    0  503    0  0.00000000000E+00  0.00000000000E+00  0.20029107318E+04  0.20029107318E+04  0.00000000000E+00 0. -1.
          2   -1    0    0  502    0 -0.00000000000E+00 -0.00000000000E+00 -0.11388781455E+04  0.11388781455E+04  0.00000000000E+00 0. -1.
         24    2    1    2    0    0  0.31802544960E+02  0.32073325697E+02  0.30888217454E+03  0.32245001596E+03  0.80781897483E+02 0.  0.
         25    2    1    2    0    0 -0.99220415964E+02 -0.71578560436E+02 -0.15471171733E+03  0.23350694527E+03  0.12498638627E+03 0.  0.
         24    2    1    2    0    0  0.94608199800E+01  0.21113939710E+02  0.70634637347E+01  0.84224486363E+02  0.80675684183E+02 0.  0.
        -11    1    5    5    0    0 -0.11644384326E+02 -0.24953654891E+02  0.17311768522E+02  0.32526510850E+02  0.00000000000E+00 0.  1.
         12    1    5    5    0    0  0.21105204306E+02  0.46067594601E+02 -0.10248304787E+02  0.51697975512E+02  0.00000000000E+00 0. -1.
        -13    1    3    3    0    0  0.12842683688E+02 -0.10113757381E+02  0.83059506127E+01  0.18336069051E+02  0.00000000000E+00 0.  1.
         14    1    3    3    0    0  0.18959861272E+02  0.42187083078E+02  0.30057622392E+03  0.30411394691E+03  0.00000000000E+00 0. -1.
          5    1    4    4  501    0 -0.11877363830E+03 -0.76081568386E+02 -0.94450181458E+02  0.16981904776E+03  0.47000000000E+01 0.  1.
         -5    1    4    4    0  501  0.19553222339E+02  0.45030079498E+01 -0.60261535870E+02  0.63687897515E+02  0.47000000000E+01 0.  1.
          1    1    1    2  502    0  0.95125087601E+02 -0.37625404114E+02 -0.89578691964E+03  0.90160892782E+03  0.00000000000E+00 0. -1.
          1    1    1    2  503    0 -0.37168036577E+02  0.56016699143E+02  0.15985855850E+04  0.15999985019E+04  0.00000000000E+00 0. -1.
<mgrwt>
<rscale>  0 0.82749215E+02</rscale>
<asrwt>0</asrwt>
<pdfrwt beam="1">  1        2 0.29454570E+00 0.67225988E+02</pdfrwt>
<pdfrwt beam="2">  1        2 0.16748208E+00 0.10185693E+03</pdfrwt>
<totfact> 0.36418624E+01</totfact>
</mgrwt>
</event>
<event>
13    1  0.1675423E-008  0.1138498E+03  0.7546771E-02  0.1323160E+00
          2   -1    0    0  503    0  0.00000000000E+00  0.00000000000E+00  0.49589713630E+04  0.49589713630E+04  0.00000000000E+00 0. -1.
          2   -1    0    0  502    0 -0.00000000000E+00 -0.00000000000E+00 -0.15332932544E+04  0.15332932544E+04  0.00000000000E+00 0. -1.
         24    2    1    2    0    0 -0.15138643490E+04 -0.26982704452E+03  0.25047299645E+04  0.29401092326E+04  0.77318842263E+02 0.  0.
         25    2    1    2    0    0  0.12756082793E+04  0.20572957451E+03  0.66374411741E+03  0.14579724402E+04  0.12500497115E+03 0.  0.
         24    2    1    2    0    0  0.33142036702E+03 -0.72861638339E+02  0.23255786164E+03  0.41910294596E+03  0.80098953086E+02 0.  0.
        -13    1    5    5    0    0  0.45955165145E+02 -0.10646459312E+01  0.34549769438E+01  0.46097153276E+02  0.00000000000E+00 0.  1.
         14    1    5    5    0    0  0.28546520187E+03 -0.71796992408E+02  0.22910288470E+03  0.37300579268E+03  0.00000000000E+00 0. -1.
        -13    1    3    3    0    0 -0.11437627837E+04 -0.20779650297E+03  0.18288839258E+04  0.21670692434E+04  0.00000000000E+00 0.  1.
         14    1    3    3    0    0 -0.37010156531E+03 -0.62030541556E+02  0.67584603877E+03  0.77303998917E+03  0.00000000000E+00 0. -1.
          5    1    4    4  501    0  0.25747500994E+03  0.16450866739E+02  0.18230296924E+03  0.31594378354E+03  0.47000000000E+01 0. -1.
         -5    1    4    4    0  501  0.10181332694E+04  0.18927870778E+03  0.48144114817E+03  0.11420286567E+04  0.47000000000E+01 0. -1.
          1    1    1    2  502    0 -0.82135655259E+02  0.78771901326E+02 -0.82025184346E+03  0.82810890891E+03  0.00000000000E+00 0. -1.
          1    1    1    2  503    0 -0.11028642128E+02  0.58187207020E+02  0.84489800856E+03  0.84697108975E+03  0.00000000000E+00 0. -1.
<mgrwt>
<rscale>  0 0.82112982E+02</rscale>
<asrwt>0</asrwt>
<pdfrwt beam="1">  1        2 0.72926049E+00 0.59223154E+02</pdfrwt>
<pdfrwt beam="2">  1        2 0.22548430E+00 0.11384976E+03</pdfrwt>
<totfact> 0.35009545E-01</totfact>
</mgrwt>
</event>
<event>
13    1  0.1675423E-008  0.7442255E+02  0.7546771E-02  0.1423187E+00
          2   -1    0    0  503    0  0.00000000000E+00  0.00000000000E+00  0.22106317821E+04  0.22106317821E+04  0.00000000000E+00 0. -1.
          2   -1    0    0  502    0 -0.00000000000E+00 -0.00000000000E+00 -0.32725745802E+04  0.32725745802E+04  0.00000000000E+00 0. -1.
         24    2    1    2    0    0  0.52445381444E+03  0.10791070442E+03  0.45995757252E+03  0.71065837533E+03  0.82327603426E+02 0.  0.
         25    2    1    2    0    0 -0.37053052859E+03 -0.51830353831E+03  0.32668578404E+03  0.72682893451E+03  0.12500107241E+03 0.  0.
         24    2    1    2    0    0 -0.25753909605E+03  0.45411769227E+03 -0.80077737379E+03  0.96227192081E+03  0.11033396026E+03 0.  0.
        -11    1    3    3    0    0  0.18143120852E+03  0.70966743777E+02  0.13780373601E+03  0.23862822927E+03  0.00000000000E+00 0.  1.
         12    1    3    3    0    0  0.34302260592E+03  0.36943960645E+02  0.32215383651E+03  0.47203014605E+03  0.00000000000E+00 0. -1.
        -11    1    5    5    0    0 -0.98159948944E+02  0.22965700649E+03 -0.29585135064E+03  0.38717662362E+03  0.00000000000E+00 0.  1.
         12    1    5    5    0    0 -0.15937914710E+03  0.22446068578E+03 -0.50492602315E+03  0.57509529719E+03  0.00000000000E+00 0. -1.
          5    1    4    4  501    0  0.44618530840E+01 -0.18065677009E+02 -0.39292009699E+01  0.19590952988E+02  0.47000000000E+01 0. -1.
         -5    1    4    4    0  501 -0.37499238167E+03 -0.50023786130E+03  0.33061498501E+03  0.70723798152E+03  0.47000000000E+01 0. -1.
          1    1    1    2  502    0  0.71584277106E+02 -0.20280478147E+02 -0.20645705909E+04  0.20659107753E+04  0.00000000000E+00 0. -1.
          1    1    1    2  503    0  0.32031533084E+02 -0.23444380227E+02  0.10167618101E+04  0.10175363564E+04  0.00000000000E+00 0. -1.
<mgrwt>
<rscale>  0 0.54352280E+02</rscale>
<asrwt>0</asrwt>
<pdfrwt beam="1">  1        2 0.32509291E+00 0.39694560E+02</pdfrwt>
<pdfrwt beam="2">  1        2 0.48126096E+00 0.74422549E+02</pdfrwt>
<totfact> 0.27282795E+00</totfact>
</mgrwt>
</event>
<event>
13    1  0.1675423E-008  0.3554987E+02  0.7546771E-02  0.1557288E+00
         -1   -1    0    0    0  501 -0.00000000000E+00  0.00000000000E+00  0.15579995039E+04  0.15579995039E+04  0.00000000000E+00 0.  1.
          2   -1    0    0  503    0  0.00000000000E+00 -0.00000000000E+00 -0.10513779003E+04  0.10513779003E+04  0.00000000000E+00 0. -1.
         24    2    1    2    0    0  0.65132980239E+02  0.52867452276E+02 -0.92848220957E+03  0.93590739773E+03  0.82499521187E+02 0.  0.
         25    2    1    2    0    0  0.89677903358E+01 -0.70678353830E+02  0.65372443797E+03  0.66937212737E+03  0.12501021215E+03 0.  0.
         24    2    1    2    0    0 -0.28611846764E+02  0.18034744034E+02 -0.17579841409E+02  0.95444926312E+02  0.87503104900E+02 0.  0.
        -11    1    5    5    0    0 -0.21507363779E+02  0.41115121048E+02  0.20199580917E+02  0.50606748016E+02  0.00000000000E+00 0.  1.
         12    1    5    5    0    0 -0.71044829859E+01 -0.23080377014E+02 -0.37779422326E+02  0.44838178296E+02  0.00000000000E+00 0. -1.
        -13    1    3    3    0    0  0.58168317487E+02  0.72427836335E+02 -0.64358344957E+03  0.65025302860E+03  0.00000000000E+00 0.  1.
         14    1    3    3    0    0  0.69646627521E+01 -0.19560384059E+02 -0.28489876000E+03  0.28565436913E+03  0.00000000000E+00 0. -1.
          5    1    4    4  502    0  0.56739286345E+02 -0.41206702438E+02  0.19648524296E+03  0.20867649518E+03  0.47000000000E+01 0. -1.
         -5    1    4    4    0  502 -0.47771496009E+02 -0.29471651392E+02  0.45723919501E+03  0.46069563219E+03  0.47000000000E+01 0. -1.
          1    1    1    2  503    0 -0.20406076102E+02 -0.25417889627E+02 -0.49598653079E+02  0.59350681902E+02  0.00000000000E+00 0. -1.
         -2    1    1    2    0  501 -0.25082847709E+02  0.25194047147E+02  0.84855786969E+03  0.84930227096E+03  0.00000000000E+00 0.  1.
<mgrwt>
<rscale>  0 0.34040734E+02</rscale>
<asrwt>0</asrwt>
<pdfrwt beam="2">  1        2 0.15461440E+00 0.32595660E+02</pdfrwt>
<pdfrwt beam="1">  1       -1 0.22911757E+00 0.35549872E+02</pdfrwt>
<totfact> 0.44321123E+00</totfact>
</mgrwt>
</event>
<event>
13    1  0.1675423E-008  0.1383305E+03  0.7546771E-02  0.1325768E+00
          2   -1    0    0  502    0  0.00000000000E+00  0.00000000000E+00  0.17364750762E+04  0.17364750762E+04  0.00000000000E+00 0. -1.
          2   -1    0    0  503    0 -0.00000000000E+00 -0.00000000000E+00 -0.11800806626E+04  0.11800806626E+04  0.00000000000E+00 0. -1.
         24    2    1    2    0    0  0.48040035136E+01 -0.83245395291E+02  0.15237080783E+03  0.19085327071E+03  0.79090034623E+02 0.  0.
         25    2    1    2    0    0  0.32738490209E+02  0.25839758688E+03  0.17101779163E+03  0.33572859508E+03  0.12500193141E+03 0.  0.
         24    2    1    2    0    0  0.48633499428E+02 -0.45704944452E+02 -0.23552375131E+03  0.25750315437E+03  0.79889159878E+02 0.  0.
        -11    1    3    3    0    0  0.25476760820E+02  0.35045763116E+01  0.32287990525E+02  0.41277860036E+02  0.00000000000E+00 0.  1.
         12    1    3    3    0    0 -0.20672757306E+02 -0.86749971602E+02  0.12008281730E+03  0.14957541068E+03  0.00000000000E+00 0. -1.
        -11    1    5    5    0    0  0.76524799810E-01  0.77819471288E+01 -0.12637011213E+03  0.12660951701E+03  0.00000000000E+00 0.  1.
         12    1    5    5    0    0  0.48556974628E+02 -0.53486891580E+02 -0.10915363918E+03  0.13089363736E+03  0.00000000000E+00 0. -1.
          5    1    4    4  501    0 -0.71275819713E+01  0.16096169897E+03  0.37247144579E+02  0.16543551837E+03  0.47000000000E+01 0.  1.
         -5    1    4    4    0  501  0.39866072181E+02  0.97435887915E+02  0.13377064705E+03  0.17029307672E+03  0.47000000000E+01 0.  1.
          1    1    1    2  502    0 -0.46773821087E+02  0.89762955515E+01  0.12938344470E+04  0.12947107555E+04  0.00000000000E+00 0. -1.
          1    1    1    2  503    0 -0.39402172063E+02 -0.13842354269E+03 -0.82530488152E+03  0.83775996312E+03  0.00000000000E+00 0. -1.
<mgrwt>
<rscale>  0 0.81168424E+02</rscale>
<asrwt>0</asrwt>
<pdfrwt beam="1">  1        2 0.25536398E+00 0.47627347E+02</pdfrwt>
<pdfrwt beam="2">  1        2 0.17354127E+00 0.13833046E+03</pdfrwt>
<totfact> 0.46953938E+01</totfact>
</mgrwt>
</event>
<event>
13    1  0.1675423E-008  0.9776691E+02  0.7546771E-02  0.1377599E+00
          2   -1    0    0  502    0  0.00000000000E+00  0.00000000000E+00  0.28160455314E+04  0.28160455314E+04  0.00000000000E+00 0. -1.
          2   -1    0    0  503    0 -0.00000000000E+00 -0.00000000000E+00 -0.36342959607E+04  0.36342959607E+04  0.00000000000E+00 0. -1.
         24    2    1    2    0    0 -0.90773262853E+03  0.62498414415E+03  0.54043502572E+03  0.12315126524E+04  0.99848338380E+02 0.  0.
         25    2    1    2    0    0  0.10246600780E+03  0.73538841698E+01  0.39610215410E+00  0.16179836282E+03  0.12500076379E+03 0.  0.
         24    2    1    2    0    0  0.72443920062E+03 -0.68936400444E+03 -0.17671988448E+04  0.20333190797E+04  0.10658253517E+03 0.  0.
        -11    1    3    3    0    0 -0.58820084965E+03  0.38541391920E+03  0.29382647934E+03  0.76214049138E+03  0.00000000000E+00 0.  1.
         12    1    3    3    0    0 -0.31953177887E+03  0.23957022495E+03  0.24660854639E+03  0.46937216102E+03  0.00000000000E+00 0. -1.
        -13    1    5    5    0    0  0.29009264353E+03 -0.33825109693E+03 -0.84077737005E+03  0.95156404534E+03  0.00000000000E+00 0.  1.
         14    1    5    5    0    0  0.43434655710E+03 -0.35111290750E+03 -0.92642147471E+03  0.10817550343E+04  0.00000000000E+00 0. -1.
          5    1    4    4  501    0  0.47519167307E+02  0.23082934510E+02 -0.58932565691E+02  0.79284490451E+02  0.47000000000E+01 0. -1.
         -5    1    4    4    0  501  0.54946840492E+02 -0.15729050341E+02  0.59328667845E+02  0.82513872366E+02  0.47000000000E+01 0. -1.
          1    1    1    2  502    0  0.96359798267E+02  0.16557349505E+02  0.17141617328E+04  0.17169478159E+04  0.00000000000E+00 0. -1.
          1    1    1    2  503    0 -0.15532378162E+02  0.40468626613E+02 -0.13060444451E+04  0.13067635812E+04  0.00000000000E+00 0. -1.
<mgrwt>
<rscale>  0 0.65099189E+02</rscale>
<asrwt>0</asrwt>
<pdfrwt beam="1">  1        2 0.41412434E+00 0.97766906E+02</pdfrwt>
<pdfrwt beam="2">  1        2 0.53445529E+00 0.43347024E+02</pdfrwt>
<totfact> 0.84205924E-01</totfact>
</mgrwt>
</event>
<event>
13    1  0.1675423E-008  0.1199195E+03  0.7546771E-02  0.1300271E+00
         -3   -1    0    0    0  501 -0.00000000000E+00  0.00000000000E+00  0.35395911615E+03  0.35395911615E+03  0.00000000000E+00 0.  1.
          2   -1    0    0  503    0  0.00000000000E+00 -0.00000000000E+00 -0.21749820517E+04  0.21749820517E+04  0.00000000000E+00 0. -1.
         24    2    1    2    0    0  0.36745515910E+02  0.96845795185E+02 -0.89822342960E+03  0.90802773715E+03  0.83544604663E+02 0.  0.
         25    2    1    2    0    0  0.13103525875E+03 -0.55912557561E+02 -0.24648435239E+03  0.31093188976E+03  0.12501060344E+03 0.  0.
         24    2    1    2    0    0 -0.61253183211E+02 -0.16378074792E+03  0.44279290251E+02  0.19832561616E+03  0.82439727287E+02 0.  0.
        -11    1    5    5    0    0 -0.41216876615E+02 -0.13717832440E+03  0.66875967378E+02  0.15807946930E+03  0.00000000000E+00 0.  1.
         12    1    5    5    0    0 -0.20036306595E+02 -0.26602423527E+02 -0.22596677127E+02  0.40246146855E+02  0.00000000000E+00 0. -1.
        -13    1    3    3    0    0 -0.21197373908E+02  0.60938879624E+02 -0.40219379980E+03  0.40733613676E+03  0.00000000000E+00 0.  1.
         14    1    3    3    0    0  0.57942889818E+02  0.35906915561E+02 -0.49602962980E+03  0.50069160039E+03  0.00000000000E+00 0. -1.
          5    1    4    4  502    0 -0.40808025693E+01 -0.50177557287E+02 -0.42016499639E+02  0.65741284189E+02  0.47000000000E+01 0. -1.
         -5    1    4    4    0  502  0.13511606132E+03 -0.57350002734E+01 -0.20446785275E+03  0.24519060557E+03  0.47000000000E+01 0. -1.
          1    1    1    2  503    0  0.20543578584E+00  0.69167288234E+02 -0.89641802840E+03  0.89908255328E+03  0.00000000000E+00 0. -1.
         -4    1    1    2    0  501 -0.10673302723E+03  0.53680222064E+02  0.17582358462E+03  0.21257337146E+03  0.00000000000E+00 0.  1.
<mgrwt>
<rscale>  0 0.91074398E+02</rscale>
<asrwt>0</asrwt>
<pdfrwt beam="2">  1        2 0.31985030E+00 0.69167593E+02</pdfrwt>
<pdfrwt beam="1">  1       -3 0.52052811E-01 0.11991954E+03</pdfrwt>
<totfact> 0.17536225E+01</totfact>
</mgrwt>
</event>
<event>
13    1  0.1675423E-008  0.1356653E+03  0.7546771E-02  0.1403959E+00
          2   -1    0    0  503    0  0.00000000000E+00  0.00000000000E+00  0.86216768197E+03  0.86216768197E+03  0.00000000000E+00 0. -1.
          2   -1    0    0  502    0 -0.00000000000E+00 -0.00000000000E+00 -0.19410897908E+04  0.19410897908E+04  0.00000000000E+00 0. -1.
         24    2    1    2    0    0  0.19742083465E+03 -0.35370540572E+02  0.14568071149E+03  0.26074643150E+03  0.80868849054E+02 0.  0.
         25    2    1    2    0    0 -0.34461404292E+02 -0.19523734132E+02 -0.60550741175E+03  0.61954098694E+03  0.12499217670E+03 0.  0.
         24    2    1    2    0    0 -0.17237858674E+02  0.23507503492E+02 -0.81906388919E+02  0.11886839653E+03  0.81063510019E+02 0.  0.
        -11    1    3    3    0    0  0.18666180132E+02 -0.12814819383E+02 -0.79197868291E+01  0.23986848479E+02  0.00000000000E+00 0.  1.
         12    1    3    3    0    0  0.17875465452E+03 -0.22555721188E+02  0.15360049831E+03  0.23675958302E+03  0.00000000000E+00 0. -1.
        -11    1    5    5    0    0  0.27241102611E+02  0.26285028451E+02 -0.55136869352E+02  0.66880899770E+02  0.00000000000E+00 0.  1.
         12    1    5    5    0    0 -0.44478961284E+02 -0.27775249592E+01 -0.26769519567E+02  0.51987496763E+02  0.00000000000E+00 0. -1.
          5    1    4    4  501    0 -0.16936096153E+02  0.25327010850E+02 -0.52290040187E+03  0.52380837059E+03  0.47000000000E+01 0. -1.
         -5    1    4    4    0  501 -0.17525308139E+02 -0.44850744982E+02 -0.82607009879E+02  0.95732616343E+02  0.47000000000E+01 0. -1.
          1    1    1    2  502    0 -0.19189905462E+02 -0.16458150502E+02 -0.11632843911E+04  0.11635590650E+04  0.00000000000E+00 0. -1.
          1    1    1    2  503    0 -0.12653166622E+03  0.47844921713E+02  0.62609537142E+03  0.64054259281E+03  0.00000000000E+00 0. -1.
<mgrwt>
<rscale>  0 0.58563972E+02</rscale>
<asrwt>0</asrwt>
<pdfrwt beam="1">  1        2 0.12678937E+00 0.13566529E+03</pdfrwt>
<pdfrwt beam="2">  1        2 0.28545438E+00 0.25280886E+02</pdfrwt>
<totfact> 0.62153046E+01</totfact>
</mgrwt>
</event>
<event>
13    1  0.1675423E-008  0.1211562E+03  0.7546771E-02  0.1255848E+00
          2   -1    0    0  502    0  0.00000000000E+00  0.00000000000E+00  0.24909673693E+04  0.24909673693E+04  0.00000000000E+00 0. -1.
          2   -1    0    0  503    0 -0.00000000000E+00 -0.00000000000E+00 -0.38279286863E+03  0.38279286863E+03  0.00000000000E+00 0. -1.
         24    2    1    2    0    0 -0.20570225457E+01 -0.14756238840E+03  0.15368425742E+03  0.22750057747E+03  0.79741908441E+02 0.  0.
         25    2    1    2    0    0 -0.10076272207E+03  0.16336547847E+03 -0.44118669665E+02  0.23326690381E+03  0.12500234271E+03 0.  0.
         24    2    1    2    0    0 -0.49049030057E+00 -0.22329475952E+02  0.36078723561E+03  0.36897949190E+03  0.74024252660E+02 0.  0.
        -11    1    3    3    0    0 -0.58817325510E+01 -0.15632321691E+03  0.15133835302E+03  0.21765762109E+03  0.00000000000E+00 0.  1.
         12    1    3    3    0    0  0.38247100053E+01  0.87608285162E+01  0.23459043959E+01  0.98429563826E+01  0.00000000000E+00 0. -1.
        -13    1    5    5    0    0 -0.27961552954E+02  0.13905379139E+02  0.17036495606E+03  0.17320342452E+03  0.00000000000E+00 0.  1.
         14    1    5    5    0    0  0.27471062653E+02 -0.36234855091E+02  0.19042227956E+03  0.19577606738E+03  0.00000000000E+00 0. -1.
          5    1    4    4  501    0 -0.76354215711E+02  0.18924863591E+02 -0.35551293550E+02  0.86452884231E+02  0.47000000000E+01 0. -1.
         -5    1    4    4    0  501 -0.24408506362E+02  0.14444061488E+03 -0.85673761150E+01  0.14681401958E+03  0.47000000000E+01 0. -1.
          1    1    1    2  502    0  0.16464883900E+03 -0.78378832145E+02  0.18225529899E+04  0.18316527735E+04  0.00000000000E+00 0. -1.
          1    1    1    2  503    0 -0.61338604084E+02  0.84905218019E+02 -0.18473131261E+03  0.21236049128E+03  0.00000000000E+00 0. -1.
<mgrwt>
<rscale>  0 0.11258942E+03</rscale>
<asrwt>0</asrwt>
<pdfrwt beam="1">  1        2 0.36631873E+00 0.12115622E+03</pdfrwt>
<pdfrwt beam="2">  1        2 0.56293070E-01 0.10462836E+03</pdfrwt>
<totfact> 0.70595133E+01</totfact>
</mgrwt>
</event>
<event>
13    1  0.1675423E-008  0.1888587E+03  0.7546771E-02  0.1326200E+00
          2   -1    0    0  502    0  0.00000000000E+00  0.00000000000E+00  0.28089349256E+04  0.28089349256E+04  0.00000000000E+00 0. -1.
          2   -1    0    0  503    0 -0.00000000000E+00 -0.00000000000E+00 -0.11408024786E+04  0.11408024786E+04  0.00000000000E+00 0. -1.
         24    2    1    2    0    0  0.72856338038E+02  0.11146178310E+03  0.21558125056E+04  0.21614255172E+04  0.80628355048E+02 0.  0.
         25    2    1    2    0    0 -0.15524924886E+03  0.11071432134E+03  0.39989123943E+02  0.23147854759E+03  0.12499279075E+03 0.  0.
         24    2    1    2    0    0 -0.46364119267E+02  0.33610518940E+01  0.13404365667E+02  0.96181082085E+02  0.83127584512E+02 0.  0.
        -11    1    5    5    0    0 -0.78067619027E+01 -0.21036139680E+02 -0.27089800753E+02  0.35175588253E+02  0.00000000000E+00 0.  1.
         12    1    5    5    0    0 -0.38557357365E+02  0.24397191574E+02  0.40494166421E+02  0.61005493833E+02  0.00000000000E+00 0. -1.
        -11    1    3    3    0    0 -0.58151150230E+00  0.21794456790E+01  0.79817341508E+00  0.23927431737E+01  0.00000000000E+00 0.  1.
         12    1    3    3    0    0  0.73437849540E+02  0.10928233742E+03  0.21550143322E+04  0.21590327740E+04  0.00000000000E+00 0. -1.
          5    1    4    4  501    0 -0.94222517731E+02  0.16791119975E+02 -0.28667688836E+02  0.10001875295E+03  0.47000000000E+01 0. -1.
         -5    1    4    4    0  501 -0.61026731128E+02  0.93923201364E+02  0.68656812778E+02  0.13145979464E+03  0.47000000000E+01 0. -1.
          1    1    1    2  502    0  0.11301999064E+03 -0.25652149748E+03  0.41672058570E+03  0.50222788005E+03  0.00000000000E+00 0. -1.
          1    1    1    2  503    0  0.15737039445E+02  0.30984341144E+02 -0.95779413398E+03  0.95842437725E+03  0.00000000000E+00 0. -1.
<mgrwt>
<rscale>  0 0.81013394E+02</rscale>
<asrwt>0</asrwt>
<pdfrwt beam="1">  1        2 0.41307866E+00 0.18885872E+03</pdfrwt>
<pdfrwt beam="2">  1        2 0.16776507E+00 0.34751745E+02</pdfrwt>
<totfact> 0.13553368E+01</totfact>
</mgrwt>
</event>
<event>
13    1  0.1675423E-008  0.9441282E+02  0.7546771E-02  0.1451590E+00
          2   -1    0    0  502    0  0.00000000000E+00  0.00000000000E+00  0.14649176074E+04  0.14649176074E+04  0.00000000000E+00 0. -1.
          2   -1    0    0  503    0 -0.00000000000E+00 -0.00000000000E+00 -0.79607528871E+03  0.79607528871E+03  0.00000000000E+00 0. -1.
         24    2    1    2    0    0  0.48776630772E+02  0.24871480482E+02  0.11035506019E+04  0.11078971402E+04  0.81328913900E+02 0.  0.
         25    2    1    2    0    0 -0.35198604200E+02  0.40994233294E+02 -0.54443151588E+03  0.56120428856E+03  0.12500043645E+03 0.  0.
         24    2    1    2    0    0  0.17780974934E+02 -0.20509462481E+01 -0.10116366948E+03  0.12881647467E+03  0.77712461517E+02 0.  0.
        -11    1    5    5    0    0  0.47729702153E+02  0.73829928103E+01 -0.63528043174E+02  0.79802539559E+02  0.00000000000E+00 0.  1.
         12    1    5    5    0    0 -0.29948727219E+02 -0.94339390585E+01 -0.37635626305E+02  0.49013935116E+02  0.00000000000E+00 0. -1.
        -13    1    3    3    0    0  0.26661706688E+01  0.89107855087E+01  0.82848124095E+03  0.82853344964E+03  0.00000000000E+00 0.  1.
         14    1    3    3    0    0  0.46110460103E+02  0.15960694973E+02  0.27506936090E+03  0.27936369059E+03  0.00000000000E+00 0. -1.
          5    1    4    4  501    0  0.24810542757E+02  0.51675986037E+02 -0.12824629022E+03  0.14055309146E+03  0.47000000000E+01 0. -1.
         -5    1    4    4    0  501 -0.60009146957E+02 -0.10681752743E+02 -0.41618522566E+03  0.42065119709E+03  0.47000000000E+01 0. -1.
          1    1    1    2  502    0 -0.32269448762E+02 -0.89083927121E+02  0.32895570934E+03  0.34232896766E+03  0.00000000000E+00 0. -1.
          1    1    1    2  503    0  0.91044725630E+00  0.25269159593E+02 -0.11806880712E+03  0.12074602501E+03  0.00000000000E+00 0. -1.
<mgrwt>
<rscale>  0 0.48859807E+02</rscale>
<asrwt>0</asrwt>
<pdfrwt beam="1">  1        2 0.21542906E+00 0.94412825E+02</pdfrwt>
<pdfrwt beam="2">  1        2 0.11706990E+00 0.25285556E+02</pdfrwt>
<totfact> 0.10708676E+02</totfact>
</mgrwt>
</event>
<event>
13    1  0.1675423E-008  0.4248139E+02  0.7546771E-02  0.1528757E+00
         -3   -1    0    0    0  502 -0.00000000000E+00  0.00000000000E+00  0.74629463036E+03  0.74629463036E+03  0.00000000000E+00 0.  1.
         -1   -1    0    0    0  501  0.00000000000E+00 -0.00000000000E+00 -0.10560335363E+04  0.10560335363E+04  0.00000000000E+00 0.  1.
         24    2    1    2    0    0  0.12257141171E+03 -0.15673985758E+02 -0.41587986452E+03  0.44131026915E+03  0.80803880769E+02 0.  0.
         25    2    1    2    0    0 -0.13049491095E+03  0.42675015156E+02  0.14404056960E+03  0.23498854753E+03  0.12498741168E+03 0.  0.
         24    2    1    2    0    0 -0.17180255045E+02 -0.67719215930E+02 -0.77607861791E+02  0.13265902876E+03  0.81819217371E+02 0.  0.
        -11    1    5    5    0    0 -0.42220813265E+02 -0.82024531180E+01 -0.30184088144E+02  0.52544804568E+02  0.00000000000E+00 0.  1.
         12    1    5    5    0    0  0.25040558221E+02 -0.59516762812E+02 -0.47423773646E+02  0.80114224196E+02  0.00000000000E+00 0. -1.
        -13    1    3    3    0    0 -0.20880845063E+01 -0.18088812197E+02 -0.24339087756E+02  0.30396651401E+02  0.00000000000E+00 0.  1.
         14    1    3    3    0    0  0.12465949622E+03  0.24148264391E+01 -0.39154077676E+03  0.41091361775E+03  0.00000000000E+00 0. -1.
          5    1    4    4  503    0 -0.12753903886E+03  0.71184703454E+02  0.84665498746E+02  0.16888992012E+03  0.47000000000E+01 0.  1.
         -5    1    4    4    0  503 -0.29558720853E+01 -0.28509688299E+02  0.59375070857E+02  0.66098627414E+02  0.47000000000E+01 0.  1.
         -2    1    1    2    0  501  0.32802050308E+02 -0.10705577888E+01 -0.47539043545E+03  0.47652196877E+03  0.00000000000E+00 0.  1.
         -4    1    1    2    0  502 -0.76982960265E+01  0.41788744322E+02  0.51509868620E+03  0.51684835246E+03  0.00000000000E+00 0.  1.
<mgrwt>
<rscale>  0 0.37339239E+02</rscale>
<asrwt>0</asrwt>
<pdfrwt beam="2">  1       -1 0.15529905E+00 0.32819516E+02</pdfrwt>
<pdfrwt beam="1">  1       -3 0.10974921E+00 0.42481393E+02</pdfrwt>
<totfact> 0.13032551E+00</totfact>
</mgrwt>
</event>
<event>
13    1  0.1675423E-008  0.3133523E+03  0.7546771E-02  0.1091210E+00
          2   -1    0    0  503    0  0.00000000000E+00  0.00000000000E+00  0.44507875867E+03  0.44507875867E+03  0.00000000000E+00 0. -1.
          2   -1    0    0  502    0 -0.00000000000E+00 -0.00000000000E+00 -0.35955484210E+04  0.35955484210E+04  0.00000000000E+00 0. -1.
         24    2    1    2    0    0  0.13493548090E+03 -0.91198428351E+02 -0.96065679626E+03  0.97743926030E+03  0.77467993643E+02 0.  0.
         25    2    1    2    0    0 -0.22671246886E+03 -0.44749560547E+02 -0.73903126616E+03  0.78434232977E+03  0.12499844481E+03 0.  0.
         24    2    1    2    0    0  0.16962258201E+02 -0.27864274908E+03 -0.30556199363E+03  0.42149111308E+03  0.79731591169E+02 0.  0.
        -11    1    3    3    0    0  0.66699005387E+02 -0.17577465210E+02 -0.56723652609E+03  0.57141491154E+03  0.00000000000E+00 0.  1.
         12    1    3    3    0    0  0.68236475515E+02 -0.73620963142E+02 -0.39342027017E+03  0.40602434876E+03  0.00000000000E+00 0. -1.
        -13    1    5    5    0    0  0.25095287826E+01 -0.20782084232E+03 -0.27058359107E+03  0.34119097291E+03  0.00000000000E+00 0.  1.
         14    1    5    5    0    0  0.14452729419E+02 -0.70821906763E+02 -0.34978402559E+02  0.80300140167E+02  0.00000000000E+00 0. -1.
          5    1    4    4  501    0 -0.11695654178E+03 -0.43501083520E+01 -0.54739875784E+03  0.55979035914E+03  0.47000000000E+01 0.  1.
         -5    1    4    4    0  501 -0.10975592709E+03 -0.40399452195E+02 -0.19163250832E+03  0.22455197063E+03  0.47000000000E+01 0.  1.
          1    1    1    2  502    0 -0.23784626518E+03  0.43240610295E+03 -0.13802364384E+04  0.14658098477E+04  0.00000000000E+00 0. -1.
          1    1    1    2  503    0  0.31266099494E+03 -0.17815364966E+02  0.23501683211E+03  0.39154462883E+03  0.00000000000E+00 0. -1.
<mgrwt>
<rscale>  0 0.28835640E+03</rscale>
<asrwt>0</asrwt>
<pdfrwt beam="1">  1        2 0.65452757E-01 0.31335232E+03</pdfrwt>
<pdfrwt beam="2">  1        2 0.52875713E+00 0.26535439E+03</pdfrwt>
<totfact> 0.13014849E+01</totfact>
</mgrwt>
</event>
<event>
13    1  0.1675423E-008  0.1298139E+03  0.7546771E-02  0.1266932E+00
          2   -1    0    0  502    0  0.00000000000E+00  0.00000000000E+00  0.73645346397E+03  0.73645346397E+03  0.00000000000E+00 0. -1.
          2   -1    0    0  503    0 -0.00000000000E+00 -0.00000000000E+00 -0.15393862269E+04  0.15393862269E+04  0.00000000000E+00 0. -1.
         24    2    1    2    0    0 -0.34330148093E+02  0.13907783059E+03 -0.93780883788E+02  0.18871774568E+03  0.79362027065E+02 0.  0.
         25    2    1    2    0    0  0.52063498412E+02 -0.20692021613E+03 -0.11844678209E+03  0.27419072179E+03  0.12499731204E+03 0.  0.
         24    2    1    2    0    0  0.59416695562E+02 -0.15809558745E+02  0.29844026483E+03  0.31521590327E+03  0.80710520635E+02 0.  0.
        -11    1    5    5    0    0 -0.26816361663E+00  0.23451600948E+02  0.34062184045E+02  0.41355554411E+02  0.00000000000E+00 0.  1.
         12    1    5    5    0    0  0.59684859179E+02 -0.39261159693E+02  0.26437808079E+03  0.27386034886E+03  0.00000000000E+00 0. -1.
        -11    1    3    3    0    0  0.17879865033E+01 -0.31205367138E+01  0.89282637654E+01  0.96254111072E+01  0.00000000000E+00 0.  1.
         12    1    3    3    0    0 -0.36118134596E+02  0.14219836731E+03 -0.10270914755E+03  0.17909233457E+03  0.00000000000E+00 0. -1.
          5    1    4    4  501    0  0.36015401092E+02 -0.10908332930E+03  0.58580986182E+01  0.11512032473E+03  0.47000000000E+01 0. -1.
         -5    1    4    4    0  501  0.16048097320E+02 -0.97836886826E+02 -0.12430488071E+03  0.15907039705E+03  0.47000000000E+01 0. -1.
          1    1    1    2  502    0 -0.15501837543E+03  0.12376686720E+03  0.27012718002E+03  0.33513822152E+03  0.00000000000E+00 0. -1.
          1    1    1    2  503    0  0.77868329552E+02 -0.40114922915E+02 -0.11592725420E+04  0.11625770987E+04  0.00000000000E+00 0. -1.
<mgrwt>
<rscale>  0 0.10663443E+03</rscale>
<asrwt>0</asrwt>
<pdfrwt beam="1">  1        2 0.10830198E+00 0.12981391E+03</pdfrwt>
<pdfrwt beam="2">  1        2 0.22638033E+00 0.87593857E+02</pdfrwt>
<totfact> 0.10269739E+02</totfact>
</mgrwt>
</event>
<event>
13    1  0.1675423E-008  0.1237810E+03  0.7546771E-02  0.1254218E+00
          2   -1    0    0  502    0  0.00000000000E+00  0.00000000000E+00  0.86961229958E+03  0.86961229958E+03  0.00000000000E+00 0. -1.
          2   -1    0    0  503    0 -0.00000000000E+00 -0.00000000000E+00 -0.10576737979E+04  0.10576737979E+04  0.00000000000E+00 0. -1.
         24    2    1    2    0    0 -0.73206959169E+02 -0.70883701177E+01  0.40217948034E+03  0.41704097119E+03  0.82251646688E+02 0.  0.
         25    2    1    2    0    0  0.39560156133E+02 -0.94498949314E+02 -0.59275886784E+03  0.61439804029E+03  0.12500727635E+03 0.  0.
         24    2    1    2    0    0  0.62790207727E+02  0.10271196480E+01 -0.43061080772E+02  0.11273907056E+03  0.83139498384E+02 0.  0.
        -11    1    5    5    0    0 -0.83816946184E+01  0.18041056801E+02  0.10080738263E+02  0.22301430875E+02  0.00000000000E+00 0.  1.
         12    1    5    5    0    0  0.71171902345E+02 -0.17013937153E+02 -0.53141819035E+02  0.90437639682E+02  0.00000000000E+00 0. -1.
        -13    1    3    3    0    0 -0.55976163803E+01 -0.27508079265E+02  0.45704091951E+02  0.53636664280E+02  0.00000000000E+00 0.  1.
         14    1    3    3    0    0 -0.67609342789E+02  0.20419709147E+02  0.35647538839E+03  0.36340430691E+03  0.00000000000E+00 0. -1.
          5    1    4    4  501    0  0.26505117079E+02 -0.82662545383E+02 -0.58949432521E+03  0.59587017637E+03  0.47000000000E+01 0. -1.
         -5    1    4    4    0  501  0.13055039054E+02 -0.11836403932E+02 -0.32645426282E+01  0.18527863916E+02  0.47000000000E+01 0. -1.
          1    1    1    2  502    0 -0.10406942750E+03  0.13208958909E+01  0.39695810165E+03  0.41037534645E+03  0.00000000000E+00 0. -1.
          1    1    1    2  503    0  0.74926022806E+02  0.99239303893E+02 -0.35137913168E+03  0.37273266896E+03  0.00000000000E+00 0. -1.
<mgrwt>
<rscale>  0 0.11350268E+03</rscale>
<asrwt>0</asrwt>
<pdfrwt beam="1">  1        2 0.12788416E+00 0.10407781E+03</pdfrwt>
<pdfrwt beam="2">  1        2 0.15554026E+00 0.12378102E+03</pdfrwt>
<totfact> 0.14717335E+02</totfact>
</mgrwt>
</event>
<event>
13    1  0.1675423E-008  0.1573632E+03  0.7546771E-02  0.1318588E+00
          2   -1    0    0  502    0  0.00000000000E+00  0.00000000000E+00  0.80047806290E+03  0.80047806290E+03  0.00000000000E+00 0. -1.
          2   -1    0    0  503    0 -0.00000000000E+00 -0.00000000000E+00 -0.34997191792E+04  0.34997191792E+04  0.00000000000E+00 0. -1.
         24    2    1    2    0    0 -0.33006997673E+03 -0.18730249709E+03  0.40005155379E+02  0.38894943003E+03  0.75185315809E+02 0.  0.
         25    2    1    2    0    0 -0.83651976671E+02  0.51843204927E+03 -0.26233226527E+03  0.60017829835E+03  0.12500531788E+03 0.  0.
         24    2    1    2    0    0  0.41103702616E+03 -0.21348807971E+03 -0.56702346519E+03  0.73648711390E+03  0.79806402093E+02 0.  0.
        -11    1    3    3    0    0 -0.97476668121E+02 -0.94956169857E+02  0.24008130732E+02  0.13818381006E+03  0.00000000000E+00 0.  1.
         12    1    3    3    0    0 -0.23259330861E+03 -0.92346327229E+02  0.15997024647E+02  0.25076561997E+03  0.00000000000E+00 0. -1.
        -13    1    5    5    0    0  0.35288314743E+03 -0.19387631762E+03 -0.44644404052E+03  0.60118784385E+03  0.00000000000E+00 0.  1.
         14    1    5    5    0    0  0.58153878727E+02 -0.19611762091E+02 -0.12057942467E+03  0.13529927005E+03  0.00000000000E+00 0. -1.
          5    1    4    4  501    0 -0.42229125603E+02  0.14295012393E+03 -0.13598370900E+03  0.20182095058E+03  0.47000000000E+01 0. -1.
         -5    1    4    4    0  501 -0.41422851067E+02  0.37548192534E+03 -0.12634855626E+03  0.39835734777E+03  0.47000000000E+01 0. -1.
          1    1    1    2  502    0 -0.18588563728E+02 -0.15687586459E+03  0.31333701938E+03  0.35090690974E+03  0.00000000000E+00 0. -1.
          1    1    1    2  503    0  0.21273490971E+02  0.39234392116E+02 -0.22232275606E+04  0.22236754901E+04  0.00000000000E+00 0. -1.
<mgrwt>
<rscale>  0 0.83804708E+02</rscale>
<asrwt>0</asrwt>
<pdfrwt beam="1">  1        2 0.11771736E+00 0.15736320E+03</pdfrwt>
<pdfrwt beam="2">  1        2 0.51466458E+00 0.44630695E+02</pdfrwt>
<totfact> 0.10571012E+01</totfact>
</mgrwt>
</event>
<event>
13    1  0.1675423E-008  0.7957049E+02  0.7546771E-02  0.1400196E+00
          2   -1    0    0  502    0  0.00000000000E+00  0.00000000000E+00  0.26445057204E+04  0.26445057204E+04  0.00000000000E+00 0. -1.
          2   -1    0    0  503    0 -0.00000000000E+00 -0.00000000000E+00 -0.63995139534E+03  0.63995139534E+03  0.00000000000E+00 0. -1.
         24    2    1    2    0    0  0.86367593288E+02 -0.24910531076E+02  0.53823472030E+03  0.55185017917E+03  0.82232052024E+02 0.  0.
         25    2    1    2    0    0 -0.55413017770E+02  0.15107032087E+03  0.37043168220E+03  0.42277369901E+03  0.12500050005E+03 0.  0.
         24    2    1    2    0    0 -0.55832730175E+02 -0.49966283820E+02  0.65373835005E+03  0.66291145067E+03  0.80397996449E+02 0.  0.
        -13    1    3    3    0    0  0.88030269777E+02  0.20343144794E+01  0.31795849751E+03  0.32992585981E+03  0.00000000000E+00 0.  1.
         14    1    3    3    0    0 -0.16626764883E+01 -0.26944845555E+02  0.22027622279E+03  0.22192431935E+03  0.00000000000E+00 0. -1.
        -13    1    5    5    0    0 -0.30952310290E+02 -0.40171069271E+02  0.60660930347E+03  0.60872539571E+03  0.00000000000E+00 0.  1.
         14    1    5    5    0    0 -0.24880419886E+02 -0.97952145496E+01  0.47129046574E+02  0.54186054966E+02  0.00000000000E+00 0. -1.
          5    1    4    4  501    0 -0.26301556881E+02  0.47411195087E+02  0.27010068328E+03  0.27552869619E+03  0.47000000000E+01 0.  1.
         -5    1    4    4    0  501 -0.29111460889E+02  0.10365912578E+03  0.10033099892E+03  0.14724500282E+03  0.47000000000E+01 0.  1.
          1    1    1    2  502    0  0.61547966903E+02 -0.51155420032E+02  0.10421811628E+04  0.10452495421E+04  0.00000000000E+00 0. -1.
          1    1    1    2  503    0 -0.36669812245E+02 -0.25038085938E+02 -0.60003159025E+03  0.60167224481E+03  0.00000000000E+00 0. -1.
<mgrwt>
<rscale>  0 0.59440118E+02</rscale>
<asrwt>0</asrwt>
<pdfrwt beam="1">  1        2 0.38889789E+00 0.79570488E+02</pdfrwt>
<pdfrwt beam="2">  1        2 0.94110501E-01 0.44402487E+02</pdfrwt>
<totfact> 0.36564379E+01</totfact>
</mgrwt>
</event>
<event>
13    1  0.1675423E-008  0.2838553E+03  0.7546771E-02  0.1281455E+00
          2   -1    0    0  503    0  0.00000000000E+00  0.00000000000E+00  0.61500915642E+03  0.61500915642E+03  0.00000000000E+00 0. -1.
          2   -1    0    0  502    0 -0.00000000000E+00 -0.00000000000E+00 -0.15814215416E+04  0.15814215416E+04  0.00000000000E+00 0. -1.
         24    2    1    2    0    0 -0.53012801149E+01 -0.48614978559E+03  0.61622813284E+02  0.49842911061E+03  0.90909238197E+02 0.  0.
         25    2    1    2    0    0 -0.54666738224E+02 -0.17653308607E+01 -0.90686732967E+03  0.91707355278E+03  0.12499591561E+03 0.  0.
         24    2    1    2    0    0 -0.10429490155E+03  0.13012226871E+03  0.23901081264E+02  0.18643921732E+03  0.79869197856E+02 0.  0.
        -11    1    3    3    0    0  0.39013244921E+02 -0.13460893601E+03  0.12250727507E+02  0.14068290322E+03  0.00000000000E+00 0.  1.
         12    1    3    3    0    0 -0.44314525036E+02 -0.35154084958E+03  0.49372085776E+02  0.35774620739E+03  0.00000000000E+00 0. -1.
        -13    1    5    5    0    0  0.59635237224E+01  0.23357616111E+02 -0.14628914051E+02  0.28198350517E+02  0.00000000000E+00 0.  1.
         14    1    5    5    0    0 -0.11025842527E+03  0.10676465260E+03  0.38529995315E+02  0.15824086680E+03  0.00000000000E+00 0. -1.
          5    1    4    4  501    0  0.28533337589E+02 -0.12679634736E+01 -0.65767202150E+02  0.71855229204E+02  0.47000000000E+01 0. -1.
         -5    1    4    4    0  501 -0.83200075813E+02 -0.49736738710E+00 -0.84110012752E+03  0.84521832358E+03  0.47000000000E+01 0. -1.
          1    1    1    2  502    0 -0.15938966085E+02  0.30983892078E+02 -0.21242283470E+03  0.21526149891E+03  0.00000000000E+00 0. -1.
          1    1    1    2  503    0  0.18020188597E+03  0.32680895566E+03  0.67353884692E+02  0.37922731836E+03  0.00000000000E+00 0. -1.
<mgrwt>
<rscale>  0 0.99450700E+02</rscale>
<asrwt>0</asrwt>
<pdfrwt beam="1">  1        2 0.90442523E-01 0.28385530E+03</pdfrwt>
<pdfrwt beam="2">  1        2 0.23256199E+00 0.34843252E+02</pdfrwt>
<totfact> 0.12849070E+02</totfact>
</mgrwt>
</event>
<event>
13    1  0.1675423E-008  0.1545687E+03  0.7546771E-02  0.1251028E+00
          2   -1    0    0  503    0  0.00000000000E+00  0.00000000000E+00  0.24362374009E+04  0.24362374009E+04  0.00000000000E+00 0. -1.
          2   -1    0    0  502    0 -0.00000000000E+00 -0.00000000000E+00 -0.17373013260E+04  0.17373013260E+04  0.00000000000E+00 0. -1.
         24    2    1    2    0    0 -0.78244344644E+02 -0.17157184254E+03  0.71677965365E+03  0.74558728258E+03  0.81044737168E+02 0.  0.
         25    2    1    2    0    0  0.43530482311E+02 -0.18104527034E+02 -0.10276373871E+04  0.10362847282E+04  0.12499904701E+03 0.  0.
         24    2    1    2    0    0  0.89522938842E+02 -0.73844525930E+02 -0.55798227248E+02  0.14884992409E+03  0.74669184729E+02 0.  0.
        -11    1    5    5    0    0  0.56582452220E+02 -0.77865477645E+02 -0.16909639291E+02  0.97726876595E+02  0.00000000000E+00 0.  1.
         12    1    5    5    0    0  0.32940486622E+02  0.40209517149E+01 -0.38888587957E+02  0.51123047492E+02  0.00000000000E+00 0. -1.
        -13    1    3    3    0    0 -0.56043697013E+02 -0.14600933140E+03  0.44450793442E+03  0.47121855289E+03  0.00000000000E+00 0.  1.
         14    1    3    3    0    0 -0.22200647631E+02 -0.25562511143E+02  0.27227171924E+03  0.27436872968E+03  0.00000000000E+00 0. -1.
          5    1    4    4  501    0  0.50245654162E+02  0.35139623601E+02 -0.27828107927E+03  0.28499450519E+03  0.47000000000E+01 0. -1.
         -5    1    4    4    0  501 -0.67151718515E+01 -0.53244150635E+02 -0.74935630787E+03  0.75129022305E+03  0.47000000000E+01 0. -1.
          1    1    1    2  502    0  0.15398651860E+01  0.19850907439E+03 -0.57071233396E+03  0.60425225852E+03  0.00000000000E+00 0. -1.
          1    1    1    2  503    0 -0.56348941695E+02  0.65011821113E+02  0.16363043697E+04  0.16385645335E+04  0.00000000000E+00 0. -1.
<mgrwt>
<rscale>  0 0.11531723E+03</rscale>
<asrwt>0</asrwt>
<pdfrwt beam="1">  1        2 0.35827021E+00 0.86033366E+02</pdfrwt>
<pdfrwt beam="2">  1        2 0.25548549E+00 0.15456868E+03</pdfrwt>
<totfact> 0.10532540E+01</totfact>
</mgrwt>
</event>
<event>
13    1  0.1675423E-008  0.7250336E+02  0.7546771E-02  0.1385063E+00
          2   -1    0    0  503    0  0.00000000000E+00  0.00000000000E+00  0.41335979427E+03  0.41335979427E+03  0.00000000000E+00 0. -1.
          2   -1    0    0  502    0 -0.00000000000E+00 -0.00000000000E+00 -0.12841038110E+04  0.12841038110E+04  0.00000000000E+00 0. -1.
         24    2    1    2    0    0 -0.14285885010E+03 -0.67086451101E+02  0.30040974171E+02  0.18376495186E+03  0.89206807089E+02 0.  0.
         25    2    1    2    0    0  0.17738632923E+02  0.10260357230E+03 -0.42715207891E+03  0.45708755160E+03  0.12501191607E+03 0.  0.
         24    2    1    2    0    0  0.33557438138E+02 -0.56914793474E+02 -0.23140237619E+02  0.10386571389E+03  0.76728225276E+02 0.  0.
        -11    1    5    5    0    0 -0.21643701005E+02 -0.23354264223E+02  0.69630887770E+01  0.32593803950E+02  0.00000000000E+00 0.  1.
         12    1    5    5    0    0  0.55201139143E+02 -0.33560529251E+02 -0.30103326396E+02  0.71271909939E+02  0.00000000000E+00 0. -1.
        -13    1    3    3    0    0 -0.75889432430E+00  0.12726943959E+02  0.15598398689E+02  0.20145993765E+02  0.00000000000E+00 0.  1.
         14    1    3    3    0    0 -0.14209995578E+03 -0.79813395061E+02  0.14442575482E+02  0.16361895810E+03  0.00000000000E+00 0. -1.
          5    1    4    4  501    0  0.33589960172E+02  0.11617423309E+03 -0.41542355949E+03  0.43269338062E+03  0.47000000000E+01 0.  1.
         -5    1    4    4    0  501 -0.15851327249E+02 -0.13570660786E+02 -0.11728519428E+02  0.24394170978E+02  0.47000000000E+01 0.  1.
          1    1    1    2  502    0  0.43878841743E+02 -0.33170588164E+02 -0.69528219992E+03  0.69745464240E+03  0.00000000000E+00 0. -1.
          1    1    1    2  503    0  0.47683937297E+02  0.54568260439E+02  0.24478952556E+03  0.25529074552E+03  0.00000000000E+00 0. -1.
<mgrwt>
<rscale>  0 0.63151462E+02</rscale>
<asrwt>0</asrwt>
<pdfrwt beam="1">  1        2 0.60788205E-01 0.72503362E+02</pdfrwt>
<pdfrwt beam="2">  1        2 0.18883879E+00 0.55005824E+02</pdfrwt>
<totfact> 0.27095448E+02</totfact>
</mgrwt>
</event>
<event>
13    1  0.1675423E-008  0.1511474E+03  0.7546771E-02  0.1320591E+00
          2   -1    0    0  503    0  0.00000000000E+00  0.00000000000E+00  0.26915931209E+04  0.26915931209E+04  0.00000000000E+00 0. -1.
          2   -1    0    0  502    0 -0.00000000000E+00 -0.00000000000E+00 -0.50324747472E+04  0.50324747472E+04  0.00000000000E+00 0. -1.
         24    2    1    2    0    0  0.45806168233E+02  0.32768800914E+01  0.21755914470E+03  0.23727070624E+03  0.82803765645E+02 0.  0.
         25    2    1    2    0    0  0.97854228172E+02  0.15673070070E+03  0.25005257355E+03  0.33509816269E+03  0.12499810633E+03 0.  0.
         24    2    1    2    0    0  0.83668373731E+02 -0.28566463643E+01 -0.39681204276E+03  0.41363246005E+03  0.81384627180E+02 0.  0.
        -11    1    3    3    0    0  0.62986473047E+02 -0.22504681168E+01  0.99097772648E+02  0.11744244947E+03  0.00000000000E+00 0.  1.
         12    1    3    3    0    0 -0.17180304814E+02  0.55273482083E+01  0.11846137206E+03  0.11982825677E+03  0.00000000000E+00 0. -1.
        -13    1    5    5    0    0  0.89080334483E+02 -0.18920050088E+02 -0.37558584349E+03  0.38646862760E+03  0.00000000000E+00 0.  1.
         14    1    5    5    0    0 -0.54119607517E+01  0.16063403724E+02 -0.21226199268E+02  0.27163832457E+02  0.00000000000E+00 0. -1.
          5    1    4    4  501    0  0.20870539319E+02  0.39295304027E+02 -0.38588054140E+01  0.44907468302E+02  0.47000000000E+01 0.  1.
         -5    1    4    4    0  501  0.76983688853E+02  0.11743539667E+03  0.25391137897E+03  0.29019069439E+03  0.47000000000E+01 0.  1.
          1    1    1    2  502    0 -0.18253318709E+03 -0.16589697485E+03 -0.45713079354E+04  0.45779576681E+04  0.00000000000E+00 0. -1.
          1    1    1    2  503    0 -0.44795583044E+02  0.87460404225E+01  0.21596266337E+04  0.21601088710E+04  0.00000000000E+00 0. -1.
<mgrwt>
<rscale>  0 0.83057694E+02</rscale>
<asrwt>0</asrwt>
<pdfrwt beam="1">  1        2 0.39582252E+00 0.45641401E+02</pdfrwt>
<pdfrwt beam="2">  1        2 0.74006981E+00 0.15114743E+03</pdfrwt>
<totfact> 0.70724061E-02</totfact>
</mgrwt>
</event>
<event>
13    1  0.1675423E-008  0.8000622E+02  0.7546771E-02  0.1390893E+00
          2   -1    0    0  503    0  0.00000000000E+00  0.00000000000E+00  0.93843654737E+03  0.93843654737E+03  0.00000000000E+00 0. -1.
          2   -1    0    0  502    0 -0.00000000000E+00 -0.00000000000E+00 -0.12613787956E+04  0.12613787956E+04  0.00000000000E+00 0. -1.
         24    2    1    2    0    0  0.29724474436E+03 -0.27227356223E+03 -0.48287633495E+03  0.63398541190E+03  0.79250343299E+02 0.  0.
         25    2    1    2    0    0 -0.30113087838E+03  0.40485998357E+03 -0.43757164154E+03  0.67946890403E+03  0.12497054795E+03 0.  0.
         24    2    1    2    0    0  0.31636275777E+02 -0.50293509689E+02 -0.25016956763E+02  0.10266492010E+03  0.79899603456E+02 0.  0.
        -13    1    3    3    0    0  0.61913577511E+02 -0.33623085270E+02 -0.12626580134E+03  0.14459203136E+03  0.00000000000E+00 0.  1.
         14    1    3    3    0    0  0.23533116685E+03 -0.23865047696E+03 -0.35661053361E+03  0.48939338055E+03  0.00000000000E+00 0. -1.
        -13    1    5    5    0    0  0.16114680749E+02 -0.49556662938E+02 -0.50662496067E+02  0.72678981040E+02  0.00000000000E+00 0.  1.
         14    1    5    5    0    0  0.15521595028E+02 -0.73684675009E+00  0.25645539304E+02  0.29985939064E+02  0.00000000000E+00 0. -1.
          5    1    4    4  501    0 -0.22535390611E+02  0.11537093592E+03 -0.88493347387E+02  0.14721229302E+03  0.47000000000E+01 0. -1.
         -5    1    4    4    0  501 -0.27859548777E+03  0.28948904765E+03 -0.34907829416E+03  0.53225661101E+03  0.47000000000E+01 0. -1.
          1    1    1    2  502    0  0.34813215032E+02 -0.32403066625E+02 -0.71063123225E+02  0.85509567593E+02  0.00000000000E+00 0. -1.
          1    1    1    2  503    0 -0.62563356787E+02 -0.49889845030E+02  0.69358580827E+03  0.69818653931E+03  0.00000000000E+00 0. -1.
<mgrwt>
<rscale>  0 0.61685221E+02</rscale>
<asrwt>0</asrwt>
<pdfrwt beam="1">  1        2 0.13800537E+00 0.80006222E+02</pdfrwt>
<pdfrwt beam="2">  1        2 0.18549688E+00 0.47559633E+02</pdfrwt>
<totfact> 0.11147457E+02</totfact>
</mgrwt>
</event>
<event>
13    1  0.1675423E-008  0.8675635E+02  0.7546771E-02  0.1311113E+00
          2   -1    0    0  502    0  0.00000000000E+00  0.00000000000E+00  0.69847474160E+03  0.69847474160E+03  0.00000000000E+00 0. -1.
          2   -1    0    0  503    0 -0.00000000000E+00 -0.00000000000E+00 -0.10528590732E+04  0.10528590732E+04  0.00000000000E+00 0. -1.
         24    2    1    2    0    0 -0.11996181362E+03  0.56288127156E+02  0.25422990507E+03  0.29816540024E+03  0.81918076640E+02 0.  0.
         25    2    1    2    0    0  0.11683438127E+03  0.35791986473E+01 -0.59949515159E+03  0.62344277363E+03  0.12499348745E+03 0.  0.
         24    2    1    2    0    0 -0.52510328856E+02 -0.87498568152E+02  0.74229873659E+02  0.14828833318E+03  0.77884668247E+02 0.  0.
        -11    1    3    3    0    0 -0.22314804191E+02 -0.10956353502E+02  0.10223113372E+02  0.26879438521E+02  0.00000000000E+00 0.  1.
         12    1    3    3    0    0 -0.97647009427E+02  0.67244480658E+02  0.24400679170E+03  0.27128596172E+03  0.00000000000E+00 0. -1.
        -13    1    5    5    0    0  0.18508512744E+02 -0.36261131303E+02  0.26128204807E+02  0.48374763812E+02  0.00000000000E+00 0.  1.
         14    1    5    5    0    0 -0.71018841600E+02 -0.51237436849E+02  0.48101668852E+02  0.99913569366E+02  0.00000000000E+00 0. -1.
          5    1    4    4  501    0  0.89932034752E+02  0.37819104772E+02 -0.54423965721E+03  0.55293485153E+03  0.47000000000E+01 0.  1.
         -5    1    4    4    0  501  0.26902346515E+02 -0.34239906125E+02 -0.55255494380E+02  0.70507922098E+02  0.47000000000E+01 0.  1.
          1    1    1    2  502    0 -0.77539026158E+01  0.86860981013E+02  0.28757282968E+03  0.30050471777E+03  0.00000000000E+00 0. -1.
          1    1    1    2  503    0  0.63391663823E+02 -0.59229738665E+02 -0.37092178840E+03  0.38093258996E+03  0.00000000000E+00 0. -1.
<mgrwt>
<rscale>  0 0.86673536E+02</rscale>
<asrwt>0</asrwt>
<pdfrwt beam="1">  1        2 0.10271688E+00 0.86590796E+02</pdfrwt>
<pdfrwt beam="2">  1        2 0.15483221E+00 0.86756354E+02</pdfrwt>
<totfact> 0.19714985E+02</totfact>
</mgrwt>
</event>
<event>
13    1  0.1675423E-008  0.1032991E+03  0.7546771E-02  0.1407505E+00
          2   -1    0    0  503    0  0.00000000000E+00  0.00000000000E+00  0.27782906231E+04  0.27782906231E+04  0.00000000000E+00 0. -1.
         -3   -1    0    0    0  501 -0.00000000000E+00 -0.00000000000E+00 -0.40769870593E+03  0.40769870593E+03  0.00000000000E+00 0.  1.
         24    2    1    2    0    0  0.31049499298E+02 -0.11206978010E+02  0.47129776577E+03  0.47927165697E+03  0.80560966941E+02 0.  0.
         25    2    1    2    0    0 -0.53934982081E+02  0.86887614219E+02 -0.41970751226E+02  0.16686982162E+03  0.12500221442E+03 0.  0.
         24    2    1    2    0    0 -0.66723719823E+02 -0.10801566350E+03  0.46430294698E+02  0.15704421924E+03  0.79922939018E+02 0.  0.
        -11    1    3    3    0    0  0.41297865583E+02 -0.20827725715E+02  0.45659092312E+03  0.45892764019E+03  0.00000000000E+00 0.  1.
         12    1    3    3    0    0 -0.10248366285E+02  0.96207477044E+01  0.14706842653E+02  0.20344016780E+02  0.00000000000E+00 0. -1.
        -11    1    5    5    0    0 -0.54164029589E+01 -0.69024433712E+01  0.37441260232E+02  0.38455547237E+02  0.00000000000E+00 0.  1.
         12    1    5    5    0    0 -0.61307316864E+02 -0.10111322013E+03  0.89890344658E+01  0.11858867200E+03  0.00000000000E+00 0. -1.
          5    1    4    4  502    0 -0.80214022601E+02  0.33226794002E+02 -0.58377880387E+02  0.10473001566E+03  0.47000000000E+01 0.  1.
         -5    1    4    4    0  502  0.26279040520E+02  0.53660820217E+02  0.16407129162E+02  0.62139805957E+02  0.47000000000E+01 0.  1.
          1    1    1    2  503    0  0.81560153399E+02  0.63606124009E+02  0.21364941763E+04  0.21389962980E+04  0.00000000000E+00 0. -1.
         -4    1    1    2    0  501  0.80490492067E+01 -0.31271096716E+02 -0.24165956842E+03  0.24380733313E+03  0.00000000000E+00 0.  1.
<mgrwt>
<rscale>  0 0.57754364E+02</rscale>
<asrwt>0</asrwt>
<pdfrwt beam="1">  1        2 0.40857214E+00 0.10329908E+03</pdfrwt>
<pdfrwt beam="2">  1       -3 0.59955693E-01 0.32290381E+02</pdfrwt>
<totfact> 0.58439313E+00</totfact>
</mgrwt>
</event>
<event>
13    1  0.1675423E-008  0.6595902E+02  0.7546771E-02  0.1426637E+00
          2   -1    0    0  503    0  0.00000000000E+00  0.00000000000E+00  0.11745717903E+04  0.11745717903E+04  0.00000000000E+00 0. -1.
         -3   -1    0    0    0  501 -0.00000000000E+00 -0.00000000000E+00 -0.11563817710E+04  0.11563817710E+04  0.00000000000E+00 0.  1.
         24    2    1    2    0    0  0.40804111667E+02 -0.12202580591E+00  0.52576917298E+03  0.53343134402E+03  0.80316779718E+02 0.  0.
         25    2    1    2    0    0 -0.54125869438E+02  0.79899304595E+02 -0.45261742728E+03  0.47937404467E+03  0.12499372229E+03 0.  0.
         24    2    1    2    0    0 -0.82363470959E+02 -0.29363694330E+02 -0.24374077566E+01  0.11774889976E+03  0.78821916652E+02 0.  0.
        -11    1    3    3    0    0 -0.15749625975E+02  0.18563803366E+02  0.77799264238E+02  0.81519267844E+02  0.00000000000E+00 0.  1.
         12    1    3    3    0    0  0.56553737641E+02 -0.18685829172E+02  0.44796990874E+03  0.45191207617E+03  0.00000000000E+00 0. -1.
        -13    1    5    5    0    0 -0.88779679323E+01 -0.30192830464E+02  0.24073956225E+02  0.39622981896E+02  0.00000000000E+00 0.  1.
         14    1    5    5    0    0 -0.73485503026E+02  0.82913613350E+00 -0.26511363981E+02  0.78125917863E+02  0.00000000000E+00 0. -1.
          5    1    4    4  502    0 -0.49198150981E+02  0.11051092289E+03 -0.40197219647E+03  0.41980573944E+03  0.47000000000E+01 0.  1.
         -5    1    4    4    0  502 -0.49277184561E+01 -0.30611618294E+02 -0.50645230810E+02  0.59568305226E+02  0.47000000000E+01 0.  1.
          1    1    1    2  503    0  0.41747050313E+02 -0.12657116912E+02  0.57137383240E+03  0.57303671363E+03  0.00000000000E+00 0. -1.
         -4    1    1    2    0  501  0.53938178417E+02 -0.37756467547E+02 -0.62389815101E+03  0.62736255926E+03  0.00000000000E+00 0.  1.
<mgrwt>
<rscale>  0 0.53641125E+02</rscale>
<asrwt>0</asrwt>
<pdfrwt beam="1">  1        2 0.17273115E+00 0.43623604E+02</pdfrwt>
<pdfrwt beam="2">  1       -3 0.17005614E+00 0.65959023E+02</pdfrwt>
<totfact> 0.38734852E+00</totfact>
</mgrwt>
</event>
<event>
13    1  0.1675423E-008  0.1137696E+03  0.7546771E-02  0.1437498E+00
          2   -1    0    0  503    0  0.00000000000E+00  0.00000000000E+00  0.97777074055E+03  0.97777074055E+03  0.00000000000E+00 0. -1.
         -1   -1    0    0    0  501 -0.00000000000E+00 -0.00000000000E+00 -0.77269152123E+03  0.77269152123E+03  0.00000000000E+00 0.  1.
         24    2    1    2    0    0  0.14387337950E+03  0.59830698388E+01  0.15878621824E+03  0.22930407321E+03  0.81436775671E+02 0.  0.
         25    2    1    2    0    0 -0.27349261899E+03 -0.65078706727E+01 -0.40799156396E+03  0.50687561945E+03  0.12500084921E+03 0.  0.
         24    2    1    2    0    0 -0.25198133409E+02  0.28229617091E+02  0.48851498743E+02  0.10267082483E+03  0.81993732284E+02 0.  0.
        -13    1    3    3    0    0  0.24999288220E+02 -0.21594201034E+02  0.73030762487E+02  0.80154639287E+02  0.00000000000E+00 0.  1.
         14    1    3    3    0    0  0.11887409128E+03  0.27577270873E+02  0.85755455754E+02  0.14914943392E+03  0.00000000000E+00 0. -1.
        -13    1    5    5    0    0  0.38371795382E+01  0.17270173122E+02 -0.20268357501E+02  0.26903329576E+02  0.00000000000E+00 0.  1.
         14    1    5    5    0    0 -0.29035312947E+02  0.10959443969E+02  0.69119856245E+02  0.75767495256E+02  0.00000000000E+00 0. -1.
          5    1    4    4  502    0 -0.20794851244E+03 -0.38019264119E+02 -0.21946755986E+03  0.30475588280E+03  0.47000000000E+01 0.  1.
         -5    1    4    4    0  502 -0.65544106554E+02  0.31511393446E+02 -0.18852400411E+03  0.20211973665E+03  0.47000000000E+01 0.  1.
          1    1    1    2  503    0  0.15826012012E+03 -0.50746965022E+02  0.64746795417E+03  0.66845813014E+03  0.00000000000E+00 0. -1.
         -2    1    1    2    0  501 -0.34427472195E+01  0.23042148765E+02 -0.24203488787E+03  0.24315361415E+03  0.00000000000E+00 0.  1.
<mgrwt>
<rscale>  0 0.51483931E+02</rscale>
<asrwt>0</asrwt>
<pdfrwt beam="1">  1        2 0.14378982E+00 0.11376960E+03</pdfrwt>
<pdfrwt beam="2">  1       -1 0.11363111E+00 0.23297921E+02</pdfrwt>
<totfact> 0.29462908E+01</totfact>
</mgrwt>
</event>
<event>
13    1  0.1675423E-008  0.9174585E+02  0.7546771E-02  0.1331141E+00
          2   -1    0    0  502    0  0.00000000000E+00  0.00000000000E+00  0.32575421738E+04  0.32575421738E+04  0.00000000000E+00 0. -1.
          2   -1    0    0  503    0 -0.00000000000E+00 -0.00000000000E+00 -0.14361143440E+04  0.14361143440E+04  0.00000000000E+00 0. -1.
         24    2    1    2    0    0  0.82426913800E+02 -0.67982310316E+02  0.16745224456E+04  0.16798764171E+04  0.80892306689E+02 0.  0.
         25    2    1    2    0    0 -0.34685503592E+02 -0.80493207532E+02  0.13867131903E+02  0.15329134257E+03  0.12499479086E+03 0.  0.
         24    2    1    2    0    0 -0.51366661404E+02 -0.14295614908E+01 -0.17906950788E+03  0.20282991562E+03  0.80209154527E+02 0.  0.
        -11    1    3    3    0    0  0.32719760224E+02 -0.71985013466E+02  0.12362078171E+04  0.12387341087E+04  0.00000000000E+00 0.  1.
         12    1    3    3    0    0  0.49707153576E+02  0.40027031499E+01  0.43831462847E+03  0.44114230842E+03  0.00000000000E+00 0. -1.
        -13    1    5    5    0    0 -0.56248474545E+02 -0.43783660035E+01 -0.55541076793E+02  0.79169894460E+02  0.00000000000E+00 0.  1.
         14    1    5    5    0    0  0.48818131410E+01  0.29488045127E+01 -0.12352843108E+03  0.12366002116E+03  0.00000000000E+00 0. -1.
          5    1    4    4  501    0  0.38396355011E+01 -0.10507386988E+03  0.19391126573E+02  0.10702040330E+03  0.47000000000E+01 0.  1.
         -5    1    4    4    0  501 -0.38525139093E+02  0.24580662350E+02 -0.55239946706E+01  0.46270939269E+02  0.47000000000E+01 0.  1.
          1    1    1    2  502    0 -0.58956807927E+02  0.12208400385E+03  0.14807840980E+04  0.14869774558E+04  0.00000000000E+00 0. -1.
          1    1    1    2  503    0  0.62582059124E+02  0.27821075492E+02 -0.11686763379E+04  0.11706813866E+04  0.00000000000E+00 0. -1.
<mgrwt>
<rscale>  0 0.79268127E+02</rscale>
<asrwt>0</asrwt>
<pdfrwt beam="1">  1        2 0.47905032E+00 0.91745846E+02</pdfrwt>
<pdfrwt beam="2">  1        2 0.21119329E+00 0.68487418E+02</pdfrwt>
<totfact> 0.58645710E+00</totfact>
</mgrwt>
</event>
<event>
13    1  0.1675423E-008  0.1677741E+03  0.7546771E-02  0.1237701E+00
          2   -1    0    0  503    0  0.00000000000E+00  0.00000000000E+00  0.21199703487E+04  0.21199703487E+04  0.00000000000E+00 0. -1.
          2   -1    0    0  502    0 -0.00000000000E+00 -0.00000000000E+00 -0.35330804969E+04  0.35330804969E+04  0.00000000000E+00 0. -1.
         24    2    1    2    0    0 -0.23227879842E+02 -0.95752816326E+02  0.40474555426E+03  0.42253491760E+03  0.70771863473E+02 0.  0.
         25    2    1    2    0    0 -0.20820138115E+02  0.40386191009E+03 -0.16528455083E+04  0.17061835326E+04  0.12500420708E+03 0.  0.
         24    2    1    2    0    0  0.15144844375E+03 -0.12149162739E+03  0.21319057649E+03  0.29870483645E+03  0.77958391280E+02 0.  0.
        -11    1    3    3    0    0 -0.34729740339E+02 -0.66868667015E+02  0.17278264216E+03  0.18849778493E+03  0.00000000000E+00 0.  1.
         12    1    3    3    0    0  0.11501860496E+02 -0.28884149310E+02  0.23196291210E+03  0.23403713267E+03  0.00000000000E+00 0. -1.
        -13    1    5    5    0    0  0.85942719406E+02 -0.20373375977E+02  0.80934538685E+02  0.11979826802E+03  0.00000000000E+00 0.  1.
         14    1    5    5    0    0  0.65505724347E+02 -0.10111825142E+03  0.13225603781E+03  0.17890656843E+03  0.00000000000E+00 0. -1.
          5    1    4    4  501    0 -0.12381538518E+02  0.20333173082E+03 -0.58091762028E+03  0.61561714304E+03  0.47000000000E+01 0.  1.
         -5    1    4    4    0  501 -0.84385995972E+01  0.20053017927E+03 -0.10719278881E+04  0.10905663895E+04  0.47000000000E+01 0.  1.
          1    1    1    2  502    0  0.19924902105E+02 -0.88444095186E+02 -0.17962281275E+04  0.17985146220E+04  0.00000000000E+00 0. -1.
          1    1    1    2  503    0 -0.12732532790E+03 -0.98173371189E+02  0.14180273569E+04  0.14271129370E+04  0.00000000000E+00 0. -1.
<mgrwt>
<rscale>  0 0.12333093E+03</rscale>
<asrwt>0</asrwt>
<pdfrwt beam="1">  1        2 0.31176035E+00 0.16777413E+03</pdfrwt>
<pdfrwt beam="2">  1        2 0.51957065E+00 0.90660684E+02</pdfrwt>
<totfact> 0.17482463E+00</totfact>
</mgrwt>
</event>
<event>
13    1  0.1675423E-008  0.1012745E+03  0.7546771E-02  0.1298157E+00
          2   -1    0    0  502    0  0.00000000000E+00  0.00000000000E+00  0.54627729210E+03  0.54627729210E+03  0.00000000000E+00 0. -1.
          2   -1    0    0  503    0 -0.00000000000E+00 -0.00000000000E+00 -0.14358126652E+04  0.14358126652E+04  0.00000000000E+00 0. -1.
         24    2    1    2    0    0 -0.10073133039E+02  0.75991036421E+01  0.14559197524E+03  0.16679485087E+03  0.80400775102E+02 0.  0.
         25    2    1    2    0    0 -0.25237396695E+02 -0.63064127353E+02 -0.44745078950E+03  0.46952277222E+03  0.12500165706E+03 0.  0.
         24    2    1    2    0    0 -0.52501782703E+02  0.48363712866E+02  0.90100741883E+02  0.14128402033E+03  0.82143440416E+02 0.  0.
        -11    1    3    3    0    0 -0.35703303730E+02 -0.55114502034E+01  0.27934733782E+02  0.45666742078E+02  0.00000000000E+00 0.  1.
         12    1    3    3    0    0  0.25630170691E+02  0.13110553846E+02  0.11765724146E+03  0.12112810879E+03  0.00000000000E+00 0. -1.
        -11    1    5    5    0    0 -0.20549073764E+02  0.43440320765E+02  0.96977407840E+02  0.10823097307E+03  0.00000000000E+00 0.  1.
         12    1    5    5    0    0 -0.31952708939E+02  0.49233921013E+01 -0.68766659572E+01  0.33053047257E+02  0.00000000000E+00 0. -1.
          5    1    4    4  501    0 -0.23607704155E+02  0.26476886609E+01 -0.85180710239E+01  0.25670634676E+02  0.47000000000E+01 0.  1.
         -5    1    4    4    0  501 -0.16296925395E+01 -0.65711816014E+02 -0.43893271847E+03  0.44385213755E+03  0.47000000000E+01 0.  1.
          1    1    1    2  502    0  0.12357177389E+03 -0.68310699057E+02  0.24240489520E+03  0.28052890782E+03  0.00000000000E+00 0. -1.
          1    1    1    2  503    0 -0.35759461449E+02  0.75412009902E+02 -0.92018219596E+03  0.92395940608E+03  0.00000000000E+00 0. -1.
<mgrwt>
<rscale>  0 0.91967057E+02</rscale>
<asrwt>0</asrwt>
<pdfrwt beam="1">  1        2 0.80334895E-01 0.10127453E+03</pdfrwt>
<pdfrwt beam="2">  1        2 0.21114892E+00 0.83514975E+02</pdfrwt>
<totfact> 0.16366332E+02</totfact>
</mgrwt>
</event>
<event>
13    1  0.1675423E-008  0.7307144E+02  0.7546771E-02  0.1467730E+00
         -1   -1    0    0    0  501 -0.00000000000E+00  0.00000000000E+00  0.75948076022E+03  0.75948076022E+03  0.00000000000E+00 0.  1.
          4   -1    0    0  503    0  0.00000000000E+00 -0.00000000000E+00 -0.15881211669E+04  0.15881211669E+04  0.00000000000E+00 0. -1.
         24    2    1    2    0    0  0.45581658175E+02 -0.40992883810E+01 -0.65298901768E+03  0.65941461304E+03  0.79614590092E+02 0.  0.
         25    2    1    2    0    0 -0.15532902948E+03 -0.11489392524E+03  0.14551164865E+03  0.27226364808E+03  0.12500453078E+03 0.  0.
         24    2    1    2    0    0  0.51832456335E+02  0.94401846225E+02 -0.46791433582E+02  0.14232178955E+03  0.80422269446E+02 0.  0.
        -13    1    5    5    0    0  0.21320970719E+02  0.75865288661E+01 -0.44900833075E+02  0.50281448104E+02  0.00000000000E+00 0.  1.
         14    1    5    5    0    0  0.30511485615E+02  0.86815317359E+02 -0.18906005064E+01  0.92040341442E+02  0.00000000000E+00 0. -1.
        -13    1    3    3    0    0 -0.19447059818E+02  0.14055287448E+02 -0.14803746626E+03  0.14996943241E+03  0.00000000000E+00 0.  1.
         14    1    3    3    0    0  0.65028717993E+02 -0.18154575829E+02 -0.50495155142E+03  0.50944518063E+03  0.00000000000E+00 0. -1.
          5    1    4    4  502    0 -0.15817848557E+03 -0.11026529474E+03  0.16352731115E+03  0.25286783111E+03  0.47000000000E+01 0.  1.
         -5    1    4    4    0  502  0.28494560908E+01 -0.46286305046E+01 -0.18015662500E+02  0.19395816963E+02  0.47000000000E+01 0.  1.
          3    1    1    2  503    0  0.50720587354E+02  0.52741192420E+02 -0.77183248787E+03  0.77529323529E+03  0.00000000000E+00 0. -1.
         -2    1    1    2    0  501  0.71943276169E+01 -0.28149825019E+02  0.49746088378E+03  0.49830864119E+03  0.00000000000E+00 0.  1.
<mgrwt>
<rscale>  0 0.46076706E+02</rscale>
<asrwt>0</asrwt>
<pdfrwt beam="2">  1        4 0.23354723E+00 0.73071435E+02</pdfrwt>
<pdfrwt beam="1">  1       -1 0.11168835E+00 0.29054621E+02</pdfrwt>
<totfact> 0.31926751E-01</totfact>
</mgrwt>
</event>
<event>
13    1  0.1675423E-008  0.1797946E+03  0.7546771E-02  0.1336787E+00
          2   -1    0    0  503    0  0.00000000000E+00  0.00000000000E+00  0.31071472378E+04  0.31071472378E+04  0.00000000000E+00 0. -1.
         -1   -1    0    0    0  501 -0.00000000000E+00 -0.00000000000E+00 -0.78955762446E+03  0.78955762446E+03  0.00000000000E+00 0.  1.
         24    2    1    2    0    0 -0.42923151405E+03  0.50100622440E+02  0.16086572991E+04  0.16676252099E+04  0.80285551382E+02 0.  0.
         25    2    1    2    0    0  0.26459087270E+03  0.16651174042E+03  0.58915855978E+02  0.34180649279E+03  0.12500444318E+03 0.  0.
         24    2    1    2    0    0  0.21054036101E+03 -0.76389535671E+02  0.59970918759E+02  0.24070223067E+03  0.64640915662E+02 0.  0.
        -11    1    3    3    0    0 -0.10148717348E+03  0.43209034642E+02  0.34936958041E+03  0.36636835394E+03  0.00000000000E+00 0.  1.
         12    1    3    3    0    0 -0.32774434057E+03  0.68915877980E+01  0.12592877187E+04  0.13012568559E+04  0.00000000000E+00 0. -1.
        -11    1    5    5    0    0  0.17516119925E+03 -0.35104778225E+02  0.43024500998E+02  0.18375227580E+03  0.00000000000E+00 0.  1.
         12    1    5    5    0    0  0.35379161763E+02 -0.41284757447E+02  0.16946417762E+02  0.56949954868E+02  0.00000000000E+00 0. -1.
          5    1    4    4  502    0  0.14695429798E+03  0.98848505293E+02 -0.29726915629E+02  0.17964512853E+03  0.47000000000E+01 0. -1.
         -5    1    4    4    0  502  0.11763657472E+03  0.67663235130E+02  0.88642771608E+02  0.16216136426E+03  0.47000000000E+01 0. -1.
          1    1    1    2  503    0  0.26169550775E+01  0.33161653536E+02  0.11027092608E+04  0.11032108853E+04  0.00000000000E+00 0. -1.
         -2    1    1    2    0  501 -0.48516674733E+02 -0.17338448073E+03 -0.51266372124E+03  0.54336004358E+03  0.00000000000E+00 0.  1.
<mgrwt>
<rscale>  0 0.77335782E+02</rscale>
<asrwt>0</asrwt>
<pdfrwt beam="1">  1        2 0.45693341E+00 0.33264752E+02</pdfrwt>
<pdfrwt beam="2">  1       -1 0.11611142E+00 0.17979461E+03</pdfrwt>
<totfact> 0.25834926E+00</totfact>
</mgrwt>
</event>
<event>
13    1  0.1675423E-008  0.5105389E+02  0.7546771E-02  0.1441640E+00
          2   -1    0    0  502    0  0.00000000000E+00  0.00000000000E+00  0.94100548556E+03  0.94100548556E+03  0.00000000000E+00 0. -1.
          2   -1    0    0  503    0 -0.00000000000E+00 -0.00000000000E+00 -0.38915824256E+04  0.38915824256E+04  0.00000000000E+00 0. -1.
         24    2    1    2    0    0  0.69833480471E+01 -0.26250648830E+02  0.59707968543E+03  0.60286232376E+03  0.78746218591E+02 0.  0.
         25    2    1    2    0    0  0.70691767179E+02 -0.37766593223E+02 -0.11197748574E+04  0.11295770813E+04  0.12500003941E+03 0.  0.
         24    2    1    2    0    0  0.14297233405E+02  0.24263214950E+02 -0.89328191209E+02  0.12133148316E+03  0.77127741957E+02 0.  0.
        -11    1    3    3    0    0 -0.26552295111E+02 -0.30428139905E+02  0.45628075248E+03  0.45806442904E+03  0.00000000000E+00 0.  1.
         12    1    3    3    0    0  0.33535643158E+02  0.41774910754E+01  0.14079893295E+03  0.14479789471E+03  0.00000000000E+00 0. -1.
        -11    1    5    5    0    0  0.36305152248E+02  0.19609586871E+02 -0.89806102916E+02  0.98831857708E+02  0.00000000000E+00 0.  1.
         12    1    5    5    0    0 -0.22007918843E+02  0.46536280785E+01  0.47791170694E+00  0.22499625457E+02  0.00000000000E+00 0. -1.
          5    1    4    4  501    0  0.92580177042E+02  0.65868850883E+01 -0.86694993618E+03  0.87191671511E+03  0.47000000000E+01 0.  1.
         -5    1    4    4    0  501 -0.21888409863E+02 -0.44353478312E+02 -0.25282492122E+03  0.25766036621E+03  0.47000000000E+01 0.  1.
          1    1    1    2  502    0 -0.49254022650E+02  0.13132573599E+02  0.31786261169E+03  0.32192400213E+03  0.00000000000E+00 0. -1.
          1    1    1    2  503    0 -0.42718325981E+02  0.26621453505E+02 -0.26564161886E+04  0.26568930208E+04  0.00000000000E+00 0. -1.
<mgrwt>
<rscale>  0 0.50692895E+02</rscale>
<asrwt>0</asrwt>
<pdfrwt beam="1">  1        2 0.13838317E+00 0.51053889E+02</pdfrwt>
<pdfrwt beam="2">  1        2 0.57229151E+00 0.50334453E+02</pdfrwt>
<totfact> 0.51352119E+00</totfact>
</mgrwt>
</event>
<event>
13    1  0.1675423E-008  0.1270106E+03  0.7546771E-02  0.1328368E+00
         -1   -1    0    0    0  501 -0.00000000000E+00  0.00000000000E+00  0.63411317751E+03  0.63411317751E+03  0.00000000000E+00 0.  1.
          4   -1    0    0  503    0  0.00000000000E+00 -0.00000000000E+00 -0.66129120487E+03  0.66129120487E+03  0.00000000000E+00 0. -1.
         24    2    1    2    0    0  0.65920879132E+01 -0.68653262029E+02 -0.11376716075E+03  0.15902042785E+03  0.87107999625E+02 0.  0.
         25    2    1    2    0    0 -0.66320600358E+02 -0.30379109901E+03  0.10986995990E+03  0.35268099199E+03  0.12500008061E+03 0.  0.
         24    2    1    2    0    0  0.34735064597E+02  0.13129103602E+03  0.24256184839E+03  0.28922550022E+03  0.79820290857E+02 0.  0.
        -11    1    3    3    0    0  0.40356721678E+02 -0.17692966720E+02 -0.73893883746E+02  0.86034947034E+02  0.00000000000E+00 0.  1.
         12    1    3    3    0    0 -0.33764633765E+02 -0.50960295309E+02 -0.39873277005E+02  0.72985480819E+02  0.00000000000E+00 0. -1.
        -13    1    5    5    0    0 -0.10432970597E+00  0.12103271451E+03  0.18064805356E+03  0.21744573604E+03  0.00000000000E+00 0.  1.
         14    1    5    5    0    0  0.34839394303E+02  0.10258321503E+02  0.61913794834E+02  0.71779764184E+02  0.00000000000E+00 0. -1.
          5    1    4    4  502    0 -0.47120217275E+02 -0.30936347555E+03  0.11111282821E+03  0.33210574442E+03  0.47000000000E+01 0. -1.
         -5    1    4    4    0  502 -0.19200383083E+02  0.55723765444E+01 -0.12428683171E+01  0.20575247569E+02  0.47000000000E+01 0. -1.
          3    1    1    2  503    0  0.17315021430E+02  0.19104404351E+03 -0.34833018841E+03  0.39765758723E+03  0.00000000000E+00 0. -1.
         -2    1    1    2    0  501  0.76784264181E+01  0.50109281514E+02  0.82487513507E+02  0.96819875081E+02  0.00000000000E+00 0.  1.
<mgrwt>
<rscale>  0 0.80241493E+02</rscale>
<asrwt>0</asrwt>
<pdfrwt beam="2">  1        4 0.97248706E-01 0.12701062E+03</pdfrwt>
<pdfrwt beam="1">  1       -1 0.93251938E-01 0.50694165E+02</pdfrwt>
<totfact> 0.43911132E+00</totfact>
</mgrwt>
</event>
<event>
13    1  0.1675423E-008  0.1628799E+03  0.7546771E-02  0.1240787E+00
          2   -1    0    0  503    0  0.00000000000E+00  0.00000000000E+00  0.27810726744E+04  0.27810726744E+04  0.00000000000E+00 0. -1.
          2   -1    0    0  502    0 -0.00000000000E+00 -0.00000000000E+00 -0.25335670528E+04  0.25335670528E+04  0.00000000000E+00 0. -1.
         24    2    1    2    0    0  0.31607560787E+03 -0.30820942196E+03  0.86406231707E+02  0.45695316977E+03  0.80270323315E+02 0.  0.
         25    2    1    2    0    0 -0.35539578974E+03  0.33356485560E+03  0.88431692244E+03  0.10174540181E+04  0.12499831743E+03 0.  0.
         24    2    1    2    0    0 -0.13339557781E+03  0.11947532973E+03 -0.76954676831E+02  0.21034668827E+03  0.79088383369E+02 0.  0.
        -11    1    3    3    0    0  0.12428608405E+03 -0.16700604553E+03  0.16939366785E+02  0.20886596679E+03  0.00000000000E+00 0.  1.
         12    1    3    3    0    0  0.19178952382E+03 -0.14120337643E+03  0.69466864922E+02  0.24808720298E+03  0.00000000000E+00 0. -1.
        -13    1    5    5    0    0 -0.10860467890E+02  0.55645947623E+02 -0.31726381386E+02  0.64969104392E+02  0.00000000000E+00 0.  1.
         14    1    5    5    0    0 -0.12253510992E+03  0.63829382109E+02 -0.45228295445E+02  0.14537758387E+03  0.00000000000E+00 0. -1.
          5    1    4    4  501    0 -0.31495637680E+03  0.33679713078E+03  0.79126017986E+03  0.91582999996E+03  0.47000000000E+01 0. -1.
         -5    1    4    4    0  501 -0.40439412946E+02 -0.32322751859E+01  0.93056742579E+02  0.10162401813E+03  0.47000000000E+01 0. -1.
          1    1    1    2  502    0  0.82323885426E+02 -0.14040628973E+03 -0.21335994171E+04  0.21397985001E+04  0.00000000000E+00 0. -1.
          1    1    1    2  503    0  0.90391874259E+02 -0.44244736381E+01  0.14873365613E+04  0.14900873510E+04  0.00000000000E+00 0. -1.
<mgrwt>
<rscale>  0 0.12141107E+03</rscale>
<asrwt>0</asrwt>
<pdfrwt beam="1">  1        2 0.40898127E+00 0.90500093E+02</pdfrwt>
<pdfrwt beam="2">  1        2 0.37258339E+00 0.16287992E+03</pdfrwt>
<totfact> 0.28137966E+00</totfact>
</mgrwt>
</event>
<event>
13    1  0.1675423E-008  0.8286836E+02  0.7546771E-02  0.1335596E+00
          2   -1    0    0  502    0  0.00000000000E+00  0.00000000000E+00  0.27367583201E+04  0.27367583201E+04  0.00000000000E+00 0. -1.
          4   -1    0    0  503    0 -0.00000000000E+00 -0.00000000000E+00 -0.75778948775E+03  0.75778948775E+03  0.00000000000E+00 0. -1.
         24    2    1    2    0    0 -0.13467072382E+02 -0.15901625048E+02  0.19424940555E+04  0.19444104595E+04  0.83753540516E+02 0.  0.
         25    2    1    2    0    0  0.52529803890E+02 -0.37534119304E+02 -0.28291798896E+03  0.31596489504E+03  0.12499214382E+03 0.  0.
         24    2    1    2    0    0 -0.59683919412E+01  0.52200242580E+02 -0.49924996879E+02  0.10810839484E+03  0.80214915654E+02 0.  0.
        -13    1    5    5    0    0  0.21727420667E+02 -0.12810073955E+02 -0.12722712007E+02  0.28249711580E+02  0.00000000000E+00 0.  1.
         14    1    5    5    0    0 -0.27695812608E+02  0.65010316535E+02 -0.37202284873E+02  0.79858683258E+02  0.00000000000E+00 0. -1.
        -13    1    3    3    0    0 -0.53503459479E+01 -0.50345417936E+02  0.12206699432E+04  0.12217194431E+04  0.00000000000E+00 0.  1.
         14    1    3    3    0    0 -0.81167264346E+01  0.34443792888E+02  0.72182411228E+03  0.72269101640E+03  0.00000000000E+00 0. -1.
          5    1    4    4  501    0 -0.11209168508E+02 -0.50880267340E+02 -0.44217604150E+02  0.68496230408E+02  0.47000000000E+01 0. -1.
         -5    1    4    4    0  501  0.63738972398E+02  0.13346148036E+02 -0.23870038481E+03  0.24746866464E+03  0.47000000000E+01 0. -1.
          1    1    1    2  502    0  0.99162381890E+01  0.72247728935E+02  0.74132602916E+03  0.74490425400E+03  0.00000000000E+00 0. -1.
          3    1    1    2  503    0 -0.43010577755E+02 -0.71012227163E+02 -0.37200826650E+03  0.38115980448E+03  0.00000000000E+00 0. -1.
<mgrwt>
<rscale>  0 0.77737902E+02</rscale>
<asrwt>0</asrwt>
<pdfrwt beam="1">  1        2 0.40246446E+00 0.72925072E+02</pdfrwt>
<pdfrwt beam="2">  1        4 0.11143963E+00 0.82868364E+02</pdfrwt>
<totfact> 0.14094164E+00</totfact>
</mgrwt>
</event>
<event>
13    1  0.1675423E-008  0.5000564E+02  0.7546771E-02  0.1453185E+00
          2   -1    0    0  503    0  0.00000000000E+00  0.00000000000E+00  0.17828718125E+04  0.17828718125E+04  0.00000000000E+00 0. -1.
          2   -1    0    0  502    0 -0.00000000000E+00 -0.00000000000E+00 -0.16670377371E+04  0.16670377371E+04  0.00000000000E+00 0. -1.
         24    2    1    2    0    0 -0.44489303317E+02 -0.11884939197E+03  0.57877814847E+03  0.59789076865E+03  0.79904630685E+02 0.  0.
         25    2    1    2    0    0 -0.19024906360E+02 -0.11266120383E+02 -0.60844678573E+03  0.62154842398E+03  0.12500431896E+03 0.  0.
         24    2    1    2    0    0  0.28612368882E+02  0.51931024268E+02  0.54144216713E+02  0.11412484665E+03  0.81101081892E+02 0.  0.
        -11    1    5    5    0    0  0.43439959706E+02 -0.26957415900E+01  0.18932768403E+02  0.47463110322E+02  0.00000000000E+00 0.  1.
         12    1    5    5    0    0 -0.14827590825E+02  0.54626765858E+02  0.35211448310E+02  0.66661736325E+02  0.00000000000E+00 0. -1.
        -13    1    3    3    0    0 -0.53579581277E+02 -0.12688860164E+03  0.53733450251E+03  0.55470700045E+03  0.00000000000E+00 0.  1.
         14    1    3    3    0    0  0.90902779599E+01  0.80392096705E+01  0.41443645964E+02  0.43183768204E+02  0.00000000000E+00 0. -1.
          5    1    4    4  501    0 -0.10044556182E+02  0.56929630564E+02 -0.27762291481E+03  0.28361672865E+03  0.47000000000E+01 0. -1.
         -5    1    4    4    0  501 -0.89803501776E+01 -0.68195750947E+02 -0.33082387093E+03  0.33793169533E+03  0.47000000000E+01 0. -1.
          1    1    1    2  502    0 -0.28653856367E+01  0.49899746710E+02 -0.10113718434E+04  0.10126061429E+04  0.00000000000E+00 0. -1.
          1    1    1    2  503    0  0.37767226432E+02  0.28284741379E+02  0.11027303393E+04  0.11037393675E+04  0.00000000000E+00 0. -1.
<mgrwt>
<rscale>  0 0.48574662E+02</rscale>
<asrwt>0</asrwt>
<pdfrwt beam="1">  1        2 0.26218703E+00 0.47184637E+02</pdfrwt>
<pdfrwt beam="2">  1        2 0.24515261E+00 0.50005637E+02</pdfrwt>
<totfact> 0.27547242E+01</totfact>
</mgrwt>
</event>
<event>
13    1  0.1675423E-008  0.3129511E+03  0.7546771E-02  0.1297521E+00
         -1   -1    0    0    0  501 -0.00000000000E+00  0.00000000000E+00  0.51113504645E+03  0.51113504645E+03  0.00000000000E+00 0.  1.
          2   -1    0    0  503    0  0.00000000000E+00 -0.00000000000E+00 -0.17460002356E+04  0.17460002356E+04  0.00000000000E+00 0. -1.
         24    2    1    2    0    0 -0.77544826795E+02 -0.96456295591E+02 -0.12914496278E+03  0.19619049428E+03  0.80593247313E+02 0.  0.
         25    2    1    2    0    0 -0.19909156805E+03 -0.13267206101E+03  0.94983190175E+02  0.28615929196E+03  0.12500402280E+03 0.  0.
         24    2    1    2    0    0  0.19919394682E+02  0.77370037907E+01  0.28644045418E+02  0.91154801541E+02  0.83857456400E+02 0.  0.
        -11    1    3    3    0    0 -0.80600398333E+01 -0.74047495802E+02 -0.70270548377E+02  0.10240090745E+03  0.00000000000E+00 0.  1.
         12    1    3    3    0    0 -0.69484786961E+02 -0.22408799789E+02 -0.58874414403E+02  0.93789586833E+02  0.00000000000E+00 0. -1.
        -13    1    5    5    0    0 -0.27141017499E+02  0.22159036783E+02  0.22286432079E+02  0.41525206765E+02  0.00000000000E+00 0.  1.
         14    1    5    5    0    0  0.47060412181E+02 -0.14422032992E+02  0.63576133390E+01  0.49629594776E+02  0.00000000000E+00 0. -1.
          5    1    4    4  502    0 -0.10586360553E+03 -0.88326345564E+02  0.11654195804E+03  0.18059004480E+03  0.47000000000E+01 0.  1.
         -5    1    4    4    0  502 -0.93227962521E+02 -0.44345715449E+02 -0.21558767864E+02  0.10556924716E+03  0.47000000000E+01 0.  1.
          1    1    1    2  503    0  0.25395678099E+03  0.19434599688E+03 -0.14380435879E+04  0.14731713322E+04  0.00000000000E+00 0. -1.
         -2    1    1    2    0  501  0.27602191779E+01  0.27045355930E+02  0.20869612598E+03  0.21045936208E+03  0.00000000000E+00 0.  1.
<mgrwt>
<rscale>  0 0.92237955E+02</rscale>
<asrwt>0</asrwt>
<pdfrwt beam="2">  1        2 0.25676474E+00 0.31295113E+03</pdfrwt>
<pdfrwt beam="1">  1       -1 0.75166918E-01 0.27185844E+02</pdfrwt>
<totfact> 0.24995024E+01</totfact>
</mgrwt>
</event>
<event>
13    1  0.1675423E-008  0.1318008E+03  0.7546771E-02  0.1272855E+00
          2   -1    0    0  503    0  0.00000000000E+00  0.00000000000E+00  0.54575080686E+03  0.54575080686E+03  0.00000000000E+00 0. -1.
          2   -1    0    0  502    0 -0.00000000000E+00 -0.00000000000E+00 -0.11386445521E+04  0.11386445521E+04  0.00000000000E+00 0. -1.
         24    2    1    2    0    0 -0.67310679976E+01  0.12251782339E+02  0.97160050180E+02  0.12869099223E+03  0.83221888244E+02 0.  0.
         25    2    1    2    0    0 -0.23680682590E+03 -0.10975246983E+03 -0.12848149533E+03  0.31663219186E+03  0.12500149140E+03 0.  0.
         24    2    1    2    0    0 -0.37761110310E+02  0.19056471507E+01 -0.61317805928E+02  0.10751682813E+03  0.79815174397E+02 0.  0.
        -11    1    5    5    0    0 -0.42510160944E+02  0.17785067141E+02 -0.22147905541E+01  0.46133802075E+02  0.00000000000E+00 0.  1.
         12    1    5    5    0    0  0.47490506341E+01 -0.15879419991E+02 -0.59103015373E+02  0.61383026053E+02  0.00000000000E+00 0. -1.
        -11    1    3    3    0    0  0.16361283028E+02  0.32324446503E+02  0.90353219348E+02  0.97346112766E+02  0.00000000000E+00 0.  1.
         12    1    3    3    0    0 -0.23092351025E+02 -0.20072664164E+02  0.68068308320E+01  0.31344879463E+02  0.00000000000E+00 0. -1.
          5    1    4    4  501    0 -0.19852911531E+03 -0.13727720497E+03 -0.11477507511E+03  0.26730927499E+03  0.47000000000E+01 0. -1.
         -5    1    4    4    0  501 -0.38277710591E+02  0.27524735144E+02 -0.13706420219E+02  0.49322916865E+02  0.47000000000E+01 0. -1.
          1    1    1    2  502    0  0.99869578275E+02  0.20947930107E+02 -0.78178181028E+03  0.78841330996E+03  0.00000000000E+00 0. -1.
          1    1    1    2  503    0  0.18142942593E+03  0.74647110231E+02  0.28152731615E+03  0.34314203677E+03  0.00000000000E+00 0. -1.
<mgrwt>
<rscale>  0 0.10362368E+03</rscale>
<asrwt>0</asrwt>
<pdfrwt beam="1">  1        2 0.80257471E-01 0.13180084E+03</pdfrwt>
<pdfrwt beam="2">  1        2 0.16744773E+00 0.81470402E+02</pdfrwt>
<totfact> 0.23218230E+02</totfact>
</mgrwt>
</event>
<event>
13    1  0.1675423E-008  0.1064007E+03  0.7546771E-02  0.1347811E+00
          2   -1    0    0  503    0  0.00000000000E+00  0.00000000000E+00  0.11134677435E+04  0.11134677435E+04  0.00000000000E+00 0. -1.
          2   -1    0    0  502    0 -0.00000000000E+00 -0.00000000000E+00 -0.37063131749E+04  0.37063131749E+04  0.00000000000E+00 0. -1.
         24    2    1    2    0    0  0.12176992675E+02 -0.38001489357E+02 -0.45676932575E+02  0.10230741813E+03  0.82389521735E+02 0.  0.
         25    2    1    2    0    0 -0.12072912920E+03  0.80966613183E+02 -0.36487074155E+03  0.41217226391E+03  0.12499680800E+03 0.  0.
         24    2    1    2    0    0  0.26659708493E+02 -0.13516812846E+02 -0.23437778769E+04  0.23452718347E+04  0.78177988057E+02 0.  0.
        -13    1    3    3    0    0  0.37643242178E+02  0.22249062953E+01 -0.38970002202E+02  0.54227529552E+02  0.00000000000E+00 0.  1.
         14    1    3    3    0    0 -0.25466249503E+02 -0.40226395653E+02 -0.67069303737E+01  0.48079888581E+02  0.00000000000E+00 0. -1.
        -13    1    5    5    0    0  0.77062438084E+01  0.30596143205E+02 -0.13096368374E+04  0.13100168533E+04  0.00000000000E+00 0.  1.
         14    1    5    5    0    0  0.18953464684E+02 -0.44112956052E+02 -0.10341410395E+04  0.10352549813E+04  0.00000000000E+00 0. -1.
          5    1    4    4  501    0 -0.13755411657E+01  0.71626664028E+02 -0.14359434446E+03  0.16054188511E+03  0.47000000000E+01 0. -1.
         -5    1    4    4    0  501 -0.11935358804E+03  0.93399491547E+01 -0.22127639709E+03  0.25163037880E+03  0.47000000000E+01 0. -1.
          1    1    1    2  502    0 -0.23316920542E+02 -0.45479143090E+02 -0.89587516975E+03  0.89733179539E+03  0.00000000000E+00 0. -1.
          1    1    1    2  503    0  0.10520934858E+03  0.16030832111E+02  0.10573552893E+04  0.10626976063E+04  0.00000000000E+00 0. -1.
<mgrwt>
<rscale>  0 0.73742311E+02</rscale>
<asrwt>0</asrwt>
<pdfrwt beam="1">  1        2 0.16374525E+00 0.10640065E+03</pdfrwt>
<pdfrwt beam="2">  1        2 0.54504606E+00 0.51108035E+02</pdfrwt>
<totfact> 0.51373407E+00</totfact>
</mgrwt>
</event>
<event>
13    1  0.1675423E-008  0.1327540E+03  0.7546771E-02  0.1362008E+00
          2   -1    0    0  503    0  0.00000000000E+00  0.00000000000E+00  0.10847241013E+04  0.10847241013E+04  0.00000000000E+00 0. -1.
          2   -1    0    0  502    0 -0.00000000000E+00 -0.00000000000E+00 -0.18851506022E+04  0.18851506022E+04  0.00000000000E+00 0. -1.
         24    2    1    2    0    0  0.70462547629E+02  0.54716020349E+02  0.81544469271E+02  0.14666694764E+03  0.83083569728E+02 0.  0.
         25    2    1    2    0    0 -0.15277536549E+03 -0.44353606650E+02 -0.20834074952E+03  0.29041256444E+03  0.12500413974E+03 0.  0.
         24    2    1    2    0    0 -0.74117629455E+02  0.38366746097E+01 -0.60032071934E+03  0.61006885645E+03  0.79315197005E+02 0.  0.
        -11    1    3    3    0    0  0.30939932203E+02  0.26689157719E+02 -0.10904744836E+02  0.42290708251E+02  0.00000000000E+00 0.  1.
         12    1    3    3    0    0  0.39522615426E+02  0.28026862631E+02  0.92449214106E+02  0.10437623938E+03  0.00000000000E+00 0. -1.
        -13    1    5    5    0    0 -0.10806640810E+02 -0.27364940442E+02 -0.30565232746E+03  0.30706508875E+03  0.00000000000E+00 0.  1.
         14    1    5    5    0    0 -0.63310988645E+02  0.31201615052E+02 -0.29466839188E+03  0.30300376770E+03  0.00000000000E+00 0. -1.
          5    1    4    4  501    0 -0.68961928401E+02 -0.14470008619E+02 -0.18540978587E+03  0.19840364769E+03  0.47000000000E+01 0. -1.
         -5    1    4    4    0  501 -0.83813437089E+02 -0.29883598031E+02 -0.22930963643E+02  0.92008916750E+02  0.47000000000E+01 0. -1.
          1    1    1    2  502    0  0.24708597916E+02 -0.26623055865E+02 -0.99295158935E+03  0.99361570072E+03  0.00000000000E+00 0. -1.
          1    1    1    2  503    0  0.13172184940E+03  0.12423967555E+02  0.91964208801E+03  0.92911063422E+03  0.00000000000E+00 0. -1.
<mgrwt>
<rscale>  0 0.69440022E+02</rscale>
<asrwt>0</asrwt>
<pdfrwt beam="1">  1        2 0.15951825E+00 0.13275400E+03</pdfrwt>
<pdfrwt beam="2">  1        2 0.27722803E+00 0.36322196E+02</pdfrwt>
<totfact> 0.46657244E+01</totfact>
</mgrwt>
</event>
<event>
13    1  0.1675423E-008  0.1064185E+03  0.7546771E-02  0.1314579E+00
         -3   -1    0    0    0  501 -0.00000000000E+00  0.00000000000E+00  0.24775147940E+03  0.24775147940E+03  0.00000000000E+00 0.  1.
          2   -1    0    0  503    0  0.00000000000E+00 -0.00000000000E+00 -0.13714141477E+04  0.13714141477E+04  0.00000000000E+00 0. -1.
         24    2    1    2    0    0 -0.39429513591E+01 -0.77034112377E+02 -0.38756736843E+03  0.40254347452E+03  0.76700602773E+02 0.  0.
         25    2    1    2    0    0  0.38683212778E+02  0.10358591027E+03 -0.44802288171E+03  0.47809556125E+03  0.12499772556E+03 0.  0.
         24    2    1    2    0    0  0.69540349390E+02  0.80993201608E+02 -0.10998597795E+03  0.17146144803E+03  0.76852806822E+02 0.  0.
        -13    1    3    3    0    0 -0.31003284629E+02 -0.56338640307E+02 -0.15998051891E+03  0.17242103259E+03  0.00000000000E+00 0.  1.
         14    1    3    3    0    0  0.27060333270E+02 -0.20695472070E+02 -0.22758684952E+03  0.23012244192E+03  0.00000000000E+00 0. -1.
        -13    1    5    5    0    0  0.29955387208E+02 -0.41154464683E+01 -0.54767693066E+02  0.62560069742E+02  0.00000000000E+00 0.  1.
         14    1    5    5    0    0  0.39584962182E+02  0.85108648076E+02 -0.55218284884E+02  0.10890137829E+03  0.00000000000E+00 0. -1.
          5    1    4    4  502    0 -0.17753555871E+02  0.10694005923E+03 -0.32468765967E+03  0.34233832878E+03  0.47000000000E+01 0.  1.
         -5    1    4    4    0  502  0.56436768649E+02 -0.33541489615E+01 -0.12333522204E+03  0.13575723247E+03  0.47000000000E+01 0.  1.
          1    1    1    2  503    0 -0.59027150287E+01 -0.68160935586E+02 -0.35462497707E+03  0.36116426948E+03  0.00000000000E+00 0. -1.
         -4    1    1    2    0  501 -0.98377895780E+02 -0.39384063916E+02  0.17653853683E+03  0.20590087386E+03  0.00000000000E+00 0.  1.
<mgrwt>
<rscale>  0 0.85327198E+02</rscale>
<asrwt>0</asrwt>
<pdfrwt beam="2">  1        2 0.20167855E+00 0.68416045E+02</pdfrwt>
<pdfrwt beam="1">  1       -3 0.36434041E-01 0.10641847E+03</pdfrwt>
<totfact> 0.84554858E+01</totfact>
</mgrwt>
</event>
<event>
13    1  0.1675423E-008  0.8719138E+02  0.7546771E-02  0.1393135E+00
          2   -1    0    0  502    0  0.00000000000E+00  0.00000000000E+00  0.34644662128E+04  0.34644662128E+04  0.00000000000E+00 0. -1.
          2   -1    0    0  503    0 -0.00000000000E+00 -0.00000000000E+00 -0.81959172704E+03  0.81959172704E+03  0.00000000000E+00 0. -1.
         24    2    1    2    0    0 -0.27722400082E+02 -0.11308773521E+03  0.51792809559E+03  0.53679055853E+03  0.79606684382E+02 0.  0.
         25    2    1    2    0    0 -0.27882124315E+02  0.15864911793E+03 -0.33178119608E+03  0.38942726993E+03  0.12501152353E+03 0.  0.
         24    2    1    2    0    0  0.58222863090E+02  0.80162025550E+02  0.33933622743E+03  0.36209920013E+03  0.78427695118E+02 0.  0.
        -11    1    5    5    0    0  0.21444001702E+02 -0.27109591939E+01  0.15682704011E+03  0.15830955441E+03  0.00000000000E+00 0.  1.
         12    1    5    5    0    0  0.36778861388E+02  0.82872984744E+02  0.18250918732E+03  0.20378964572E+03  0.00000000000E+00 0. -1.
        -13    1    3    3    0    0  0.26110696822E+02 -0.21780965606E+02  0.15588868355E+03  0.15955394263E+03  0.00000000000E+00 0.  1.
         14    1    3    3    0    0 -0.53833096905E+02 -0.91306769602E+02  0.36203941205E+03  0.37723661589E+03  0.00000000000E+00 0. -1.
          5    1    4    4  501    0  0.28415587698E+02  0.11165810220E+03 -0.26938265099E+03  0.29302573277E+03  0.47000000000E+01 0. -1.
         -5    1    4    4    0  501 -0.56297712013E+02  0.46991015731E+02 -0.62398545093E+02  0.96401537161E+02  0.47000000000E+01 0. -1.
          1    1    1    2  502    0  0.13609249318E+02 -0.86050660670E+02  0.25557738955E+04  0.25572583234E+04  0.00000000000E+00 0. -1.
          1    1    1    2  503    0 -0.16227588012E+02 -0.39672747599E+02 -0.43638253667E+03  0.43848258783E+03  0.00000000000E+00 0. -1.
<mgrwt>
<rscale>  0 0.61133538E+02</rscale>
<asrwt>0</asrwt>
<pdfrwt beam="1">  1        2 0.50948032E+00 0.87191384E+02</pdfrwt>
<pdfrwt beam="2">  1        2 0.12052820E+00 0.42863289E+02</pdfrwt>
<totfact> 0.99233773E+00</totfact>
</mgrwt>
</event>
<event>
13    1  0.1675423E-008  0.1297510E+03  0.7546771E-02  0.1261849E+00
          2   -1    0    0  503    0  0.00000000000E+00  0.00000000000E+00  0.48726776631E+04  0.48726776631E+04  0.00000000000E+00 0. -1.
          2   -1    0    0  502    0 -0.00000000000E+00 -0.00000000000E+00 -0.84587105957E+03  0.84587105957E+03  0.00000000000E+00 0. -1.
         24    2    1    2    0    0  0.10554321981E+03 -0.33727854121E+02  0.13370895049E+04  0.13441576603E+04  0.81697810799E+02 0.  0.
         25    2    1    2    0    0  0.17091362888E+03 -0.90181633799E+02  0.70523580145E+03  0.74184069606E+03  0.12500354827E+03 0.  0.
         24    2    1    2    0    0  0.15181016176E+02  0.32557580069E+01 -0.22151626777E+03  0.23588669152E+03  0.79573935052E+02 0.  0.
        -11    1    3    3    0    0 -0.79754516322E+01  0.70267969594E+01  0.37326151411E+02  0.38810118312E+02  0.00000000000E+00 0.  1.
         12    1    3    3    0    0  0.11351867144E+03 -0.40754651080E+02  0.12997633535E+04  0.13053475420E+04  0.00000000000E+00 0. -1.
        -11    1    5    5    0    0  0.37574277621E+02  0.59246069708E+01 -0.49646086046E+02  0.62543274347E+02  0.00000000000E+00 0.  1.
         12    1    5    5    0    0 -0.22393261444E+02 -0.26688489639E+01 -0.17187018172E+03  0.17334341718E+03  0.00000000000E+00 0. -1.
          5    1    4    4  501    0  0.13161230832E+03 -0.92983742230E+02  0.36145182427E+03  0.39577428832E+03  0.47000000000E+01 0. -1.
         -5    1    4    4    0  501  0.39301320558E+02  0.28021084312E+01  0.34378397717E+03  0.34606640775E+03  0.47000000000E+01 0. -1.
          1    1    1    2  502    0 -0.99745619386E+02  0.57587342351E+02 -0.58607966125E+03  0.59728959469E+03  0.00000000000E+00 0. -1.
          1    1    1    2  503    0 -0.19189224548E+03  0.63066387562E+02  0.27920772262E+04  0.27993740801E+04  0.00000000000E+00 0. -1.
<mgrwt>
<rscale>  0 0.10931230E+03</rscale>
<asrwt>0</asrwt>
<pdfrwt beam="1">  1        2 0.71657023E+00 0.12975096E+03</pdfrwt>
<pdfrwt beam="2">  1        2 0.12439281E+00 0.92093190E+02</pdfrwt>
<totfact> 0.81651923E-01</totfact>
</mgrwt>
</event>
<event>
13    1  0.1675423E-008  0.1722523E+03  0.7546771E-02  0.1332008E+00
          2   -1    0    0  503    0  0.00000000000E+00  0.00000000000E+00  0.58015181596E+03  0.58015181596E+03  0.00000000000E+00 0. -1.
          2   -1    0    0  502    0 -0.00000000000E+00 -0.00000000000E+00 -0.19084387756E+04  0.19084387756E+04  0.00000000000E+00 0. -1.
         24    2    1    2    0    0 -0.18496575642E+02  0.16087867392E+03 -0.23380604803E+02  0.18644078692E+03  0.89383685949E+02 0.  0.
         25    2    1    2    0    0 -0.24342364370E+03 -0.41481075846E+03 -0.34692438588E+03  0.60605063063E+03  0.12497120357E+03 0.  0.
         24    2    1    2    0    0  0.39224757317E+03  0.16325296944E+03 -0.53073082394E+02  0.43669495077E+03  0.85883859170E+02 0.  0.
        -11    1    5    5    0    0  0.71766354132E+02  0.55340251049E+02  0.14696733264E+02  0.91809296590E+02  0.00000000000E+00 0.  1.
         12    1    5    5    0    0  0.32048121903E+03  0.10791271839E+03 -0.67769815659E+02  0.34488565418E+03  0.00000000000E+00 0. -1.
        -13    1    3    3    0    0  0.31570993740E+02  0.83132246563E+02 -0.29695254901E+02  0.93752366519E+02  0.00000000000E+00 0.  1.
         14    1    3    3    0    0 -0.50067569382E+02  0.77746427360E+02  0.63146500985E+01  0.92688420403E+02  0.00000000000E+00 0. -1.
          5    1    4    4  501    0 -0.22148121236E+03 -0.35736005763E+03 -0.24418280277E+03  0.48621751242E+03  0.47000000000E+01 0.  1.
         -5    1    4    4    0  501 -0.21942431338E+02 -0.57450700826E+02 -0.10274158311E+03  0.11983311820E+03  0.47000000000E+01 0.  1.
          1    1    1    2  502    0 -0.11889845109E+03  0.12502946536E+03 -0.10733437707E+04  0.10871228353E+04  0.00000000000E+00 0. -1.
          1    1    1    2  503    0 -0.11428902741E+02 -0.34350350268E+02  0.16843488423E+03  0.17228138788E+03  0.00000000000E+00 0. -1.
<mgrwt>
<rscale>  0 0.78967300E+02</rscale>
<asrwt>0</asrwt>
<pdfrwt beam="1">  1        2 0.85316443E-01 0.36201746E+02</pdfrwt>
<pdfrwt beam="2">  1        2 0.28065276E+00 0.17225232E+03</pdfrwt>
<totfact> 0.85923342E+01</totfact>
</mgrwt>
</event>
<event>
13    1  0.1675423E-008  0.5610842E+02  0.7546771E-02  0.1465262E+00
          2   -1    0    0  502    0  0.00000000000E+00  0.00000000000E+00  0.14790969869E+04  0.14790969869E+04  0.00000000000E+00 0. -1.
          2   -1    0    0  503    0 -0.00000000000E+00 -0.00000000000E+00 -0.98891652344E+03  0.98891652344E+03  0.00000000000E+00 0. -1.
         24    2    1    2    0    0 -0.36316321830E+01 -0.43498249992E+02  0.40093043549E+03  0.41150872587E+03  0.81785884208E+02 0.  0.
         25    2    1    2    0    0 -0.39673694116E+02 -0.38902906396E+02 -0.20274134405E+03  0.24455520737E+03  0.12496302947E+03 0.  0.
         24    2    1    2    0    0  0.26281360626E+02  0.14179501762E+03 -0.34761362900E+03  0.38490364977E+03  0.80740619246E+02 0.  0.
        -11    1    5    5    0    0  0.38270562065E+02  0.20658674894E+02 -0.87158778864E+02  0.97406722059E+02  0.00000000000E+00 0.  1.
         12    1    5    5    0    0 -0.11989201439E+02  0.12113634273E+03 -0.26045485014E+03  0.28749692771E+03  0.00000000000E+00 0. -1.
        -13    1    3    3    0    0  0.28111863025E+02  0.47584036979E+01  0.70146436511E+02  0.75719494212E+02  0.00000000000E+00 0.  1.
         14    1    3    3    0    0 -0.31743495208E+02 -0.48256653690E+02  0.33078399898E+03  0.33578923165E+03  0.00000000000E+00 0. -1.
          5    1    4    4  501    0  0.29276707107E+02  0.15216998058E+02 -0.11773569866E+03  0.12236203393E+03  0.47000000000E+01 0. -1.
         -5    1    4    4    0  501 -0.68950401222E+02 -0.54119904454E+02 -0.85005645389E+02  0.12219317344E+03  0.47000000000E+01 0. -1.
          1    1    1    2  502    0 -0.28243766447E+02 -0.26188201669E+02  0.10309627332E+04  0.10316819711E+04  0.00000000000E+00 0. -1.
          1    1    1    2  503    0  0.45267732119E+02 -0.33205659562E+02 -0.39135773215E+03  0.39536395626E+03  0.00000000000E+00 0. -1.
<mgrwt>
<rscale>  0 0.46487721E+02</rscale>
<asrwt>0</asrwt>
<pdfrwt beam="1">  1        2 0.21751426E+00 0.38516649E+02</pdfrwt>
<pdfrwt beam="2">  1        2 0.14542890E+00 0.56108416E+02</pdfrwt>
<totfact> 0.84459864E+01</totfact>
</mgrwt>
</event>
<event>
13    1  0.1675423E-008  0.1140952E+03  0.7546771E-02  0.1354032E+00
          4   -1    0    0  503    0 -0.00000000000E+00  0.00000000000E+00  0.66746124078E+03  0.66746124078E+03  0.00000000000E+00 0. -1.
          2   -1    0    0  502    0  0.00000000000E+00 -0.00000000000E+00 -0.34117046272E+04  0.34117046272E+04  0.00000000000E+00 0. -1.
         24    2    1    2    0    0  0.21550996632E+03 -0.22313257950E+03 -0.84943731466E+03  0.90947014017E+03  0.96744460865E+02 0.  0.
         25    2    1    2    0    0 -0.83170315263E+02  0.19071391173E+03  0.20800321773E+03  0.31965378075E+03  0.12499641391E+03 0.  0.
         24    2    1    2    0    0  0.24065874173E+02  0.27265943551E+02 -0.31233569620E+03  0.32542744834E+03  0.83826243089E+02 0.  0.
        -11    1    3    3    0    0  0.16098524661E+03 -0.10704448388E+03 -0.57287203352E+03  0.60461321350E+03  0.00000000000E+00 0.  1.
         12    1    3    3    0    0  0.54524719704E+02 -0.11608809562E+03 -0.27656528114E+03  0.30485692667E+03  0.00000000000E+00 0. -1.
        -13    1    5    5    0    0  0.47314485466E+02  0.90357489388E+01 -0.26703138029E+03  0.27134123047E+03  0.00000000000E+00 0.  1.
         14    1    5    5    0    0 -0.23248611293E+02  0.18230194613E+02 -0.45304315916E+02  0.54086217868E+02  0.00000000000E+00 0. -1.
          5    1    4    4  501    0 -0.62217142085E+01  0.15547202160E+03  0.15503237885E+03  0.21969840172E+03  0.47000000000E+01 0. -1.
         -5    1    4    4    0  501 -0.76948601055E+02  0.35241890134E+02  0.52970838881E+02  0.99955379026E+02  0.47000000000E+01 0. -1.
          1    1    1    2  502    0 -0.14314644717E+03  0.48365041638E+02 -0.21534953449E+04  0.21587895412E+04  0.00000000000E+00 0. -1.
          3    1    1    2  503    0 -0.13259078059E+02 -0.43212317427E+02  0.36302175154E+03  0.36582495762E+03  0.00000000000E+00 0. -1.
<mgrwt>
<rscale>  0 0.71813578E+02</rscale>
<asrwt>0</asrwt>
<pdfrwt beam="2">  1        2 0.50172126E+00 0.11409524E+03</pdfrwt>
<pdfrwt beam="1">  1        4 0.98156067E-01 0.45200747E+02</pdfrwt>
<totfact> 0.73232709E-01</totfact>
</mgrwt>
</event>
<event>
13    1  0.1675423E-008  0.2046596E+03  0.7546771E-02  0.1201508E+00
          2   -1    0    0  502    0  0.00000000000E+00  0.00000000000E+00  0.24123269320E+04  0.24123269320E+04  0.00000000000E+00 0. -1.
          2   -1    0    0  503    0 -0.00000000000E+00 -0.00000000000E+00 -0.22854667810E+04  0.22854667810E+04  0.00000000000E+00 0. -1.
         24    2    1    2    0    0 -0.11633661262E+02 -0.12466943974E+03  0.13378382816E+03  0.20014671759E+03  0.80515741358E+02 0.  0.
         25    2    1    2    0    0 -0.54559940829E+02  0.29263204953E+03 -0.14659660897E+03  0.35457848628E+03  0.12500013446E+03 0.  0.
         24    2    1    2    0    0  0.57438555996E+02 -0.20499255423E+02 -0.43493457548E+03  0.44611862081E+03  0.78321974584E+02 0.  0.
        -13    1    5    5    0    0  0.22616833104E+02 -0.68653432711E+01 -0.37315364270E+03  0.37390145111E+03  0.00000000000E+00 0.  1.
         14    1    5    5    0    0  0.34821722893E+02 -0.13633912152E+02 -0.61780932774E+02  0.72217169705E+02  0.00000000000E+00 0. -1.
        -13    1    3    3    0    0  0.31877616116E+02 -0.46614754661E+02  0.32824873997E+02  0.65319140489E+02  0.00000000000E+00 0.  1.
         14    1    3    3    0    0 -0.43511277378E+02 -0.78054685076E+02  0.10095895416E+03  0.13482757710E+03  0.00000000000E+00 0. -1.
          5    1    4    4  501    0 -0.80199131068E+02  0.28156233550E+03 -0.14355164031E+03  0.32609571115E+03  0.47000000000E+01 0. -1.
         -5    1    4    4    0  501  0.25639190239E+02  0.11069714028E+02 -0.30449686610E+01  0.28482775127E+02  0.47000000000E+01 0. -1.
          1    1    1    2  502    0  0.16679259839E+03 -0.11822460847E+03  0.21267272458E+04  0.21365312090E+04  0.00000000000E+00 0. -1.
          1    1    1    2  503    0 -0.15803755230E+03 -0.29238745905E+02 -0.15521197385E+04  0.15604186793E+04  0.00000000000E+00 0. -1.
<mgrwt>
<rscale>  0 0.14916043E+03</rscale>
<asrwt>0</asrwt>
<pdfrwt beam="1">  1        2 0.35475396E+00 0.20465962E+03</pdfrwt>
<pdfrwt beam="2">  1        2 0.33609805E+00 0.10871140E+03</pdfrwt>
<totfact> 0.54496852E+00</totfact>
</mgrwt>
</event>
<event>
13    1  0.1675423E-008  0.7056862E+02  0.7546771E-02  0.1378234E+00
          2   -1    0    0  503    0  0.00000000000E+00  0.00000000000E+00  0.22748642603E+04  0.22748642603E+04  0.00000000000E+00 0. -1.
          2   -1    0    0  502    0 -0.00000000000E+00 -0.00000000000E+00 -0.17988782750E+04  0.17988782750E+04  0.00000000000E+00 0. -1.
         24    2    1    2    0    0 -0.50358199277E+00  0.71125999305E+02  0.33572815649E+03  0.35360265224E+03  0.85219007488E+02 0.  0.
         25    2    1    2    0    0  0.29933316510E+03  0.85488948674E+01 -0.10207942689E+04  0.10711298934E+04  0.12499952725E+03 0.  0.
         24    2    1    2    0    0 -0.18064422929E+03 -0.63330459035E+02  0.29712568831E+03  0.36243859077E+03  0.80218282254E+02 0.  0.
        -11    1    5    5    0    0 -0.95181341002E+02  0.61143292866E+01  0.16348658970E+03  0.18927423943E+03  0.00000000000E+00 0.  1.
         12    1    5    5    0    0 -0.85462888287E+02 -0.69444788321E+02  0.13363909860E+03  0.17316435134E+03  0.00000000000E+00 0. -1.
        -13    1    3    3    0    0  0.31102294646E+02 -0.85234250546E-01  0.68131050275E+02  0.74894592654E+02  0.00000000000E+00 0.  1.
         14    1    3    3    0    0 -0.31605876639E+02  0.71211233555E+02  0.26759710622E+03  0.27870805959E+03  0.00000000000E+00 0. -1.
          5    1    4    4  501    0  0.30449130229E+03  0.18566686882E+02 -0.91257036828E+03  0.96221953944E+03  0.47000000000E+01 0.  1.
         -5    1    4    4    0  501 -0.51581371854E+01 -0.10017792015E+02 -0.10822390060E+03  0.10891035395E+03  0.47000000000E+01 0.  1.
          1    1    1    2  502    0 -0.56822870481E+02  0.18446980283E+02 -0.70927638592E+03  0.71178797497E+03  0.00000000000E+00 0. -1.
          1    1    1    2  503    0 -0.61362483338E+02 -0.34791415420E+02  0.15732027953E+04  0.15747834239E+04  0.00000000000E+00 0. -1.
<mgrwt>
<rscale>  0 0.64930150E+02</rscale>
<asrwt>0</asrwt>
<pdfrwt beam="1">  1        2 0.33453886E+00 0.70568624E+02</pdfrwt>
<pdfrwt beam="2">  1        2 0.26454092E+00 0.59742194E+02</pdfrwt>
<totfact> 0.13182815E+01</totfact>
</mgrwt>
</event>
<event>
13    1  0.1675423E-008  0.1229154E+03  0.7546771E-02  0.1415513E+00
          2   -1    0    0  503    0  0.00000000000E+00  0.00000000000E+00  0.65729255656E+03  0.65729255656E+03  0.00000000000E+00 0. -1.
          2   -1    0    0  502    0 -0.00000000000E+00 -0.00000000000E+00 -0.15481123587E+04  0.15481123587E+04  0.00000000000E+00 0. -1.
         24    2    1    2    0    0  0.61623126498E+02  0.54132934891E+02  0.26050556950E+03  0.28540089443E+03  0.82841622660E+02 0.  0.
         25    2    1    2    0    0  0.16357012064E+03  0.58375083202E+02 -0.72859227346E+03  0.75936549422E+03  0.12500567250E+03 0.  0.
         24    2    1    2    0    0 -0.65853666615E+02  0.17948927076E+01 -0.54418388554E+02  0.11506481987E+03  0.77062472796E+02 0.  0.
        -11    1    3    3    0    0  0.65820731602E+02  0.58378373203E+02  0.14404866927E+03  0.16879106104E+03  0.00000000000E+00 0.  1.
         12    1    3    3    0    0 -0.41976051039E+01 -0.42454383119E+01  0.11645690022E+03  0.11660983340E+03  0.00000000000E+00 0. -1.
        -13    1    5    5    0    0 -0.72141161324E+02  0.15987299374E+02 -0.18851698565E+02  0.76258294219E+02  0.00000000000E+00 0.  1.
         14    1    5    5    0    0  0.62874947087E+01 -0.14192406666E+02 -0.35566689989E+02  0.38806525656E+02  0.00000000000E+00 0. -1.
          5    1    4    4  501    0  0.13516988178E+03  0.96101452448E+02 -0.58930152026E+03  0.61221300042E+03  0.47000000000E+01 0. -1.
         -5    1    4    4    0  501  0.28400238862E+02 -0.37726369246E+02 -0.13929075320E+03  0.14715249380E+03  0.47000000000E+01 0. -1.
          1    1    1    2  502    0  0.14970709918E+02 -0.20638856481E+02 -0.67777556696E+03  0.67825496955E+03  0.00000000000E+00 0. -1.
          1    1    1    2  503    0 -0.17431029044E+03 -0.93664054320E+02  0.30946085736E+03  0.36731873715E+03  0.00000000000E+00 0. -1.
<mgrwt>
<rscale>  0 0.55981628E+02</rscale>
<asrwt>0</asrwt>
<pdfrwt beam="1">  1        2 0.96660671E-01 0.12291535E+03</pdfrwt>
<pdfrwt beam="2">  1        2 0.22766358E+00 0.25496756E+02</pdfrwt>
<totfact> 0.12937495E+02</totfact>
</mgrwt>
</event>
<event>
13    1  0.1675423E-008  0.1384399E+03  0.7546771E-02  0.1299211E+00
          2   -1    0    0  502    0  0.00000000000E+00  0.00000000000E+00  0.89491229143E+02  0.89491229143E+02  0.00000000000E+00 0. -1.
          2   -1    0    0  503    0 -0.00000000000E+00 -0.00000000000E+00 -0.48755038576E+04  0.48755038576E+04  0.00000000000E+00 0. -1.
         24    2    1    2    0    0  0.16810458947E+03 -0.17044237563E+03 -0.43095859803E+03  0.49927640317E+03  0.79005424743E+02 0.  0.
         25    2    1    2    0    0 -0.51122144952E+02  0.21060616664E+03 -0.92920809977E+03  0.96230008263E+03  0.12500130088E+03 0.  0.
         24    2    1    2    0    0 -0.83683531736E+02  0.51007522790E+02 -0.38822695455E+03  0.40847388783E+03  0.80783958393E+02 0.  0.
        -13    1    3    3    0    0  0.41976762192E+02 -0.68234405692E+01 -0.10594373490E+03  0.11416077641E+03  0.00000000000E+00 0.  1.
         14    1    3    3    0    0  0.12612782728E+03 -0.16361893506E+03 -0.32501486313E+03  0.38511562676E+03  0.00000000000E+00 0. -1.
        -13    1    5    5    0    0  0.10741763296E+02 -0.27249622147E+01 -0.99118206781E+01  0.14867921406E+02  0.00000000000E+00 0.  1.
         14    1    5    5    0    0 -0.94425295033E+02  0.53732485005E+02 -0.37831513387E+03  0.39360596642E+03  0.00000000000E+00 0. -1.
          5    1    4    4  501    0  0.36160994612E+02  0.74841960619E+02 -0.41753287917E+03  0.42575196040E+03  0.47000000000E+01 0. -1.
         -5    1    4    4    0  501 -0.87283139564E+02  0.13576420602E+03 -0.51167522060E+03  0.53654812223E+03  0.47000000000E+01 0. -1.
          1    1    1    2  502    0 -0.90938428251E+02 -0.10956271499E+03 -0.15046089179E+03  0.20715276056E+03  0.00000000000E+00 0. -1.
          1    1    1    2  503    0  0.57639515466E+02  0.18391401186E+02 -0.28871580843E+04  0.28877919526E+04  0.00000000000E+00 0. -1.
<mgrwt>
<rscale>  0 0.91520303E+02</rscale>
<asrwt>0</asrwt>
<pdfrwt beam="1">  1        2 0.13160474E-01 0.13843990E+03</pdfrwt>
<pdfrwt beam="2">  1        2 0.71698594E+00 0.60502540E+02</pdfrwt>
<totfact> 0.11929805E+01</totfact>
</mgrwt>
</event>
<event>
13    1  0.1675423E-008  0.8381863E+02  0.7546771E-02  0.1422046E+00
          2   -1    0    0  503    0  0.00000000000E+00  0.00000000000E+00  0.77928707543E+03  0.77928707543E+03  0.00000000000E+00 0. -1.
          2   -1    0    0  502    0 -0.00000000000E+00 -0.00000000000E+00 -0.44426785360E+04  0.44426785360E+04  0.00000000000E+00 0. -1.
         24    2    1    2    0    0  0.58694338022E+02 -0.32138150701E+03 -0.30757241792E+01  0.33693508182E+03  0.82369235262E+02 0.  0.
         25    2    1    2    0    0 -0.68629422874E+02  0.31457924089E+03 -0.10270340154E+04  0.10835561790E+04  0.12500011114E+03 0.  0.
         24    2    1    2    0    0 -0.46065716253E+02  0.33183236943E+02 -0.73335348628E+03  0.74029245887E+03  0.83680412318E+02 0.  0.
        -13    1    3    3    0    0 -0.22434275403E+01 -0.19868093487E+03 -0.15946026651E+02  0.19933244245E+03  0.00000000000E+00 0.  1.
         14    1    3    3    0    0  0.60937765562E+02 -0.12270057214E+03  0.12870302471E+02  0.13760263937E+03  0.00000000000E+00 0. -1.
        -13    1    5    5    0    0 -0.39310526901E+02 -0.20331997746E+02 -0.42055039174E+03  0.42287272275E+03  0.00000000000E+00 0.  1.
         14    1    5    5    0    0 -0.67551893518E+01  0.53515234689E+02 -0.31280309454E+03  0.31741973612E+03  0.00000000000E+00 0. -1.
          5    1    4    4  501    0  0.12264778122E+02  0.27558901310E+02 -0.29729171375E+02  0.42612573900E+02  0.47000000000E+01 0.  1.
         -5    1    4    4    0  501 -0.80894200996E+02  0.28702033958E+03 -0.99730484405E+03  0.10409436051E+04  0.47000000000E+01 0.  1.
          1    1    1    2  502    0 -0.54093823604E+00  0.35550216700E+02 -0.24773988882E+04  0.24776540037E+04  0.00000000000E+00 0. -1.
          1    1    1    2  503    0  0.56541739342E+02 -0.61931187522E+02  0.57747065360E+03  0.58352788797E+03  0.00000000000E+00 0. -1.
<mgrwt>
<rscale>  0 0.54590433E+02</rscale>
<asrwt>0</asrwt>
<pdfrwt beam="1">  1        2 0.11460104E+00 0.83818630E+02</pdfrwt>
<pdfrwt beam="2">  1        2 0.65333508E+00 0.35554332E+02</pdfrwt>
<totfact> 0.28922092E+00</totfact>
</mgrwt>
</event>
<event>
13    1  0.1675423E-008  0.1381746E+03  0.7546771E-02  0.1230976E+00
          4   -1    0    0  503    0 -0.00000000000E+00  0.00000000000E+00  0.11149580180E+04  0.11149580180E+04  0.00000000000E+00 0. -1.
          2   -1    0    0  502    0  0.00000000000E+00 -0.00000000000E+00 -0.99910667032E+03  0.99910667032E+03  0.00000000000E+00 0. -1.
         24    2    1    2    0    0  0.15577660452E+03 -0.17656557808E+03 -0.62883047101E+03  0.67597740820E+03  0.77948324189E+02 0.  0.
         25    2    1    2    0    0 -0.21553301439E+03 -0.15422988356E+03  0.45398404190E+03  0.54034006336E+03  0.12499814596E+03 0.  0.
         24    2    1    2    0    0  0.35246282370E+02  0.43273053916E+02  0.14694316656E+02  0.92151402949E+02  0.71840799741E+02 0.  0.
        -11    1    3    3    0    0  0.33110349122E+02 -0.32335066190E+01 -0.12215491591E+03  0.12660400573E+03  0.00000000000E+00 0.  1.
         12    1    3    3    0    0  0.12266625540E+03 -0.17333207146E+03 -0.50667555509E+03  0.54937340247E+03  0.00000000000E+00 0. -1.
        -11    1    5    5    0    0  0.26992633737E+02  0.21698810232E+02 -0.27383086895E+02  0.44150584248E+02  0.00000000000E+00 0.  1.
         12    1    5    5    0    0  0.82536486330E+01  0.21574243684E+02  0.42077403552E+02  0.48000818701E+02  0.00000000000E+00 0. -1.
          5    1    4    4  501    0 -0.18814904056E+03 -0.16159801954E+03  0.44626541983E+03  0.51057702290E+03  0.47000000000E+01 0. -1.
         -5    1    4    4    0  501 -0.27383973827E+02  0.73681359781E+01  0.77186220743E+01  0.29763040454E+02  0.47000000000E+01 0. -1.
          1    1    1    2  502    0 -0.27063463745E+02  0.11433392462E+03 -0.23546114534E+03  0.26314754104E+03  0.00000000000E+00 0. -1.
          3    1    1    2  503    0  0.51573591239E+02  0.17318848310E+03  0.51146460548E+03  0.54244827279E+03  0.00000000000E+00 0. -1.
<mgrwt>
<rscale>  0 0.12765590E+03</rscale>
<asrwt>0</asrwt>
<pdfrwt beam="2">  1        2 0.14692745E+00 0.11793799E+03</pdfrwt>
<pdfrwt beam="1">  1        4 0.16396442E+00 0.13817456E+03</pdfrwt>
<totfact> 0.38593136E+00</totfact>
</mgrwt>
</event>
<event>
13    1  0.1675423E-008  0.6723158E+02  0.7546771E-02  0.1398462E+00
          2   -1    0    0  502    0  0.00000000000E+00  0.00000000000E+00  0.23111238545E+04  0.23111238545E+04  0.00000000000E+00 0. -1.
          2   -1    0    0  503    0 -0.00000000000E+00 -0.00000000000E+00 -0.20814861065E+04  0.20814861065E+04  0.00000000000E+00 0. -1.
         24    2    1    2    0    0  0.21259883217E+02  0.23086957961E+02  0.36499696398E+03  0.37501731377E+03  0.80188600494E+02 0.  0.
         25    2    1    2    0    0 -0.13705166982E+03 -0.14605970753E+03 -0.13871013730E+04  0.14070503947E+04  0.12499598304E+03 0.  0.
         24    2    1    2    0    0  0.21421681987E+02  0.16700612752E+03  0.52863853941E+03  0.56040655534E+03  0.79037123110E+02 0.  0.
        -11    1    5    5    0    0  0.35443471107E+02  0.25163089999E+02  0.12312942205E+03  0.13057670281E+03  0.00000000000E+00 0.  1.
         12    1    5    5    0    0 -0.14021789119E+02  0.14184303752E+03  0.40550911737E+03  0.42982985253E+03  0.00000000000E+00 0. -1.
        -13    1    3    3    0    0  0.22959811445E+02  0.38937148546E+02  0.35070952950E+03  0.35361056059E+03  0.00000000000E+00 0.  1.
         14    1    3    3    0    0 -0.16999282280E+01 -0.15850190585E+02  0.14287434475E+02  0.21406753174E+02  0.00000000000E+00 0. -1.
          5    1    4    4  501    0 -0.15256938984E+02 -0.81252891908E+02 -0.29996131841E+03  0.31118111956E+03  0.47000000000E+01 0.  1.
         -5    1    4    4    0  501 -0.12179473083E+03 -0.64806815618E+02 -0.10871400546E+04  0.10958692751E+04  0.47000000000E+01 0.  1.
          1    1    1    2  502    0  0.52584498366E+02  0.85748065938E+01  0.13844052607E+04  0.13854301074E+04  0.00000000000E+00 0. -1.
          1    1    1    2  503    0  0.41785606246E+02 -0.52608184548E+02 -0.66130164308E+03  0.66470558980E+03  0.00000000000E+00 0. -1.
<mgrwt>
<rscale>  0 0.59850099E+02</rscale>
<asrwt>0</asrwt>
<pdfrwt beam="1">  1        2 0.33987116E+00 0.53279046E+02</pdfrwt>
<pdfrwt beam="2">  1        2 0.30610090E+00 0.67231577E+02</pdfrwt>
<totfact> 0.95410809E+00</totfact>
</mgrwt>
</event>
<event>
13    1  0.1675423E-008  0.1008404E+03  0.7546771E-02  0.1430164E+00
         -3   -1    0    0    0  501 -0.00000000000E+00  0.00000000000E+00  0.11053014428E+04  0.11053014428E+04  0.00000000000E+00 0.  1.
          2   -1    0    0  503    0  0.00000000000E+00 -0.00000000000E+00 -0.10234887284E+04  0.10234887284E+04  0.00000000000E+00 0. -1.
         24    2    1    2    0    0 -0.76605432634E+01 -0.58694155183E+02 -0.14711092770E+03  0.17754222189E+03  0.79849406572E+02 0.  0.
         25    2    1    2    0    0 -0.74544076139E+02 -0.79030961792E+02  0.25740618650E+03  0.30608253655E+03  0.12500344844E+03 0.  0.
         24    2    1    2    0    0  0.67263871118E+02 -0.26309753348E+02  0.11045029799E+03  0.15416307662E+03  0.79689110851E+02 0.  0.
        -11    1    3    3    0    0  0.19681444376E+02  0.10278284976E+02 -0.54684999954E+02  0.59020772739E+02  0.00000000000E+00 0.  1.
         12    1    3    3    0    0 -0.27341987639E+02 -0.68972440159E+02 -0.92425927745E+02  0.11852144915E+03  0.00000000000E+00 0. -1.
        -11    1    5    5    0    0 -0.14257029384E+02  0.89241233708E+01  0.29695091399E+02  0.34127720668E+02  0.00000000000E+00 0.  1.
         12    1    5    5    0    0  0.81520900502E+02 -0.35233876719E+02  0.80755206593E+02  0.12003535595E+03  0.00000000000E+00 0. -1.
          5    1    4    4  502    0  0.27914854248E+02  0.82582458015E+01  0.63252131429E+02  0.69787963444E+02  0.47000000000E+01 0. -1.
         -5    1    4    4    0  502 -0.10245893039E+03 -0.87289207594E+02  0.19415405507E+03  0.23629457311E+03  0.47000000000E+01 0. -1.
          1    1    1    2  503    0 -0.11703339259E+02  0.15617429368E+03 -0.80715230017E+03  0.82220570043E+03  0.00000000000E+00 0. -1.
         -4    1    1    2    0  501  0.26644087544E+02  0.78605766455E+01  0.66821945784E+03  0.66879663569E+03  0.00000000000E+00 0.  1.
<mgrwt>
<rscale>  0 0.52927185E+02</rscale>
<asrwt>0</asrwt>
<pdfrwt beam="2">  1        2 0.15051305E+00 0.10084037E+03</pdfrwt>
<pdfrwt beam="1">  1       -3 0.16254433E+00 0.27779418E+02</pdfrwt>
<totfact> 0.49812427E+00</totfact>
</mgrwt>
</event>
<event>
13    1  0.1675423E-008  0.1075028E+03  0.7546771E-02  0.1276686E+00
          2   -1    0    0  502    0  0.00000000000E+00  0.00000000000E+00  0.19296657010E+04  0.19296657010E+04  0.00000000000E+00 0. -1.
          2   -1    0    0  503    0 -0.00000000000E+00 -0.00000000000E+00 -0.15121232353E+04  0.15121232353E+04  0.00000000000E+00 0. -1.
         24    2    1    2    0    0  0.47723972810E+02  0.33370803089E+03  0.58579697065E+03  0.68074796949E+03  0.81370017044E+02 0.  0.
         25    2    1    2    0    0 -0.75786199136E+02 -0.35322610253E+03 -0.22131634956E+03  0.44172308348E+03  0.12500451354E+03 0.  0.
         24    2    1    2    0    0  0.67368223422E+02  0.50569899464E+02  0.50650551852E+03  0.51992464114E+03  0.81719030308E+02 0.  0.
        -11    1    3    3    0    0 -0.17901385284E+02  0.29547292358E+02  0.76167433061E+02  0.83635996676E+02  0.00000000000E+00 0.  1.
         12    1    3    3    0    0  0.65625358094E+02  0.30416073853E+03  0.50962953759E+03  0.59711197281E+03  0.00000000000E+00 0. -1.
        -13    1    5    5    0    0  0.34762536094E+02 -0.16015936512E+02  0.25022691673E+03  0.25313722364E+03  0.00000000000E+00 0.  1.
         14    1    5    5    0    0  0.32605687327E+02  0.66585835976E+02  0.25627860179E+03  0.26678741750E+03  0.00000000000E+00 0. -1.
          5    1    4    4  501    0 -0.89760740674E+02 -0.13372435306E+03 -0.11064914778E+03  0.19545975820E+03  0.47000000000E+01 0. -1.
         -5    1    4    4    0  501  0.13974541538E+02 -0.21950174947E+03 -0.11066720177E+03  0.24626332528E+03  0.47000000000E+01 0. -1.
          1    1    1    2  502    0 -0.12392980846E+03  0.14867200048E+02  0.66510133812E+03  0.67671221434E+03  0.00000000000E+00 0. -1.
          1    1    1    2  503    0  0.84623811369E+02 -0.45919027875E+02 -0.11185450119E+04  0.11226810279E+04  0.00000000000E+00 0. -1.
<mgrwt>
<rscale>  0 0.10173653E+03</rscale>
<asrwt>0</asrwt>
<pdfrwt beam="1">  1        2 0.28377437E+00 0.10750284E+03</pdfrwt>
<pdfrwt beam="2">  1        2 0.22237106E+00 0.96279523E+02</pdfrwt>
<totfact> 0.24263462E+01</totfact>
</mgrwt>
</event>
<event>
13    1  0.1675423E-008  0.1309997E+03  0.7546771E-02  0.1328280E+00
          2   -1    0    0  502    0  0.00000000000E+00  0.00000000000E+00  0.12244277312E+03  0.12244277312E+03  0.00000000000E+00 0. -1.
          2   -1    0    0  503    0 -0.00000000000E+00 -0.00000000000E+00 -0.42545232943E+04  0.42545232943E+04  0.00000000000E+00 0. -1.
         24    2    1    2    0    0  0.20183979862E+02  0.67242656052E+02  0.43814020766E+02  0.11477242427E+03  0.79524041150E+02 0.  0.
         25    2    1    2    0    0 -0.16131989751E+03 -0.10960581357E+03 -0.84439056960E+03  0.87558984757E+03  0.12499841377E+03 0.  0.
         24    2    1    2    0    0  0.27710378304E+00  0.35404201524E+02 -0.12482928485E+04  0.12513472349E+04  0.79883242874E+02 0.  0.
        -13    1    3    3    0    0  0.55992292043E+01 -0.15352094576E+02 -0.57811559554E+01  0.17333780307E+02  0.00000000000E+00 0.  1.
         14    1    3    3    0    0  0.14584750657E+02  0.82594750628E+02  0.49595176721E+02  0.97438643962E+02  0.00000000000E+00 0. -1.
        -13    1    5    5    0    0 -0.24089239702E+02  0.22487269173E+02 -0.11011049730E+04  0.11015979894E+04  0.00000000000E+00 0.  1.
         14    1    5    5    0    0  0.24366343485E+02  0.12916932351E+02 -0.14718787552E+03  0.14974924553E+03  0.00000000000E+00 0. -1.
          5    1    4    4  501    0  0.13793875079E+02 -0.97634734709E+01 -0.18710912122E+02  0.25647312458E+02  0.47000000000E+01 0. -1.
         -5    1    4    4    0  501 -0.17511377259E+03 -0.99842340095E+02 -0.82567965747E+03  0.84994253511E+03  0.47000000000E+01 0. -1.
          1    1    1    2  502    0  0.11653652642E+03  0.49712992730E+02 -0.13035709245E+03  0.18178315430E+03  0.00000000000E+00 0. -1.
          1    1    1    2  503    0  0.24322287451E+02 -0.42754036739E+02 -0.19528540314E+04  0.19534734064E+04  0.00000000000E+00 0. -1.
<mgrwt>
<rscale>  0 0.80272303E+02</rscale>
<asrwt>0</asrwt>
<pdfrwt beam="1">  1        2 0.18006295E-01 0.13099970E+03</pdfrwt>
<pdfrwt beam="2">  1        2 0.62566502E+00 0.49188223E+02</pdfrwt>
<totfact> 0.27322569E+01</totfact>
</mgrwt>
</event>
<event>
13    1  0.1675423E-008  0.1051541E+03  0.7546771E-02  0.1283940E+00
          2   -1    0    0  503    0  0.00000000000E+00  0.00000000000E+00  0.21870651194E+04  0.21870651194E+04  0.00000000000E+00 0. -1.
          2   -1    0    0  502    0 -0.00000000000E+00 -0.00000000000E+00 -0.88877398507E+03  0.88877398507E+03  0.00000000000E+00 0. -1.
         24    2    1    2    0    0 -0.63496636378E+02  0.19741187849E+02  0.12419055179E+04  0.12462801743E+04  0.80395398064E+02 0.  0.
         25    2    1    2    0    0  0.51174872827E+02 -0.33216846279E+02 -0.18235346018E+03  0.22933723538E+03  0.12498222516E+03 0.  0.
         24    2    1    2    0    0  0.50302302241E+01 -0.24873874067E+02  0.13158924235E+03  0.15734226624E+03  0.82442993724E+02 0.  0.
        -11    1    3    3    0    0 -0.34969045069E+02  0.45434922216E+02  0.96807824542E+03  0.96977453850E+03  0.00000000000E+00 0.  1.
         12    1    3    3    0    0 -0.28527591309E+02 -0.25693734367E+02  0.27382727248E+03  0.27650563576E+03  0.00000000000E+00 0. -1.
        -13    1    5    5    0    0  0.43661328807E+02 -0.16866475333E+02  0.70831506781E+02  0.84899304922E+02  0.00000000000E+00 0.  1.
         14    1    5    5    0    0 -0.38631098583E+02 -0.80073987342E+01  0.60757735572E+02  0.72442961315E+02  0.00000000000E+00 0. -1.
          5    1    4    4  501    0  0.90667397153E+01  0.40689069657E+02 -0.21087178211E+02  0.46952798037E+02  0.47000000000E+01 0.  1.
         -5    1    4    4    0  501  0.42108133112E+02 -0.73905915936E+02 -0.16126628197E+03  0.18238443734E+03  0.47000000000E+01 0.  1.
          1    1    1    2  502    0  0.11979662122E+03 -0.42224655458E+02 -0.65554236486E+03  0.66773493551E+03  0.00000000000E+00 0. -1.
          1    1    1    2  503    0 -0.11250508789E+03  0.80574187955E+02  0.76269219907E+03  0.77514449304E+03  0.00000000000E+00 0. -1.
<mgrwt>
<rscale>  0 0.98286840E+02</rscale>
<asrwt>0</asrwt>
<pdfrwt beam="1">  1        2 0.32162722E+00 0.10515415E+03</pdfrwt>
<pdfrwt beam="2">  1        2 0.13070206E+00 0.91868014E+02</pdfrwt>
<totfact> 0.39538876E+01</totfact>
</mgrwt>
</event>
<event>
13    1  0.3047801E-008  0.6208464E+02  0.7546771E-02  0.1445746E+00
          2   -1    0    0  503    0  0.00000000000E+00  0.00000000000E+00  0.18588803014E+04  0.18588803014E+04  0.00000000000E+00 0. -1.
          2   -1    0    0  502    0 -0.00000000000E+00 -0.00000000000E+00 -0.15047091606E+04  0.15047091606E+04  0.00000000000E+00 0. -1.
         24    2    1    2    0    0 -0.16477884786E+02 -0.65152907973E+01  0.20828704885E+03  0.22399590679E+03  0.80477958716E+02 0.  0.
         25    2    1    2    0    0  0.62711737309E+02 -0.92299959937E+01 -0.63865050341E+03  0.65384763219E+03  0.12499722315E+03 0.  0.
         24    2    1    2    0    0 -0.25698301035E+02  0.34914035968E+02 -0.34658651039E+03  0.35823390591E+03  0.79560854555E+02 0.  0.
        -11    1    3    3    0    0 -0.19658242806E+02 -0.19956941882E+02  0.20830798732E+03  0.21018311925E+03  0.00000000000E+00 0.  1.
         12    1    3    3    0    0  0.31803580205E+01  0.13441651085E+02 -0.20938469750E-01  0.13812787534E+02  0.00000000000E+00 0. -1.
        -11    1    5    5    0    0  0.11281104361E+01 -0.56887849939E+01  0.20998240536E+01  0.61679955349E+01  0.00000000000E+00 0.  1.
         12    1    5    5    0    0 -0.26826411471E+02  0.40602820962E+02 -0.34868633444E+03  0.35206591037E+03  0.00000000000E+00 0. -1.
          5    1    4    4  501    0  0.31599569105E+02  0.56771846984E+02 -0.24799116059E+03  0.25640452630E+03  0.47000000000E+01 0.  1.
         -5    1    4    4    0  501  0.31112168205E+02 -0.66001842977E+02 -0.39065934282E+03  0.39744310589E+03  0.47000000000E+01 0.  1.
          1    1    1    2  502    0 -0.19713480750E+01  0.40098644852E+02 -0.49679353460E+03  0.49841308525E+03  0.00000000000E+00 0. -1.
          1    1    1    2  503    0 -0.18564203413E+02 -0.59267394029E+02  0.16279146403E+04  0.16290989318E+04  0.00000000000E+00 0. -1.
<mgrwt>
<rscale>  0 0.49925110E+02</rscale>
<asrwt>0</asrwt>
<pdfrwt beam="1">  1        2 0.27336475E+00 0.62084640E+02</pdfrwt>
<pdfrwt beam="2">  1        2 0.22128076E+00 0.40147074E+02</pdfrwt>
<totfact> 0.30005256E+01</totfact>
</mgrwt>
</event>
<event>
13    1  0.1675423E-008  0.5214749E+02  0.7546771E-02  0.1542529E+00
          2   -1    0    0  502    0  0.00000000000E+00  0.00000000000E+00  0.19732444813E+04  0.19732444813E+04  0.00000000000E+00 0. -1.
          2   -1    0    0  503    0 -0.00000000000E+00 -0.00000000000E+00 -0.94950758803E+03  0.94950758803E+03  0.00000000000E+00 0. -1.
         24    2    1    2    0    0  0.11650783890E+03  0.36754836680E+02  0.64756428118E+03  0.66385117585E+03  0.80211538232E+02 0.  0.
         25    2    1    2    0    0 -0.31907004182E+02  0.19071638224E+03  0.82118222240E+03  0.85285195205E+03  0.12500165743E+03 0.  0.
         24    2    1    2    0    0 -0.58267502827E+02 -0.20213499904E+03 -0.52434467530E+03  0.57053535467E+03  0.79495865801E+02 0.  0.
        -11    1    5    5    0    0 -0.55321630504E+01  0.70550425584E+01 -0.16770751174E+02  0.19016743898E+02  0.00000000000E+00 0.  1.
         12    1    5    5    0    0 -0.52735339776E+02 -0.20919004160E+03 -0.50757392413E+03  0.55151861077E+03  0.00000000000E+00 0. -1.
        -13    1    3    3    0    0  0.54416116375E+02  0.57737530905E+02  0.39748951151E+03  0.40533029489E+03  0.00000000000E+00 0.  1.
         14    1    3    3    0    0  0.62091722530E+02 -0.20982694225E+02  0.25007476967E+03  0.25852088095E+03  0.00000000000E+00 0. -1.
          5    1    4    4  501    0 -0.48012070302E+02  0.11908697108E+03  0.29795759740E+03  0.32448063952E+03  0.47000000000E+01 0. -1.
         -5    1    4    4    0  501  0.16105066121E+02  0.71629411158E+02  0.52322462500E+03  0.52837131253E+03  0.47000000000E+01 0. -1.
          1    1    1    2  502    0 -0.74087535540E+01  0.23280377699E+02  0.45529561616E+03  0.45595061543E+03  0.00000000000E+00 0. -1.
          1    1    1    2  503    0 -0.18924578342E+02 -0.48616597575E+02 -0.37596055114E+03  0.37956297137E+03  0.00000000000E+00 0. -1.
<mgrwt>
<rscale>  0 0.35693228E+02</rscale>
<asrwt>0</asrwt>
<pdfrwt beam="1">  1        2 0.29018301E+00 0.24430833E+02</pdfrwt>
<pdfrwt beam="2">  1        2 0.13963347E+00 0.52147486E+02</pdfrwt>
<totfact> 0.55692960E+01</totfact>
</mgrwt>
</event>
<event>
13    1  0.1675423E-008  0.7439558E+02  0.7546771E-02  0.1366024E+00
          2   -1    0    0  502    0  0.00000000000E+00  0.00000000000E+00  0.20242658471E+04  0.20242658471E+04  0.00000000000E+00 0. -1.
          2   -1    0    0  503    0 -0.00000000000E+00 -0.00000000000E+00 -0.97316045491E+03  0.97316045491E+03  0.00000000000E+00 0. -1.
         24    2    1    2    0    0 -0.17309136850E+02 -0.14646410592E+03  0.94328062018E+03  0.95797492864E+03  0.78653003473E+02 0.  0.
         25    2    1    2    0    0 -0.26385583503E+02  0.92988628663E+02 -0.38956302165E+02  0.16274432812E+03  0.12500015512E+03 0.  0.
         24    2    1    2    0    0  0.49780239011E+02  0.92255052012E+02  0.18959227458E+03  0.23246655148E+03  0.84299467131E+02 0.  0.
        -11    1    3    3    0    0  0.12389359145E+02 -0.69163814617E+02  0.24740021819E+03  0.25718475350E+03  0.00000000000E+00 0.  1.
         12    1    3    3    0    0 -0.29698495995E+02 -0.77300291301E+02  0.69588040199E+03  0.70079017514E+03  0.00000000000E+00 0. -1.
        -13    1    5    5    0    0  0.68338332070E+02  0.79585723607E+02  0.12025140066E+03  0.15957573247E+03  0.00000000000E+00 0.  1.
         14    1    5    5    0    0 -0.18558093059E+02  0.12669328404E+02  0.69340873912E+02  0.72890819004E+02  0.00000000000E+00 0. -1.
          5    1    4    4  501    0 -0.44347104606E+02  0.35940633035E+02 -0.73760238716E+02  0.93386602922E+02  0.47000000000E+01 0. -1.
         -5    1    4    4    0  501  0.17961521103E+02  0.57047995628E+02  0.34803936551E+02  0.69357725200E+02  0.47000000000E+01 0. -1.
          1    1    1    2  502    0 -0.61760949237E+02  0.10673415470E+02  0.79783970888E+03  0.80029778065E+03  0.00000000000E+00 0. -1.
          1    1    1    2  503    0  0.55675430579E+02 -0.49452990227E+02 -0.84065090926E+03  0.84394271314E+03  0.00000000000E+00 0. -1.
<mgrwt>
<rscale>  0 0.68285067E+02</rscale>
<asrwt>0</asrwt>
<pdfrwt beam="1">  1        2 0.29768616E+00 0.62676444E+02</pdfrwt>
<pdfrwt beam="2">  1        2 0.14311183E+00 0.74395579E+02</pdfrwt>
<totfact> 0.45080897E+01</totfact>
</mgrwt>
</event>
<event>
13    1  0.1675423E-008  0.1175772E+03  0.7546771E-02  0.1347336E+00
          2   -1    0    0  503    0  0.00000000000E+00  0.00000000000E+00  0.15068833367E+04  0.15068833367E+04  0.00000000000E+00 0. -1.
         -1   -1    0    0    0  501 -0.00000000000E+00 -0.00000000000E+00 -0.49139891496E+03  0.49139891496E+03  0.00000000000E+00 0.  1.
         24    2    1    2    0    0  0.59021211153E+01  0.18817294598E+03 -0.97449446678E+02  0.22693223756E+03  0.80981190111E+02 0.  0.
         25    2    1    2    0    0  0.91333869151E+02  0.65251965445E+02  0.72192658821E+03  0.74121272573E+03  0.12497444289E+03 0.  0.
         24    2    1    2    0    0 -0.57855074969E+02 -0.16980246485E+03  0.46195180602E+01  0.19768105133E+03  0.82923888827E+02 0.  0.
        -13    1    5    5    0    0  0.12897436261E+02 -0.63076585572E+02  0.22903172907E+02  0.68334141092E+02  0.00000000000E+00 0.  1.
         14    1    5    5    0    0 -0.70752511231E+02 -0.10672587928E+03 -0.18283654847E+02  0.12934691024E+03  0.00000000000E+00 0. -1.
        -13    1    3    3    0    0 -0.92217206002E+01  0.18867436319E+03 -0.84185298087E+02  0.20680962229E+03  0.00000000000E+00 0.  1.
         14    1    3    3    0    0  0.15123841715E+02 -0.50141720987E+00 -0.13264148592E+02  0.20122615270E+02  0.00000000000E+00 0. -1.
          5    1    4    4  502    0  0.11460627063E+03  0.44543912313E+02  0.66369588800E+03  0.67500598452E+03  0.47000000000E+01 0.  1.
         -5    1    4    4    0  502 -0.23272401476E+02  0.20708053132E+02  0.58230700216E+02  0.66206741218E+02  0.47000000000E+01 0.  1.
          1    1    1    2  503    0  0.46376935408E+02 -0.23852224155E+01  0.59280902551E+03  0.59462513414E+03  0.00000000000E+00 0. -1.
         -2    1    1    2    0  501 -0.85757850705E+02 -0.81237224162E+02 -0.20642126336E+03  0.23783110291E+03  0.00000000000E+00 0.  1.
<mgrwt>
<rscale>  0 0.73892334E+02</rscale>
<asrwt>0</asrwt>
<pdfrwt beam="1">  1        2 0.22160049E+00 0.46438232E+02</pdfrwt>
<pdfrwt beam="2">  1       -1 0.72264547E-01 0.11757719E+03</pdfrwt>
<totfact> 0.40035759E+01</totfact>
</mgrwt>
</event>
<event>
13    1  0.1675423E-008  0.1056513E+03  0.7546771E-02  0.1371096E+00
          2   -1    0    0  503    0  0.00000000000E+00  0.00000000000E+00  0.29439597873E+04  0.29439597873E+04  0.00000000000E+00 0. -1.
          2   -1    0    0  502    0 -0.00000000000E+00 -0.00000000000E+00 -0.24273310158E+04  0.24273310158E+04  0.00000000000E+00 0. -1.
         24    2    1    2    0    0  0.29214516326E+02  0.14310951168E+03  0.23086895078E+03  0.28494237023E+03  0.80980624951E+02 0.  0.
         25    2    1    2    0    0  0.25924175877E+02  0.70175528358E+02 -0.22825740280E+03  0.27078181456E+03  0.12499872594E+03 0.  0.
         24    2    1    2    0    0 -0.11791418222E+02 -0.12751902824E+03  0.23004070285E+03  0.27548595644E+03  0.81078031063E+02 0.  0.
        -11    1    5    5    0    0  0.10290829272E+02 -0.12902751523E+03  0.19633355697E+03  0.23516136257E+03  0.00000000000E+00 0.  1.
         12    1    5    5    0    0 -0.22082247494E+02  0.15084869901E+01  0.33707145879E+02  0.40324593869E+02  0.00000000000E+00 0. -1.
        -11    1    3    3    0    0  0.45856729164E+02  0.93751176546E+02  0.10194496886E+03  0.14589345218E+03  0.00000000000E+00 0.  1.
         12    1    3    3    0    0 -0.16642212838E+02  0.49358335138E+02  0.12892398192E+03  0.13904891805E+03  0.00000000000E+00 0. -1.
          5    1    4    4  501    0  0.73225269589E+02  0.53740516337E+02 -0.17682840275E+03  0.19884757283E+03  0.47000000000E+01 0. -1.
         -5    1    4    4    0  501 -0.47301093712E+02  0.16435012021E+02 -0.51429000055E+02  0.71934241729E+02  0.47000000000E+01 0. -1.
          1    1    1    2  502    0  0.38114385364E+02 -0.18382280670E+02 -0.21266830765E+04  0.21271040225E+04  0.00000000000E+00 0. -1.
          1    1    1    2  503    0 -0.81461659346E+02 -0.67383731136E+02  0.24106595972E+04  0.24129766394E+04  0.00000000000E+00 0. -1.
<mgrwt>
<rscale>  0 0.66863332E+02</rscale>
<asrwt>0</asrwt>
<pdfrwt beam="1">  1        2 0.43293527E+00 0.10565133E+03</pdfrwt>
<pdfrwt beam="2">  1        2 0.35696044E+00 0.42315654E+02</pdfrwt>
<totfact> 0.30464420E+00</totfact>
</mgrwt>
</event>
<event>
13    1  0.1675423E-008  0.1059347E+03  0.7546771E-02  0.1362918E+00
          2   -1    0    0  503    0  0.00000000000E+00  0.00000000000E+00  0.14806085023E+04  0.14806085023E+04  0.00000000000E+00 0. -1.
         -3   -1    0    0    0  501 -0.00000000000E+00 -0.00000000000E+00 -0.21428834505E+04  0.21428834505E+04  0.00000000000E+00 0.  1.
         24    2    1    2    0    0  0.21295162569E+02  0.44942971059E+01  0.26342989915E+03  0.27834280388E+03  0.87210790897E+02 0.  0.
         25    2    1    2    0    0 -0.14739885011E+03 -0.42778407451E+02 -0.90917652357E+03  0.93047463791E+03  0.12499875050E+03 0.  0.
         24    2    1    2    0    0 -0.62219216522E+01  0.12582551340E+02  0.30636203642E+03  0.31674598017E+03  0.79204076217E+02 0.  0.
        -11    1    3    3    0    0 -0.17255695542E+02  0.21054579003E+02  0.20275247269E+03  0.20457179549E+03  0.00000000000E+00 0.  1.
         12    1    3    3    0    0  0.38550858111E+02 -0.16560281897E+02  0.60677426462E+02  0.73771008396E+02  0.00000000000E+00 0. -1.
        -13    1    5    5    0    0  0.15028091514E+02 -0.20263221204E+02  0.38414843612E+02  0.45958044756E+02  0.00000000000E+00 0.  1.
         14    1    5    5    0    0 -0.21250013166E+02  0.32845772544E+02  0.26794719281E+03  0.27078793542E+03  0.00000000000E+00 0. -1.
          5    1    4    4  502    0 -0.85728197359E+02  0.62919877717E+01 -0.21155643724E+03  0.22840124577E+03  0.47000000000E+01 0. -1.
         -5    1    4    4    0  502 -0.61670652746E+02 -0.49070395222E+02 -0.69762008633E+03  0.70207339214E+03  0.47000000000E+01 0. -1.
          1    1    1    2  503    0  0.14385006768E+03 -0.17975967703E+02  0.88117286380E+03  0.89301824913E+03  0.00000000000E+00 0. -1.
         -4    1    1    2    0  501 -0.11524458487E+02  0.43677526708E+02 -0.12040632240E+04  0.12049102817E+04  0.00000000000E+00 0.  1.
<mgrwt>
<rscale>  0 0.69175983E+02</rscale>
<asrwt>0</asrwt>
<pdfrwt beam="1">  1        2 0.21773655E+00 0.10593468E+03</pdfrwt>
<pdfrwt beam="2">  1       -3 0.31512992E+00 0.45172331E+02</pdfrwt>
<totfact> 0.42653685E-01</totfact>
</mgrwt>
</event>
<event>
13    1  0.1675423E-008  0.8768757E+02  0.7546771E-02  0.1425199E+00
          2   -1    0    0  503    0  0.00000000000E+00  0.00000000000E+00  0.24745731687E+04  0.24745731687E+04  0.00000000000E+00 0. -1.
          2   -1    0    0  502    0 -0.00000000000E+00 -0.00000000000E+00 -0.36350258723E+04  0.36350258723E+04  0.00000000000E+00 0. -1.
         24    2    1    2    0    0 -0.62591465852E+03 -0.22489289743E+03 -0.33921846216E+03  0.74966309440E+03  0.67672852457E+02 0.  0.
         25    2    1    2    0    0  0.47095013007E+03  0.34768381404E+03  0.31251714845E+03  0.67525533305E+03  0.12499894868E+03 0.  0.
         24    2    1    2    0    0  0.87794643249E+02 -0.14710517083E+03 -0.81759309076E+03  0.83839821376E+03  0.71451186952E+02 0.  0.
        -11    1    5    5    0    0  0.24377618650E+02 -0.75541625734E+02 -0.23585629867E+03  0.24885537794E+03  0.00000000000E+00 0.  1.
         12    1    5    5    0    0  0.63417024599E+02 -0.71563545099E+02 -0.58173679209E+03  0.58954283582E+03  0.00000000000E+00 0. -1.
        -13    1    3    3    0    0 -0.43173299248E+03 -0.14067918750E+03 -0.19895442711E+03  0.49574880197E+03  0.00000000000E+00 0.  1.
         14    1    3    3    0    0 -0.19418166604E+03 -0.84213709927E+02 -0.14026403505E+03  0.25391429242E+03  0.00000000000E+00 0. -1.
          5    1    4    4  501    0  0.11676080673E+03  0.10038463843E+03  0.14606866456E+03  0.21229297300E+03  0.47000000000E+01 0.  1.
         -5    1    4    4    0  501  0.35418932334E+03  0.24729917562E+03  0.16644848390E+03  0.46296236005E+03  0.47000000000E+01 0.  1.
          1    1    1    2  502    0 -0.20514801120E+02  0.26072108991E+02 -0.20799985542E+04  0.20802631078E+04  0.00000000000E+00 0. -1.
          1    1    1    2  503    0  0.87684686320E+02 -0.17578547714E+01  0.17638402551E+04  0.17660192920E+04  0.00000000000E+00 0. -1.
<mgrwt>
<rscale>  0 0.53935855E+02</rscale>
<asrwt>0</asrwt>
<pdfrwt beam="1">  1        2 0.36390782E+00 0.87687569E+02</pdfrwt>
<pdfrwt beam="2">  1        2 0.53456263E+00 0.33175472E+02</pdfrwt>
<totfact> 0.13451611E+00</totfact>
</mgrwt>
</event>
<event>
13    1  0.1675423E-008  0.1399528E+03  0.7546771E-02  0.1298029E+00
          2   -1    0    0  502    0  0.00000000000E+00  0.00000000000E+00  0.19393219666E+04  0.19393219666E+04  0.00000000000E+00 0. -1.
          2   -1    0    0  503    0 -0.00000000000E+00 -0.00000000000E+00 -0.19334114068E+04  0.19334114068E+04  0.00000000000E+00 0. -1.
         24    2    1    2    0    0  0.22578636091E+03 -0.54946572117E+02  0.32653518200E+03  0.40877088518E+03  0.80435097630E+02 0.  0.
         25    2    1    2    0    0 -0.16146219609E+03  0.13040322817E+03 -0.77985657605E+03  0.81662469382E+03  0.12499827463E+03 0.  0.
         24    2    1    2    0    0 -0.18821650251E+03  0.70213383504E+01  0.12144354085E+03  0.23800762487E+03  0.80152011035E+02 0.  0.
        -13    1    5    5    0    0 -0.57935657955E+01 -0.67896645043E+01  0.34161533693E+02  0.35308289862E+02  0.00000000000E+00 0.  1.
         14    1    5    5    0    0 -0.18242293672E+03  0.13811002855E+02  0.87282007154E+02  0.20269933501E+03  0.00000000000E+00 0. -1.
        -13    1    3    3    0    0  0.14305168287E+03 -0.69709688746E+02  0.18365627328E+03  0.24300792454E+03  0.00000000000E+00 0.  1.
         14    1    3    3    0    0  0.82734678045E+02  0.14763116628E+02  0.14287890872E+03  0.16576296064E+03  0.00000000000E+00 0. -1.
          5    1    4    4  501    0 -0.87374611806E+02  0.14234014825E+03 -0.53522171247E+03  0.56069547180E+03  0.47000000000E+01 0. -1.
         -5    1    4    4    0  501 -0.74087584283E+02 -0.11936920082E+02 -0.24463486357E+03  0.25592922202E+03  0.47000000000E+01 0. -1.
          1    1    1    2  502    0  0.75028011899E+02 -0.11816044544E+03  0.13691045487E+04  0.13762406616E+04  0.00000000000E+00 0. -1.
          1    1    1    2  503    0  0.48864325793E+02  0.35682451036E+02 -0.10313161357E+04  0.10330895079E+04  0.00000000000E+00 0. -1.
<mgrwt>
<rscale>  0 0.92021558E+02</rscale>
<asrwt>0</asrwt>
<pdfrwt beam="1">  1        2 0.28519441E+00 0.13995283E+03</pdfrwt>
<pdfrwt beam="2">  1        2 0.28432521E+00 0.60505865E+02</pdfrwt>
<totfact> 0.15339066E+01</totfact>
</mgrwt>
</event>
<event>
13    1  0.1675423E-008  0.9669754E+02  0.7546771E-02  0.1411318E+00
         -1   -1    0    0    0  501 -0.00000000000E+00  0.00000000000E+00  0.12322654700E+04  0.12322654700E+04  0.00000000000E+00 0.  1.
          2   -1    0    0  503    0  0.00000000000E+00 -0.00000000000E+00 -0.31929727149E+04  0.31929727149E+04  0.00000000000E+00 0. -1.
         24    2    1    2    0    0  0.25547019461E+02  0.49575347394E+01 -0.23768636287E+04  0.23783316766E+04  0.79395386920E+02 0.  0.
         25    2    1    2    0    0 -0.14944391462E+03  0.37885670922E+02  0.37772680130E+03  0.42669859337E+03  0.12500138196E+03 0.  0.
         24    2    1    2    0    0  0.37647747027E+02  0.53201760076E+02  0.10577041683E+03  0.14811195581E+03  0.80634919530E+02 0.  0.
        -11    1    3    3    0    0  0.10618585201E+02 -0.88835800902E+01 -0.22321722007E+04  0.22322151344E+04  0.00000000000E+00 0.  1.
         12    1    3    3    0    0  0.14928434260E+02  0.13841114830E+02 -0.14469142793E+03  0.14611654227E+03  0.00000000000E+00 0. -1.
        -13    1    5    5    0    0  0.25135013942E+02  0.56681051108E+02  0.25906032537E+02  0.67198459822E+02  0.00000000000E+00 0.  1.
         14    1    5    5    0    0  0.12512733085E+02 -0.34792910327E+01  0.79864384292E+02  0.80913495992E+02  0.00000000000E+00 0. -1.
          5    1    4    4  502    0 -0.32987002168E+02 -0.93630725463E+00  0.43309573069E+01  0.33613482035E+02  0.47000000000E+01 0.  1.
         -5    1    4    4    0  502 -0.11645691245E+03  0.38821978177E+02  0.37339584399E+03  0.39308511134E+03  0.47000000000E+01 0.  1.
          1    1    1    2  503    0  0.67445377178E+02 -0.68340948440E+02 -0.76632169692E+03  0.77231360684E+03  0.00000000000E+00 0. -1.
         -2    1    1    2    0  501  0.18803770956E+02 -0.27704017297E+02  0.69898086256E+03  0.69978235231E+03  0.00000000000E+00 0.  1.
<mgrwt>
<rscale>  0 0.56900785E+02</rscale>
<asrwt>0</asrwt>
<pdfrwt beam="2">  1        2 0.46955480E+00 0.96697542E+02</pdfrwt>
<pdfrwt beam="1">  1       -1 0.18121551E+00 0.33482747E+02</pdfrwt>
<totfact> 0.69993116E-01</totfact>
</mgrwt>
</event>
<event>
13    1  0.1675423E-008  0.8463191E+02  0.7546771E-02  0.1335434E+00
          2   -1    0    0  503    0  0.00000000000E+00  0.00000000000E+00  0.28122134578E+04  0.28122134578E+04  0.00000000000E+00 0. -1.
         -1   -1    0    0    0  501 -0.00000000000E+00 -0.00000000000E+00 -0.16891314660E+04  0.16891314660E+04  0.00000000000E+00 0.  1.
         24    2    1    2    0    0 -0.17249772104E+02  0.85784499224E+02  0.23651965089E+03  0.26466530825E+03  0.80309683039E+02 0.  0.
         25    2    1    2    0    0 -0.98784639905E+02 -0.75115574463E+02 -0.73795851362E+02  0.19097946807E+03  0.12500629959E+03 0.  0.
         24    2    1    2    0    0 -0.31772409879E+02 -0.55583418093E+02  0.32074483369E+03  0.33716231563E+03  0.81866820778E+02 0.  0.
        -11    1    5    5    0    0 -0.44721494925E+02 -0.18941949052E+02  0.82226195459E+02  0.95498464709E+02  0.00000000000E+00 0.  1.
         12    1    5    5    0    0  0.12949085046E+02 -0.36641469041E+02  0.23851863823E+03  0.24166385092E+03  0.00000000000E+00 0. -1.
        -13    1    3    3    0    0 -0.40628928353E+02  0.71982821067E+02  0.12477380599E+03  0.14966876430E+03  0.00000000000E+00 0.  1.
         14    1    3    3    0    0  0.23379156248E+02  0.13801678158E+02  0.11174584490E+03  0.11499654394E+03  0.00000000000E+00 0. -1.
          5    1    4    4  502    0 -0.13388391024E+02 -0.99237420903E+01  0.34349623917E+02  0.38467081180E+02  0.47000000000E+01 0. -1.
         -5    1    4    4    0  502 -0.85396248881E+02 -0.65191832372E+02 -0.10814547528E+03  0.15251238689E+03  0.47000000000E+01 0. -1.
          1    1    1    2  503    0  0.70782539637E+02  0.10148621753E+02  0.21723233613E+04  0.21734999306E+04  0.00000000000E+00 0. -1.
         -2    1    1    2    0  501  0.77024282252E+02  0.34765871579E+02 -0.15327100027E+04  0.15350379013E+04  0.00000000000E+00 0.  1.
<mgrwt>
<rscale>  0 0.77792811E+02</rscale>
<asrwt>0</asrwt>
<pdfrwt beam="1">  1        2 0.41356081E+00 0.71506380E+02</pdfrwt>
<pdfrwt beam="2">  1       -1 0.24840168E+00 0.84631908E+02</pdfrwt>
<totfact> 0.40385197E-01</totfact>
</mgrwt>
</event>
<event>
13    1  0.1675423E-008  0.1004691E+03  0.7546771E-02  0.1459601E+00
          2   -1    0    0  503    0  0.00000000000E+00  0.00000000000E+00  0.15974515279E+04  0.15974515279E+04  0.00000000000E+00 0. -1.
          2   -1    0    0  502    0 -0.00000000000E+00 -0.00000000000E+00 -0.10169364511E+04  0.10169364511E+04  0.00000000000E+00 0. -1.
         24    2    1    2    0    0 -0.21809350030E+03 -0.17485943115E+03  0.19539567332E+03  0.35039781957E+03  0.80365211802E+02 0.  0.
         25    2    1    2    0    0  0.30720939390E+03  0.36586259070E+03 -0.19932222536E+03  0.53253135577E+03  0.12500899318E+03 0.  0.
         24    2    1    2    0    0 -0.26389221159E+02 -0.27204389794E+03  0.13423217797E+03  0.31505777374E+03  0.80863154714E+02 0.  0.
        -13    1    5    5    0    0  0.17820762112E+02 -0.18691773826E+03  0.10310883565E+03  0.21421310051E+03  0.00000000000E+00 0.  1.
         14    1    5    5    0    0 -0.44209983270E+02 -0.85126159673E+02  0.31123342327E+02  0.10084467323E+03  0.00000000000E+00 0. -1.
        -13    1    3    3    0    0 -0.74196168790E+02 -0.84965630475E+02  0.38179122527E+02  0.11908767872E+03  0.00000000000E+00 0.  1.
         14    1    3    3    0    0 -0.14389733151E+03 -0.89893800675E+02  0.15721655080E+03  0.23131014085E+03  0.00000000000E+00 0. -1.
          5    1    4    4  501    0  0.33391237478E+02 -0.27595993273E+01 -0.63896920310E+01  0.34431211031E+02  0.47000000000E+01 0. -1.
         -5    1    4    4    0  501  0.27381815643E+03  0.36862219003E+03 -0.19293253333E+03  0.49810014474E+03  0.47000000000E+01 0. -1.
          1    1    1    2  502    0  0.14653038937E+02  0.16955783977E+02 -0.48012971166E+03  0.48065242138E+03  0.00000000000E+00 0. -1.
          1    1    1    2  503    0 -0.77379711378E+02  0.64084954410E+02  0.93033916255E+03  0.93574860859E+03  0.00000000000E+00 0. -1.
<mgrwt>
<rscale>  0 0.47450152E+02</rscale>
<asrwt>0</asrwt>
<pdfrwt beam="1">  1        2 0.23491934E+00 0.10046909E+03</pdfrwt>
<pdfrwt beam="2">  1        2 0.14954948E+00 0.22410046E+02</pdfrwt>
<totfact> 0.69218780E+01</totfact>
</mgrwt>
</event>
<event>
13    1  0.1675423E-008  0.1088479E+03  0.7546771E-02  0.1313424E+00
          2   -1    0    0  502    0  0.00000000000E+00  0.00000000000E+00  0.78900149888E+03  0.78900149888E+03  0.00000000000E+00 0. -1.
          2   -1    0    0  503    0 -0.00000000000E+00 -0.00000000000E+00 -0.26372936853E+04  0.26372936853E+04  0.00000000000E+00 0. -1.
         24    2    1    2    0    0 -0.91569583558E+02 -0.90078540156E+01  0.28221044976E+03  0.31039296580E+03  0.90746488615E+02 0.  0.
         25    2    1    2    0    0  0.78807851725E+02  0.23430561963E+03 -0.27410787421E+03  0.38970522541E+03  0.12500094050E+03 0.  0.
         24    2    1    2    0    0  0.10489821936E+03 -0.11158699569E+03 -0.74804537941E+03  0.76776453708E+03  0.80219702724E+02 0.  0.
        -11    1    5    5    0    0  0.10643909757E+03 -0.61847330550E+02 -0.53821499000E+03  0.55211389156E+03  0.00000000000E+00 0.  1.
         12    1    5    5    0    0 -0.15408782108E+01 -0.49739665145E+02 -0.20983038941E+03  0.21565064552E+03  0.00000000000E+00 0. -1.
        -13    1    3    3    0    0 -0.73204709155E+02 -0.43051389472E+02  0.14710665275E+03  0.16986088090E+03  0.00000000000E+00 0.  1.
         14    1    3    3    0    0 -0.18364874403E+02  0.34043535456E+02  0.13510379701E+03  0.14053208490E+03  0.00000000000E+00 0. -1.
          5    1    4    4  501    0  0.76222931267E+02  0.11845243038E+03 -0.22107540834E+03  0.26217806866E+03  0.47000000000E+01 0.  1.
         -5    1    4    4    0  501  0.25849204587E+01  0.11585318925E+03 -0.53032465878E+02  0.12752715676E+03  0.47000000000E+01 0.  1.
          1    1    1    2  502    0 -0.67125715692E+02 -0.79012714370E+01  0.42041161398E+03  0.42581007147E+03  0.00000000000E+00 0. -1.
          1    1    1    2  503    0 -0.25010771836E+02 -0.10580949848E+03 -0.15287609966E+04  0.15326223845E+04  0.00000000000E+00 0. -1.
<mgrwt>
<rscale>  0 0.85772567E+02</rscale>
<asrwt>0</asrwt>
<pdfrwt beam="1">  1        2 0.11602963E+00 0.67589140E+02</pdfrwt>
<pdfrwt beam="2">  1        2 0.38783730E+00 0.10884786E+03</pdfrwt>
<totfact> 0.27544468E+01</totfact>
</mgrwt>
</event>
<event>
13    1  0.1675423E-008  0.9241478E+02  0.7546771E-02  0.1323146E+00
          2   -1    0    0  503    0  0.00000000000E+00  0.00000000000E+00  0.17422223274E+04  0.17422223274E+04  0.00000000000E+00 0. -1.
         -3   -1    0    0    0  501 -0.00000000000E+00 -0.00000000000E+00 -0.27943341828E+03  0.27943341828E+03  0.00000000000E+00 0.  1.
         24    2    1    2    0    0  0.24366486213E+03 -0.55807009692E+02  0.33236975419E+03  0.42359058503E+03  0.80450872314E+02 0.  0.
         25    2    1    2    0    0 -0.19334881524E+03 -0.73682503392E+02  0.77388466869E+03  0.81076356633E+03  0.12500881723E+03 0.  0.
         24    2    1    2    0    0 -0.81041789402E+02 -0.18850673278E+02  0.25846564490E+02  0.11729252866E+03  0.78526255935E+02 0.  0.
        -13    1    3    3    0    0  0.22588073178E+03 -0.58523589557E+02  0.26148735452E+03  0.35046077113E+03  0.00000000000E+00 0.  1.
         14    1    3    3    0    0  0.17784130351E+02  0.27165798649E+01  0.70882399668E+02  0.73129813901E+02  0.00000000000E+00 0. -1.
        -13    1    5    5    0    0 -0.90829423865E+02 -0.33467582505E+02  0.22639837792E+02  0.99411395592E+02  0.00000000000E+00 0.  1.
         14    1    5    5    0    0  0.97876344623E+01  0.14616909227E+02  0.32067266978E+01  0.17881133069E+02  0.00000000000E+00 0. -1.
          5    1    4    4  502    0  0.12785573102E+02 -0.26503857649E+02  0.11248931337E+03  0.11636950190E+03  0.47000000000E+01 0. -1.
         -5    1    4    4    0  502 -0.20613438834E+03 -0.47178645743E+02  0.66139535532E+03  0.69439406442E+03  0.47000000000E+01 0. -1.
          1    1    1    2  503    0 -0.12582794770E+02  0.89614035191E+02  0.48814721483E+03  0.49646420352E+03  0.00000000000E+00 0. -1.
         -4    1    1    2    0  501  0.43308537280E+02  0.58726151171E+02 -0.15745929303E+03  0.17354486219E+03  0.00000000000E+00 0.  1.
<mgrwt>
<rscale>  0 0.82117965E+02</rscale>
<asrwt>0</asrwt>
<pdfrwt beam="1">  1        2 0.25620916E+00 0.92414776E+02</pdfrwt>
<pdfrwt beam="2">  1       -3 0.41093150E-01 0.72968419E+02</pdfrwt>
<totfact> 0.42254926E+01</totfact>
</mgrwt>
</event>
<event>
13    1  0.1675423E-008  0.4312625E+02  0.7546771E-02  0.1494989E+00
          2   -1    0    0  502    0  0.00000000000E+00  0.00000000000E+00  0.34026627600E+03  0.34026627600E+03  0.00000000000E+00 0. -1.
          2   -1    0    0  503    0 -0.00000000000E+00 -0.00000000000E+00 -0.20945680333E+04  0.20945680333E+04  0.00000000000E+00 0. -1.
         24    2    1    2    0    0 -0.24912597465E+02 -0.59572646202E+02 -0.36417815643E+02  0.11041189800E+03  0.81822932212E+02 0.  0.
         25    2    1    2    0    0  0.25856375569E+02  0.28590500947E+02 -0.40341254929E+02  0.13690380820E+03  0.12501706663E+03 0.  0.
         24    2    1    2    0    0 -0.15140201230E+02  0.37692018748E+02 -0.12906271590E+03  0.15976065823E+03  0.84949216076E+02 0.  0.
        -11    1    5    5    0    0  0.13516470746E+02 -0.21630032257E+02 -0.20289027736E+02  0.32591378052E+02  0.00000000000E+00 0.  1.
         12    1    5    5    0    0 -0.28656671976E+02  0.59322051005E+02 -0.10877368816E+03  0.12716928018E+03  0.00000000000E+00 0. -1.
        -11    1    3    3    0    0  0.29662599738E+02 -0.14014970154E+02 -0.15656034633E+02  0.36351074703E+02  0.00000000000E+00 0.  1.
         12    1    3    3    0    0 -0.54575197203E+02 -0.45557676048E+02 -0.20761781010E+02  0.74060823297E+02  0.00000000000E+00 0. -1.
          5    1    4    4  501    0 -0.42820013921E+02  0.93099929948E+01  0.14941168501E+02  0.46535557136E+02  0.47000000000E+01 0. -1.
         -5    1    4    4    0  501  0.68676389490E+02  0.19280507953E+02 -0.55282423430E+02  0.90368251065E+02  0.47000000000E+01 0. -1.
          1    1    1    2  502    0  0.31095144418E+02  0.30229320359E+02  0.23744410689E+03  0.24137196132E+03  0.00000000000E+00 0. -1.
          1    1    1    2  503    0 -0.16898721292E+02 -0.36939193852E+02 -0.17859240777E+04  0.17863859835E+04  0.00000000000E+00 0. -1.
<mgrwt>
<rscale>  0 0.41854917E+02</rscale>
<asrwt>0</asrwt>
<pdfrwt beam="1">  1        2 0.50039157E-01 0.43126248E+02</pdfrwt>
<pdfrwt beam="2">  1        2 0.30802472E+00 0.40621064E+02</pdfrwt>
<totfact> 0.14109925E+02</totfact>
</mgrwt>
</event>
<event>
13    1  0.1675423E-008  0.4470171E+02  0.7546771E-02  0.1528751E+00
          2   -1    0    0  503    0  0.00000000000E+00  0.00000000000E+00  0.38880197963E+04  0.38880197963E+04  0.00000000000E+00 0. -1.
          2   -1    0    0  502    0 -0.00000000000E+00 -0.00000000000E+00 -0.25280109028E+04  0.25280109028E+04  0.00000000000E+00 0. -1.
         24    2    1    2    0    0 -0.11040195050E+04  0.10739485847E+04  0.24471388778E+04  0.28924240076E+04  0.73507296706E+02 0.  0.
         25    2    1    2    0    0  0.54067705042E+03  0.33228647040E+03 -0.21648357667E+03  0.68208241146E+03  0.12500122318E+03 0.  0.
         24    2    1    2    0    0  0.62894127111E+03 -0.14420459517E+04 -0.11525966149E+04  0.19519062704E+04  0.79971761051E+02 0.  0.
        -11    1    5    5    0    0  0.36551416594E+03 -0.73858368943E+03 -0.60761469976E+03  0.10238662487E+04  0.00000000000E+00 0.  1.
         12    1    5    5    0    0  0.26342710517E+03 -0.70346226223E+03 -0.54498191518E+03  0.92804002176E+03  0.00000000000E+00 0. -1.
        -13    1    3    3    0    0 -0.53054873348E+03  0.50469992571E+03  0.10963763616E+04  0.13184252349E+04  0.00000000000E+00 0.  1.
         14    1    3    3    0    0 -0.57347077155E+03  0.56924865896E+03  0.13507625161E+04  0.15739987727E+04  0.00000000000E+00 0. -1.
          5    1    4    4  501    0  0.49010664959E+03  0.27500417844E+03 -0.22432940898E+03  0.60512610245E+03  0.47000000000E+01 0. -1.
         -5    1    4    4    0  501  0.50570400824E+02  0.57282291955E+02  0.78458323119E+01  0.76956309006E+02  0.47000000000E+01 0. -1.
          1    1    1    2  502    0 -0.23690745989E+02  0.20288226862E+02 -0.30217760795E+03  0.30378309753E+03  0.00000000000E+00 0. -1.
          1    1    1    2  503    0 -0.41908070506E+02  0.15522669732E+02  0.58412781527E+03  0.58583491209E+03  0.00000000000E+00 0. -1.
<mgrwt>
<rscale>  0 0.37340065E+02</rscale>
<asrwt>0</asrwt>
<pdfrwt beam="1">  1        2 0.57176762E+00 0.44701713E+02</pdfrwt>
<pdfrwt beam="2">  1        2 0.37176631E+00 0.31190761E+02</pdfrwt>
<totfact> 0.96532833E-01</totfact>
</mgrwt>
</event>
<event>
13    1  0.1675423E-008  0.8813842E+02  0.7546771E-02  0.1356949E+00
          2   -1    0    0  502    0  0.00000000000E+00  0.00000000000E+00  0.20336344077E+04  0.20336344077E+04  0.00000000000E+00 0. -1.
          2   -1    0    0  503    0 -0.00000000000E+00 -0.00000000000E+00 -0.98788869607E+03  0.98788869607E+03  0.00000000000E+00 0. -1.
         24    2    1    2    0    0  0.63755015933E+02  0.26482191508E+02  0.19880945806E+03  0.22540415877E+03  0.80720664361E+02 0.  0.
         25    2    1    2    0    0 -0.83983835647E+02  0.55937278427E+01 -0.29301053881E+03  0.32949204888E+03  0.12500103991E+03 0.  0.
         24    2    1    2    0    0 -0.28239272209E+02 -0.56421743354E+02  0.24380501992E+03  0.26441364503E+03  0.80578026286E+02 0.  0.
        -13    1    5    5    0    0  0.15028675967E+02 -0.54290705445E+02  0.16685293568E+03  0.17610577488E+03  0.00000000000E+00 0.  1.
         14    1    5    5    0    0 -0.43267948176E+02 -0.21310379087E+01  0.76952084241E+02  0.88307870153E+02  0.00000000000E+00 0. -1.
        -13    1    3    3    0    0  0.55648272674E+02 -0.90580946325E+01  0.16949515972E+03  0.17862639363E+03  0.00000000000E+00 0.  1.
         14    1    3    3    0    0  0.81067432592E+01  0.35540286141E+02  0.29314298331E+02  0.46777765144E+02  0.00000000000E+00 0. -1.
          5    1    4    4  501    0 -0.14316826895E+02 -0.10240752427E+02 -0.23928628318E+03  0.23997887378E+03  0.47000000000E+01 0. -1.
         -5    1    4    4    0  501 -0.69667008752E+02  0.15834480269E+02 -0.53724255638E+02  0.89513175107E+02  0.47000000000E+01 0. -1.
          1    1    1    2  502    0  0.86388063147E+02 -0.18326234368E+02  0.15466679851E+04  0.15491870785E+04  0.00000000000E+00 0. -1.
          1    1    1    2  503    0 -0.37919971224E+02  0.42672058371E+02 -0.65052621258E+03  0.65302617255E+03  0.00000000000E+00 0. -1.
<mgrwt>
<rscale>  0 0.70932950E+02</rscale>
<asrwt>0</asrwt>
<pdfrwt beam="1">  1        2 0.29906388E+00 0.88138421E+02</pdfrwt>
<pdfrwt beam="2">  1        2 0.14527775E+00 0.57086152E+02</pdfrwt>
<totfact> 0.42710715E+01</totfact>
</mgrwt>
</event>
<event>
13    1  0.1675423E-008  0.1094200E+03  0.7546771E-02  0.1368907E+00
          2   -1    0    0  503    0  0.00000000000E+00  0.00000000000E+00  0.16658495901E+03  0.16658495901E+03  0.00000000000E+00 0. -1.
          2   -1    0    0  502    0 -0.00000000000E+00 -0.00000000000E+00 -0.13610507000E+04  0.13610507000E+04  0.00000000000E+00 0. -1.
         24    2    1    2    0    0 -0.23475098796E+02  0.11366466831E+03 -0.15584823281E+03  0.20840382948E+03  0.75317643248E+02 0.  0.
         25    2    1    2    0    0 -0.80219356462E+02 -0.69431742790E+01 -0.38267954352E+03  0.41055109190E+03  0.12500085285E+03 0.  0.
         24    2    1    2    0    0  0.66047688812E+02 -0.20256817971E+02 -0.17316313617E+03  0.20253751553E+03  0.79141250923E+02 0.  0.
        -11    1    5    5    0    0  0.61326301470E+02 -0.12710094471E+02 -0.18046513067E+03  0.19102388631E+03  0.00000000000E+00 0.  1.
         12    1    5    5    0    0  0.47213873422E+01 -0.75467235003E+01  0.73019945038E+01  0.11513629218E+02  0.00000000000E+00 0. -1.
        -13    1    3    3    0    0  0.18900154348E+02  0.35369525096E+01 -0.32069879093E+02  0.37392552901E+02  0.00000000000E+00 0.  1.
         14    1    3    3    0    0 -0.42375253144E+02  0.11012771580E+03 -0.12377835372E+03  0.17101127657E+03  0.00000000000E+00 0. -1.
          5    1    4    4  501    0 -0.30552866361E+02 -0.43754634821E+02 -0.31185567142E+03  0.31642375939E+03  0.47000000000E+01 0.  1.
         -5    1    4    4    0  501 -0.49666490102E+02  0.36811460542E+02 -0.70823872096E+02  0.94127332507E+02  0.47000000000E+01 0.  1.
          1    1    1    2  502    0  0.34213271047E+02  0.23674046441E+02 -0.56632887891E+03  0.56785509374E+03  0.00000000000E+00 0. -1.
          1    1    1    2  503    0  0.34334953987E+01 -0.11013872250E+03  0.83554050466E+02  0.13828812832E+03  0.00000000000E+00 0. -1.
<mgrwt>
<rscale>  0 0.67471924E+02</rscale>
<asrwt>0</asrwt>
<pdfrwt beam="1">  1        2 0.24497788E-01 0.10941997E+03</pdfrwt>
<pdfrwt beam="2">  1        2 0.20015451E+00 0.41605389E+02</pdfrwt>
<totfact> 0.66560124E+02</totfact>
</mgrwt>
</event>
<event>
13    1  0.1675423E-008  0.1284115E+03  0.7546771E-02  0.1283938E+00
          2   -1    0    0  503    0  0.00000000000E+00  0.00000000000E+00  0.34941487061E+03  0.34941487061E+03  0.00000000000E+00 0. -1.
          2   -1    0    0  502    0 -0.00000000000E+00 -0.00000000000E+00 -0.26573863012E+04  0.26573863012E+04  0.00000000000E+00 0. -1.
         24    2    1    2    0    0  0.33826437582E+02  0.18285954339E+03  0.42556414568E+02  0.20746451959E+03  0.81539180629E+02 0.  0.
         25    2    1    2    0    0  0.13979910183E+03 -0.63039925218E+02 -0.86665097539E+03  0.88894708917E+03  0.12500077259E+03 0.  0.
         24    2    1    2    0    0 -0.28767899640E+03 -0.16375024973E+03 -0.61704915676E+03  0.70452164896E+03  0.77638539067E+02 0.  0.
        -11    1    3    3    0    0 -0.13581701112E+02  0.27498210818E+02  0.32550497285E+02  0.44723026248E+02  0.00000000000E+00 0.  1.
         12    1    3    3    0    0  0.47408138694E+02  0.15536133257E+03  0.10005917284E+02  0.16274149334E+03  0.00000000000E+00 0. -1.
        -13    1    5    5    0    0  0.12515295875E+01 -0.74536744228E+00  0.18289976013E+01  0.23381897181E+01  0.00000000000E+00 0.  1.
         14    1    5    5    0    0 -0.28893052599E+03 -0.16300488229E+03 -0.61887815436E+03  0.70218345925E+03  0.00000000000E+00 0. -1.
          5    1    4    4  501    0  0.10349179348E+03 -0.41961267222E+02 -0.29068632898E+03  0.31143527597E+03  0.47000000000E+01 0.  1.
         -5    1    4    4    0  501  0.36307308345E+02 -0.21078657996E+02 -0.57596464641E+03  0.57751181319E+03  0.47000000000E+01 0.  1.
          1    1    1    2  502    0  0.41662436002E+02 -0.62641174386E+02 -0.10102676417E+04  0.10130648464E+04  0.00000000000E+00 0. -1.
          1    1    1    2  503    0  0.72391020989E+02  0.10657180594E+03  0.14343992869E+03  0.19280306762E+03  0.00000000000E+00 0. -1.
<mgrwt>
<rscale>  0 0.98287842E+02</rscale>
<asrwt>0</asrwt>
<pdfrwt beam="1">  1        2 0.51384539E-01 0.12841148E+03</pdfrwt>
<pdfrwt beam="2">  1        2 0.39079211E+00 0.75230814E+02</pdfrwt>
<totfact> 0.68388697E+01</totfact>
</mgrwt>
</event>
<event>
13    1  0.1675423E-008  0.1133537E+03  0.7546771E-02  0.1333765E+00
          2   -1    0    0  503    0  0.00000000000E+00  0.00000000000E+00  0.98689801593E+03  0.98689801593E+03  0.00000000000E+00 0. -1.
          2   -1    0    0  502    0 -0.00000000000E+00 -0.00000000000E+00 -0.38481098808E+03  0.38481098808E+03  0.00000000000E+00 0. -1.
         24    2    1    2    0    0  0.73896483576E+02  0.55783907448E+01  0.12918341988E+03  0.16920156804E+03  0.80305702951E+02 0.  0.
         25    2    1    2    0    0  0.41679919265E+02  0.47683915962E+02 -0.15498009313E+03  0.20893512988E+03  0.12499635082E+03 0.  0.
         24    2    1    2    0    0  0.93520633662E+01  0.10197622994E+02  0.81914919077E+02  0.11501906464E+03  0.79547964523E+02 0.  0.
        -13    1    3    3    0    0  0.77664457710E+01 -0.13471682605E+02  0.87224679879E+02  0.88599936186E+02  0.00000000000E+00 0.  1.
         14    1    3    3    0    0  0.66130037805E+02  0.19050073350E+02  0.41958739999E+02  0.80601631851E+02  0.00000000000E+00 0. -1.
        -13    1    5    5    0    0 -0.41278181661E+01  0.72877665867E+00  0.94310205109E+02  0.94403309189E+02  0.00000000000E+00 0.  1.
         14    1    5    5    0    0  0.13479881532E+02  0.94688463353E+01 -0.12395286032E+02  0.20615755452E+02  0.00000000000E+00 0. -1.
          5    1    4    4  501    0  0.60278648962E+02 -0.90732112366E+01 -0.25456566249E+02  0.66226621898E+02  0.47000000000E+01 0.  1.
         -5    1    4    4    0  501 -0.18598729698E+02  0.56757127199E+02 -0.12952352688E+03  0.14270850798E+03  0.47000000000E+01 0.  1.
          1    1    1    2  502    0  0.50496378918E+02 -0.19614874249E+02 -0.14999785099E+03  0.15948035263E+03  0.00000000000E+00 0. -1.
          1    1    1    2  503    0 -0.17542484512E+03 -0.43845055452E+02  0.69596663301E+03  0.71907288882E+03  0.00000000000E+00 0. -1.
<mgrwt>
<rscale>  0 0.78362119E+02</rscale>
<asrwt>0</asrwt>
<pdfrwt beam="1">  1        2 0.14513206E+00 0.11335374E+03</pdfrwt>
<pdfrwt beam="2">  1        2 0.56589851E-01 0.54172203E+02</pdfrwt>
<totfact> 0.40458999E+02</totfact>
</mgrwt>
</event>
<event>
13    1  0.1675423E-008  0.9096358E+02  0.7546771E-02  0.1354944E+00
          2   -1    0    0  503    0  0.00000000000E+00  0.00000000000E+00  0.21603726202E+03  0.21603726202E+03  0.00000000000E+00 0. -1.
          2   -1    0    0  502    0 -0.00000000000E+00 -0.00000000000E+00 -0.42370972978E+04  0.42370972978E+04  0.00000000000E+00 0. -1.
         24    2    1    2    0    0  0.70143982277E+01 -0.12051101104E+03  0.19407508052E+02  0.14701437629E+03  0.81636204621E+02 0.  0.
         25    2    1    2    0    0  0.72439670919E+02  0.40523372819E+02 -0.38238227365E+03  0.41077854522E+03  0.12503263711E+03 0.  0.
         24    2    1    2    0    0  0.84514367341E+02  0.92186155381E+01 -0.22625174220E+04  0.22654579156E+04  0.78018082916E+02 0.  0.
        -13    1    3    3    0    0  0.97582282024E+01  0.71654494127E+01 -0.10303928130E+02  0.15897723669E+02  0.00000000000E+00 0.  1.
         14    1    3    3    0    0 -0.27438299747E+01 -0.12767646045E+03  0.29711436182E+02  0.13111665262E+03  0.00000000000E+00 0. -1.
        -13    1    5    5    0    0  0.54485492141E+02 -0.14728224207E+02 -0.63943216562E+03  0.64191828442E+03  0.00000000000E+00 0.  1.
         14    1    5    5    0    0  0.30028875200E+02  0.23946839745E+02 -0.16230852564E+04  0.16235396312E+04  0.00000000000E+00 0. -1.
          5    1    4    4  501    0 -0.70775617953E+01  0.13218950861E+01  0.71961998841E+01  0.11212251351E+02  0.47000000000E+01 0.  1.
         -5    1    4    4    0  501  0.79517232714E+02  0.39201477733E+02 -0.38957847354E+03  0.39956629387E+03  0.47000000000E+01 0.  1.
          1    1    1    2  502    0 -0.12325268192E+03  0.31945421222E+02 -0.15031216551E+04  0.15085047045E+04  0.00000000000E+00 0. -1.
          1    1    1    2  503    0 -0.40715754568E+02  0.38823601457E+02  0.10755380686E+03  0.12137901825E+03  0.00000000000E+00 0. -1.
<mgrwt>
<rscale>  0 0.71536674E+02</rscale>
<asrwt>0</asrwt>
<pdfrwt beam="1">  1        2 0.31770189E-01 0.56258730E+02</pdfrwt>
<pdfrwt beam="2">  1        2 0.62310247E+00 0.90963585E+02</pdfrwt>
<totfact> 0.12744017E+01</totfact>
</mgrwt>
</event>
<event>
13    1  0.1675423E-008  0.7564342E+02  0.7546771E-02  0.1424699E+00
          4   -1    0    0  503    0 -0.00000000000E+00  0.00000000000E+00  0.46163306473E+03  0.46163306473E+03  0.00000000000E+00 0. -1.
          2   -1    0    0  502    0  0.00000000000E+00 -0.00000000000E+00 -0.10018648572E+04  0.10018648572E+04  0.00000000000E+00 0. -1.
         24    2    1    2    0    0  0.13530809944E+03 -0.36681051739E+02 -0.21403866126E+03  0.26630545709E+03  0.73839465278E+02 0.  0.
         25    2    1    2    0    0 -0.75816515803E+02 -0.36583720800E+02  0.87343956333E+00  0.15070758334E+03  0.12500200032E+03 0.  0.
         24    2    1    2    0    0 -0.15614328633E+03  0.70228097992E+02 -0.42478821609E+03  0.46537053229E+03  0.82534793788E+02 0.  0.
        -13    1    5    5    0    0 -0.10708958300E+03  0.65732979264E+01 -0.27867557450E+03  0.29861591192E+03  0.00000000000E+00 0.  1.
         14    1    5    5    0    0 -0.49053703332E+02  0.63654800066E+02 -0.14611264159E+03  0.16675462037E+03  0.00000000000E+00 0. -1.
        -13    1    3    3    0    0  0.21303163022E+02 -0.17505164175E+02 -0.10070859687E+03  0.10441492715E+03  0.00000000000E+00 0.  1.
         14    1    3    3    0    0  0.11400493641E+03 -0.19175887564E+02 -0.11333006439E+03  0.16189052994E+03  0.00000000000E+00 0. -1.
          5    1    4    4  501    0 -0.30239481073E+02  0.43422799817E+02  0.19607207650E+02  0.56625951218E+02  0.47000000000E+01 0.  1.
         -5    1    4    4    0  501 -0.45577034730E+02 -0.80006520616E+02 -0.18733768086E+02  0.94081632121E+02  0.47000000000E+01 0.  1.
          1    1    1    2  502    0  0.25637538574E+02  0.28862678654E+02 -0.23590212904E+03  0.23904006377E+03  0.00000000000E+00 0. -1.
          3    1    1    2  503    0  0.71014164124E+02 -0.25826004107E+02  0.33362377431E+03  0.34207428547E+03  0.00000000000E+00 0. -1.
<mgrwt>
<rscale>  0 0.54038929E+02</rscale>
<asrwt>0</asrwt>
<pdfrwt beam="2">  1        2 0.14733307E+00 0.38604891E+02</pdfrwt>
<pdfrwt beam="1">  1        4 0.67887216E-01 0.75643415E+02</pdfrwt>
<totfact> 0.31134633E+01</totfact>
</mgrwt>
</event>
<event>
13    1  0.1675423E-008  0.6399480E+02  0.7546771E-02  0.1391610E+00
          2   -1    0    0  503    0  0.00000000000E+00  0.00000000000E+00  0.21349885150E+04  0.21349885150E+04  0.00000000000E+00 0. -1.
          2   -1    0    0  502    0 -0.00000000000E+00 -0.00000000000E+00 -0.23090506449E+04  0.23090506449E+04  0.00000000000E+00 0. -1.
         24    2    1    2    0    0  0.39090627527E+02  0.81822400903E+01  0.10010255444E+04  0.10048439403E+04  0.77872828882E+02 0.  0.
         25    2    1    2    0    0 -0.30000723092E+02  0.45006014727E+02 -0.31700376471E+03  0.34502216154E+03  0.12499328127E+03 0.  0.
         24    2    1    2    0    0 -0.23082595483E+02 -0.95208739863E+02 -0.62155766626E+03  0.63446789465E+03  0.81351499684E+02 0.  0.
        -11    1    3    3    0    0  0.62665971863E+02  0.88310972043E+01  0.78024687251E+03  0.78280916856E+03  0.00000000000E+00 0.  1.
         12    1    3    3    0    0 -0.23575344336E+02 -0.64885711395E+00  0.22077867193E+03  0.22203477173E+03  0.00000000000E+00 0. -1.
        -11    1    5    5    0    0  0.26049679255E+02 -0.37726534224E+02 -0.14886056363E+03  0.15576053601E+03  0.00000000000E+00 0.  1.
         12    1    5    5    0    0 -0.49132274739E+02 -0.57482205639E+02 -0.47269710263E+03  0.47870735865E+03  0.00000000000E+00 0. -1.
          5    1    4    4  501    0  0.51185982112E+01 -0.21762141089E+02 -0.22406362575E+03  0.22522519668E+03  0.47000000000E+01 0. -1.
         -5    1    4    4    0  501 -0.35119321303E+02  0.66768155816E+02 -0.92940138959E+02  0.11979696486E+03  0.47000000000E+01 0. -1.
          1    1    1    2  502    0 -0.45021113396E+02  0.45525994705E+02 -0.13465684723E+04  0.13480898217E+04  0.00000000000E+00 0. -1.
          1    1    1    2  503    0  0.59013804445E+02 -0.35055096595E+01  0.11100422289E+04  0.11116153416E+04  0.00000000000E+00 0. -1.
<mgrwt>
<rscale>  0 0.61507999E+02</rscale>
<asrwt>0</asrwt>
<pdfrwt beam="1">  1        2 0.31396890E+00 0.59117829E+02</pdfrwt>
<pdfrwt beam="2">  1        2 0.33956627E+00 0.63994805E+02</pdfrwt>
<totfact> 0.89449407E+00</totfact>
</mgrwt>
</event>
<event>
13    1  0.1675423E-008  0.1273794E+03  0.7546771E-02  0.1261124E+00
          2   -1    0    0  503    0  0.00000000000E+00  0.00000000000E+00  0.45648580690E+04  0.45648580690E+04  0.00000000000E+00 0. -1.
          2   -1    0    0  502    0 -0.00000000000E+00 -0.00000000000E+00 -0.41130729194E+03  0.41130729194E+03  0.00000000000E+00 0. -1.
         24    2    1    2    0    0  0.23114998256E+01 -0.25184822527E+02  0.31564153972E+03  0.32665590403E+03  0.80217702052E+02 0.  0.
         25    2    1    2    0    0  0.29367714928E+02 -0.24843184285E+03  0.12987650328E+03  0.30834049724E+03  0.12500045166E+03 0.  0.
         24    2    1    2    0    0 -0.50116473408E+02  0.45978334627E+02 -0.20602772205E+02  0.10680774563E+03  0.79735513676E+02 0.  0.
        -11    1    3    3    0    0  0.40985300645E+02 -0.11114522545E+02  0.17788096566E+03  0.18287964737E+03  0.00000000000E+00 0.  1.
         12    1    3    3    0    0 -0.38673800820E+02 -0.14070299982E+02  0.13776057406E+03  0.14377625666E+03  0.00000000000E+00 0. -1.
        -11    1    5    5    0    0  0.18457401049E+02 -0.43132168343E+01  0.12819339824E+01  0.18997969568E+02  0.00000000000E+00 0.  1.
         12    1    5    5    0    0 -0.68573874458E+02  0.50291551461E+02 -0.21884706187E+02  0.87809776058E+02  0.00000000000E+00 0. -1.
          5    1    4    4  501    0 -0.27536646546E+02 -0.36696095592E+02 -0.11357815624E+02  0.47496950538E+02  0.47000000000E+01 0. -1.
         -5    1    4    4    0  501  0.56904361474E+02 -0.21173574726E+03  0.14123431890E+03  0.26084354670E+03  0.47000000000E+01 0. -1.
          1    1    1    2  502    0  0.36443093035E+02  0.10005211571E+03 -0.24056073084E+03  0.26307411524E+03  0.00000000000E+00 0. -1.
          1    1    1    2  503    0 -0.18005834380E+02  0.12758621504E+03  0.39691962371E+04  0.39712870988E+04  0.00000000000E+00 0. -1.
<mgrwt>
<rscale>  0 0.10970123E+03</rscale>
<asrwt>0</asrwt>
<pdfrwt beam="1">  1        2 0.67130263E+00 0.94476514E+02</pdfrwt>
<pdfrwt beam="2">  1        2 0.60486369E-01 0.12737938E+03</pdfrwt>
<totfact> 0.36494334E+00</totfact>
</mgrwt>
</event>
<event>
13    1  0.1675423E-008  0.2349542E+03  0.7546771E-02  0.1235918E+00
          2   -1    0    0  503    0  0.00000000000E+00  0.00000000000E+00  0.17988690278E+04  0.17988690278E+04  0.00000000000E+00 0. -1.
          2   -1    0    0  502    0 -0.00000000000E+00 -0.00000000000E+00 -0.30403298393E+04  0.30403298393E+04  0.00000000000E+00 0. -1.
         24    2    1    2    0    0  0.23102531850E+03 -0.17286076393E+02  0.42413447588E+03  0.48933726221E+03  0.76742402446E+02 0.  0.
         25    2    1    2    0    0 -0.77200633927E+02 -0.25909252495E+03 -0.11435569866E+04  0.11817095768E+04  0.12500427199E+03 0.  0.
         24    2    1    2    0    0  0.29613624644E+03  0.12561813133E+03  0.14473011459E+02  0.33211263284E+03  0.81318764454E+02 0.  0.
        -11    1    3    3    0    0  0.70455926745E+02 -0.28623295059E+02  0.19507452264E+03  0.20937382840E+03  0.00000000000E+00 0.  1.
         12    1    3    3    0    0  0.16056939175E+03  0.11337218666E+02  0.22905995323E+03  0.27996343381E+03  0.00000000000E+00 0. -1.
        -13    1    5    5    0    0  0.24355526217E+02  0.12312576627E+02 -0.22469515126E+02  0.35350676238E+02  0.00000000000E+00 0.  1.
         14    1    5    5    0    0  0.27178072023E+03  0.11330555471E+03  0.36942526585E+02  0.29676195660E+03  0.00000000000E+00 0. -1.
          5    1    4    4  501    0  0.66088307026E+01 -0.10223531668E+03 -0.62803549323E+03  0.63635399534E+03  0.47000000000E+01 0.  1.
         -5    1    4    4    0  501 -0.83809464629E+02 -0.15685720826E+03 -0.51552149337E+03  0.54535558150E+03  0.47000000000E+01 0.  1.
          1    1    1    2  502    0 -0.44727338280E+02  0.48434339159E+02 -0.16476115517E+04  0.16489300305E+04  0.00000000000E+00 0. -1.
          1    1    1    2  503    0 -0.40523359273E+03  0.10232613084E+03  0.11111002395E+04  0.11871093648E+04  0.00000000000E+00 0. -1.
<mgrwt>
<rscale>  0 0.12445849E+03</rscale>
<asrwt>0</asrwt>
<pdfrwt beam="1">  1        2 0.26453956E+00 0.23495419E+03</pdfrwt>
<pdfrwt beam="2">  1        2 0.44710733E+00 0.65927384E+02</pdfrwt>
<totfact> 0.48650567E+00</totfact>
</mgrwt>
</event>
<event>
13    1  0.1675423E-008  0.1125596E+03  0.7546771E-02  0.1335316E+00
          2   -1    0    0  503    0  0.00000000000E+00  0.00000000000E+00  0.83661528128E+03  0.83661528128E+03  0.00000000000E+00 0. -1.
         -3   -1    0    0    0  501 -0.00000000000E+00 -0.00000000000E+00 -0.54989451271E+03  0.54989451271E+03  0.00000000000E+00 0.  1.
         24    2    1    2    0    0  0.55434426929E+02 -0.54146111288E+02  0.15788257773E+03  0.19490328799E+03  0.83997656282E+02 0.  0.
         25    2    1    2    0    0 -0.15762673313E+02  0.15583099572E+03  0.14247139768E+03  0.24587505968E+03  0.12499873887E+03 0.  0.
         24    2    1    2    0    0 -0.27573434467E+02  0.33112635549E+02 -0.53779271459E+02  0.10622500730E+03  0.80838117341E+02 0.  0.
        -13    1    5    5    0    0 -0.37164614888E+02 -0.11235991044E+02 -0.45989764709E+02  0.60187328837E+02  0.00000000000E+00 0.  1.
         14    1    5    5    0    0  0.95911804211E+01  0.44348626593E+02 -0.77895067501E+01  0.46037678460E+02  0.00000000000E+00 0. -1.
        -13    1    3    3    0    0 -0.13750147455E+02  0.77107998207E+01  0.50857116719E+02  0.53244429848E+02  0.00000000000E+00 0.  1.
         14    1    3    3    0    0  0.69184574384E+02 -0.61856911108E+02  0.10702546101E+03  0.14165885814E+03  0.00000000000E+00 0. -1.
          5    1    4    4  502    0 -0.60150859719E+02  0.77136018276E+02  0.31872682043E+02  0.10298567425E+03  0.47000000000E+01 0. -1.
         -5    1    4    4    0  502  0.44388186406E+02  0.78694977441E+02  0.11059871564E+03  0.14288938543E+03  0.47000000000E+01 0. -1.
          1    1    1    2  503    0 -0.47903621875E+02  0.24532936970E+02  0.42136188251E+03  0.42478519044E+03  0.00000000000E+00 0. -1.
         -4    1    1    2    0  501  0.35805302726E+02 -0.15933045695E+03 -0.38121581789E+03  0.41472124858E+03  0.00000000000E+00 0.  1.
<mgrwt>
<rscale>  0 0.77833098E+02</rscale>
<asrwt>0</asrwt>
<pdfrwt beam="1">  1        2 0.12303166E+00 0.53820275E+02</pdfrwt>
<pdfrwt beam="2">  1       -3 0.80866840E-01 0.11255965E+03</pdfrwt>
<totfact> 0.33513641E+01</totfact>
</mgrwt>
</event>
<event>
13    1  0.1675423E-008  0.1016883E+03  0.7546771E-02  0.1383927E+00
          2   -1    0    0  502    0  0.00000000000E+00  0.00000000000E+00  0.63831379948E+03  0.63831379948E+03  0.00000000000E+00 0. -1.
          2   -1    0    0  503    0 -0.00000000000E+00 -0.00000000000E+00 -0.93996169619E+03  0.93996169619E+03  0.00000000000E+00 0. -1.
         24    2    1    2    0    0 -0.10288063778E+03 -0.33632037796E+02  0.25750707795E+03  0.29058486960E+03  0.80088274105E+02 0.  0.
         25    2    1    2    0    0  0.10735208032E+03 -0.19794781033E+02  0.69903113926E+02  0.18007488228E+03  0.12499686150E+03 0.  0.
         24    2    1    2    0    0  0.60057805305E+02  0.37548158208E+02 -0.25984589895E+03  0.28101242520E+03  0.80195310051E+02 0.  0.
        -11    1    3    3    0    0 -0.37082473328E+02 -0.18692874256E+02  0.19236891878E+03  0.19680023955E+03  0.00000000000E+00 0.  1.
         12    1    3    3    0    0 -0.65798164456E+02 -0.14939163540E+02  0.65138159174E+02  0.93784630050E+02  0.00000000000E+00 0. -1.
        -11    1    5    5    0    0  0.53317959457E+02  0.61156338656E+02 -0.17919243392E+03  0.19670493368E+03  0.00000000000E+00 0.  1.
         12    1    5    5    0    0  0.67398458485E+01 -0.23608180448E+02 -0.80653465024E+02  0.84307491521E+02  0.00000000000E+00 0. -1.
          5    1    4    4  501    0  0.64067642093E+02  0.88624379678E+01  0.10052132750E+03  0.11962371359E+03  0.47000000000E+01 0. -1.
         -5    1    4    4    0  501  0.43284438223E+02 -0.28657219001E+02 -0.30618213576E+02  0.60451168688E+02  0.47000000000E+01 0. -1.
          1    1    1    2  502    0  0.27339809914E+02 -0.28622051826E+02  0.22257985078E+03  0.22607184042E+03  0.00000000000E+00 0. -1.
          1    1    1    2  503    0 -0.91869057751E+02  0.44500712448E+02 -0.59179204042E+03  0.60053147818E+03  0.00000000000E+00 0. -1.
<mgrwt>
<rscale>  0 0.63442598E+02</rscale>
<asrwt>0</asrwt>
<pdfrwt beam="1">  1        2 0.93869676E-01 0.39581398E+02</pdfrwt>
<pdfrwt beam="2">  1        2 0.13822966E+00 0.10168825E+03</pdfrwt>
<totfact> 0.25611954E+02</totfact>
</mgrwt>
</event>
<event>
13    1  0.1675423E-008  0.5168526E+02  0.7546771E-02  0.1443138E+00
          2   -1    0    0  503    0  0.00000000000E+00  0.00000000000E+00  0.12292426633E+04  0.12292426633E+04  0.00000000000E+00 0. -1.
          2   -1    0    0  502    0 -0.00000000000E+00 -0.00000000000E+00 -0.29565337235E+04  0.29565337235E+04  0.00000000000E+00 0. -1.
         24    2    1    2    0    0  0.87580809170E+02 -0.92401899854E+02  0.18766782827E+03  0.24136859765E+03  0.82650329289E+02 0.  0.
         25    2    1    2    0    0  0.13425104888E+03  0.42555112715E+02 -0.85524975517E+03  0.87573604237E+03  0.12500876149E+03 0.  0.
         24    2    1    2    0    0 -0.16282865170E+03  0.92064835498E+02 -0.18443838821E+03  0.27470186923E+03  0.80339866598E+02 0.  0.
        -11    1    5    5    0    0 -0.22844207589E+02  0.48867520684E+02 -0.72327027744E+02  0.90227996434E+02  0.00000000000E+00 0.  1.
         12    1    5    5    0    0 -0.13998444411E+03  0.43197314814E+02 -0.11211136046E+03  0.18447387280E+03  0.00000000000E+00 0. -1.
        -13    1    3    3    0    0  0.28376670440E+02 -0.63841575624E+02  0.41900091531E+02  0.81465329275E+02  0.00000000000E+00 0.  1.
         14    1    3    3    0    0  0.59204138730E+02 -0.28560324229E+02  0.14576773673E+03  0.15990326837E+03  0.00000000000E+00 0. -1.
          5    1    4    4  501    0  0.68617113156E+02  0.81802210345E+02 -0.39740827650E+03  0.41152805259E+03  0.47000000000E+01 0. -1.
         -5    1    4    4    0  501  0.65633935720E+02 -0.39247097630E+02 -0.45784147867E+03  0.46420798979E+03  0.47000000000E+01 0. -1.
          1    1    1    2  502    0 -0.48448920013E+02  0.83770433337E+01 -0.18335944117E+04  0.18342535101E+04  0.00000000000E+00 0. -1.
          1    1    1    2  503    0 -0.10554286337E+02 -0.50595091693E+02  0.95832366651E+03  0.95971636750E+03  0.00000000000E+00 0. -1.
<mgrwt>
<rscale>  0 0.50410817E+02</rscale>
<asrwt>0</asrwt>
<pdfrwt beam="1">  1        2 0.18077098E+00 0.51685257E+02</pdfrwt>
<pdfrwt beam="2">  1        2 0.43478436E+00 0.49167802E+02</pdfrwt>
<totfact> 0.12205039E+01</totfact>
</mgrwt>
</event>
<event>
13    1  0.1675423E-008  0.2060051E+03  0.7546771E-02  0.1247781E+00
          2   -1    0    0  502    0  0.00000000000E+00  0.00000000000E+00  0.23501126671E+04  0.23501126671E+04  0.00000000000E+00 0. -1.
          2   -1    0    0  503    0 -0.00000000000E+00 -0.00000000000E+00 -0.69100930253E+03  0.69100930253E+03  0.00000000000E+00 0. -1.
         24    2    1    2    0    0  0.91165765568E+02 -0.20538362211E+02  0.31674938465E+03  0.34038121825E+03  0.82438946680E+02 0.  0.
         25    2    1    2    0    0 -0.19999988189E+03 -0.29860658603E+03  0.31997737330E+02  0.38185753551E+03  0.12500190500E+03 0.  0.
         24    2    1    2    0    0 -0.13092584831E+03  0.21499998014E+03  0.88446543251E+03  0.92329260138E+03  0.82604825722E+02 0.  0.
        -11    1    5    5    0    0 -0.13392611366E+03  0.22078524328E+03  0.85667226999E+03  0.89474560951E+03  0.00000000000E+00 0.  1.
         12    1    5    5    0    0  0.30002653454E+01 -0.57852631353E+01  0.27793162520E+02  0.28546991865E+02  0.00000000000E+00 0. -1.
        -13    1    3    3    0    0  0.59672289630E+02 -0.52691159279E+02  0.20346692175E+03  0.21848553421E+03  0.00000000000E+00 0.  1.
         14    1    3    3    0    0  0.31493475938E+02  0.32152797068E+02  0.11328246290E+03  0.12189568404E+03  0.00000000000E+00 0. -1.
          5    1    4    4  501    0 -0.57071091602E+02 -0.18063541311E+03  0.48899961588E+02  0.19570272919E+03  0.47000000000E+01 0.  1.
         -5    1    4    4    0  501 -0.14292879029E+03 -0.11797117292E+03 -0.16902224258E+02  0.18615480632E+03  0.47000000000E+01 0.  1.
          1    1    1    2  502    0  0.43565043899E+02  0.50484296411E+02  0.88810329722E+03  0.89060319097E+03  0.00000000000E+00 0. -1.
          1    1    1    2  503    0  0.19619492074E+03  0.53660671693E+02 -0.46221248716E+03  0.50498742350E+03  0.00000000000E+00 0. -1.
<mgrwt>
<rscale>  0 0.11720481E+03</rscale>
<asrwt>0</asrwt>
<pdfrwt beam="1">  1        2 0.34560480E+00 0.66682661E+02</pdfrwt>
<pdfrwt beam="2">  1        2 0.10161902E+00 0.20600509E+03</pdfrwt>
<totfact> 0.46040463E+01</totfact>
</mgrwt>
</event>
<event>
13    1  0.1675423E-008  0.1033721E+03  0.7546771E-02  0.1415503E+00
         -1   -1    0    0    0  501 -0.00000000000E+00  0.00000000000E+00  0.22706043320E+03  0.22706043320E+03  0.00000000000E+00 0.  1.
          2   -1    0    0  503    0  0.00000000000E+00 -0.00000000000E+00 -0.22483432860E+04  0.22483432860E+04  0.00000000000E+00 0. -1.
         24    2    1    2    0    0  0.41832339896E+02  0.13383198401E+03 -0.15016302076E+04  0.15103944611E+04  0.82080467758E+02 0.  0.
         25    2    1    2    0    0 -0.80695317653E+02 -0.34570765682E+02  0.70421303688E+02  0.16819579945E+03  0.12499517914E+03 0.  0.
         24    2    1    2    0    0 -0.63128344925E+02 -0.14729122414E+02 -0.20268309085E+03  0.22683378281E+03  0.78555679149E+02 0.  0.
        -11    1    5    5    0    0 -0.94810072192E+01  0.29941723833E+02 -0.51690823173E+02  0.60484192350E+02  0.00000000000E+00 0.  1.
         12    1    5    5    0    0 -0.53647337706E+02 -0.44670846246E+02 -0.15099226768E+03  0.16634959046E+03  0.00000000000E+00 0. -1.
        -13    1    3    3    0    0 -0.95299294549E+01  0.68675032260E+02 -0.42963297840E+03  0.43519142425E+03  0.00000000000E+00 0.  1.
         14    1    3    3    0    0  0.51362269351E+02  0.65156951745E+02 -0.10719972292E+04  0.10752030369E+04  0.00000000000E+00 0. -1.
          5    1    4    4  502    0 -0.62844504869E+02  0.11941941815E+02 -0.17979644158E+02  0.66613807658E+02  0.47000000000E+01 0.  1.
         -5    1    4    4    0  502 -0.17850812784E+02 -0.46512707497E+02  0.88400947846E+02  0.10158199179E+03  0.47000000000E+01 0.  1.
          1    1    1    2  503    0  0.10068629361E+03 -0.54240738915E+02 -0.46909292539E+03  0.48283326328E+03  0.00000000000E+00 0. -1.
         -2    1    1    2    0  501  0.13050290678E+01 -0.30291356996E+02  0.81702067357E+02  0.87146412547E+02  0.00000000000E+00 0.  1.
<mgrwt>
<rscale>  0 0.55983802E+02</rscale>
<asrwt>0</asrwt>
<pdfrwt beam="2">  1        2 0.33063870E+00 0.10337211E+03</pdfrwt>
<pdfrwt beam="1">  1       -1 0.33391242E-01 0.30319456E+02</pdfrwt>
<totfact> 0.65225254E+01</totfact>
</mgrwt>
</event>
<event>
13    1  0.1675423E-008  0.4227408E+03  0.7546771E-02  0.1218858E+00
          4   -1    0    0  503    0 -0.00000000000E+00  0.00000000000E+00  0.46855672982E+03  0.46855672982E+03  0.00000000000E+00 0. -1.
          2   -1    0    0  502    0  0.00000000000E+00 -0.00000000000E+00 -0.31353661025E+04  0.31353661025E+04  0.00000000000E+00 0. -1.
         24    2    1    2    0    0  0.39795445174E+03 -0.35896178612E+03 -0.11415728656E+04  0.12638332518E+04  0.82852709619E+02 0.  0.
         25    2    1    2    0    0  0.11886598964E+03  0.32114463298E+03 -0.55520494117E+02  0.36874855026E+03  0.12501987547E+03 0.  0.
         24    2    1    2    0    0 -0.72106112403E+02  0.13294681249E+03 -0.17841297807E+03  0.24742876936E+03  0.80719630609E+02 0.  0.
        -11    1    3    3    0    0  0.73452342562E+02 -0.10976099280E+03 -0.31395388853E+03  0.34060206443E+03  0.00000000000E+00 0.  1.
         12    1    3    3    0    0  0.32450210917E+03 -0.24920079332E+03 -0.82761897702E+03  0.92323118739E+03  0.00000000000E+00 0. -1.
        -13    1    5    5    0    0  0.10826554483E+02  0.57390051354E+02 -0.72983071466E+02  0.93473851943E+02  0.00000000000E+00 0.  1.
         14    1    5    5    0    0 -0.82932666886E+02  0.75556761140E+02 -0.10542990660E+03  0.15395491741E+03  0.00000000000E+00 0. -1.
          5    1    4    4  501    0 -0.62484112850E+01  0.15587859973E+03 -0.94850498269E+01  0.15636251682E+03  0.47000000000E+01 0. -1.
         -5    1    4    4    0  501  0.12511440093E+03  0.16526603325E+03 -0.46035444290E+02  0.21238603343E+03  0.47000000000E+01 0. -1.
          1    1    1    2  502    0 -0.40114807777E+03 -0.98940878061E+02 -0.14767078894E+04  0.15334194691E+04  0.00000000000E+00 0. -1.
          3    1    1    2  503    0 -0.43566251209E+02  0.38112187102E+01  0.18540485449E+03  0.19049279173E+03  0.00000000000E+00 0. -1.
<mgrwt>
<rscale>  0 0.13596901E+03</rscale>
<asrwt>0</asrwt>
<pdfrwt beam="2">  1        2 0.46108326E+00 0.42274080E+03</pdfrwt>
<pdfrwt beam="1">  1        4 0.68905400E-01 0.43732638E+02</pdfrwt>
<totfact> 0.18525595E+00</totfact>
</mgrwt>
</event>
<event>
13    1  0.1675423E-008  0.2086331E+03  0.7546771E-02  0.1319266E+00
          2   -1    0    0  503    0  0.00000000000E+00  0.00000000000E+00  0.20966517009E+04  0.20966517009E+04  0.00000000000E+00 0. -1.
          2   -1    0    0  502    0 -0.00000000000E+00 -0.00000000000E+00 -0.25485488883E+04  0.25485488883E+04  0.00000000000E+00 0. -1.
         24    2    1    2    0    0 -0.21523154088E+03  0.30262580816E+03  0.52473986651E+03  0.64786428838E+03  0.80431416142E+02 0.  0.
         25    2    1    2    0    0  0.40857639825E+03 -0.33888979391E+03  0.40149831611E+02  0.54682360750E+03  0.12499233223E+03 0.  0.
         24    2    1    2    0    0 -0.25180844741E+02 -0.78206762628E+02  0.54078628844E+01  0.11948854781E+03  0.86590388695E+02 0.  0.
        -11    1    3    3    0    0 -0.95924163789E+02  0.17583662593E+03  0.22505730365E+03  0.30128185167E+03  0.00000000000E+00 0.  1.
         12    1    3    3    0    0 -0.11930737709E+03  0.12678918223E+03  0.29968256285E+03  0.34658243671E+03  0.00000000000E+00 0. -1.
        -11    1    5    5    0    0  0.20581766636E+02 -0.50716517721E+01 -0.20419687280E+02  0.29432879542E+02  0.00000000000E+00 0.  1.
         12    1    5    5    0    0 -0.45762611377E+02 -0.73135110856E+02  0.25827550164E+02  0.90055668269E+02  0.00000000000E+00 0. -1.
          5    1    4    4  501    0  0.20862882606E+03 -0.20671310191E+03 -0.34466675657E+02  0.29574707994E+03  0.47000000000E+01 0. -1.
         -5    1    4    4    0  501  0.19994757219E+03 -0.13217669200E+03  0.74616507268E+02  0.25107652755E+03  0.47000000000E+01 0. -1.
          1    1    1    2  502    0  0.21291260570E+02  0.25811455436E+02 -0.21670039210E+04  0.21672622229E+04  0.00000000000E+00 0. -1.
          1    1    1    2  503    0 -0.18945527320E+03  0.88659292933E+02  0.11448091726E+04  0.11637619226E+04  0.00000000000E+00 0. -1.
<mgrwt>
<rscale>  0 0.83551137E+02</rscale>
<asrwt>0</asrwt>
<pdfrwt beam="1">  1        2 0.30833114E+00 0.20863308E+03</pdfrwt>
<pdfrwt beam="2">  1        2 0.37478660E+00 0.33459662E+02</pdfrwt>
<totfact> 0.68533977E+00</totfact>
</mgrwt>
</event>
<event>
13    1  0.1675423E-008  0.7002100E+02  0.7546771E-02  0.1431230E+00
          2   -1    0    0  502    0  0.00000000000E+00  0.00000000000E+00  0.73890268619E+02  0.73890268619E+02  0.00000000000E+00 0. -1.
          2   -1    0    0  503    0 -0.00000000000E+00 -0.00000000000E+00 -0.31583420276E+04  0.31583420276E+04  0.00000000000E+00 0. -1.
         24    2    1    2    0    0  0.73301902985E+02 -0.31116987901E+02 -0.83882808439E+02  0.14241857606E+03  0.83098070606E+02 0.  0.
         25    2    1    2    0    0 -0.60854515448E+02  0.28431129300E+02 -0.59507699665E+03  0.61176182285E+03  0.12499717912E+03 0.  0.
         24    2    1    2    0    0 -0.32230702583E+02 -0.25200861569E+02 -0.10295050621E+04  0.10334735163E+04  0.80702754425E+02 0.  0.
        -11    1    3    3    0    0  0.16415682710E+02 -0.44946053527E+02 -0.65383251885E+02  0.81022169766E+02  0.00000000000E+00 0.  1.
         12    1    3    3    0    0  0.56886220275E+02  0.13829065626E+02 -0.18499556554E+02  0.61396406295E+02  0.00000000000E+00 0. -1.
        -11    1    5    5    0    0 -0.61943638691E+01 -0.22634601374E+02 -0.74464873847E+02  0.78075045694E+02  0.00000000000E+00 0.  1.
         12    1    5    5    0    0 -0.26036338714E+02 -0.25662601953E+01 -0.95504018821E+03  0.95539847065E+03  0.00000000000E+00 0. -1.
          5    1    4    4  501    0 -0.82387117640E+02  0.60874060619E+02 -0.41822948612E+03  0.43061732602E+03  0.47000000000E+01 0. -1.
         -5    1    4    4    0  501  0.21532602192E+02 -0.32442931319E+02 -0.17684751053E+03  0.18114449683E+03  0.47000000000E+01 0. -1.
          1    1    1    2  502    0 -0.17009376086E+01 -0.39648134558E+02  0.21609224289E+02  0.45186572530E+02  0.00000000000E+00 0. -1.
          1    1    1    2  503    0  0.21484252656E+02  0.67534854728E+02 -0.13975961161E+04  0.13993918084E+04  0.00000000000E+00 0. -1.
<mgrwt>
<rscale>  0 0.52713902E+02</rscale>
<asrwt>0</asrwt>
<pdfrwt beam="1">  1        2 0.10866214E-01 0.39684604E+02</pdfrwt>
<pdfrwt beam="2">  1        2 0.46446214E+00 0.70020997E+02</pdfrwt>
<totfact> 0.19979024E+02</totfact>
</mgrwt>
</event>
<event>
13    1  0.1675423E-008  0.1123664E+03  0.7546771E-02  0.1309849E+00
          2   -1    0    0  502    0  0.00000000000E+00  0.00000000000E+00  0.16964239933E+04  0.16964239933E+04  0.00000000000E+00 0. -1.
          2   -1    0    0  503    0 -0.00000000000E+00 -0.00000000000E+00 -0.19804398227E+04  0.19804398227E+04  0.00000000000E+00 0. -1.
         24    2    1    2    0    0 -0.54521560414E+02 -0.57792210288E+02  0.43291711485E+03  0.44734139128E+03  0.79903391081E+02 0.  0.
         25    2    1    2    0    0 -0.56657530798E+02  0.14999048598E+02 -0.90444011941E+02  0.16504330182E+03  0.12499649965E+03 0.  0.
         24    2    1    2    0    0  0.24320107342E+02 -0.47171898438E+01  0.28397031353E+03  0.29461919831E+03  0.74482303592E+02 0.  0.
        -13    1    3    3    0    0  0.17358142842E+02 -0.25981871563E+02  0.17297667303E+03  0.17577625603E+03  0.00000000000E+00 0.  1.
         14    1    3    3    0    0 -0.71879703256E+02 -0.31810338725E+02  0.25994044182E+03  0.27156513525E+03  0.00000000000E+00 0. -1.
        -13    1    5    5    0    0  0.47249583530E+02  0.12969122715E+02  0.16132197003E+03  0.16859863375E+03  0.00000000000E+00 0.  1.
         14    1    5    5    0    0 -0.22929476188E+02 -0.17686312559E+02  0.12264834350E+03  0.12602056456E+03  0.00000000000E+00 0. -1.
          5    1    4    4  501    0 -0.80999188632E+01  0.10001974515E+02  0.31097003430E+02  0.33981786329E+02  0.47000000000E+01 0. -1.
         -5    1    4    4    0  501 -0.48557611935E+02  0.49970740828E+01 -0.12154101537E+03  0.13106151549E+03  0.47000000000E+01 0. -1.
          1    1    1    2  502    0  0.15318634721E+03  0.34318981948E+02  0.92244549585E+03  0.93570804331E+03  0.00000000000E+00 0. -1.
          1    1    1    2  503    0 -0.66327363339E+02  0.13191369586E+02 -0.18329047417E+04  0.18341518812E+04  0.00000000000E+00 0. -1.
<mgrwt>
<rscale>  0 0.87171858E+02</rscale>
<asrwt>0</asrwt>
<pdfrwt beam="1">  1        2 0.24947412E+00 0.11236635E+03</pdfrwt>
<pdfrwt beam="2">  1        2 0.29124115E+00 0.67626410E+02</pdfrwt>
<totfact> 0.19305458E+01</totfact>
</mgrwt>
</event>
<event>
13    1  0.1675423E-008  0.1373671E+03  0.7546771E-02  0.1325953E+00
          2   -1    0    0  503    0  0.00000000000E+00  0.00000000000E+00  0.17639256677E+04  0.17639256677E+04  0.00000000000E+00 0. -1.
          2   -1    0    0  502    0 -0.00000000000E+00 -0.00000000000E+00 -0.10317486231E+04  0.10317486231E+04  0.00000000000E+00 0. -1.
         24    2    1    2    0    0 -0.31218295047E+03 -0.66876291689E+02  0.27780985923E+03  0.43017697146E+03  0.77092645126E+02 0.  0.
         25    2    1    2    0    0  0.27175884955E+03  0.18254953630E+03 -0.32509478275E+03  0.47800547218E+03  0.12500163259E+03 0.  0.
         24    2    1    2    0    0 -0.35247864563E+02 -0.66151564961E+02  0.46087931032E+03  0.47390573089E+03  0.80984329224E+02 0.  0.
        -11    1    5    5    0    0 -0.44504435648E+02 -0.53722624381E+01  0.13412620149E+03  0.14141903663E+03  0.00000000000E+00 0.  1.
         12    1    5    5    0    0  0.92565710854E+01 -0.60779302523E+02  0.32675310883E+03  0.33248669425E+03  0.00000000000E+00 0. -1.
        -13    1    3    3    0    0  0.30992261480E+01 -0.65944426652E+01  0.82964586748E+01  0.11041879520E+02  0.00000000000E+00 0.  1.
         14    1    3    3    0    0 -0.31528217662E+03 -0.60281849023E+02  0.26951340056E+03  0.41913509194E+03  0.00000000000E+00 0. -1.
          5    1    4    4  501    0  0.42217732368E+02  0.80986866084E+02 -0.13520455067E+03  0.16322858183E+03  0.47000000000E+01 0. -1.
         -5    1    4    4    0  501  0.22954111718E+03  0.10156267021E+03 -0.18989023208E+03  0.31477689035E+03  0.47000000000E+01 0. -1.
          1    1    1    2  502    0  0.11250301245E+03 -0.80119823831E+02 -0.53811199963E+03  0.55555435209E+03  0.00000000000E+00 0. -1.
          1    1    1    2  503    0 -0.36831046970E+02  0.30598144183E+02  0.85669465734E+03  0.85803176419E+03  0.00000000000E+00 0. -1.
<mgrwt>
<rscale>  0 0.81102017E+02</rscale>
<asrwt>0</asrwt>
<pdfrwt beam="1">  1        2 0.25940084E+00 0.47882904E+02</pdfrwt>
<pdfrwt beam="2">  1        2 0.15172774E+00 0.13736713E+03</pdfrwt>
<totfact> 0.55146902E+01</totfact>
</mgrwt>
</event>
<event>
13    1  0.1675423E-008  0.4527852E+02  0.7546771E-02  0.1488509E+00
          2   -1    0    0  503    0  0.00000000000E+00  0.00000000000E+00  0.26724675989E+04  0.26724675989E+04  0.00000000000E+00 0. -1.
          2   -1    0    0  502    0 -0.00000000000E+00 -0.00000000000E+00 -0.12865634748E+04  0.12865634748E+04  0.00000000000E+00 0. -1.
         24    2    1    2    0    0 -0.12838654924E+02 -0.90851983468E+02  0.54162929549E+02  0.13389751564E+03  0.81092587801E+02 0.  0.
         25    2    1    2    0    0 -0.10808301142E+03  0.11125803440E+03 -0.73118103738E+03  0.75783212295E+03  0.12499411816E+03 0.  0.
         24    2    1    2    0    0  0.53062621299E+02  0.92850735846E+01  0.83106326859E+02  0.12804557174E+03  0.81161274687E+02 0.  0.
        -11    1    3    3    0    0 -0.30535148676E+02 -0.88011019838E+02  0.64405941298E+02  0.11325396325E+03  0.00000000000E+00 0.  1.
         12    1    3    3    0    0  0.17696493752E+02 -0.28409636301E+01 -0.10243011749E+02  0.20643552387E+02  0.00000000000E+00 0. -1.
        -13    1    5    5    0    0  0.52768089714E+02 -0.20091830394E+02  0.22665571613E+02  0.60843085698E+02  0.00000000000E+00 0.  1.
         14    1    5    5    0    0  0.29453158446E+00  0.29376903978E+02  0.60440755246E+02  0.67202486047E+02  0.00000000000E+00 0. -1.
          5    1    4    4  501    0 -0.79719930333E+02  0.40939710520E+02 -0.17681498751E+03  0.19828503977E+03  0.47000000000E+01 0.  1.
         -5    1    4    4    0  501 -0.28363081083E+02  0.70318323882E+02 -0.55436604987E+03  0.55954708317E+03  0.47000000000E+01 0.  1.
          1    1    1    2  502    0  0.40022928668E+02  0.60136426896E+01 -0.47865757338E+03  0.48036556004E+03  0.00000000000E+00 0. -1.
          1    1    1    2  503    0  0.27836116372E+02 -0.35704767208E+02  0.24584734784E+04  0.24588903033E+04  0.00000000000E+00 0. -1.
<mgrwt>
<rscale>  0 0.42807957E+02</rscale>
<asrwt>0</asrwt>
<pdfrwt beam="1">  1        2 0.39300994E+00 0.45278520E+02</pdfrwt>
<pdfrwt beam="2">  1        2 0.18920051E+00 0.40472197E+02</pdfrwt>
<totfact> 0.16331002E+01</totfact>
</mgrwt>
</event>
<event>
13    1  0.1675423E-008  0.5163821E+02  0.7546771E-02  0.1440441E+00
          2   -1    0    0  502    0  0.00000000000E+00  0.00000000000E+00  0.79439974021E+03  0.79439974021E+03  0.00000000000E+00 0. -1.
          2   -1    0    0  503    0 -0.00000000000E+00 -0.00000000000E+00 -0.51637590666E+03  0.51637590666E+03  0.00000000000E+00 0. -1.
         24    2    1    2    0    0  0.17550213969E+03 -0.10726609814E+03  0.12376276869E+03  0.25327231677E+03  0.80762780321E+02 0.  0.
         25    2    1    2    0    0 -0.70550700549E+02 -0.43031932219E+02 -0.17511117613E+03  0.23047222751E+03  0.12499750041E+03 0.  0.
         24    2    1    2    0    0 -0.10823124005E+02  0.11334318323E+03  0.11443802676E+03  0.18070380621E+03  0.81203364535E+02 0.  0.
        -11    1    5    5    0    0 -0.26029244767E+02  0.83590203514E+02  0.34568520847E+02  0.94126650531E+02  0.00000000000E+00 0.  1.
         12    1    5    5    0    0  0.15206120763E+02  0.29752979719E+02  0.79869505914E+02  0.86577155681E+02  0.00000000000E+00 0. -1.
        -13    1    3    3    0    0  0.18596220255E+02 -0.26115270006E+02 -0.78229471718E+01  0.33000382387E+02  0.00000000000E+00 0.  1.
         14    1    3    3    0    0  0.15690591944E+03 -0.81150828133E+02  0.13158571586E+03  0.22027193439E+03  0.00000000000E+00 0. -1.
          5    1    4    4  501    0 -0.44479593496E+02 -0.45218825490E+02 -0.18975041948E+03  0.20012618047E+03  0.47000000000E+01 0. -1.
         -5    1    4    4    0  501 -0.26071107054E+02  0.21868932710E+01  0.14639243349E+02  0.30346047041E+02  0.47000000000E+01 0. -1.
          1    1    1    2  502    0 -0.48047592649E+02  0.14583330530E+02  0.42609443719E+03  0.42904278819E+03  0.00000000000E+00 0. -1.
          1    1    1    2  503    0 -0.46080722488E+02  0.22371516596E+02 -0.21116022296E+03  0.21728450819E+03  0.00000000000E+00 0. -1.
<mgrwt>
<rscale>  0 0.50920109E+02</rscale>
<asrwt>0</asrwt>
<pdfrwt beam="1">  1        2 0.11682349E+00 0.50211997E+02</pdfrwt>
<pdfrwt beam="2">  1        2 0.75937633E-01 0.51638206E+02</pdfrwt>
<totfact> 0.40372977E+02</totfact>
</mgrwt>
</event>
<event>
13    1  0.1675423E-008  0.7422342E+02  0.7546771E-02  0.1400766E+00
          2   -1    0    0  503    0  0.00000000000E+00  0.00000000000E+00  0.23957411383E+04  0.23957411383E+04  0.00000000000E+00 0. -1.
          2   -1    0    0  502    0 -0.00000000000E+00 -0.00000000000E+00 -0.13526049601E+04  0.13526049601E+04  0.00000000000E+00 0. -1.
         24    2    1    2    0    0  0.49575900875E+02 -0.37538856470E+03  0.15920049470E+04  0.16384209169E+04  0.81049400655E+02 0.  0.
         25    2    1    2    0    0 -0.14491511376E+01  0.47063496413E+03 -0.41724530764E+03  0.64126084505E+03  0.12498982017E+03 0.  0.
         24    2    1    2    0    0 -0.99342491035E+02 -0.28288909650E+02 -0.20341131846E+02  0.13355311625E+03  0.82179561212E+02 0.  0.
        -11    1    5    5    0    0 -0.20563281524E+02 -0.33151827115E+02  0.21157510113E+02  0.44379414398E+02  0.00000000000E+00 0.  1.
         12    1    5    5    0    0 -0.78779209511E+02  0.48629174652E+01 -0.41498641959E+02  0.89173701851E+02  0.00000000000E+00 0. -1.
        -13    1    3    3    0    0 -0.10465245675E+02 -0.54664594541E+02  0.34359260452E+03  0.34807128170E+03  0.00000000000E+00 0.  1.
         14    1    3    3    0    0  0.60041146551E+02 -0.32072397015E+03  0.12484123424E+04  0.12903496352E+04  0.00000000000E+00 0. -1.
          5    1    4    4  501    0 -0.38735118185E+01  0.21494712694E+03 -0.27342838455E+03  0.34785405410E+03  0.47000000000E+01 0.  1.
         -5    1    4    4    0  501  0.24243606809E+01  0.25568783719E+03 -0.14381692309E+03  0.29340679096E+03  0.47000000000E+01 0.  1.
          1    1    1    2  502    0  0.70371582889E+02 -0.23614556129E+02 -0.72036937829E+03  0.72418357349E+03  0.00000000000E+00 0. -1.
          1    1    1    2  503    0 -0.19155841591E+02 -0.43342933657E+02  0.60908704909E+03  0.61092764672E+03  0.00000000000E+00 0. -1.
<mgrwt>
<rscale>  0 0.59306387E+02</rscale>
<asrwt>0</asrwt>
<pdfrwt beam="1">  1        2 0.35231487E+00 0.47387300E+02</pdfrwt>
<pdfrwt beam="2">  1        2 0.19891249E+00 0.74223422E+02</pdfrwt>
<totfact> 0.19585612E+01</totfact>
</mgrwt>
</event>
<event>
13    1  0.1675423E-008  0.1300286E+03  0.7546771E-02  0.1279473E+00
          2   -1    0    0  503    0  0.00000000000E+00  0.00000000000E+00  0.23223430154E+03  0.23223430154E+03  0.00000000000E+00 0. -1.
          2   -1    0    0  502    0 -0.00000000000E+00 -0.00000000000E+00 -0.24028990293E+04  0.24028990293E+04  0.00000000000E+00 0. -1.
         24    2    1    2    0    0 -0.19362800288E+02 -0.93369452740E+02  0.33205289137E+02  0.12923489275E+03  0.80661598900E+02 0.  0.
         25    2    1    2    0    0  0.31286247147E+02 -0.19870112772E+02 -0.14948726727E+04  0.15005472869E+04  0.12499680759E+03 0.  0.
         24    2    1    2    0    0  0.44610234931E+02  0.29862213051E+01 -0.19960983018E+03  0.21881046429E+03  0.77684904567E+02 0.  0.
        -13    1    3    3    0    0  0.17346531326E+02  0.19289015015E+01  0.19540946753E+02  0.26200599422E+02  0.00000000000E+00 0.  1.
         14    1    3    3    0    0 -0.36709331613E+02 -0.95298354241E+02  0.13664342384E+02  0.10303429333E+03  0.00000000000E+00 0. -1.
        -13    1    5    5    0    0  0.19118672814E+02 -0.29610425411E+02 -0.37340613436E+02  0.51348051131E+02  0.00000000000E+00 0.  1.
         14    1    5    5    0    0  0.25491562117E+02  0.32596646716E+02 -0.16226921675E+03  0.16746241315E+03  0.00000000000E+00 0. -1.
          5    1    4    4  501    0 -0.21620050307E+02 -0.53533136465E+02 -0.10029930663E+04  0.10046643242E+04  0.47000000000E+01 0.  1.
         -5    1    4    4    0  501  0.52906297455E+02  0.33663023694E+02 -0.49187960640E+03  0.49588296267E+03  0.47000000000E+01 0.  1.
          1    1    1    2  502    0  0.23867625634E+02 -0.73744659176E+02 -0.57120732489E+03  0.57644231830E+03  0.00000000000E+00 0. -1.
          1    1    1    2  503    0 -0.80401307425E+02  0.18399800338E+03  0.61819810892E+02  0.21009836863E+03  0.00000000000E+00 0. -1.
<mgrwt>
<rscale>  0 0.10039239E+03</rscale>
<asrwt>0</asrwt>
<pdfrwt beam="1">  1        2 0.34152104E-01 0.13002860E+03</pdfrwt>
<pdfrwt beam="2">  1        2 0.35336749E+00 0.77510892E+02</pdfrwt>
<totfact> 0.14031715E+02</totfact>
</mgrwt>
</event>
<event>
13    1  0.1675423E-008  0.5017083E+02  0.7546771E-02  0.1524555E+00
          2   -1    0    0  502    0  0.00000000000E+00  0.00000000000E+00  0.23354494858E+04  0.23354494858E+04  0.00000000000E+00 0. -1.
          2   -1    0    0  503    0 -0.00000000000E+00 -0.00000000000E+00 -0.69233784798E+03  0.69233784798E+03  0.00000000000E+00 0. -1.
         24    2    1    2    0    0  0.33458344442E+01  0.78020849094E+02  0.14147581014E+04  0.14192158813E+04  0.80838015693E+02 0.  0.
         25    2    1    2    0    0  0.49075544577E+02 -0.93318165559E+02  0.47603774891E+03  0.50334234825E+03  0.12499956823E+03 0.  0.
         24    2    1    2    0    0 -0.66818504620E+02 -0.62084635521E+02  0.20495682691E+03  0.23789358877E+03  0.79163401603E+02 0.  0.
        -11    1    3    3    0    0  0.40232184613E+02  0.34657478827E+02  0.82855696327E+03  0.83025683430E+03  0.00000000000E+00 0.  1.
         12    1    3    3    0    0 -0.36886350169E+02  0.43363370266E+02  0.58620113813E+03  0.58895904701E+03  0.00000000000E+00 0. -1.
        -13    1    5    5    0    0  0.37322503584E+01  0.15445990578E+02  0.29514793235E+02  0.33520610636E+02  0.00000000000E+00 0.  1.
         14    1    5    5    0    0 -0.70550754979E+02 -0.77530626099E+02  0.17544203367E+03  0.20437297813E+03  0.00000000000E+00 0. -1.
          5    1    4    4  501    0 -0.21319848578E+02 -0.90021861106E+02  0.25571585899E+03  0.27197639964E+03  0.47000000000E+01 0.  1.
         -5    1    4    4    0  501  0.70395393155E+02 -0.32963044532E+01  0.22032188992E+03  0.23136594862E+03  0.47000000000E+01 0.  1.
          1    1    1    2  502    0  0.61094368496E+01  0.27913343267E+02  0.20540383757E+03  0.20738181318E+03  0.00000000000E+00 0. -1.
          1    1    1    2  503    0  0.82876887493E+01  0.49468608720E+02 -0.65804487697E+03  0.65995370227E+03  0.00000000000E+00 0. -1.
<mgrwt>
<rscale>  0 0.37862740E+02</rscale>
<asrwt>0</asrwt>
<pdfrwt beam="1">  1        2 0.34344845E+00 0.28574113E+02</pdfrwt>
<pdfrwt beam="2">  1        2 0.10181439E+00 0.50170834E+02</pdfrwt>
<totfact> 0.54382526E+01</totfact>
</mgrwt>
</event>
<event>
13    1  0.1675423E-008  0.9514788E+02  0.7546771E-02  0.1396403E+00
          2   -1    0    0  503    0  0.00000000000E+00  0.00000000000E+00  0.97879665824E+03  0.97879665824E+03  0.00000000000E+00 0. -1.
          2   -1    0    0  502    0 -0.00000000000E+00 -0.00000000000E+00 -0.38981257087E+04  0.38981257087E+04  0.00000000000E+00 0. -1.
         24    2    1    2    0    0 -0.47172998273E+02  0.11259263528E+02  0.41991757530E+03  0.43079489828E+03  0.83074734785E+02 0.  0.
         25    2    1    2    0    0  0.12284088934E+03  0.16683666159E+02 -0.29644526547E+03  0.34477584968E+03  0.12498944874E+03 0.  0.
         24    2    1    2    0    0  0.16216816169E+02  0.38352828854E+02 -0.23625280459E+02  0.93871734461E+02  0.80745427401E+02 0.  0.
        -11    1    5    5    0    0  0.39038986374E+02  0.41806308684E+02 -0.36095568116E+02  0.67636528152E+02  0.00000000000E+00 0.  1.
         12    1    5    5    0    0 -0.22822170205E+02 -0.34534798295E+01  0.12470287656E+02  0.26235206309E+02  0.00000000000E+00 0. -1.
        -13    1    3    3    0    0  0.14946551905E+02  0.23061123443E+02  0.69829505524E+02  0.75042485767E+02  0.00000000000E+00 0.  1.
         14    1    3    3    0    0 -0.62119550178E+02 -0.11801859915E+02  0.35008806977E+03  0.35575241251E+03  0.00000000000E+00 0. -1.
          5    1    4    4  501    0  0.44064946557E+02  0.65736061960E+02 -0.17271133989E+03  0.19003748652E+03  0.47000000000E+01 0. -1.
         -5    1    4    4    0  501  0.78775942781E+02 -0.49052395801E+02 -0.12373392557E+03  0.15473836316E+03  0.47000000000E+01 0. -1.
          1    1    1    2  502    0 -0.55289030814E+02 -0.77485520536E+02 -0.35119412344E+04  0.35132310081E+04  0.00000000000E+00 0. -1.
          1    1    1    2  503    0 -0.36595676420E+02  0.11189761994E+02  0.49276515453E+03  0.49424887640E+03  0.00000000000E+00 0. -1.
<mgrwt>
<rscale>  0 0.60341834E+02</rscale>
<asrwt>0</asrwt>
<pdfrwt beam="1">  1        2 0.14394068E+00 0.38268189E+02</pdfrwt>
<pdfrwt beam="2">  1        2 0.57325379E+00 0.95147876E+02</pdfrwt>
<totfact> 0.42905398E+00</totfact>
</mgrwt>
</event>
<event>
13    1  0.1675423E-008  0.2870886E+02  0.7546771E-02  0.1665661E+00
          2   -1    0    0  503    0  0.00000000000E+00  0.00000000000E+00  0.22100974618E+04  0.22100974618E+04  0.00000000000E+00 0. -1.
          2   -1    0    0  502    0 -0.00000000000E+00 -0.00000000000E+00 -0.10433942467E+04  0.10433942467E+04  0.00000000000E+00 0. -1.
         24    2    1    2    0    0  0.24073907504E+03 -0.21000920450E+03  0.88282678004E+03  0.94381482000E+03  0.96665002302E+02 0.  0.
         25    2    1    2    0    0 -0.44945766757E+03 -0.75364127956E+02 -0.21981646538E+03  0.52118950920E+03  0.12500911696E+03 0.  0.
         24    2    1    2    0    0  0.19147043418E+03  0.25209167605E+03 -0.30281316154E+03  0.44564528363E+03  0.81809337636E+02 0.  0.
        -11    1    5    5    0    0  0.42266239809E+02  0.84900137206E+02 -0.13812441719E+03  0.16754946418E+03  0.00000000000E+00 0.  1.
         12    1    5    5    0    0  0.14920419437E+03  0.16719153884E+03 -0.16468874435E+03  0.27809581945E+03  0.00000000000E+00 0. -1.
        -11    1    3    3    0    0  0.21883050783E+03 -0.13890102913E+03  0.67301364464E+03  0.72119876104E+03  0.00000000000E+00 0.  1.
         12    1    3    3    0    0  0.21908567212E+02 -0.71108175370E+02  0.20981313540E+03  0.22261605896E+03  0.00000000000E+00 0. -1.
          5    1    4    4  501    0 -0.19422113455E+03  0.42811159418E+01 -0.38506124261E+02  0.19810347969E+03  0.47000000000E+01 0. -1.
         -5    1    4    4    0  501 -0.25523653302E+03 -0.79645243897E+02 -0.18131034112E+03  0.32308602950E+03  0.47000000000E+01 0. -1.
          1    1    1    2  502    0 -0.80132874036E+01  0.19642545338E+02 -0.26755636441E+03  0.26839607020E+03  0.00000000000E+00 0. -1.
          1    1    1    2  503    0  0.25261445753E+02  0.13639111066E+02  0.10740624264E+04  0.10744460255E+04  0.00000000000E+00 0. -1.
<mgrwt>
<rscale>  0 0.24678644E+02</rscale>
<asrwt>0</asrwt>
<pdfrwt beam="1">  1        2 0.32501433E+00 0.28708856E+02</pdfrwt>
<pdfrwt beam="2">  1        2 0.15344033E+00 0.21214202E+02</pdfrwt>
<totfact> 0.39730349E+01</totfact>
</mgrwt>
</event>
<event>
13    1  0.1675423E-008  0.3033333E+03  0.7546771E-02  0.1209931E+00
          2   -1    0    0  503    0  0.00000000000E+00  0.00000000000E+00  0.31213142438E+04  0.31213142438E+04  0.00000000000E+00 0. -1.
          2   -1    0    0  502    0 -0.00000000000E+00 -0.00000000000E+00 -0.16294329602E+04  0.16294329602E+04  0.00000000000E+00 0. -1.
         24    2    1    2    0    0  0.68527870018E+02 -0.20832567665E+02  0.21012299480E+02  0.10868477990E+03  0.78998732949E+02 0.  0.
         25    2    1    2    0    0 -0.14888909925E+03  0.39050050815E+03 -0.13610232609E+03  0.45695618830E+03  0.12500601632E+03 0.  0.
         24    2    1    2    0    0  0.19762797339E+03 -0.45932338697E+02 -0.25671603448E+02  0.21973493649E+03  0.80360534390E+02 0.  0.
        -11    1    5    5    0    0  0.70762967951E+02  0.20926132260E+02 -0.18883384988E+02  0.76170091724E+02  0.00000000000E+00 0.  1.
         12    1    5    5    0    0  0.12686500544E+03 -0.66858470956E+02 -0.67882184605E+01  0.14356484477E+03  0.00000000000E+00 0. -1.
        -13    1    3    3    0    0  0.61729234943E+02  0.20241092069E+02  0.14231783110E+02  0.66503713470E+02  0.00000000000E+00 0.  1.
         14    1    3    3    0    0  0.67986350744E+01 -0.41073659734E+02  0.67805163703E+01  0.42181066429E+02  0.00000000000E+00 0. -1.
          5    1    4    4  501    0 -0.11065612840E+03  0.36347031127E+03 -0.88750054995E+02  0.39019752458E+03  0.47000000000E+01 0.  1.
         -5    1    4    4    0  501 -0.38232970849E+02  0.27030196879E+02 -0.47352271095E+02  0.66758663716E+02  0.47000000000E+01 0.  1.
          1    1    1    2  502    0  0.32184653378E+02 -0.58758536495E+02 -0.11571262119E+04  0.11590640568E+04  0.00000000000E+00 0. -1.
          1    1    1    2  503    0 -0.14945139753E+03 -0.26497706529E+03  0.27897691255E+04  0.28063072425E+04  0.00000000000E+00 0. -1.
<mgrwt>
<rscale>  0 0.14255530E+03</rscale>
<asrwt>0</asrwt>
<pdfrwt beam="1">  1        2 0.45901680E+00 0.30333332E+03</pdfrwt>
<pdfrwt beam="2">  1        2 0.23962249E+00 0.66995653E+02</pdfrwt>
<totfact> 0.47007156E+00</totfact>
</mgrwt>
</event>
<event>
13    1  0.1675423E-008  0.1300566E+03  0.7546771E-02  0.1296457E+00
          2   -1    0    0  503    0  0.00000000000E+00  0.00000000000E+00  0.23795416662E+04  0.23795416662E+04  0.00000000000E+00 0. -1.
          2   -1    0    0  502    0 -0.00000000000E+00 -0.00000000000E+00 -0.24484711122E+04  0.24484711122E+04  0.00000000000E+00 0. -1.
         24    2    1    2    0    0  0.91631906659E+02  0.10708125393E+03  0.61046749759E+03  0.63176666398E+03  0.81214228079E+02 0.  0.
         25    2    1    2    0    0  0.10776305771E+02  0.10735438980E+03 -0.35689247565E+03  0.39324059675E+03  0.12499933594E+03 0.  0.
         24    2    1    2    0    0 -0.49721053882E+02 -0.83911134966E+02  0.57126776387E+02  0.13796768219E+03  0.79109740094E+02 0.  0.
        -11    1    3    3    0    0 -0.12032114214E+02  0.28167371720E+02  0.15675040212E+03  0.15971493721E+03  0.00000000000E+00 0.  1.
         12    1    3    3    0    0  0.10366402087E+03  0.78913882207E+02  0.45371709547E+03  0.47205172678E+03  0.00000000000E+00 0. -1.
        -13    1    5    5    0    0  0.21003047286E+02 -0.12970513413E+02  0.17419938982E+02  0.30212853020E+02  0.00000000000E+00 0.  1.
         14    1    5    5    0    0 -0.70724101168E+02 -0.70940621553E+02  0.39706837405E+02  0.10775482917E+03  0.00000000000E+00 0. -1.
          5    1    4    4  501    0 -0.38806483318E+02  0.86435161642E+02 -0.30063470594E+03  0.31524640637E+03  0.47000000000E+01 0.  1.
         -5    1    4    4    0  501  0.49582789089E+02  0.20919228160E+02 -0.56257769708E+02  0.77994190381E+02  0.47000000000E+01 0.  1.
          1    1    1    2  502    0 -0.66043545890E+02 -0.16422935599E+01 -0.20192383959E+04  0.20203188230E+04  0.00000000000E+00 0. -1.
          1    1    1    2  503    0  0.13356387341E+02 -0.12888221520E+03  0.16396071516E+04  0.16447190125E+04  0.00000000000E+00 0. -1.
<mgrwt>
<rscale>  0 0.92693347E+02</rscale>
<asrwt>0</asrwt>
<pdfrwt beam="1">  1        2 0.34993260E+00 0.13005664E+03</pdfrwt>
<pdfrwt beam="2">  1        2 0.36006928E+00 0.66063962E+02</pdfrwt>
<totfact> 0.52912299E+00</totfact>
</mgrwt>
</event>
<event>
13    1  0.1675423E-008  0.7351301E+02  0.7546771E-02  0.1436080E+00
          2   -1    0    0  502    0  0.00000000000E+00  0.00000000000E+00  0.35865340169E+04  0.35865340169E+04  0.00000000000E+00 0. -1.
          2   -1    0    0  503    0 -0.00000000000E+00 -0.00000000000E+00 -0.15712947663E+04  0.15712947663E+04  0.00000000000E+00 0. -1.
         24    2    1    2    0    0  0.55193668686E+03  0.33593373072E+03  0.98794380170E+03  0.11831275945E+04  0.79198307333E+02 0.  0.
         25    2    1    2    0    0 -0.55679797174E+03  0.61464994849E+03  0.40342036067E+03  0.93068639319E+03  0.12494252501E+03 0.  0.
         24    2    1    2    0    0 -0.60087482317E+02 -0.89541805808E+03 -0.58262252838E+03  0.10723614036E+04  0.71595844953E+02 0.  0.
        -11    1    3    3    0    0  0.70613381481E+02  0.31724808445E+02  0.16672124178E+03  0.18381698936E+03  0.00000000000E+00 0.  1.
         12    1    3    3    0    0  0.48132330538E+03  0.30420892228E+03  0.82122255992E+03  0.99931060518E+03  0.00000000000E+00 0. -1.
        -11    1    5    5    0    0 -0.12554563140E+02 -0.56317831967E+03 -0.39319534484E+03  0.68697162678E+03  0.00000000000E+00 0.  1.
         12    1    5    5    0    0 -0.47532919178E+02 -0.33223973841E+03 -0.18942718354E+03  0.38538977679E+03  0.00000000000E+00 0. -1.
          5    1    4    4  501    0 -0.21479699334E+03  0.29499283138E+03  0.23039838891E+03  0.43158316293E+03  0.47000000000E+01 0.  1.
         -5    1    4    4    0  501 -0.34200097839E+03  0.31965711711E+03  0.17302197176E+03  0.49910323026E+03  0.47000000000E+01 0.  1.
          1    1    1    2  502    0  0.30450219152E+02 -0.66907150437E+02  0.15873551534E+04  0.15890563759E+04  0.00000000000E+00 0. -1.
          1    1    1    2  503    0  0.34498548038E+02  0.11741529302E+02 -0.38085753686E+03  0.38259701608E+03  0.00000000000E+00 0. -1.
<mgrwt>
<rscale>  0 0.51758621E+02</rscale>
<asrwt>0</asrwt>
<pdfrwt beam="1">  1        2 0.52743147E+00 0.73513007E+02</pdfrwt>
<pdfrwt beam="2">  1        2 0.23107276E+00 0.36441917E+02</pdfrwt>
<totfact> 0.35878414E+00</totfact>
</mgrwt>
</event>
<event>
13    1  0.1675423E-008  0.6731951E+02  0.7546771E-02  0.1438038E+00
          2   -1    0    0  503    0  0.00000000000E+00  0.00000000000E+00  0.23988487426E+04  0.23988487426E+04  0.00000000000E+00 0. -1.
          2   -1    0    0  502    0 -0.00000000000E+00 -0.00000000000E+00 -0.43892916440E+03  0.43892916440E+03  0.00000000000E+00 0. -1.
         24    2    1    2    0    0  0.35467869000E+01  0.92232295901E+01  0.52792866916E+03  0.53415559671E+03  0.80720964516E+02 0.  0.
         25    2    1    2    0    0  0.56236758667E+02 -0.21871147318E+02  0.50162511911E+03  0.52047439416E+03  0.12499965898E+03 0.  0.
         24    2    1    2    0    0 -0.20099412908E+02  0.37500803926E+01  0.37298310946E+02  0.90377874787E+02  0.79743004392E+02 0.  0.
        -11    1    5    5    0    0  0.15534015102E+02 -0.15930158274E+02  0.43826162929E+02  0.49150871049E+02  0.00000000000E+00 0.  1.
         12    1    5    5    0    0 -0.35633428010E+02  0.19680238666E+02 -0.65278519836E+01  0.41227003738E+02  0.00000000000E+00 0. -1.
        -11    1    3    3    0    0  0.28489696111E+02 -0.23094791192E+02  0.17029122599E+03  0.17419567679E+03  0.00000000000E+00 0.  1.
         12    1    3    3    0    0 -0.24942909211E+02  0.32318020782E+02  0.35763744318E+03  0.35995991992E+03  0.00000000000E+00 0. -1.
          5    1    4    4  501    0  0.63998925478E+02 -0.25534866811E+01  0.10369157012E+03  0.12196890781E+03  0.47000000000E+01 0. -1.
         -5    1    4    4    0  501 -0.77621668108E+01 -0.19317660637E+02  0.39793354899E+03  0.39850548636E+03  0.47000000000E+01 0. -1.
          1    1    1    2  502    0 -0.48125780059E+02  0.47192858031E+02 -0.39671057123E+03  0.40239599138E+03  0.00000000000E+00 0. -1.
          1    1    1    2  503    0  0.84416473998E+01 -0.38295020696E+02  0.12897780502E+04  0.12903740499E+04  0.00000000000E+00 0. -1.
<mgrwt>
<rscale>  0 0.51379908E+02</rscale>
<asrwt>0</asrwt>
<pdfrwt beam="1">  1        2 0.35277187E+00 0.39214411E+02</pdfrwt>
<pdfrwt beam="2">  1        2 0.64548408E-01 0.67319511E+02</pdfrwt>
<totfact> 0.78861355E+01</totfact>
</mgrwt>
</event>
<event>
13    1  0.1675423E-008  0.5711384E+02  0.7546771E-02  0.1548240E+00
          2   -1    0    0  502    0  0.00000000000E+00  0.00000000000E+00  0.21095431683E+04  0.21095431683E+04  0.00000000000E+00 0. -1.
          2   -1    0    0  503    0 -0.00000000000E+00 -0.00000000000E+00 -0.30243905043E+04  0.30243905043E+04  0.00000000000E+00 0. -1.
         24    2    1    2    0    0  0.23465323327E+03  0.84169958457E+03 -0.73460190864E+03  0.11446750473E+04  0.84384058019E+02 0.  0.
         25    2    1    2    0    0 -0.56992279833E+03 -0.92824653764E+03 -0.69689252379E+02  0.10986074554E+04  0.12501247332E+03 0.  0.
         24    2    1    2    0    0  0.36127602201E+03  0.42826607366E+02 -0.65426775648E+03  0.75277228807E+03  0.79027451808E+02 0.  0.
        -11    1    3    3    0    0  0.72186927853E+02  0.34501401117E+03 -0.34112663564E+03  0.49052319211E+03  0.00000000000E+00 0.  1.
         12    1    3    3    0    0  0.16246630542E+03  0.49668557340E+03 -0.39347527300E+03  0.65415185522E+03  0.00000000000E+00 0. -1.
        -13    1    5    5    0    0  0.23110600393E+03  0.27583530188E+02 -0.49130846025E+03  0.54364955560E+03  0.00000000000E+00 0.  1.
         14    1    5    5    0    0  0.13017001807E+03  0.15243077178E+02 -0.16295929623E+03  0.20912273247E+03  0.00000000000E+00 0. -1.
          5    1    4    4  501    0 -0.37466034236E+03 -0.68375124446E+03 -0.84083894560E+01  0.77973003498E+03  0.47000000000E+01 0.  1.
         -5    1    4    4    0  501 -0.19526245597E+03 -0.24449529319E+03 -0.61280862923E+02  0.31887742043E+03  0.47000000000E+01 0.  1.
          1    1    1    2  502    0 -0.86840882779E+01  0.56452527995E+02  0.13400418203E+04  0.13412585066E+04  0.00000000000E+00 0. -1.
          1    1    1    2  503    0 -0.17322368671E+02 -0.12732182289E+02 -0.79633023877E+03  0.79662037515E+03  0.00000000000E+00 0. -1.
<mgrwt>
<rscale>  0 0.35040623E+02</rscale>
<asrwt>0</asrwt>
<pdfrwt beam="1">  1        2 0.31022694E+00 0.57113842E+02</pdfrwt>
<pdfrwt beam="2">  1        2 0.44476331E+00 0.21498207E+02</pdfrwt>
<totfact> 0.49386839E+00</totfact>
</mgrwt>
</event>
<event>
13    1  0.1675423E-008  0.1069929E+03  0.7546771E-02  0.1266884E+00
          2   -1    0    0  502    0  0.00000000000E+00  0.00000000000E+00  0.33599945785E+04  0.33599945785E+04  0.00000000000E+00 0. -1.
          2   -1    0    0  503    0 -0.00000000000E+00 -0.00000000000E+00 -0.27142550164E+04  0.27142550164E+04  0.00000000000E+00 0. -1.
         24    2    1    2    0    0  0.31572449240E+02 -0.70608460568E+02  0.17068907215E+04  0.17105409688E+04  0.80573548740E+02 0.  0.
         25    2    1    2    0    0 -0.82502940501E+02  0.72264255830E+02  0.86829646275E+02  0.18754029413E+03  0.12491243568E+03 0.  0.
         24    2    1    2    0    0 -0.59394253137E+02 -0.44901321038E+02 -0.13526038075E+04  0.13570549205E+04  0.80729121385E+02 0.  0.
        -11    1    3    3    0    0  0.27208841653E+02  0.53100135313E+01  0.79564726916E+03  0.79613007369E+03  0.00000000000E+00 0.  1.
         12    1    3    3    0    0  0.43636075872E+01 -0.75918474099E+02  0.91124345233E+03  0.91441089516E+03  0.00000000000E+00 0. -1.
        -11    1    5    5    0    0 -0.36391994234E+02  0.92613009265E+01 -0.88013690104E+03  0.88093763315E+03  0.00000000000E+00 0.  1.
         12    1    5    5    0    0 -0.23002258903E+02 -0.54162621964E+02 -0.47246690650E+03  0.47611728730E+03  0.00000000000E+00 0. -1.
          5    1    4    4  501    0 -0.10802630745E+03  0.50257645074E+02  0.95106113607E+02  0.15252139796E+03  0.47000000000E+01 0.  1.
         -5    1    4    4    0  501  0.25523366952E+02  0.22006610756E+02 -0.82764673320E+01  0.35018896171E+02  0.47000000000E+01 0.  1.
          1    1    1    2  502    0  0.48061328494E+02  0.13025554211E+03  0.15064814647E+04  0.15128657577E+04  0.00000000000E+00 0. -1.
          1    1    1    2  503    0  0.62263415904E+02 -0.87010016331E+02 -0.13018584628E+04  0.13062476538E+04  0.00000000000E+00 0. -1.
<mgrwt>
<rscale>  0 0.10665976E+03</rscale>
<asrwt>0</asrwt>
<pdfrwt beam="1">  1        2 0.49411685E+00 0.10632769E+03</pdfrwt>
<pdfrwt beam="2">  1        2 0.39915515E+00 0.10699288E+03</pdfrwt>
<totfact> 0.11405735E+00</totfact>
</mgrwt>
</event>
<event>
13    1  0.1675423E-008  0.1164986E+03  0.7546771E-02  0.1323742E+00
          2   -1    0    0  503    0  0.00000000000E+00  0.00000000000E+00  0.21154182004E+04  0.21154182004E+04  0.00000000000E+00 0. -1.
         -1   -1    0    0    0  501 -0.00000000000E+00 -0.00000000000E+00 -0.76002356456E+03  0.76002356456E+03  0.00000000000E+00 0.  1.
         24    2    1    2    0    0  0.29991662792E+02  0.88041095413E+02  0.69634471843E+03  0.70733568337E+03  0.82322948031E+02 0.  0.
         25    2    1    2    0    0 -0.11133260159E+03 -0.56449794331E+01 -0.10084197657E+03  0.19548924744E+03  0.12498050911E+03 0.  0.
         24    2    1    2    0    0  0.17244603715E+02 -0.48405006815E+02  0.22431580159E+03  0.24248466599E+03  0.76425214131E+02 0.  0.
        -11    1    5    5    0    0  0.20335863359E+02 -0.68447791692E+02  0.16465099701E+03  0.17946754120E+03  0.00000000000E+00 0.  1.
         12    1    5    5    0    0 -0.30912596434E+01  0.20042784878E+02  0.59664804573E+02  0.63017124788E+02  0.00000000000E+00 0. -1.
        -11    1    3    3    0    0 -0.13631862517E+02  0.10548128082E+01  0.21284608448E+02  0.25297724453E+02  0.00000000000E+00 0.  1.
         12    1    3    3    0    0  0.43623525309E+02  0.86986282605E+02  0.67506010998E+03  0.68203795892E+03  0.00000000000E+00 0. -1.
          5    1    4    4  502    0 -0.76420903707E+01 -0.23967967845E+02  0.21913217345E+02  0.33691899951E+02  0.47000000000E+01 0. -1.
         -5    1    4    4    0  502 -0.10369051122E+03  0.18322988412E+02 -0.12275519392E+03  0.16179734749E+03  0.47000000000E+01 0. -1.
          1    1    1    2  503    0  0.10472140104E+03 -0.74793294430E+02  0.11277988119E+04  0.11351170727E+04  0.00000000000E+00 0. -1.
         -2    1    1    2    0  501 -0.40625065952E+02  0.40802185265E+02 -0.59222271948E+03  0.59501509542E+03  0.00000000000E+00 0.  1.
<mgrwt>
<rscale>  0 0.81900820E+02</rscale>
<asrwt>0</asrwt>
<pdfrwt beam="1">  1        2 0.31109091E+00 0.11649860E+03</pdfrwt>
<pdfrwt beam="2">  1       -1 0.11176817E+00 0.57577898E+02</pdfrwt>
<totfact> 0.77107292E+00</totfact>
</mgrwt>
</event>
<event>
13    1  0.1675423E-008  0.8715455E+02  0.7546771E-02  0.1322992E+00
          2   -1    0    0  503    0  0.00000000000E+00  0.00000000000E+00  0.11875465706E+04  0.11875465706E+04  0.00000000000E+00 0. -1.
          2   -1    0    0  502    0 -0.00000000000E+00 -0.00000000000E+00 -0.52913594335E+03  0.52913594335E+03  0.00000000000E+00 0. -1.
         24    2    1    2    0    0 -0.12010271160E+03  0.13080882600E+03  0.11115140402E+03  0.22425425644E+03  0.79998291375E+02 0.  0.
         25    2    1    2    0    0  0.24806157378E+03 -0.27032424001E+03 -0.79330776355E+02  0.39563714593E+03  0.12500256012E+03 0.  0.
         24    2    1    2    0    0  0.95270261663E+01  0.68804925222E+02  0.87913715548E+02  0.13914805464E+03  0.82513500503E+02 0.  0.
        -11    1    3    3    0    0 -0.55954834659E+02  0.10662196274E+03  0.96113467037E+02  0.15406811807E+03  0.00000000000E+00 0.  1.
         12    1    3    3    0    0 -0.64147876941E+02  0.24186863260E+02  0.15037936979E+02  0.70186138368E+02  0.00000000000E+00 0. -1.
        -11    1    5    5    0    0  0.40397765076E+02  0.11847810036E+02  0.25676360682E+02  0.49311515123E+02  0.00000000000E+00 0.  1.
         12    1    5    5    0    0 -0.30870738910E+02  0.56957115186E+02  0.62237354866E+02  0.89836539514E+02  0.00000000000E+00 0. -1.
          5    1    4    4  501    0  0.20993816158E+03 -0.15389189279E+03 -0.82158027185E+02  0.27299959301E+03  0.47000000000E+01 0.  1.
         -5    1    4    4    0  501  0.38123412201E+02 -0.11643234722E+03  0.28272508299E+01  0.12263755292E+03  0.47000000000E+01 0.  1.
          1    1    1    2  502    0 -0.76997553086E+02  0.86220114021E+01 -0.19969627054E+03  0.21419981963E+03  0.00000000000E+00 0. -1.
          1    1    1    2  503    0 -0.60488335265E+02  0.62088477389E+02  0.73837255457E+03  0.74344323729E+03  0.00000000000E+00 0. -1.
<mgrwt>
<rscale>  0 0.82174378E+02</rscale>
<asrwt>0</asrwt>
<pdfrwt beam="1">  1        2 0.17463920E+00 0.87154546E+02</pdfrwt>
<pdfrwt beam="2">  1        2 0.77814109E-01 0.77478786E+02</pdfrwt>
<totfact> 0.22710113E+02</totfact>
</mgrwt>
</event>
<event>
13    1  0.1675423E-008  0.9445916E+02  0.7546771E-02  0.1442939E+00
          2   -1    0    0  503    0  0.00000000000E+00  0.00000000000E+00  0.10132329446E+04  0.10132329446E+04  0.00000000000E+00 0. -1.
          2   -1    0    0  502    0 -0.00000000000E+00 -0.00000000000E+00 -0.25902442659E+04  0.25902442659E+04  0.00000000000E+00 0. -1.
         24    2    1    2    0    0  0.16556690135E+03 -0.33890290674E+02  0.48851067656E+02  0.19275953274E+03  0.78796319893E+02 0.  0.
         25    2    1    2    0    0 -0.85776629671E+02 -0.52615783944E+02  0.26897339171E+03  0.31320552187E+03  0.12499985026E+03 0.  0.
         24    2    1    2    0    0 -0.25313887376E+02 -0.25403214923E+02 -0.93248882144E+02  0.12770701072E+03  0.79546277994E+02 0.  0.
        -11    1    5    5    0    0 -0.28087146957E+02  0.89530477707E+01 -0.12979324616E+01  0.29508126291E+02  0.00000000000E+00 0.  1.
         12    1    5    5    0    0  0.27732595807E+01 -0.34356262693E+02 -0.91950949682E+02  0.98198884425E+02  0.00000000000E+00 0. -1.
        -13    1    3    3    0    0  0.17064167184E+03 -0.35505943745E+02  0.34804819072E+02  0.17773752457E+03  0.00000000000E+00 0.  1.
         14    1    3    3    0    0 -0.50747704902E+01  0.16156530707E+01  0.14046248584E+02  0.15022008176E+02  0.00000000000E+00 0. -1.
          5    1    4    4  501    0 -0.70422434761E+02 -0.89871533876E+02  0.15756703067E+03  0.19464241848E+03  0.47000000000E+01 0. -1.
         -5    1    4    4    0  501 -0.15354194910E+02  0.37255749932E+02  0.11140636104E+03  0.11856310339E+03  0.47000000000E+01 0. -1.
          1    1    1    2  502    0 -0.27537424655E+02  0.11143700303E+03 -0.23840036222E+04  0.23867655490E+04  0.00000000000E+00 0. -1.
          1    1    1    2  503    0 -0.26938959647E+02  0.47228650813E+00  0.58241672367E+03  0.58303959610E+03  0.00000000000E+00 0. -1.
<mgrwt>
<rscale>  0 0.50448215E+02</rscale>
<asrwt>0</asrwt>
<pdfrwt beam="1">  1        2 0.14900485E+00 0.26943099E+02</pdfrwt>
<pdfrwt beam="2">  1        2 0.38091827E+00 0.94459156E+02</pdfrwt>
<totfact> 0.22802140E+01</totfact>
</mgrwt>
</event>
<event>
13    1  0.1675423E-008  0.6115924E+02  0.7546771E-02  0.1478974E+00
          2   -1    0    0  502    0  0.00000000000E+00  0.00000000000E+00  0.80333627703E+03  0.80333627703E+03  0.00000000000E+00 0. -1.
          2   -1    0    0  503    0 -0.00000000000E+00 -0.00000000000E+00 -0.10854700950E+04  0.10854700950E+04  0.00000000000E+00 0. -1.
         24    2    1    2    0    0  0.45273222058E+02 -0.60704990902E+01  0.41834604650E+03  0.42828258320E+03  0.79536412108E+02 0.  0.
         25    2    1    2    0    0 -0.15344904907E+03  0.16305507678E+02 -0.29240298672E+03  0.35349065139E+03  0.12507459270E+03 0.  0.
         24    2    1    2    0    0  0.65696889970E+02  0.16056439014E+02  0.18444003269E+03  0.21297046728E+03  0.82245994981E+02 0.  0.
        -13    1    3    3    0    0 -0.16182067179E+02  0.14636975445E+02  0.17832783383E+03  0.17965777653E+03  0.00000000000E+00 0.  1.
         14    1    3    3    0    0  0.61455289237E+02 -0.20707474536E+02  0.24001821267E+03  0.24862480667E+03  0.00000000000E+00 0. -1.
        -13    1    5    5    0    0  0.34456579238E+02  0.52258564675E+01  0.11204074723E+02  0.36607331492E+02  0.00000000000E+00 0.  1.
         14    1    5    5    0    0  0.31240310732E+02  0.10830582546E+02  0.17323595797E+03  0.17636313579E+03  0.00000000000E+00 0. -1.
          5    1    4    4  501    0 -0.75497948178E+02  0.64822015748E+02 -0.10492068619E+03  0.14467990287E+03  0.47000000000E+01 0. -1.
         -5    1    4    4    0  501 -0.77951100892E+02 -0.48516508070E+02 -0.18748230053E+03  0.20881074852E+03  0.47000000000E+01 0. -1.
          1    1    1    2  502    0 -0.18715512789E+02 -0.26005136246E+02  0.14779391603E+03  0.15122691276E+03  0.00000000000E+00 0. -1.
          1    1    1    2  503    0  0.61194449831E+02 -0.28631135515E+00 -0.74031082645E+03  0.74283575737E+03  0.00000000000E+00 0. -1.
<mgrwt>
<rscale>  0 0.44266455E+02</rscale>
<asrwt>0</asrwt>
<pdfrwt beam="1">  1        2 0.11813769E+00 0.32039624E+02</pdfrwt>
<pdfrwt beam="2">  1        2 0.15962796E+00 0.61159238E+02</pdfrwt>
<totfact> 0.16944008E+02</totfact>
</mgrwt>
</event>
<event>
13    1  0.1675423E-008  0.8113451E+02  0.7546771E-02  0.1392432E+00
          2   -1    0    0  502    0  0.00000000000E+00  0.00000000000E+00  0.18344095657E+04  0.18344095657E+04  0.00000000000E+00 0. -1.
          2   -1    0    0  503    0 -0.00000000000E+00 -0.00000000000E+00 -0.13254874805E+04  0.13254874805E+04  0.00000000000E+00 0. -1.
         24    2    1    2    0    0 -0.33383973608E+02 -0.14124975053E+03  0.99776706818E+03  0.10117818038E+04  0.84245560351E+02 0.  0.
         25    2    1    2    0    0 -0.39543401350E+02  0.21235079264E+03 -0.27206366849E+03  0.36918873362E+03  0.12500056640E+03 0.  0.
         24    2    1    2    0    0  0.29840963490E+02 -0.25819267570E+00  0.47804849307E+03  0.48567962285E+03  0.80397665189E+02 0.  0.
        -11    1    5    5    0    0 -0.18974772608E+02 -0.20941055781E+02  0.99446704360E+02  0.10338383249E+03  0.00000000000E+00 0.  1.
         12    1    5    5    0    0  0.48815736098E+02  0.20682863106E+02  0.37860178871E+03  0.38229579036E+03  0.00000000000E+00 0. -1.
        -11    1    3    3    0    0 -0.32024137836E+02 -0.12755179299E+02  0.12745185395E+03  0.13203111406E+03  0.00000000000E+00 0.  1.
         12    1    3    3    0    0 -0.13598357719E+01 -0.12849457123E+03  0.87031521422E+03  0.87975068974E+03  0.00000000000E+00 0. -1.
          5    1    4    4  501    0 -0.25278725435E+02  0.20091602940E+03 -0.16722533417E+03  0.26266455265E+03  0.47000000000E+01 0. -1.
         -5    1    4    4    0  501 -0.14264675915E+02  0.11434763230E+02 -0.10483833432E+03  0.10652418097E+03  0.47000000000E+01 0. -1.
          1    1    1    2  502    0 -0.29901198850E+02 -0.35379948370E+02  0.29574654257E+03  0.29935236743E+03  0.00000000000E+00 0. -1.
          1    1    1    2  503    0  0.72987610318E+02 -0.35462901058E+02 -0.99057635007E+03  0.99389451851E+03  0.00000000000E+00 0. -1.
<mgrwt>
<rscale>  0 0.61305755E+02</rscale>
<asrwt>0</asrwt>
<pdfrwt beam="1">  1        2 0.26976611E+00 0.46323023E+02</pdfrwt>
<pdfrwt beam="2">  1        2 0.19492463E+00 0.81134506E+02</pdfrwt>
<totfact> 0.36801473E+01</totfact>
</mgrwt>
</event>
<event>
13    1  0.1675423E-008  0.1274316E+03  0.7546771E-02  0.1359990E+00
          2   -1    0    0  503    0  0.00000000000E+00  0.00000000000E+00  0.12300791382E+04  0.12300791382E+04  0.00000000000E+00 0. -1.
          2   -1    0    0  502    0 -0.00000000000E+00 -0.00000000000E+00 -0.33902883659E+04  0.33902883659E+04  0.00000000000E+00 0. -1.
         24    2    1    2    0    0 -0.43152771320E+02 -0.12877196060E+03 -0.34607320343E+03  0.38060164537E+03  0.81526503788E+02 0.  0.
         25    2    1    2    0    0  0.85317015747E+02 -0.15817029544E+03 -0.20046601762E+02  0.21982516814E+03  0.12499761106E+03 0.  0.
         24    2    1    2    0    0 -0.22141000596E+02  0.19994517668E+03 -0.27372688382E+04  0.27457977885E+04  0.79350522624E+02 0.  0.
        -11    1    3    3    0    0 -0.30548476094E+02 -0.12418398099E+03 -0.34403369584E+03  0.36703413248E+03  0.00000000000E+00 0.  1.
         12    1    3    3    0    0 -0.12604295225E+02 -0.45879796096E+01 -0.20395075848E+01  0.13567512897E+02  0.00000000000E+00 0. -1.
        -13    1    5    5    0    0 -0.45957230319E+02  0.89349510207E+02 -0.15032187594E+04  0.15065729457E+04  0.00000000000E+00 0.  1.
         14    1    5    5    0    0  0.23816229724E+02  0.11059566647E+03 -0.12340500787E+04  0.12392248428E+04  0.00000000000E+00 0. -1.
          5    1    4    4  501    0  0.91221008381E+02 -0.14822276025E+03  0.22434864960E+02  0.17554678064E+03  0.47000000000E+01 0.  1.
         -5    1    4    4    0  501 -0.59039926342E+01 -0.99475351926E+01 -0.42481466721E+02  0.44278387507E+02  0.47000000000E+01 0.  1.
          1    1    1    2  502    0  0.31300619248E+01 -0.38357773997E+02 -0.15952149466E+03  0.16409821258E+03  0.00000000000E+00 0. -1.
          1    1    1    2  503    0 -0.23153305757E+02  0.12535485336E+03  0.11027009104E+04  0.11100446894E+04  0.00000000000E+00 0. -1.
<mgrwt>
<rscale>  0 0.70030279E+02</rscale>
<asrwt>0</asrwt>
<pdfrwt beam="1">  1        2 0.18089399E+00 0.12743161E+03</pdfrwt>
<pdfrwt beam="2">  1        2 0.49857182E+00 0.38485271E+02</pdfrwt>
<totfact> 0.70909735E+00</totfact>
</mgrwt>
</event>
<event>
13    1  0.1675423E-008  0.1223311E+03  0.7546771E-02  0.1240093E+00
          2   -1    0    0  503    0  0.00000000000E+00  0.00000000000E+00  0.39280021686E+03  0.39280021686E+03  0.00000000000E+00 0. -1.
          2   -1    0    0  502    0 -0.00000000000E+00 -0.00000000000E+00 -0.28604805548E+04  0.28604805548E+04  0.00000000000E+00 0. -1.
         24    2    1    2    0    0 -0.41172012167E+02 -0.34687162229E+02 -0.11986777353E+02  0.98928678597E+02  0.82127138074E+02 0.  0.
         25    2    1    2    0    0  0.12365909856E+03  0.11579034929E+03 -0.56144175950E+03  0.59961742556E+03  0.12500092032E+03 0.  0.
         24    2    1    2    0    0  0.48424564507E+02  0.36769004333E+02  0.52955621146E+02  0.11578254101E+03  0.83092724491E+02 0.  0.
        -11    1    3    3    0    0  0.22007244679E+02  0.46481480131E+01 -0.96303740032E+01  0.24467697108E+02  0.00000000000E+00 0.  1.
         12    1    3    3    0    0 -0.63179256847E+02 -0.39335310242E+02 -0.23564033503E+01  0.74460981489E+02  0.00000000000E+00 0. -1.
        -11    1    5    5    0    0  0.18715016458E+02  0.60967771573E+02  0.25694864011E+02  0.68757159978E+02  0.00000000000E+00 0.  1.
         12    1    5    5    0    0  0.29709548049E+02 -0.24198767240E+02  0.27260757135E+02  0.47025381028E+02  0.00000000000E+00 0. -1.
          5    1    4    4  501    0  0.14151598658E+03  0.11915290540E+03 -0.44934204621E+03  0.48595735802E+03  0.47000000000E+01 0.  1.
         -5    1    4    4    0  501 -0.17856888023E+02 -0.33625561058E+01 -0.11209971329E+03  0.11366006754E+03  0.47000000000E+01 0.  1.
          1    1    1    2  502    0 -0.10660874625E+02 -0.17790378840E+03 -0.21707836425E+04  0.21780874718E+04  0.00000000000E+00 0. -1.
          1    1    1    2  503    0 -0.12025077627E+03  0.60031597002E+02  0.22357622024E+03  0.26086465474E+03  0.00000000000E+00 0. -1.
<mgrwt>
<rscale>  0 0.12183955E+03</rscale>
<asrwt>0</asrwt>
<pdfrwt beam="1">  1        2 0.57764739E-01 0.12233114E+03</pdfrwt>
<pdfrwt beam="2">  1        2 0.42065890E+00 0.12134995E+03</pdfrwt>
<totfact> 0.44400690E+01</totfact>
</mgrwt>
</event>
<event>
13    1  0.1675423E-008  0.9654661E+02  0.7546771E-02  0.1453994E+00
          2   -1    0    0  502    0  0.00000000000E+00  0.00000000000E+00  0.12031560903E+04  0.12031560903E+04  0.00000000000E+00 0. -1.
          2   -1    0    0  503    0 -0.00000000000E+00 -0.00000000000E+00 -0.70657870342E+03  0.70657870342E+03  0.00000000000E+00 0. -1.
         24    2    1    2    0    0  0.22206984238E+03  0.26914132866E+03  0.61803064882E+03  0.71426787710E+03  0.80403032815E+02 0.  0.
         25    2    1    2    0    0 -0.16843692388E+03 -0.41374159318E+03 -0.55442782022E+02  0.46717701341E+03  0.12500942573E+03 0.  0.
         24    2    1    2    0    0 -0.12087866257E+03  0.49033242385E+02 -0.45173023548E+02  0.15949613758E+03  0.79890587191E+02 0.  0.
        -13    1    3    3    0    0  0.31348245992E+02  0.57436766933E+02  0.65472577176E+02  0.92565398960E+02  0.00000000000E+00 0.  1.
         14    1    3    3    0    0  0.19072159639E+03  0.21170456173E+03  0.55255807165E+03  0.62170247814E+03  0.00000000000E+00 0. -1.
        -13    1    5    5    0    0 -0.65524197567E+02  0.67443137985E+02 -0.20986962697E+02  0.96345471774E+02  0.00000000000E+00 0.  1.
         14    1    5    5    0    0 -0.55354465001E+02 -0.18409895600E+02 -0.24186060852E+02  0.63150665801E+02  0.00000000000E+00 0. -1.
          5    1    4    4  501    0 -0.23924535347E+02 -0.23374158386E+02  0.26467075217E+02  0.42910729921E+02  0.47000000000E+01 0.  1.
         -5    1    4    4    0  501 -0.14451238854E+03 -0.39036743480E+03 -0.81909857239E+02  0.42426628349E+03  0.47000000000E+01 0.  1.
          1    1    1    2  502    0  0.21898795236E+02  0.10519605099E+02  0.26553146756E+03  0.26664054378E+03  0.00000000000E+00 0. -1.
          1    1    1    2  503    0  0.45346948831E+02  0.85047417037E+02 -0.28636892390E+03  0.30215322188E+03  0.00000000000E+00 0. -1.
<mgrwt>
<rscale>  0 0.48430825E+02</rscale>
<asrwt>0</asrwt>
<pdfrwt beam="1">  1        2 0.17693472E+00 0.24294430E+02</pdfrwt>
<pdfrwt beam="2">  1        2 0.10390863E+00 0.96546610E+02</pdfrwt>
<totfact> 0.17455101E+02</totfact>
</mgrwt>
</event>
<event>
13    1  0.1675423E-008  0.8372126E+02  0.7546771E-02  0.1380163E+00
          2   -1    0    0  503    0  0.00000000000E+00  0.00000000000E+00  0.85895460051E+03  0.85895460051E+03  0.00000000000E+00 0. -1.
          2   -1    0    0  502    0 -0.00000000000E+00 -0.00000000000E+00 -0.12743531310E+04  0.12743531310E+04  0.00000000000E+00 0. -1.
         24    2    1    2    0    0  0.35280149690E+02  0.92357249469E+02  0.20179149127E+03  0.24020996724E+03  0.84890941334E+02 0.  0.
         25    2    1    2    0    0  0.13995529844E+03 -0.34242213360E+02 -0.25166720229E+03  0.31578928551E+03  0.12500590945E+03 0.  0.
         24    2    1    2    0    0 -0.86649207163E+02 -0.60087187308E+02 -0.58600575659E+02  0.14388701897E+03  0.78427620008E+02 0.  0.
        -11    1    3    3    0    0  0.25543481223E+02 -0.98298234687E+01  0.36182554539E+02  0.45368183955E+02  0.00000000000E+00 0.  1.
         12    1    3    3    0    0  0.97366684672E+01  0.10218707294E+03  0.16560893673E+03  0.19484178328E+03  0.00000000000E+00 0. -1.
        -13    1    5    5    0    0  0.12841879475E+01  0.12668082599E+02 -0.19414283038E+02  0.23217317702E+02  0.00000000000E+00 0.  1.
         14    1    5    5    0    0 -0.87933395111E+02 -0.72755269907E+02 -0.39186292621E+02  0.12066970127E+03  0.00000000000E+00 0. -1.
          5    1    4    4  501    0  0.15293848736E+03 -0.11040632831E+02 -0.24311072819E+03  0.28746650700E+03  0.47000000000E+01 0. -1.
         -5    1    4    4    0  501 -0.12983188917E+02 -0.23201580529E+02 -0.85564741050E+01  0.28322778511E+02  0.47000000000E+01 0. -1.
          1    1    1    2  502    0 -0.17520267174E+02  0.46370354481E+02 -0.86634289634E+03  0.86775986515E+03  0.00000000000E+00 0. -1.
          1    1    1    2  503    0 -0.71065973793E+02 -0.44398203283E+02  0.55942065256E+03  0.56566159460E+03  0.00000000000E+00 0. -1.
<mgrwt>
<rscale>  0 0.64420882E+02</rscale>
<asrwt>0</asrwt>
<pdfrwt beam="1">  1        2 0.12631685E+00 0.83721263E+02</pdfrwt>
<pdfrwt beam="2">  1        2 0.18740487E+00 0.49569845E+02</pdfrwt>
<totfact> 0.12209374E+02</totfact>
</mgrwt>
</event>
<event>
13    1  0.1675423E-008  0.1462551E+03  0.7546771E-02  0.1333890E+00
          2   -1    0    0  502    0  0.00000000000E+00  0.00000000000E+00  0.23414628848E+04  0.23414628848E+04  0.00000000000E+00 0. -1.
          2   -1    0    0  503    0 -0.00000000000E+00 -0.00000000000E+00 -0.57698708345E+03  0.57698708345E+03  0.00000000000E+00 0. -1.
         24    2    1    2    0    0 -0.67335915095E+02  0.12065932767E+03  0.77133676454E+03  0.78766006551E+03  0.79719355636E+02 0.  0.
         25    2    1    2    0    0  0.16980511444E+03 -0.29289713532E+03 -0.31325642893E+03  0.47788836631E+03  0.12500076649E+03 0.  0.
         24    2    1    2    0    0 -0.23945961303E+02  0.19261909009E+01  0.47760015848E+00  0.84020301314E+02  0.80511264161E+02 0.  0.
        -11    1    5    5    0    0 -0.37625936194E+02  0.32735484642E+02 -0.39100063533E+01  0.50026104974E+02  0.00000000000E+00 0.  1.
         12    1    5    5    0    0  0.13679974892E+02 -0.30809293741E+02  0.43876065118E+01  0.33994196339E+02  0.00000000000E+00 0. -1.
        -11    1    3    3    0    0  0.89585667693E+01  0.68735570219E+01  0.13778650163E+02  0.17814401618E+02  0.00000000000E+00 0.  1.
         12    1    3    3    0    0 -0.76294481864E+02  0.11378577065E+03  0.75755811437E+03  0.76984566390E+03  0.00000000000E+00 0. -1.
          5    1    4    4  501    0  0.50917463078E+02 -0.20937299058E+03 -0.18649295811E+03  0.28501114128E+03  0.47000000000E+01 0. -1.
         -5    1    4    4    0  501  0.11888765136E+03 -0.83524144742E+02 -0.12676347082E+03  0.19287722503E+03  0.47000000000E+01 0. -1.
          1    1    1    2  502    0 -0.63968062908E+02  0.13097837868E+03  0.14302538018E+04  0.14376624035E+04  0.00000000000E+00 0. -1.
          1    1    1    2  503    0 -0.14555175136E+02  0.39333238071E+02 -0.12433593622E+03  0.13121883164E+03  0.00000000000E+00 0. -1.
<mgrwt>
<rscale>  0 0.78319395E+02</rscale>
<asrwt>0</asrwt>
<pdfrwt beam="1">  1        2 0.34433277E+00 0.14625512E+03</pdfrwt>
<pdfrwt beam="2">  1        2 0.84851043E-01 0.41939918E+02</pdfrwt>
<totfact> 0.53596661E+01</totfact>
</mgrwt>
</event>
<event>
13    1  0.1675423E-008  0.1411321E+03  0.7546771E-02  0.1370649E+00
          2   -1    0    0  502    0  0.00000000000E+00  0.00000000000E+00  0.86248623913E+03  0.86248623913E+03  0.00000000000E+00 0. -1.
          2   -1    0    0  503    0 -0.00000000000E+00 -0.00000000000E+00 -0.19020904430E+04  0.19020904430E+04  0.00000000000E+00 0. -1.
         24    2    1    2    0    0  0.26500958229E+02 -0.62866737590E+00  0.16128805721E+03  0.19229295084E+03  0.10129188287E+03 0.  0.
         25    2    1    2    0    0 -0.52183107013E+02 -0.16670828575E+03 -0.10624543480E+04  0.10839494026E+04  0.12498934590E+03 0.  0.
         24    2    1    2    0    0  0.14889330214E+03  0.36086909088E+02 -0.74235565137E+02  0.18890245305E+03  0.81864138727E+02 0.  0.
        -11    1    3    3    0    0  0.55197973302E+02  0.28572282811E+02  0.11316399074E+03  0.12910956743E+03  0.00000000000E+00 0.  1.
         12    1    3    3    0    0 -0.28697015073E+02 -0.29200950187E+02  0.48124066471E+02  0.63183383414E+02  0.00000000000E+00 0. -1.
        -11    1    5    5    0    0  0.14744173614E+03  0.52598918939E+02 -0.62336102293E+02  0.16849777886E+03  0.00000000000E+00 0.  1.
         12    1    5    5    0    0  0.14515659952E+01 -0.16512009851E+02 -0.11899462843E+02  0.20404674198E+02  0.00000000000E+00 0. -1.
          5    1    4    4  501    0  0.39926675094E+02 -0.72346578717E+02 -0.39519146216E+03  0.40376546237E+03  0.47000000000E+01 0. -1.
         -5    1    4    4    0  501 -0.92109782107E+02 -0.94361707033E+02 -0.66726288587E+03  0.68018394025E+03  0.47000000000E+01 0. -1.
          1    1    1    2  502    0 -0.15216933484E+03  0.14437763577E+03  0.59941254443E+03  0.63505575078E+03  0.00000000000E+00 0. -1.
          1    1    1    2  503    0  0.28958181490E+02 -0.13127591735E+02 -0.66361489230E+03  0.66437612482E+03  0.00000000000E+00 0. -1.
<mgrwt>
<rscale>  0 0.66987066E+02</rscale>
<asrwt>0</asrwt>
<pdfrwt beam="1">  1        2 0.12683621E+00 0.14113206E+03</pdfrwt>
<pdfrwt beam="2">  1        2 0.27971918E+00 0.31794810E+02</pdfrwt>
<totfact> 0.62884963E+01</totfact>
</mgrwt>
</event>
<event>
13    1  0.1675423E-008  0.4917834E+02  0.7546771E-02  0.1453970E+00
          4   -1    0    0  503    0 -0.00000000000E+00  0.00000000000E+00  0.91934098518E+03  0.91934098518E+03  0.00000000000E+00 0. -1.
          2   -1    0    0  502    0  0.00000000000E+00 -0.00000000000E+00 -0.14963134367E+04  0.14963134367E+04  0.00000000000E+00 0. -1.
         24    2    1    2    0    0  0.43820962962E+02  0.31421954048E+02 -0.17804378496E+03  0.20102854852E+03  0.76192335367E+02 0.  0.
         25    2    1    2    0    0 -0.49983676752E+02 -0.57316498403E+02 -0.21404480710E+03  0.25927453114E+03  0.12499821645E+03 0.  0.
         24    2    1    2    0    0  0.10260976070E+02  0.45186851978E+01  0.14947444219E+03  0.17057661133E+03  0.81412930908E+02 0.  0.
        -11    1    5    5    0    0  0.27136169587E+02 -0.31721880741E+02  0.85339633462E+02  0.95002644474E+02  0.00000000000E+00 0.  1.
         12    1    5    5    0    0 -0.16875193516E+02  0.36240565939E+02  0.64134808724E+02  0.75573966853E+02  0.00000000000E+00 0. -1.
        -13    1    3    3    0    0  0.36677147295E+02  0.54794917831E+02 -0.10482614841E+03  0.12383948297E+03  0.00000000000E+00 0.  1.
         14    1    3    3    0    0  0.71438156673E+01 -0.23372963782E+02 -0.73217636552E+02  0.77189065550E+02  0.00000000000E+00 0. -1.
          5    1    4    4  501    0  0.36113092526E+02  0.27454458795E+01 -0.87319565231E+02  0.94649296865E+02  0.47000000000E+01 0.  1.
         -5    1    4    4    0  501 -0.86096769278E+02 -0.60061944282E+02 -0.12672524187E+03  0.16462523427E+03  0.47000000000E+01 0.  1.
          1    1    1    2  502    0 -0.49017227269E+02  0.53178329271E+01 -0.10582074382E+04  0.10593554409E+04  0.00000000000E+00 0. -1.
          3    1    1    2  503    0  0.44918964988E+02  0.16058026229E+02  0.72384913662E+03  0.72541928993E+03  0.00000000000E+00 0. -1.
<mgrwt>
<rscale>  0 0.48435040E+02</rscale>
<asrwt>0</asrwt>
<pdfrwt beam="2">  1        2 0.22004609E+00 0.49178341E+02</pdfrwt>
<pdfrwt beam="1">  1        4 0.13519720E+00 0.47702973E+02</pdfrwt>
<totfact> 0.35687928E+00</totfact>
</mgrwt>
</event>
<event>
13    1  0.1675423E-008  0.7603403E+02  0.7546771E-02  0.1342960E+00
          4   -1    0    0  503    0 -0.00000000000E+00  0.00000000000E+00  0.15541238234E+04  0.15541238234E+04  0.00000000000E+00 0. -1.
          2   -1    0    0  502    0  0.00000000000E+00 -0.00000000000E+00 -0.12005931131E+04  0.12005931131E+04  0.00000000000E+00 0. -1.
         24    2    1    2    0    0 -0.24414906011E+02  0.84107898902E+01 -0.19286417517E+03  0.20579023828E+03  0.66979124240E+02 0.  0.
         25    2    1    2    0    0  0.18241456772E+03  0.14113766957E+03  0.25337931459E+03  0.36472148346E+03  0.12500306856E+03 0.  0.
         24    2    1    2    0    0 -0.89801680099E+02 -0.33475496071E+02 -0.13347645596E+03  0.18254508580E+03  0.79509706745E+02 0.  0.
        -13    1    5    5    0    0 -0.67455727093E+02 -0.74481432504E+01 -0.31247011292E+02  0.74713624395E+02  0.00000000000E+00 0.  1.
         14    1    5    5    0    0 -0.22345953006E+02 -0.26027352820E+02 -0.10222944467E+03  0.10783146140E+03  0.00000000000E+00 0. -1.
        -13    1    3    3    0    0  0.18027984574E+02  0.20312624460E+02 -0.61569068423E+02  0.67293098656E+02  0.00000000000E+00 0.  1.
         14    1    3    3    0    0 -0.42442890585E+02 -0.11901834570E+02 -0.13129510675E+03  0.13849713962E+03  0.00000000000E+00 0. -1.
          5    1    4    4  501    0 -0.57867126603E+01  0.23762420439E+02 -0.36697121429E+01  0.25173308399E+02  0.47000000000E+01 0.  1.
         -5    1    4    4    0  501  0.18820128038E+03  0.11737524913E+03  0.25704902673E+03  0.33954817506E+03  0.47000000000E+01 0.  1.
          1    1    1    2  502    0 -0.11873356230E+01 -0.80190233064E+02 -0.78434750688E+03  0.78843699482E+03  0.00000000000E+00 0. -1.
          3    1    1    2  503    0 -0.67010645982E+02 -0.35882730326E+02  0.12108395337E+04  0.12132231342E+04  0.00000000000E+00 0. -1.
<mgrwt>
<rscale>  0 0.75294984E+02</rscale>
<asrwt>0</asrwt>
<pdfrwt beam="2">  1        2 0.17655781E+00 0.74563118E+02</pdfrwt>
<pdfrwt beam="1">  1        4 0.22854762E+00 0.76034034E+02</pdfrwt>
<totfact> 0.12213045E+00</totfact>
</mgrwt>
</event>
<event>
13    1  0.1675423E-008  0.9808050E+02  0.7546771E-02  0.1346565E+00
          2   -1    0    0  502    0  0.00000000000E+00  0.00000000000E+00  0.21404170814E+04  0.21404170814E+04  0.00000000000E+00 0. -1.
          2   -1    0    0  503    0 -0.00000000000E+00 -0.00000000000E+00 -0.18942489474E+04  0.18942489474E+04  0.00000000000E+00 0. -1.
         24    2    1    2    0    0 -0.56306955296E+01 -0.69799693676E+02  0.10860568777E+03  0.15114295545E+03  0.78391935803E+02 0.  0.
         25    2    1    2    0    0  0.21442818629E+02 -0.13315863423E+02 -0.43459549332E+03  0.45292003986E+03  0.12500485194E+03 0.  0.
         24    2    1    2    0    0  0.19780714333E+02 -0.39878377061E+02  0.19863769660E+02  0.93438854621E+02  0.79716300662E+02 0.  0.
        -11    1    5    5    0    0  0.39987082026E+02 -0.60670139593E+01 -0.12636143996E+02  0.42372721443E+02  0.00000000000E+00 0.  1.
         12    1    5    5    0    0 -0.20206367693E+02 -0.33811363101E+02  0.32499913656E+02  0.51066133178E+02  0.00000000000E+00 0. -1.
        -13    1    3    3    0    0  0.62678778301E+01  0.12820249940E+02  0.41986185354E+02  0.44345065809E+02  0.00000000000E+00 0.  1.
         14    1    3    3    0    0 -0.11898573360E+02 -0.82619943616E+02  0.66619502414E+02  0.10679788965E+03  0.00000000000E+00 0. -1.
          5    1    4    4  501    0  0.61727726195E+02 -0.40991450198E+02 -0.20237097189E+03  0.21556138669E+03  0.47000000000E+01 0.  1.
         -5    1    4    4    0  501 -0.40284907567E+02  0.27675586776E+02 -0.23222452143E+03  0.23735865317E+03  0.47000000000E+01 0.  1.
          1    1    1    2  502    0 -0.84751846053E+02  0.96092374480E+02  0.19420534913E+04  0.19462755156E+04  0.00000000000E+00 0. -1.
          1    1    1    2  503    0  0.49159008620E+02  0.26901559679E+02 -0.13897593214E+04  0.13908886632E+04  0.00000000000E+00 0. -1.
<mgrwt>
<rscale>  0 0.74136861E+02</rscale>
<asrwt>0</asrwt>
<pdfrwt beam="1">  1        2 0.31476722E+00 0.98080501E+02</pdfrwt>
<pdfrwt beam="2">  1        2 0.27856602E+00 0.56038398E+02</pdfrwt>
<totfact> 0.13369467E+01</totfact>
</mgrwt>
</event>
<event>
13    1  0.1675423E-008  0.5704390E+02  0.7546771E-02  0.1472903E+00
          2   -1    0    0  502    0  0.00000000000E+00  0.00000000000E+00  0.22865855138E+04  0.22865855138E+04  0.00000000000E+00 0. -1.
          2   -1    0    0  503    0 -0.00000000000E+00 -0.00000000000E+00 -0.35997138670E+04  0.35997138670E+04  0.00000000000E+00 0. -1.
         24    2    1    2    0    0 -0.41338928919E+03 -0.69075299730E+03 -0.94030053916E+02  0.81543571507E+03  0.89796139525E+02 0.  0.
         25    2    1    2    0    0  0.27656752222E+03  0.12792850680E+04 -0.86373127623E+03  0.15731231654E+04  0.12499958646E+03 0.  0.
         24    2    1    2    0    0  0.11433723148E+03 -0.56710824865E+03 -0.13784720769E+04  0.14973022123E+04  0.83927826544E+02 0.  0.
        -11    1    5    5    0    0  0.12608458438E+03 -0.54238418940E+03 -0.13241998184E+04  0.14365176958E+04  0.00000000000E+00 0.  1.
         12    1    5    5    0    0 -0.11747352897E+02 -0.24724059247E+02 -0.54272258512E+02  0.60784516530E+02  0.00000000000E+00 0. -1.
        -11    1    3    3    0    0 -0.20838417728E+02 -0.28525687265E+02 -0.23393500146E+02  0.42369922544E+02  0.00000000000E+00 0.  1.
         12    1    3    3    0    0 -0.39255087146E+03 -0.66222731004E+03 -0.70636553770E+02  0.77306579252E+03  0.00000000000E+00 0. -1.
          5    1    4    4  501    0  0.20654876141E+03  0.10942693021E+04 -0.69183821065E+03  0.13110110206E+04  0.47000000000E+01 0. -1.
         -5    1    4    4    0  501  0.70018760811E+02  0.18501576584E+03 -0.17189306558E+03  0.26211214483E+03  0.47000000000E+01 0. -1.
          1    1    1    2  502    0 -0.33828986995E+02 -0.11911122334E+02  0.15098893228E+04  0.15103152129E+04  0.00000000000E+00 0. -1.
          1    1    1    2  503    0  0.56313522484E+02 -0.95126996981E+01 -0.48678426896E+03  0.49012307513E+03  0.00000000000E+00 0. -1.
<mgrwt>
<rscale>  0 0.45231195E+02</rscale>
<asrwt>0</asrwt>
<pdfrwt beam="1">  1        2 0.33626258E+00 0.35864679E+02</pdfrwt>
<pdfrwt beam="2">  1        2 0.52936968E+00 0.57043895E+02</pdfrwt>
<totfact> 0.17435758E+00</totfact>
</mgrwt>
</event>
<event>
13    1  0.1675423E-008  0.1041365E+03  0.7546771E-02  0.1291579E+00
          2   -1    0    0  503    0  0.00000000000E+00  0.00000000000E+00  0.34695602641E+03  0.34695602641E+03  0.00000000000E+00 0. -1.
          2   -1    0    0  502    0 -0.00000000000E+00 -0.00000000000E+00 -0.37620488043E+04  0.37620488043E+04  0.00000000000E+00 0. -1.
         24    2    1    2    0    0  0.12321095184E+03  0.28741430957E+02  0.70235334371E+01  0.14401100496E+03  0.68431213798E+02 0.  0.
         25    2    1    2    0    0 -0.22738700859E+03 -0.40850695418E+01 -0.49704375011E+03  0.56071396665E+03  0.12500449351E+03 0.  0.
         24    2    1    2    0    0  0.44921600081E+01  0.13483018463E+03 -0.35414490395E+03  0.38730325522E+03  0.79911452995E+02 0.  0.
        -11    1    3    3    0    0  0.58742222678E+02  0.48533340922E+02 -0.94063281200E-01  0.76198049543E+02  0.00000000000E+00 0.  1.
         12    1    3    3    0    0  0.64468729163E+02 -0.19791909965E+02  0.71175967183E+01  0.67812955421E+02  0.00000000000E+00 0. -1.
        -13    1    5    5    0    0 -0.31704588473E+02  0.10446077154E+03 -0.25922413635E+03  0.28127279745E+03  0.00000000000E+00 0.  1.
         14    1    5    5    0    0  0.36196748481E+02  0.30369413093E+02 -0.94920767605E+02  0.10603045777E+03  0.00000000000E+00 0. -1.
          5    1    4    4  501    0 -0.78510664656E+02 -0.49418965298E+02 -0.11279575214E+03  0.14612025970E+03  0.47000000000E+01 0.  1.
         -5    1    4    4    0  501 -0.14887634393E+03  0.45333895756E+02 -0.38424799798E+03  0.41459370694E+03  0.47000000000E+01 0.  1.
          1    1    1    2  502    0  0.43544928921E+02 -0.93890201912E+02 -0.27845985058E+04  0.27865211948E+04  0.00000000000E+00 0. -1.
          1    1    1    2  503    0  0.56138967818E+02 -0.65596344134E+02  0.21367084850E+03  0.23045540907E+03  0.00000000000E+00 0. -1.
<mgrwt>
<rscale>  0 0.94821252E+02</rscale>
<asrwt>0</asrwt>
<pdfrwt beam="1">  1        2 0.51022946E-01 0.86339238E+02</pdfrwt>
<pdfrwt beam="2">  1        2 0.55324246E+00 0.10413654E+03</pdfrwt>
<totfact> 0.15871161E+01</totfact>
</mgrwt>
</event>
<event>
13    1  0.1675423E-008  0.1109994E+03  0.7546771E-02  0.1292149E+00
          2   -1    0    0  503    0  0.00000000000E+00  0.00000000000E+00  0.26021975014E+04  0.26021975014E+04  0.00000000000E+00 0. -1.
          2   -1    0    0  502    0 -0.00000000000E+00 -0.00000000000E+00 -0.99316938450E+03  0.99316938450E+03  0.00000000000E+00 0. -1.
         24    2    1    2    0    0  0.62846692540E+02  0.70875410444E+02  0.90434034605E+03  0.91283476706E+03  0.80391665580E+02 0.  0.
         25    2    1    2    0    0 -0.73579535078E+02 -0.10957867977E+03 -0.16490129858E+02  0.18252139933E+03  0.12498280597E+03 0.  0.
         24    2    1    2    0    0  0.32671098244E+02 -0.20064511623E+02  0.60696113490E+02  0.10705907882E+03  0.79420670348E+02 0.  0.
        -13    1    5    5    0    0 -0.75868629329E+01  0.25253011491E+02  0.26853916353E+02  0.37635194991E+02  0.00000000000E+00 0.  1.
         14    1    5    5    0    0  0.40257961177E+02 -0.45317523114E+02  0.33842197137E+02  0.69423883832E+02  0.00000000000E+00 0. -1.
        -13    1    3    3    0    0  0.55563797619E+02  0.10402629031E+02  0.28824287538E+03  0.29373373232E+03  0.00000000000E+00 0.  1.
         14    1    3    3    0    0  0.72828949217E+01  0.60472781413E+02  0.61609747067E+03  0.61910103474E+03  0.00000000000E+00 0. -1.
          5    1    4    4  501    0 -0.55960687462E+02 -0.13724478541E+03 -0.17840101303E+02  0.14935892634E+03  0.47000000000E+01 0. -1.
         -5    1    4    4    0  501 -0.17618847615E+02  0.27666105630E+02  0.13499714454E+01  0.33162472992E+02  0.47000000000E+01 0. -1.
          1    1    1    2  502    0 -0.67486516531E+02 -0.44014544517E+02 -0.86228473030E+03  0.86604079936E+03  0.00000000000E+00 0. -1.
          1    1    1    2  503    0  0.45548260825E+02  0.10278232547E+03  0.15227665175E+04  0.15269108413E+04  0.00000000000E+00 0. -1.
<mgrwt>
<rscale>  0 0.94569267E+02</rscale>
<asrwt>0</asrwt>
<pdfrwt beam="1">  1        2 0.38267610E+00 0.11099936E+03</pdfrwt>
<pdfrwt beam="2">  1        2 0.14605432E+00 0.80571149E+02</pdfrwt>
<totfact> 0.21365927E+01</totfact>
</mgrwt>
</event>
<event>
13    1  0.1675423E-008  0.1067255E+03  0.7546771E-02  0.1285037E+00
          2   -1    0    0  503    0  0.00000000000E+00  0.00000000000E+00  0.20894147909E+04  0.20894147909E+04  0.00000000000E+00 0. -1.
          2   -1    0    0  502    0 -0.00000000000E+00 -0.00000000000E+00 -0.93846600579E+03  0.93846600579E+03  0.00000000000E+00 0. -1.
         24    2    1    2    0    0 -0.36974709515E+02 -0.22668418211E+02  0.12117915385E+03  0.15534223842E+03  0.86981822135E+02 0.  0.
         25    2    1    2    0    0 -0.24008141691E+02 -0.16786310362E+02 -0.24095451855E+03  0.27302320706E+03  0.12499768197E+03 0.  0.
         24    2    1    2    0    0 -0.65694404718E+02  0.10401817237E+03 -0.40177426310E+02  0.15436315868E+03  0.84132182771E+02 0.  0.
        -11    1    3    3    0    0 -0.65075252260E+02 -0.85041224689E+01  0.85122321096E+02  0.10748450169E+03  0.00000000000E+00 0.  1.
         12    1    3    3    0    0  0.28100542744E+02 -0.14164295742E+02  0.36056832757E+02  0.47857736730E+02  0.00000000000E+00 0. -1.
        -13    1    5    5    0    0 -0.74606927998E+01  0.86546156672E+02 -0.13262682573E+02  0.87873761276E+02  0.00000000000E+00 0.  1.
         14    1    5    5    0    0 -0.58233711918E+02  0.17472015694E+02 -0.26914743737E+02  0.66489397400E+02  0.00000000000E+00 0. -1.
          5    1    4    4  501    0 -0.37549218359E+02 -0.15040851302E+01 -0.24803290255E+03  0.25090758621E+03  0.47000000000E+01 0.  1.
         -5    1    4    4    0  501  0.13541076668E+02 -0.15282225232E+02  0.70783839957E+01  0.22115620845E+02  0.47000000000E+01 0.  1.
          1    1    1    2  502    0  0.11183668240E+02 -0.10674479677E+03 -0.56001117587E+03  0.57020351032E+03  0.00000000000E+00 0. -1.
          1    1    1    2  503    0  0.11549358768E+03  0.42181352976E+02  0.18709127520E+04  0.18749486822E+04  0.00000000000E+00 0. -1.
<mgrwt>
<rscale>  0 0.97779070E+02</rscale>
<asrwt>0</asrwt>
<pdfrwt beam="1">  1        2 0.30726688E+00 0.89582597E+02</pdfrwt>
<pdfrwt beam="2">  1        2 0.13800971E+00 0.10672549E+03</pdfrwt>
<totfact> 0.41603136E+01</totfact>
</mgrwt>
</event>
<event>
13    1  0.1675423E-008  0.1418219E+03  0.7546771E-02  0.1324284E+00
         -1   -1    0    0    0  501 -0.00000000000E+00  0.00000000000E+00  0.19003334598E+04  0.19003334598E+04  0.00000000000E+00 0.  1.
          2   -1    0    0  503    0  0.00000000000E+00 -0.00000000000E+00 -0.10314616595E+04  0.10314616595E+04  0.00000000000E+00 0. -1.
         24    2    1    2    0    0  0.41913192829E+02  0.28563843565E+02 -0.20148684402E+03  0.22330799476E+03  0.81834609551E+02 0.  0.
         25    2    1    2    0    0 -0.11967391089E+03 -0.52748471206E+02 -0.44627787807E+03  0.48155021326E+03  0.12498966865E+03 0.  0.
         24    2    1    2    0    0  0.28264105742E+01 -0.39101760027E+02 -0.16122767796E+01  0.83701845027E+02  0.73935534018E+02 0.  0.
        -11    1    5    5    0    0 -0.28793210936E+02 -0.21585496048E+02  0.20413599621E+02  0.41372668334E+02  0.00000000000E+00 0.  1.
         12    1    5    5    0    0  0.31619621510E+02 -0.17516263979E+02 -0.22025876400E+02  0.42329176692E+02  0.00000000000E+00 0. -1.
        -13    1    3    3    0    0  0.26437945552E+02 -0.27316825295E+02 -0.88218210062E+02  0.96060535579E+02  0.00000000000E+00 0.  1.
         14    1    3    3    0    0  0.15475247277E+02  0.55880668859E+02 -0.11326863395E+03  0.12724745918E+03  0.00000000000E+00 0. -1.
          5    1    4    4  502    0 -0.68659254842E+02 -0.39254304939E+02 -0.40941179212E+03  0.41700731320E+03  0.47000000000E+01 0.  1.
         -5    1    4    4    0  502 -0.51014656047E+02 -0.13494166267E+02 -0.36866085952E+02  0.64542900061E+02  0.47000000000E+01 0.  1.
          1    1    1    2  503    0 -0.45637673144E+02 -0.11523922188E+02 -0.30795272154E+03  0.31152925496E+03  0.00000000000E+00 0. -1.
         -2    1    1    2    0  501  0.12057198063E+03  0.74810309856E+02  0.18262015207E+04  0.18317058113E+04  0.00000000000E+00 0.  1.
<mgrwt>
<rscale>  0 0.81704208E+02</rscale>
<asrwt>0</asrwt>
<pdfrwt beam="2">  1        2 0.15168554E+00 0.47070139E+02</pdfrwt>
<pdfrwt beam="1">  1       -1 0.27946081E+00 0.14182192E+03</pdfrwt>
<totfact> 0.18886025E+00</totfact>
</mgrwt>
</event>
<event>
13    1  0.1675423E-008  0.5148788E+02  0.7546771E-02  0.1487209E+00
         -3   -1    0    0    0  501 -0.00000000000E+00  0.00000000000E+00  0.46839170274E+03  0.46839170274E+03  0.00000000000E+00 0.  1.
          2   -1    0    0  503    0  0.00000000000E+00 -0.00000000000E+00 -0.13870119664E+04  0.13870119664E+04  0.00000000000E+00 0. -1.
         24    2    1    2    0    0  0.12998437061E+03 -0.12701659656E+03 -0.19270330036E+03  0.27720967802E+03  0.81740389122E+02 0.  0.
         25    2    1    2    0    0 -0.65900414369E+02  0.13292974483E+03 -0.52597417306E+03  0.56062159760E+03  0.12503824733E+03 0.  0.
         24    2    1    2    0    0 -0.92286558256E+02  0.20507743899E+02  0.22932172946E+03  0.26129865991E+03  0.82165428701E+02 0.  0.
        -13    1    3    3    0    0  0.13833126049E+03 -0.12700574657E+03 -0.17109873394E+03  0.25404876313E+03  0.00000000000E+00 0.  1.
         14    1    3    3    0    0 -0.83468898823E+01 -0.10849989647E-01 -0.21604566420E+02  0.23160914892E+02  0.00000000000E+00 0. -1.
        -13    1    5    5    0    0 -0.47837678874E+02  0.33665768418E+02  0.19509673895E+03  0.20367760072E+03  0.00000000000E+00 0.  1.
         14    1    5    5    0    0 -0.44448879381E+02 -0.13158024518E+02  0.34224990508E+02  0.57621059195E+02  0.00000000000E+00 0. -1.
          5    1    4    4  502    0  0.12993871508E+02  0.92946464326E+02 -0.17487563316E+03  0.19852320520E+03  0.47000000000E+01 0. -1.
         -5    1    4    4    0  502 -0.78894285877E+02  0.39983280504E+02 -0.35109853990E+03  0.36209839240E+03  0.47000000000E+01 0. -1.
          1    1    1    2  503    0  0.51568280419E+02  0.85583516370E+00 -0.58965743776E+03  0.59190870403E+03  0.00000000000E+00 0. -1.
         -4    1    1    2    0  501 -0.23365678400E+02 -0.27276727333E+02  0.16039291807E+03  0.16436502958E+03  0.00000000000E+00 0.  1.
<mgrwt>
<rscale>  0 0.43002905E+02</rscale>
<asrwt>0</asrwt>
<pdfrwt beam="2">  1        2 0.20397235E+00 0.51487876E+02</pdfrwt>
<pdfrwt beam="1">  1       -3 0.68881131E-01 0.35916219E+02</pdfrwt>
<totfact> 0.22668219E+01</totfact>
</mgrwt>
</event>
<event>
13    1  0.1675423E-008  0.1069867E+03  0.7546771E-02  0.1435583E+00
          2   -1    0    0  502    0  0.00000000000E+00  0.00000000000E+00  0.98914451809E+03  0.98914451809E+03  0.00000000000E+00 0. -1.
          2   -1    0    0  503    0 -0.00000000000E+00 -0.00000000000E+00 -0.29376684280E+04  0.29376684280E+04  0.00000000000E+00 0. -1.
         24    2    1    2    0    0  0.34269951465E+03 -0.14009215506E+03  0.16391472462E+03  0.41272246739E+03  0.80018928318E+02 0.  0.
         25    2    1    2    0    0 -0.12684107126E+03  0.12498630363E+03 -0.14683530208E+04  0.14843839881E+04  0.12499998827E+03 0.  0.
         24    2    1    2    0    0 -0.31031065496E+03  0.10704682284E+03  0.77026284215E+02  0.34691787475E+03  0.81653159762E+02 0.  0.
        -13    1    3    3    0    0  0.14637304879E+03 -0.93782948596E+02  0.49188819299E+02  0.18066502374E+03  0.00000000000E+00 0.  1.
         14    1    3    3    0    0  0.19632646585E+03 -0.46309206468E+02  0.11472590533E+03  0.23205744364E+03  0.00000000000E+00 0. -1.
        -13    1    5    5    0    0 -0.67479567278E+02  0.61235293118E+02  0.19001326481E+02  0.93082240687E+02  0.00000000000E+00 0.  1.
         14    1    5    5    0    0 -0.24283108768E+03  0.45811529724E+02  0.58024957733E+02  0.25383563406E+03  0.00000000000E+00 0. -1.
          5    1    4    4  501    0 -0.38951733686E+01  0.43515152990E+02 -0.11667884314E+03  0.12467872052E+03  0.47000000000E+01 0.  1.
         -5    1    4    4    0  501 -0.12294589790E+03  0.81471150636E+02 -0.13516741777E+04  0.13597052676E+04  0.47000000000E+01 0.  1.
          1    1    1    2  502    0  0.78673985023E+02 -0.72376823091E+02  0.47476297563E+03  0.48664965167E+03  0.00000000000E+00 0. -1.
          1    1    1    2  503    0  0.15778226553E+02 -0.19564148312E+02 -0.11958748736E+04  0.11961389641E+04  0.00000000000E+00 0. -1.
<mgrwt>
<rscale>  0 0.51855395E+02</rscale>
<asrwt>0</asrwt>
<pdfrwt beam="1">  1        2 0.14546243E+00 0.10698665E+03</pdfrwt>
<pdfrwt beam="2">  1        2 0.43201006E+00 0.25133809E+02</pdfrwt>
<totfact> 0.18179637E+01</totfact>
</mgrwt>
</event>
<event>
13    1  0.1675423E-008  0.3367098E+02  0.7546771E-02  0.1580276E+00
          2   -1    0    0  503    0  0.00000000000E+00  0.00000000000E+00  0.15507940216E+04  0.15507940216E+04  0.00000000000E+00 0. -1.
         -3   -1    0    0    0  501 -0.00000000000E+00 -0.00000000000E+00 -0.41409034366E+04  0.41409034366E+04  0.00000000000E+00 0.  1.
         24    2    1    2    0    0  0.74849251833E+02  0.94945814372E+03 -0.13272552193E+04  0.16356778754E+04  0.82234528608E+02 0.  0.
         25    2    1    2    0    0 -0.12508003837E+03  0.22593768518E+03  0.10884345211E+03  0.30686478838E+03  0.12500499070E+03 0.  0.
         24    2    1    2    0    0  0.29970447933E+02 -0.11484470299E+04 -0.12247658523E+04  0.16824494039E+04  0.10371015071E+03 0.  0.
        -13    1    5    5    0    0 -0.24971273832E+02 -0.37109110661E+03 -0.34704161040E+03  0.50869445964E+03  0.00000000000E+00 0.  1.
         14    1    5    5    0    0  0.54941721765E+02 -0.77735592332E+03 -0.87772424187E+03  0.11737549442E+04  0.00000000000E+00 0. -1.
        -13    1    3    3    0    0  0.68436422953E+02  0.51408166655E+03 -0.77270157552E+03  0.93060798873E+03  0.00000000000E+00 0.  1.
         14    1    3    3    0    0  0.64128288795E+01  0.43537647717E+03 -0.55455364380E+03  0.70506988668E+03  0.00000000000E+00 0. -1.
          5    1    4    4  502    0  0.25180775640E+01  0.65664084682E+02 -0.14817576795E+02  0.67526019532E+02  0.47000000000E+01 0. -1.
         -5    1    4    4    0  502 -0.12759811593E+03  0.16027360050E+03  0.12366102890E+03  0.23933876885E+03  0.47000000000E+01 0. -1.
          1    1    1    2  503    0 -0.90273322925E+01 -0.32439609870E+02  0.95939082552E+03  0.95998155040E+03  0.00000000000E+00 0. -1.
         -4    1    1    2    0  501  0.29287670895E+02  0.54908108998E+01 -0.11063226210E+04  0.11067238402E+04  0.00000000000E+00 0.  1.
<mgrwt>
<rscale>  0 0.31675314E+02</rscale>
<asrwt>0</asrwt>
<pdfrwt beam="1">  1        2 0.22805795E+00 0.33670980E+02</pdfrwt>
<pdfrwt beam="2">  1       -3 0.60895638E+00 0.29797931E+02</pdfrwt>
<totfact> 0.16981200E-02</totfact>
</mgrwt>
</event>
<event>
13    1  0.1675423E-008  0.1025943E+03  0.7546771E-02  0.1366624E+00
          2   -1    0    0  503    0  0.00000000000E+00  0.00000000000E+00  0.11846513620E+04  0.11846513620E+04  0.00000000000E+00 0. -1.
         -1   -1    0    0    0  501 -0.00000000000E+00 -0.00000000000E+00 -0.67175414896E+03  0.67175414896E+03  0.00000000000E+00 0.  1.
         24    2    1    2    0    0  0.41749734047E+02 -0.28434215153E+01  0.20984024049E+03  0.22829578727E+03  0.79592176882E+02 0.  0.
         25    2    1    2    0    0 -0.96185726679E+02 -0.12334960162E+03 -0.11008216309E+03  0.22849033934E+03  0.12499173693E+03 0.  0.
         24    2    1    2    0    0  0.20993466396E+02  0.14883499342E+02  0.10455086755E+03  0.13354009054E+03  0.78992579986E+02 0.  0.
        -11    1    5    5    0    0  0.28298418830E+02  0.22904877150E+02  0.91692412812E+01  0.37543426738E+02  0.00000000000E+00 0.  1.
         12    1    5    5    0    0 -0.73049524342E+01 -0.80213778087E+01  0.95381626269E+02  0.95996663806E+02  0.00000000000E+00 0. -1.
        -13    1    3    3    0    0  0.17310196524E+02 -0.39024418543E+02  0.13567173905E+03  0.14222998602E+03  0.00000000000E+00 0.  1.
         14    1    3    3    0    0  0.24439537522E+02  0.36180997028E+02  0.74168501434E+02  0.86065801252E+02  0.00000000000E+00 0. -1.
          5    1    4    4  502    0 -0.46300886322E+02 -0.12313157149E+03 -0.31593094323E+02  0.13537122878E+03  0.47000000000E+01 0. -1.
         -5    1    4    4    0  502 -0.49884840357E+02 -0.21803013438E+00 -0.78489068771E+02  0.93119110558E+02  0.47000000000E+01 0. -1.
          1    1    1    2  503    0 -0.28364921867E+02  0.35221491074E+02  0.78165527938E+03  0.78296238608E+03  0.00000000000E+00 0. -1.
         -2    1    1    2    0  501  0.61807448103E+02  0.76088032724E+02 -0.47306701128E+03  0.48311690772E+03  0.00000000000E+00 0.  1.
<mgrwt>
<rscale>  0 0.68114804E+02</rscale>
<asrwt>0</asrwt>
<pdfrwt beam="1">  1        2 0.17421344E+00 0.45223028E+02</pdfrwt>
<pdfrwt beam="2">  1       -1 0.98787375E-01 0.10259434E+03</pdfrwt>
<totfact> 0.30332196E+01</totfact>
</mgrwt>
</event>
<event>
13    1  0.1675423E-008  0.7791583E+02  0.7546771E-02  0.1368338E+00
          2   -1    0    0  502    0  0.00000000000E+00  0.00000000000E+00  0.95806390988E+03  0.95806390988E+03  0.00000000000E+00 0. -1.
          2   -1    0    0  503    0 -0.00000000000E+00 -0.00000000000E+00 -0.32163186781E+04  0.32163186781E+04  0.00000000000E+00 0. -1.
         24    2    1    2    0    0  0.10956887368E+03 -0.90977720837E+02  0.45457266933E+03  0.48324818495E+03  0.81303215107E+02 0.  0.
         25    2    1    2    0    0 -0.71121757608E+02  0.98837901184E+02 -0.11587543091E+04  0.11718207550E+04  0.12500039157E+03 0.  0.
         24    2    1    2    0    0 -0.66561908219E+02 -0.62423819081E+01 -0.20363435641E+03  0.22778815691E+03  0.77142973491E+02 0.  0.
        -11    1    3    3    0    0  0.26283799106E+01 -0.15147108519E+02  0.16101865728E+03  0.16175089264E+03  0.00000000000E+00 0.  1.
         12    1    3    3    0    0  0.10694049377E+03 -0.75830612318E+02  0.29355401206E+03  0.32149729231E+03  0.00000000000E+00 0. -1.
        -11    1    5    5    0    0  0.10023407038E+02 -0.67353884852E+01 -0.89675299731E+02  0.90484769595E+02  0.00000000000E+00 0.  1.
         12    1    5    5    0    0 -0.76585315257E+02  0.49300657709E+00 -0.11395905668E+03  0.13730338732E+03  0.00000000000E+00 0. -1.
          5    1    4    4  501    0 -0.88031011131E+01  0.11018582289E+03 -0.69970786460E+03  0.70840073118E+03  0.47000000000E+01 0. -1.
         -5    1    4    4    0  501 -0.62318656495E+02 -0.11347921710E+02 -0.45904644447E+03  0.46342002380E+03  0.47000000000E+01 0. -1.
          1    1    1    2  502    0 -0.35528414972E+02 -0.46732924434E+02  0.46787275504E+03  0.47154124889E+03  0.00000000000E+00 0. -1.
          1    1    1    2  503    0  0.63643207123E+02  0.45115125996E+02 -0.18183115271E+04  0.18199842423E+04  0.00000000000E+00 0. -1.
<mgrwt>
<rscale>  0 0.67631505E+02</rscale>
<asrwt>0</asrwt>
<pdfrwt beam="1">  1        2 0.14089175E+00 0.58704638E+02</pdfrwt>
<pdfrwt beam="2">  1        2 0.47298804E+00 0.77915827E+02</pdfrwt>
<totfact> 0.11411348E+01</totfact>
</mgrwt>
</event>
<event>
13    1  0.1675423E-008  0.3168084E+03  0.7546771E-02  0.1137456E+00
          2   -1    0    0  502    0  0.00000000000E+00  0.00000000000E+00  0.22893405314E+04  0.22893405314E+04  0.00000000000E+00 0. -1.
          2   -1    0    0  503    0 -0.00000000000E+00 -0.00000000000E+00 -0.23877202558E+04  0.23877202558E+04  0.00000000000E+00 0. -1.
         24    2    1    2    0    0 -0.41384831878E+03 -0.24138598890E+03  0.54738715941E+03  0.73183365722E+03  0.80063555721E+02 0.  0.
         25    2    1    2    0    0  0.75316119853E+03  0.32127279399E+03  0.38010689857E+03  0.91135782359E+03  0.12499531651E+03 0.  0.
         24    2    1    2    0    0 -0.55386095930E+02 -0.91792256990E+02 -0.14765877482E+03  0.19508199070E+03  0.68995878487E+02 0.  0.
        -11    1    3    3    0    0 -0.26506007928E+03 -0.19154488561E+03  0.39869872397E+03  0.51566167332E+03  0.00000000000E+00 0.  1.
         12    1    3    3    0    0 -0.14878823949E+03 -0.49841103286E+02  0.14868843544E+03  0.21617198390E+03  0.00000000000E+00 0. -1.
        -11    1    5    5    0    0  0.62851517608E+01 -0.48425635897E+02 -0.37385335378E+02  0.61499663788E+02  0.00000000000E+00 0.  1.
         12    1    5    5    0    0 -0.61671247691E+02 -0.43366621094E+02 -0.11027343944E+03  0.13358232691E+03  0.00000000000E+00 0. -1.
          5    1    4    4  501    0  0.33426206467E+03  0.11537715482E+03  0.22642832950E+03  0.41992248586E+03  0.47000000000E+01 0. -1.
         -5    1    4    4    0  501  0.41889913386E+03  0.20589563917E+03  0.15367856908E+03  0.49143533774E+03  0.47000000000E+01 0. -1.
          1    1    1    2  502    0 -0.24081186626E+03 -0.20635067976E+03  0.94770821586E+03  0.99936070584E+03  0.00000000000E+00 0. -1.
          1    1    1    2  503    0 -0.43114917569E+02  0.21825613165E+03 -0.18259232234E+04  0.18394266098E+04  0.00000000000E+00 0. -1.
<mgrwt>
<rscale>  0 0.21527408E+03</rscale>
<asrwt>0</asrwt>
<pdfrwt beam="1">  1        2 0.33666773E+00 0.31680839E+03</pdfrwt>
<pdfrwt beam="2">  1        2 0.35113533E+00 0.14628062E+03</pdfrwt>
<totfact> 0.51575673E+00</totfact>
</mgrwt>
</event>
<event>
13    1  0.1675423E-008  0.6419329E+02  0.7546771E-02  0.1386462E+00
          2   -1    0    0  502    0  0.00000000000E+00  0.00000000000E+00  0.43342788554E+03  0.43342788554E+03  0.00000000000E+00 0. -1.
          2   -1    0    0  503    0 -0.00000000000E+00 -0.00000000000E+00 -0.18899129009E+04  0.18899129009E+04  0.00000000000E+00 0. -1.
         24    2    1    2    0    0 -0.61034356635E+02 -0.63616438578E+02  0.21589137563E+03  0.24702334489E+03  0.81481304003E+02 0.  0.
         25    2    1    2    0    0  0.12731149584E+03  0.91838097715E+02 -0.95659943030E+03  0.97742003840E+03  0.12500003302E+03 0.  0.
         24    2    1    2    0    0  0.44522313698E+02 -0.86129229803E+02 -0.59360614808E+02  0.13996853505E+03  0.81651868130E+02 0.  0.
        -11    1    3    3    0    0 -0.23060024084E+02 -0.64799313899E+02  0.78000608447E+02  0.10399428211E+03  0.00000000000E+00 0.  1.
         12    1    3    3    0    0 -0.37974332550E+02  0.11828753215E+01  0.13789076718E+03  0.14302906278E+03  0.00000000000E+00 0. -1.
        -11    1    5    5    0    0 -0.14821229330E+02  0.61726650501E+01 -0.20932281168E+01  0.16191115979E+02  0.00000000000E+00 0.  1.
         12    1    5    5    0    0  0.59343543028E+02 -0.92301894853E+02 -0.57267386691E+02  0.12377741907E+03  0.00000000000E+00 0. -1.
          5    1    4    4  501    0  0.12057055191E+03  0.10577334184E+03 -0.61985083934E+03  0.64028307088E+03  0.47000000000E+01 0. -1.
         -5    1    4    4    0  501  0.67409439385E+01 -0.13935244123E+02 -0.33674859096E+03  0.33713696752E+03  0.47000000000E+01 0. -1.
          1    1    1    2  502    0 -0.58184833577E+02  0.26204382441E+02  0.14329502318E+03  0.15686174864E+03  0.00000000000E+00 0. -1.
          1    1    1    2  503    0 -0.52614619330E+02  0.31703188225E+02 -0.79971136905E+03  0.80206711945E+03  0.00000000000E+00 0. -1.
<mgrwt>
<rscale>  0 0.62795386E+02</rscale>
<asrwt>0</asrwt>
<pdfrwt beam="1">  1        2 0.63739395E-01 0.64193286E+02</pdfrwt>
<pdfrwt beam="2">  1        2 0.27792837E+00 0.61427928E+02</pdfrwt>
<totfact> 0.13093068E+02</totfact>
</mgrwt>
</event>
<event>
13    1  0.1675423E-008  0.6827672E+02  0.7546771E-02  0.1393822E+00
          2   -1    0    0  503    0  0.00000000000E+00  0.00000000000E+00  0.26589021966E+04  0.26589021966E+04  0.00000000000E+00 0. -1.
          2   -1    0    0  502    0 -0.00000000000E+00 -0.00000000000E+00 -0.12167169840E+04  0.12167169840E+04  0.00000000000E+00 0. -1.
         24    2    1    2    0    0 -0.40641496819E+02  0.14312863439E+02  0.65765742314E+03  0.66355187799E+03  0.77014409302E+02 0.  0.
         25    2    1    2    0    0 -0.99522280025E+02  0.55870831648E+02 -0.77749311657E+03  0.79571709150E+03  0.12507561449E+03 0.  0.
         24    2    1    2    0    0  0.80168515348E+02 -0.38987358852E+02  0.10265470332E+03  0.15006064909E+03  0.63507521513E+02 0.  0.
        -13    1    5    5    0    0  0.85217297419E+02 -0.17010841967E+02  0.80834876885E+02  0.11868291303E+03  0.00000000000E+00 0.  1.
         14    1    5    5    0    0 -0.50487820717E+01 -0.21976516885E+02  0.21819826432E+02  0.31377736061E+02  0.00000000000E+00 0. -1.
        -13    1    3    3    0    0 -0.28579171366E+02  0.12181477559E+01  0.69922952952E+02  0.75547814459E+02  0.00000000000E+00 0.  1.
         14    1    3    3    0    0 -0.12062325453E+02  0.13094715683E+02  0.58773447019E+03  0.58800406353E+03  0.00000000000E+00 0. -1.
          5    1    4    4  501    0 -0.75888669631E+02 -0.10987213665E+02 -0.59391335538E+03  0.59886139694E+03  0.47000000000E+01 0. -1.
         -5    1    4    4    0  501 -0.23633610394E+02  0.66858045314E+02 -0.18357976120E+03  0.19685569457E+03  0.47000000000E+01 0. -1.
          1    1    1    2  502    0  0.18073856079E+02 -0.65925111815E+02 -0.40016505155E+03  0.40596163997E+03  0.00000000000E+00 0. -1.
          1    1    1    2  503    0  0.41921405417E+02  0.34728775580E+02  0.18595312543E+04  0.18603279221E+04  0.00000000000E+00 0. -1.
<mgrwt>
<rscale>  0 0.60965938E+02</rscale>
<asrwt>0</asrwt>
<pdfrwt beam="1">  1        2 0.39101503E+00 0.54437965E+02</pdfrwt>
<pdfrwt beam="2">  1        2 0.17892897E+00 0.68276718E+02</pdfrwt>
<totfact> 0.16893107E+01</totfact>
</mgrwt>
</event>
<event>
13    1  0.1675423E-008  0.9907687E+02  0.7546771E-02  0.1394454E+00
         -3   -1    0    0    0  501 -0.00000000000E+00  0.00000000000E+00  0.46496496960E+03  0.46496496960E+03  0.00000000000E+00 0.  1.
          2   -1    0    0  503    0  0.00000000000E+00 -0.00000000000E+00 -0.14536483824E+04  0.14536483824E+04  0.00000000000E+00 0. -1.
         24    2    1    2    0    0  0.17080192430E+03 -0.38762914432E+02 -0.55564594062E+03  0.58804225831E+03  0.79846260716E+02 0.  0.
         25    2    1    2    0    0 -0.55861552708E+02  0.82401926158E+02 -0.14643316119E+03  0.21674643062E+03  0.12500301590E+03 0.  0.
         24    2    1    2    0    0  0.11646100117E+02 -0.16848751328E+02  0.11072503320E+03  0.13882475632E+03  0.81195861477E+02 0.  0.
        -13    1    3    3    0    0  0.12878870895E+03 -0.41494348810E+02 -0.50161929904E+03  0.51954810529E+03  0.00000000000E+00 0.  1.
         14    1    3    3    0    0  0.42013215355E+02  0.27314343774E+01 -0.54026641579E+02  0.68494153025E+02  0.00000000000E+00 0. -1.
        -13    1    5    5    0    0 -0.34286916057E+02 -0.14208739830E+02  0.57882451531E+02  0.68759429139E+02  0.00000000000E+00 0.  1.
         14    1    5    5    0    0  0.45933016174E+02 -0.26400114983E+01  0.52842581665E+02  0.70065327178E+02  0.00000000000E+00 0. -1.
          5    1    4    4  502    0 -0.78171300457E+02  0.69372668383E+02 -0.48429891401E+02  0.11528600832E+03  0.47000000000E+01 0.  1.
         -5    1    4    4    0  502  0.22309747749E+02  0.13029257775E+02 -0.98003269790E+02  0.10146042229E+03  0.47000000000E+01 0.  1.
          1    1    1    2  503    0 -0.22862442521E+02  0.29505053155E+02 -0.67357113535E+03  0.67460456107E+03  0.00000000000E+00 0. -1.
         -4    1    1    2    0  501 -0.10372402919E+03 -0.56295313552E+02  0.27624179113E+03  0.30039534571E+03  0.00000000000E+00 0.  1.
<mgrwt>
<rscale>  0 0.60812461E+02</rscale>
<asrwt>0</asrwt>
<pdfrwt beam="2">  1        2 0.21377182E+00 0.37326123E+02</pdfrwt>
<pdfrwt beam="1">  1       -3 0.68377202E-01 0.99076871E+02</pdfrwt>
<totfact> 0.23075512E+01</totfact>
</mgrwt>
</event>
<event>
13    1  0.3249481E-008  0.3972401E+02  0.7546771E-02  0.1531460E+00
          2   -1    0    0  502    0  0.00000000000E+00  0.00000000000E+00  0.57282721036E+03  0.57282721036E+03  0.00000000000E+00 0. -1.
          2   -1    0    0  503    0 -0.00000000000E+00 -0.00000000000E+00 -0.28804043863E+04  0.28804043863E+04  0.00000000000E+00 0. -1.
         24    2    1    2    0    0 -0.24505346036E+02  0.21786846360E+01  0.22864453459E+03  0.24304927496E+03  0.78672537820E+02 0.  0.
         25    2    1    2    0    0  0.89903939533E+02  0.10137316160E+03 -0.18641938220E+04  0.18732868968E+04  0.12500382197E+03 0.  0.
         24    2    1    2    0    0 -0.40499040414E+02 -0.40490798834E+02  0.10065474637E+03  0.14081088326E+03  0.80103993741E+02 0.  0.
        -11    1    5    5    0    0 -0.57659440624E+02 -0.11233682199E+02  0.85319658822E+02  0.10358692432E+03  0.00000000000E+00 0.  1.
         12    1    5    5    0    0  0.17160400210E+02 -0.29257116635E+02  0.15335087552E+02  0.37223958943E+02  0.00000000000E+00 0. -1.
        -13    1    3    3    0    0  0.24114228906E+02 -0.69730091025E+01  0.13319820034E+03  0.13554290636E+03  0.00000000000E+00 0.  1.
         14    1    3    3    0    0 -0.48619574943E+02  0.91516937385E+01  0.95446334252E+02  0.10750636859E+03  0.00000000000E+00 0. -1.
          5    1    4    4  501    0  0.37904398972E+02 -0.11304870301E+02 -0.17242516897E+03  0.17696630314E+03  0.47000000000E+01 0. -1.
         -5    1    4    4    0  501  0.51999540561E+02  0.11267803190E+03 -0.16917686531E+04  0.16963205937E+04  0.47000000000E+01 0. -1.
          1    1    1    2  502    0 -0.25352885046E+02 -0.23365214083E+02  0.20989372507E+03  0.21270655334E+03  0.00000000000E+00 0. -1.
          1    1    1    2  503    0  0.45333196354E+00 -0.39695833318E+02 -0.98257635998E+03  0.98337798831E+03  0.00000000000E+00 0. -1.
<mgrwt>
<rscale>  0 0.37007931E+02</rscale>
<asrwt>0</asrwt>
<pdfrwt beam="1">  1        2 0.84239297E-01 0.34477558E+02</pdfrwt>
<pdfrwt beam="2">  1        2 0.42358887E+00 0.39724014E+02</pdfrwt>
<totfact> 0.35057469E+01</totfact>
</mgrwt>
</event>
<event>
13    1  0.1675423E-008  0.1188983E+03  0.7546771E-02  0.1252853E+00
          2   -1    0    0  503    0  0.00000000000E+00  0.00000000000E+00  0.76416156075E+03  0.76416156075E+03  0.00000000000E+00 0. -1.
          2   -1    0    0  502    0 -0.00000000000E+00 -0.00000000000E+00 -0.21675998158E+04  0.21675998158E+04  0.00000000000E+00 0. -1.
         24    2    1    2    0    0 -0.97518834826E+02 -0.25679361848E+03  0.22168418014E+03  0.36296921088E+03  0.84557002574E+02 0.  0.
         25    2    1    2    0    0  0.16326740561E+03 -0.14517005236E+02 -0.98516656107E+03  0.10065007772E+04  0.12499468932E+03 0.  0.
         24    2    1    2    0    0 -0.80083817093E+02  0.89443524275E+02  0.15866985796E+03  0.21601100653E+03  0.84089650518E+02 0.  0.
        -11    1    5    5    0    0 -0.48524395808E+01 -0.46471496761E+01 -0.79457428998E+01  0.10405623491E+02  0.00000000000E+00 0.  1.
         12    1    5    5    0    0 -0.75231377512E+02  0.94090673951E+02  0.16661560086E+03  0.20560538304E+03  0.00000000000E+00 0. -1.
        -13    1    3    3    0    0 -0.27561474092E+02 -0.76331154844E+01  0.23092576188E+02  0.36758215151E+02  0.00000000000E+00 0.  1.
         14    1    3    3    0    0 -0.69957360734E+02 -0.24916050299E+03  0.19859160395E+03  0.32621099573E+03  0.00000000000E+00 0. -1.
          5    1    4    4  501    0  0.19121411987E+02 -0.43409447185E+02 -0.12367676470E+03  0.13254448547E+03  0.47000000000E+01 0.  1.
         -5    1    4    4    0  501  0.14414599362E+03  0.28892441949E+02 -0.86148979636E+03  0.87395629177E+03  0.47000000000E+01 0.  1.
          1    1    1    2  502    0  0.75134749990E+02  0.80108910834E+02 -0.10566433464E+04  0.10623360248E+04  0.00000000000E+00 0. -1.
          1    1    1    2  503    0 -0.60799503682E+02  0.10175818860E+03  0.25801761432E+03  0.28394435704E+03  0.00000000000E+00 0. -1.
<mgrwt>
<rscale>  0 0.11427433E+03</rscale>
<asrwt>0</asrwt>
<pdfrwt beam="1">  1        2 0.11237670E+00 0.11889830E+03</pdfrwt>
<pdfrwt beam="2">  1        2 0.31876468E+00 0.10983018E+03</pdfrwt>
<totfact> 0.47916407E+01</totfact>
</mgrwt>
</event>
<event>
13    1  0.1675423E-008  0.1178908E+03  0.7546771E-02  0.1312972E+00
          2   -1    0    0  503    0  0.00000000000E+00  0.00000000000E+00  0.25090878359E+04  0.25090878359E+04  0.00000000000E+00 0. -1.
          2   -1    0    0  502    0 -0.00000000000E+00 -0.00000000000E+00 -0.38461432469E+04  0.38461432469E+04  0.00000000000E+00 0. -1.
         24    2    1    2    0    0  0.29799832167E+03 -0.39749018291E+01  0.55546443397E+02  0.31366628117E+03  0.80512912059E+02 0.  0.
         25    2    1    2    0    0 -0.34985027644E+03 -0.13159187106E+03 -0.16050862766E+04  0.16527666438E+04  0.12499594869E+03 0.  0.
         24    2    1    2    0    0  0.88936187206E+01  0.24795984353E+02  0.61075404479E+03  0.61512617149E+03  0.68306415023E+02 0.  0.
        -11    1    3    3    0    0  0.14794234326E+03 -0.21523110921E+02 -0.81213094516E+01  0.14972019537E+03  0.00000000000E+00 0.  1.
         12    1    3    3    0    0  0.15005597840E+03  0.17548209092E+02  0.63667752848E+02  0.16394608580E+03  0.00000000000E+00 0. -1.
        -13    1    5    5    0    0  0.73270383074E+01  0.37654727184E+02  0.58539145237E+03  0.58664701182E+03  0.00000000000E+00 0.  1.
         14    1    5    5    0    0  0.15665804132E+01 -0.12858742830E+02  0.25362592421E+02  0.28479159673E+02  0.00000000000E+00 0. -1.
          5    1    4    4  501    0 -0.32957125457E+03 -0.13836975642E+03 -0.13427669191E+04  0.13895353505E+04  0.47000000000E+01 0.  1.
         -5    1    4    4    0  501 -0.20279021872E+02  0.67778853570E+01 -0.26231935752E+03  0.26323129333E+03  0.47000000000E+01 0.  1.
          1    1    1    2  502    0  0.28261718556E+02 -0.55924534813E+02 -0.20813500041E+04  0.20822929952E+04  0.00000000000E+00 0. -1.
          1    1    1    2  503    0  0.14696617501E+02  0.16669532335E+03  0.16830803814E+04  0.16913789912E+04  0.00000000000E+00 0. -1.
<mgrwt>
<rscale>  0 0.85947904E+02</rscale>
<asrwt>0</asrwt>
<pdfrwt beam="1">  1        2 0.36898351E+00 0.11789083E+03</pdfrwt>
<pdfrwt beam="2">  1        2 0.56560929E+00 0.62660022E+02</pdfrwt>
<totfact> 0.80855541E-01</totfact>
</mgrwt>
</event>
<event>
13    1  0.1675423E-008  0.1697699E+03  0.7546771E-02  0.1355706E+00
          2   -1    0    0  503    0  0.00000000000E+00  0.00000000000E+00  0.19213424673E+04  0.19213424673E+04  0.00000000000E+00 0. -1.
          2   -1    0    0  502    0 -0.00000000000E+00 -0.00000000000E+00 -0.27428472628E+04  0.27428472628E+04  0.00000000000E+00 0. -1.
         24    2    1    2    0    0 -0.58176012666E+03 -0.45079332316E+03  0.78793645859E+03  0.10812075900E+04  0.80663032228E+02 0.  0.
         25    2    1    2    0    0  0.39600290728E+03  0.27805519842E+03  0.41019618285E+03  0.64654375092E+03  0.12499966996E+03 0.  0.
         24    2    1    2    0    0 -0.65634658996E+02 -0.45690334562E+02 -0.10904561992E+04  0.10962137874E+04  0.78704701342E+02 0.  0.
        -11    1    3    3    0    0 -0.48226454732E+03 -0.38921958577E+03  0.62085326704E+03  0.87722845300E+03  0.00000000000E+00 0.  1.
         12    1    3    3    0    0 -0.99495579342E+02 -0.61573737394E+02  0.16708319154E+03  0.20397913703E+03  0.00000000000E+00 0. -1.
        -13    1    5    5    0    0 -0.83088828828E+02 -0.30378367808E+02 -0.90363157556E+03  0.90795188367E+03  0.00000000000E+00 0.  1.
         14    1    5    5    0    0  0.17454169832E+02 -0.15311966754E+02 -0.18682462368E+03  0.18826190370E+03  0.00000000000E+00 0. -1.
          5    1    4    4  501    0  0.48448938263E+02  0.10620272439E+02  0.60961138013E+01  0.50193051402E+02  0.47000000000E+01 0.  1.
         -5    1    4    4    0  501  0.34755396901E+03  0.26743492598E+03  0.40410006904E+03  0.59635069952E+03  0.47000000000E+01 0.  1.
          1    1    1    2  502    0  0.22441622241E+03  0.23144056312E+03 -0.13654190302E+04  0.14029599079E+04  0.00000000000E+00 0. -1.
          1    1    1    2  503    0  0.26975655972E+02 -0.13012103815E+02  0.43623779252E+03  0.43726469385E+03  0.00000000000E+00 0. -1.
<mgrwt>
<rscale>  0 0.71306415E+02</rscale>
<asrwt>0</asrwt>
<pdfrwt beam="1">  1        2 0.28255036E+00 0.29949973E+02</pdfrwt>
<pdfrwt beam="2">  1        2 0.40335989E+00 0.16976993E+03</pdfrwt>
<totfact> 0.64968335E+00</totfact>
</mgrwt>
</event>
<event>
13    1  0.1675423E-008  0.5172797E+02  0.7546771E-02  0.1554433E+00
          2   -1    0    0  503    0  0.00000000000E+00  0.00000000000E+00  0.15647027808E+04  0.15647027808E+04  0.00000000000E+00 0. -1.
          2   -1    0    0  502    0 -0.00000000000E+00 -0.00000000000E+00 -0.22396876426E+04  0.22396876426E+04  0.00000000000E+00 0. -1.
         24    2    1    2    0    0 -0.73147878286E+00  0.25747786989E+02  0.12504822849E+04  0.12532912660E+04  0.79809578490E+02 0.  0.
         25    2    1    2    0    0 -0.71493709524E+01 -0.30612537593E+02  0.27395553775E+02  0.13177402403E+03  0.12500254429E+03 0.  0.
         24    2    1    2    0    0 -0.39838165098E+02 -0.18233786099E+02 -0.22093560341E+03  0.23885706122E+03  0.79502229441E+02 0.  0.
        -11    1    3    3    0    0  0.17266173964E+02 -0.23888089181E+02  0.57132382694E+03  0.57208362745E+03  0.00000000000E+00 0.  1.
         12    1    3    3    0    0 -0.17997652746E+02  0.49635876169E+02  0.67915845799E+03  0.68120763851E+03  0.00000000000E+00 0. -1.
        -13    1    5    5    0    0 -0.24785834826E+02 -0.43365706424E+02 -0.75683567294E+02  0.90680342192E+02  0.00000000000E+00 0.  1.
         14    1    5    5    0    0 -0.15052330272E+02  0.25131920324E+02 -0.14525203612E+03  0.14817671903E+03  0.00000000000E+00 0. -1.
          5    1    4    4  501    0  0.46509631957E+01 -0.13193583720E+02  0.76623913121E+02  0.78032148324E+02  0.47000000000E+01 0. -1.
         -5    1    4    4    0  501 -0.11800334148E+02 -0.17418953873E+02 -0.49228359346E+02  0.53741875702E+02  0.47000000000E+01 0. -1.
          1    1    1    2  502    0  0.51724957514E+02  0.64042163159E+00 -0.19552745028E+04  0.19559586556E+04  0.00000000000E+00 0. -1.
          1    1    1    2  503    0 -0.40059426806E+01  0.22458115072E+02  0.22334740562E+03  0.22450941652E+03  0.00000000000E+00 0. -1.
<mgrwt>
<rscale>  0 0.34351845E+02</rscale>
<asrwt>0</asrwt>
<pdfrwt beam="1">  1        2 0.23010335E+00 0.22812595E+02</pdfrwt>
<pdfrwt beam="2">  1        2 0.32936583E+00 0.51727971E+02</pdfrwt>
<totfact> 0.20039754E+01</totfact>
</mgrwt>
</event>
<event>
13    1  0.1675423E-008  0.7234139E+02  0.7546771E-02  0.1390570E+00
          2   -1    0    0  502    0  0.00000000000E+00  0.00000000000E+00  0.16379778599E+04  0.16379778599E+04  0.00000000000E+00 0. -1.
          2   -1    0    0  503    0 -0.00000000000E+00 -0.00000000000E+00 -0.93319821286E+03  0.93319821286E+03  0.00000000000E+00 0. -1.
         24    2    1    2    0    0 -0.99868825094E+02  0.14902653399E+03  0.10870356434E+03  0.23257454843E+03  0.10045778029E+03 0.  0.
         25    2    1    2    0    0  0.61319815193E+02 -0.17563512076E+03  0.17998638257E+03  0.28744920707E+03  0.12499653337E+03 0.  0.
         24    2    1    2    0    0 -0.64848490055E+02  0.15770301783E+02 -0.87145847209E+02  0.13635076470E+03  0.80889450910E+02 0.  0.
        -11    1    5    5    0    0  0.17026954000E+02  0.15308713692E+02 -0.16709216400E+02  0.28345577964E+02  0.00000000000E+00 0.  1.
         12    1    5    5    0    0 -0.81875444055E+02  0.46158809120E+00 -0.70436630809E+02  0.10800518674E+03  0.00000000000E+00 0. -1.
        -11    1    3    3    0    0 -0.90133905195E+01  0.58197456327E+02 -0.74745405482E+01  0.59363742200E+02  0.00000000000E+00 0.  1.
         12    1    3    3    0    0 -0.90855434574E+02  0.90829077665E+02  0.11617810489E+03  0.17321080623E+03  0.00000000000E+00 0. -1.
          5    1    4    4  501    0  0.51374410663E+02 -0.26042399842E+02  0.65682932798E+01  0.58161577842E+02  0.47000000000E+01 0.  1.
         -5    1    4    4    0  501  0.99454045302E+01 -0.14959272092E+03  0.17341808929E+03  0.22928762923E+03  0.47000000000E+01 0.  1.
          1    1    1    2  502    0  0.43579673371E+02 -0.29695608971E+02  0.12065916767E+04  0.12077435537E+04  0.00000000000E+00 0. -1.
          1    1    1    2  503    0  0.59817826585E+02  0.40533893955E+02 -0.70335612942E+03  0.70705799884E+03  0.00000000000E+00 0. -1.
<mgrwt>
<rscale>  0 0.61765271E+02</rscale>
<asrwt>0</asrwt>
<pdfrwt beam="1">  1        2 0.24087910E+00 0.52735350E+02</pdfrwt>
<pdfrwt beam="2">  1        2 0.13723503E+00 0.72341395E+02</pdfrwt>
<totfact> 0.73576706E+01</totfact>
</mgrwt>
</event>
<event>
13    1  0.1675423E-008  0.1602677E+03  0.7546771E-02  0.1312432E+00
          2   -1    0    0  502    0  0.00000000000E+00  0.00000000000E+00  0.57851983431E+03  0.57851983431E+03  0.00000000000E+00 0. -1.
          2   -1    0    0  503    0 -0.00000000000E+00 -0.00000000000E+00 -0.17072854994E+04  0.17072854994E+04  0.00000000000E+00 0. -1.
         24    2    1    2    0    0 -0.99975130484E+01 -0.25938002277E+02  0.33497434346E+02  0.89531235978E+02  0.78237036490E+02 0.  0.
         25    2    1    2    0    0  0.18716844128E+03  0.12707613238E+03 -0.88571061370E+03  0.92265338911E+03  0.12500246550E+03 0.  0.
         24    2    1    2    0    0  0.35070445026E+02  0.13607486697E+03 -0.30483928718E+03  0.34600630846E+03  0.83946822172E+02 0.  0.
        -13    1    5    5    0    0  0.44323515609E+02  0.14323609166E+03 -0.29414332469E+03  0.33015367247E+03  0.00000000000E+00 0.  1.
         14    1    5    5    0    0 -0.92530705825E+01 -0.71612246859E+01 -0.10695962490E+02  0.15852635989E+02  0.00000000000E+00 0. -1.
        -13    1    3    3    0    0  0.31278426049E+02 -0.18786102264E+02  0.30461110314E+02  0.47530377822E+02  0.00000000000E+00 0.  1.
         14    1    3    3    0    0 -0.41275939098E+02 -0.71519000122E+01  0.30363240327E+01  0.42000858156E+02  0.00000000000E+00 0. -1.
          5    1    4    4  501    0  0.19513857009E+03  0.11595466732E+03 -0.68966477467E+03  0.72607447127E+03  0.47000000000E+01 0.  1.
         -5    1    4    4    0  501 -0.79701288027E+01  0.11121465060E+02 -0.19604583903E+03  0.19657891784E+03  0.47000000000E+01 0.  1.
          1    1    1    2  502    0 -0.16607704055E+03 -0.24097573559E+03  0.43169980605E+03  0.52155115865E+03  0.00000000000E+00 0. -1.
          1    1    1    2  503    0 -0.46164332712E+02  0.37627385193E+01 -0.40341300459E+03  0.40606324148E+03  0.00000000000E+00 0. -1.
<mgrwt>
<rscale>  0 0.86157911E+02</rscale>
<asrwt>0</asrwt>
<pdfrwt beam="1">  1        2 0.85076445E-01 0.16026767E+03</pdfrwt>
<pdfrwt beam="2">  1        2 0.25107140E+00 0.46317425E+02</pdfrwt>
<totfact> 0.11870825E+02</totfact>
</mgrwt>
</event>
<event>
13    1  0.1675423E-008  0.1810576E+03  0.7546771E-02  0.1216071E+00
          2   -1    0    0  502    0  0.00000000000E+00  0.00000000000E+00  0.30427415209E+04  0.30427415209E+04  0.00000000000E+00 0. -1.
          2   -1    0    0  503    0 -0.00000000000E+00 -0.00000000000E+00 -0.14582805667E+04  0.14582805667E+04  0.00000000000E+00 0. -1.
         24    2    1    2    0    0  0.11032840994E+03 -0.86127466936E+02  0.19455193537E+03  0.25272901187E+03  0.80194758431E+02 0.  0.
         25    2    1    2    0    0  0.23200477707E+03  0.69442908836E+02  0.59253306922E+03  0.65220372244E+03  0.12500289307E+03 0.  0.
         24    2    1    2    0    0 -0.25729537393E+03  0.26311468644E+02  0.29187881042E+03  0.39709172909E+03  0.74802396410E+02 0.  0.
        -11    1    5    5    0    0 -0.18932985815E+03  0.45945499373E+02  0.24126482331E+03  0.31010562566E+03  0.00000000000E+00 0.  1.
         12    1    5    5    0    0 -0.67965515779E+02 -0.19634030729E+02  0.50613987106E+02  0.86986103423E+02  0.00000000000E+00 0. -1.
        -13    1    3    3    0    0  0.30158595939E+02  0.71548690977E+01  0.75217973860E+02  0.81354020506E+02  0.00000000000E+00 0.  1.
         14    1    3    3    0    0  0.80169814002E+02 -0.93282336033E+02  0.11933396151E+03  0.17137499136E+03  0.00000000000E+00 0. -1.
          5    1    4    4  501    0  0.67539362109E+02  0.21043083241E+02  0.60471608229E+02  0.93184130560E+02  0.47000000000E+01 0.  1.
         -5    1    4    4    0  501  0.16446541496E+03  0.48399825595E+02  0.53206146099E+03  0.55901959188E+03  0.47000000000E+01 0.  1.
          1    1    1    2  502    0 -0.18287939335E+03  0.28899492052E+02  0.18455557467E+04  0.18548196859E+04  0.00000000000E+00 0. -1.
          1    1    1    2  503    0  0.97841580275E+02 -0.38526402597E+02 -0.13400586074E+04  0.13441779383E+04  0.00000000000E+00 0. -1.
<mgrwt>
<rscale>  0 0.13798131E+03</rscale>
<asrwt>0</asrwt>
<pdfrwt beam="1">  1        2 0.44746199E+00 0.18105761E+03</pdfrwt>
<pdfrwt beam="2">  1        2 0.21445302E+00 0.10515350E+03</pdfrwt>
<totfact> 0.65431866E+00</totfact>
</mgrwt>
</event>
<event>
13    1  0.1675423E-008  0.1337592E+03  0.7546771E-02  0.1292642E+00
          2   -1    0    0  503    0  0.00000000000E+00  0.00000000000E+00  0.24177720066E+04  0.24177720066E+04  0.00000000000E+00 0. -1.
          2   -1    0    0  502    0 -0.00000000000E+00 -0.00000000000E+00 -0.21372511119E+04  0.21372511119E+04  0.00000000000E+00 0. -1.
         24    2    1    2    0    0 -0.39457338177E+02  0.29095570132E+02  0.85841337690E+03  0.86355487040E+03  0.80312233285E+02 0.  0.
         25    2    1    2    0    0  0.95024155377E+02  0.11889635911E+03 -0.21553575690E+03  0.29197057847E+03  0.12500088749E+03 0.  0.
         24    2    1    2    0    0  0.77122765123E+01 -0.37357204603E+02 -0.51059089256E+03  0.51836063617E+03  0.80868100148E+02 0.  0.
        -11    1    3    3    0    0 -0.37145364508E+02  0.32410222772E+02  0.85808538408E+03  0.85950027749E+03  0.00000000000E+00 0.  1.
         12    1    3    3    0    0 -0.23119736696E+01 -0.33146526406E+01  0.32799282582E+00  0.40545929106E+01  0.00000000000E+00 0. -1.
        -13    1    5    5    0    0  0.25033803053E+02 -0.12785445356E+02 -0.44844365473E+03  0.44932379235E+03  0.00000000000E+00 0.  1.
         14    1    5    5    0    0 -0.17321526540E+02 -0.24571759247E+02 -0.62147237826E+02  0.69036843813E+02  0.00000000000E+00 0. -1.
          5    1    4    4  501    0  0.12921912954E+02  0.11084252835E+03 -0.99929106675E+02  0.14986980445E+03  0.47000000000E+01 0.  1.
         -5    1    4    4    0  501  0.82102242423E+02  0.80538307621E+01 -0.11560665022E+03  0.14210077402E+03  0.47000000000E+01 0.  1.
          1    1    1    2  502    0 -0.78591701182E+02 -0.17540412632E+03 -0.13589544407E+04  0.13724796665E+04  0.00000000000E+00 0. -1.
          1    1    1    2  503    0  0.15312607470E+02  0.64769401681E+02  0.15071886079E+04  0.15086573670E+04  0.00000000000E+00 0. -1.
<mgrwt>
<rscale>  0 0.94352132E+02</rscale>
<asrwt>0</asrwt>
<pdfrwt beam="1">  1        2 0.35555471E+00 0.66554875E+02</pdfrwt>
<pdfrwt beam="2">  1        2 0.31430163E+00 0.13375917E+03</pdfrwt>
<totfact> 0.71793828E+00</totfact>
</mgrwt>
</event>
<event>
13    1  0.1675423E-008  0.7421913E+02  0.7546771E-02  0.1390322E+00
          4   -1    0    0  503    0 -0.00000000000E+00  0.00000000000E+00  0.24468668133E+03  0.24468668133E+03  0.00000000000E+00 0. -1.
          2   -1    0    0  502    0  0.00000000000E+00 -0.00000000000E+00 -0.98231363218E+03  0.98231363218E+03  0.00000000000E+00 0. -1.
         24    2    1    2    0    0  0.35610337095E+02  0.73056046753E+02 -0.33652107640E+02  0.11842246298E+03  0.79285139308E+02 0.  0.
         25    2    1    2    0    0 -0.32049751469E+02 -0.70597470777E+02 -0.91250920266E+02  0.17309207168E+03  0.12499178124E+03 0.  0.
         24    2    1    2    0    0 -0.29732757053E+02 -0.98609689457E+01 -0.20059341663E+03  0.21905632255E+03  0.82259820722E+02 0.  0.
        -11    1    5    5    0    0  0.17815125254E+02  0.19514488611E+02 -0.32334749783E+02  0.41757993212E+02  0.00000000000E+00 0.  1.
         12    1    5    5    0    0 -0.47547882307E+02 -0.29375457557E+02 -0.16825866685E+03  0.17729832934E+03  0.00000000000E+00 0. -1.
        -13    1    3    3    0    0  0.52879501307E+01  0.40542078219E+02 -0.55461003627E+02  0.68902434255E+02  0.00000000000E+00 0.  1.
         14    1    3    3    0    0  0.30322386965E+02  0.32513968534E+02  0.21808895987E+02  0.49520028728E+02  0.00000000000E+00 0. -1.
          5    1    4    4  501    0  0.37258984669E+02 -0.65787106455E+02 -0.34392607872E+02  0.83193249669E+02  0.47000000000E+01 0. -1.
         -5    1    4    4    0  501 -0.69308736137E+02 -0.48103643217E+01 -0.56858312394E+02  0.89898822006E+02  0.47000000000E+01 0. -1.
          1    1    1    2  502    0 -0.48494496312E+02  0.17346175861E+02 -0.55368799824E+03  0.55607823675E+03  0.00000000000E+00 0. -1.
          3    1    1    2  503    0  0.74666667738E+02 -0.99437828911E+01  0.14155749193E+03  0.16035121955E+03  0.00000000000E+00 0. -1.
<mgrwt>
<rscale>  0 0.61826708E+02</rscale>
<asrwt>0</asrwt>
<pdfrwt beam="2">  1        2 0.14445789E+00 0.51503456E+02</pdfrwt>
<pdfrwt beam="1">  1        4 0.35983335E-01 0.74219131E+02</pdfrwt>
<totfact> 0.11244154E+02</totfact>
</mgrwt>
</event>
<event>
13    1  0.1675423E-008  0.1034694E+03  0.7546771E-02  0.1281583E+00
          2   -1    0    0  503    0  0.00000000000E+00  0.00000000000E+00  0.24206526384E+04  0.24206526384E+04  0.00000000000E+00 0. -1.
          2   -1    0    0  502    0 -0.00000000000E+00 -0.00000000000E+00 -0.17048132068E+04  0.17048132068E+04  0.00000000000E+00 0. -1.
         24    2    1    2    0    0  0.42902554853E+01  0.24430425549E+01  0.19987041263E+03  0.21443843000E+03  0.77532468450E+02 0.  0.
         25    2    1    2    0    0 -0.77713967502E+01  0.19373952641E+03 -0.85590706133E+03  0.88645358497E+03  0.12501064743E+03 0.  0.
         24    2    1    2    0    0 -0.31406091190E+02 -0.91286678185E+02  0.73685578010E+01  0.12513400121E+03  0.79275610607E+02 0.  0.
        -11    1    3    3    0    0  0.34827012852E+02 -0.18129004702E+02  0.12469469512E+03  0.13073006015E+03  0.00000000000E+00 0.  1.
         12    1    3    3    0    0 -0.30536757366E+02  0.20572047257E+02  0.75175717516E+02  0.83708369849E+02  0.00000000000E+00 0. -1.
        -13    1    5    5    0    0 -0.40537917040E+02 -0.50718659801E+02 -0.27841871170E+02  0.70646124878E+02  0.00000000000E+00 0.  1.
         14    1    5    5    0    0  0.91318258502E+01 -0.40568018383E+02  0.35210428971E+02  0.54487876333E+02  0.00000000000E+00 0. -1.
          5    1    4    4  501    0 -0.32743829841E+02  0.20144862734E+03 -0.75776456164E+03  0.78478208996E+03  0.47000000000E+01 0. -1.
         -5    1    4    4    0  501  0.24972433091E+02 -0.77091009290E+01 -0.98142499695E+02  0.10167149501E+03  0.47000000000E+01 0. -1.
          1    1    1    2  502    0 -0.74671643387E+02 -0.71635320893E+02 -0.76243144797E+03  0.76942133216E+03  0.00000000000E+00 0. -1.
          1    1    1    2  503    0  0.10955887584E+03 -0.33260569888E+02  0.21269389704E+04  0.21300184968E+04  0.00000000000E+00 0. -1.
<mgrwt>
<rscale>  0 0.99390429E+02</rscale>
<asrwt>0</asrwt>
<pdfrwt beam="1">  1        2 0.35597833E+00 0.95472292E+02</pdfrwt>
<pdfrwt beam="2">  1        2 0.25070782E+00 0.10346936E+03</pdfrwt>
<totfact> 0.11363478E+01</totfact>
</mgrwt>
</event>
<event>
13    1  0.1675423E-008  0.1366140E+03  0.7546771E-02  0.1284883E+00
          2   -1    0    0  502    0  0.00000000000E+00  0.00000000000E+00  0.86190554809E+03  0.86190554809E+03  0.00000000000E+00 0. -1.
          2   -1    0    0  503    0 -0.00000000000E+00 -0.00000000000E+00 -0.21086856976E+04  0.21086856976E+04  0.00000000000E+00 0. -1.
         24    2    1    2    0    0 -0.84092841398E+01  0.36622785787E+02  0.14884491049E+03  0.17331654150E+03  0.80447943916E+02 0.  0.
         25    2    1    2    0    0 -0.16170731856E+03 -0.62086749595E+02 -0.15181594312E+04  0.15331136487E+04  0.12500152065E+03 0.  0.
         24    2    1    2    0    0 -0.93187476717E+00  0.52721463061E+02 -0.18699118340E+03  0.21047461186E+03  0.80953310665E+02 0.  0.
        -13    1    3    3    0    0 -0.41200043135E+02  0.24748543955E+01  0.63936017182E+02  0.76101135023E+02  0.00000000000E+00 0.  1.
         14    1    3    3    0    0  0.32790758996E+02  0.34147931391E+02  0.84908893310E+02  0.97215406479E+02  0.00000000000E+00 0. -1.
        -13    1    5    5    0    0 -0.38193227310E+01 -0.97989847168E+01  0.25885529422E+01  0.10830878724E+02  0.00000000000E+00 0.  1.
         14    1    5    5    0    0  0.28874479638E+01  0.62520447778E+02 -0.18957973634E+03  0.19964373313E+03  0.00000000000E+00 0. -1.
          5    1    4    4  501    0 -0.33334969762E+02 -0.56237768297E+02 -0.86099945644E+03  0.86349062576E+03  0.47000000000E+01 0.  1.
         -5    1    4    4    0  501 -0.12837234880E+03 -0.58489812982E+01 -0.65715997472E+03  0.66962302297E+03  0.47000000000E+01 0.  1.
          1    1    1    2  502    0  0.20829033381E+03  0.32114354708E+02  0.66177979349E+03  0.69452767404E+03  0.00000000000E+00 0. -1.
          1    1    1    2  503    0 -0.37241856343E+02 -0.59371853961E+02 -0.35225423889E+03  0.35915876952E+03  0.00000000000E+00 0. -1.
<mgrwt>
<rscale>  0 0.97850157E+02</rscale>
<asrwt>0</asrwt>
<pdfrwt beam="1">  1        2 0.12675082E+00 0.13661396E+03</pdfrwt>
<pdfrwt beam="2">  1        2 0.31010083E+00 0.70085469E+02</pdfrwt>
<totfact> 0.46193001E+01</totfact>
</mgrwt>
</event>
<event>
13    1  0.1675423E-008  0.1383413E+03  0.7546771E-02  0.1296938E+00
          2   -1    0    0  502    0  0.00000000000E+00  0.00000000000E+00  0.26429840405E+04  0.26429840405E+04  0.00000000000E+00 0. -1.
          2   -1    0    0  503    0 -0.00000000000E+00 -0.00000000000E+00 -0.12929939888E+04  0.12929939888E+04  0.00000000000E+00 0. -1.
         24    2    1    2    0    0 -0.12878501729E+03  0.91451893146E+02  0.28420181655E+03  0.33486101136E+03  0.80076182216E+02 0.  0.
         25    2    1    2    0    0  0.18556459321E+03 -0.14054365643E+03 -0.63870067038E+03  0.69119413301E+03  0.12499618213E+03 0.  0.
         24    2    1    2    0    0  0.51818745723E+02  0.13257935441E+03  0.13580607278E+03  0.21253247750E+03  0.80400851755E+02 0.  0.
        -11    1    5    5    0    0  0.21379732451E+01 -0.11139668880E+02  0.78257291953E+01  0.13780609195E+02  0.00000000000E+00 0.  1.
         12    1    5    5    0    0  0.49680772478E+02  0.14371902329E+03  0.12798034358E+03  0.19875186830E+03  0.00000000000E+00 0. -1.
        -13    1    3    3    0    0 -0.87457015578E+02  0.55883379399E+02  0.24950768422E+03  0.27023279992E+03  0.00000000000E+00 0.  1.
         14    1    3    3    0    0 -0.41328001709E+02  0.35568513746E+02  0.34694132329E+02  0.64628211436E+02  0.00000000000E+00 0. -1.
          5    1    4    4  501    0  0.11803762740E+03 -0.13221199685E+02 -0.32094197889E+03  0.34224775443E+03  0.47000000000E+01 0. -1.
         -5    1    4    4    0  501  0.67526965817E+02 -0.12732245674E+03 -0.31775869150E+03  0.34894637858E+03  0.47000000000E+01 0. -1.
          1    1    1    2  502    0 -0.13555812774E+03 -0.27842668202E+02  0.21290898519E+04  0.21335826250E+04  0.00000000000E+00 0. -1.
          1    1    1    2  503    0  0.26959806089E+02 -0.55644922933E+02 -0.56040701909E+03  0.56380778253E+03  0.00000000000E+00 0. -1.
<mgrwt>
<rscale>  0 0.92487354E+02</rscale>
<asrwt>0</asrwt>
<pdfrwt beam="1">  1        2 0.38867412E+00 0.13834130E+03</pdfrwt>
<pdfrwt beam="2">  1        2 0.19014618E+00 0.61831938E+02</pdfrwt>
<totfact> 0.13902183E+01</totfact>
</mgrwt>
</event>
<event>
13    1  0.3879494E-008  0.3417784E+02  0.7546771E-02  0.1591318E+00
          2   -1    0    0  502    0  0.00000000000E+00  0.00000000000E+00  0.33351301089E+04  0.33351301089E+04  0.00000000000E+00 0. -1.
          2   -1    0    0  503    0 -0.00000000000E+00 -0.00000000000E+00 -0.25132371032E+04  0.25132371032E+04  0.00000000000E+00 0. -1.
         24    2    1    2    0    0 -0.96414779441E+02 -0.12156319532E+04  0.16801010720E+04  0.20776742410E+04  0.83269346430E+02 0.  0.
         25    2    1    2    0    0 -0.37222112019E+03  0.10789265529E+04 -0.41124958082E+02  0.11488894960E+04  0.12499897193E+03 0.  0.
         24    2    1    2    0    0  0.46585261560E+03  0.18474593826E+03 -0.21992528959E+03  0.55567107928E+03  0.96195084013E+02 0.  0.
        -13    1    5    5    0    0  0.25843233146E+03  0.82322492023E+02 -0.16648726150E+03  0.31824875629E+03  0.00000000000E+00 0.  1.
         14    1    5    5    0    0  0.20742028413E+03  0.10242344624E+03 -0.53438028088E+02  0.23742232299E+03  0.00000000000E+00 0. -1.
        -13    1    3    3    0    0 -0.65475790673E+02 -0.99120445625E+03  0.14164400544E+04  0.17300508030E+04  0.00000000000E+00 0.  1.
         14    1    3    3    0    0 -0.30938988768E+02 -0.22442749695E+03  0.26366101760E+03  0.34762343796E+03  0.00000000000E+00 0. -1.
          5    1    4    4  501    0 -0.22655258285E+03  0.79207617270E+03  0.48663267768E+01  0.82386680191E+03  0.47000000000E+01 0. -1.
         -5    1    4    4    0  501 -0.14566853734E+03  0.28685038018E+03 -0.45991284859E+02  0.32502269407E+03  0.47000000000E+01 0. -1.
          1    1    1    2  502    0 -0.17874833189E+02 -0.20813093252E+02  0.73401167780E+03  0.73452422537E+03  0.00000000000E+00 0. -1.
          1    1    1    2  503    0  0.20658117217E+02 -0.27227444689E+02 -0.13311694964E+04  0.13316081705E+04  0.00000000000E+00 0. -1.
<mgrwt>
<rscale>  0 0.30621538E+02</rscale>
<asrwt>0</asrwt>
<pdfrwt beam="1">  1        2 0.49046031E+00 0.27435279E+02</pdfrwt>
<pdfrwt beam="2">  1        2 0.36959369E+00 0.34177842E+02</pdfrwt>
<totfact> 0.22490712E+00</totfact>
</mgrwt>
</event>
<event>
13    1  0.1675423E-008  0.6642868E+02  0.7546771E-02  0.1428446E+00
          2   -1    0    0  503    0  0.00000000000E+00  0.00000000000E+00  0.15524411871E+04  0.15524411871E+04  0.00000000000E+00 0. -1.
          2   -1    0    0  502    0 -0.00000000000E+00 -0.00000000000E+00 -0.66975082460E+03  0.66975082460E+03  0.00000000000E+00 0. -1.
         24    2    1    2    0    0 -0.40541279183E+02 -0.40435651834E+02  0.11280838906E+00  0.99505213748E+02  0.81379589458E+02 0.  0.
         25    2    1    2    0    0  0.46201169841E+02 -0.82485822732E+02 -0.80789723936E+02  0.17632985631E+03  0.12500711854E+03 0.  0.
         24    2    1    2    0    0 -0.47708367243E+02  0.10931011415E+03  0.46228521724E+03  0.48404567666E+03  0.79798531637E+02 0.  0.
        -11    1    3    3    0    0 -0.58994342130E+02 -0.16683901766E+02  0.18762575197E+02  0.64114890700E+02  0.00000000000E+00 0.  1.
         12    1    3    3    0    0  0.18453062947E+02 -0.23751750068E+02 -0.18649766808E+02  0.35390323048E+02  0.00000000000E+00 0. -1.
        -11    1    5    5    0    0 -0.27461736484E+02 -0.28594418934E+01  0.62451486685E+02  0.68282586125E+02  0.00000000000E+00 0.  1.
         12    1    5    5    0    0 -0.20246630759E+02  0.11216955604E+03  0.39983373056E+03  0.41576309054E+03  0.00000000000E+00 0. -1.
          5    1    4    4  501    0 -0.26593404697E+02 -0.79239094411E+02 -0.43074400102E+02  0.94146360528E+02  0.47000000000E+01 0.  1.
         -5    1    4    4    0  501  0.72794574538E+02 -0.32467283211E+01 -0.37715323834E+02  0.82183495782E+02  0.47000000000E+01 0.  1.
          1    1    1    2  502    0  0.62020508084E+02 -0.24156002832E+02 -0.47784207935E+03  0.48245529191E+03  0.00000000000E+00 0. -1.
          1    1    1    2  503    0 -0.19972031500E+02  0.37767363250E+02  0.97892414018E+03  0.97985597309E+03  0.00000000000E+00 0. -1.
<mgrwt>
<rscale>  0 0.53273195E+02</rscale>
<asrwt>0</asrwt>
<pdfrwt beam="1">  1        2 0.22830017E+00 0.42723012E+02</pdfrwt>
<pdfrwt beam="2">  1        2 0.98492769E-01 0.66428680E+02</pdfrwt>
<totfact> 0.12220870E+02</totfact>
</mgrwt>
</event>
<event>
13    1  0.1675423E-008  0.8626965E+02  0.7546771E-02  0.1442415E+00
          2   -1    0    0  502    0  0.00000000000E+00  0.00000000000E+00  0.13523059914E+04  0.13523059914E+04  0.00000000000E+00 0. -1.
          2   -1    0    0  503    0 -0.00000000000E+00 -0.00000000000E+00 -0.22939519397E+04  0.22939519397E+04  0.00000000000E+00 0. -1.
         24    2    1    2    0    0 -0.12263458475E+03 -0.18560946512E+03  0.79694009980E+03  0.83252369831E+03  0.92152431683E+02 0.  0.
         25    2    1    2    0    0  0.52773266750E+02  0.97390841620E+02 -0.98356991522E+03  0.99764946714E+03  0.12499874976E+03 0.  0.
         24    2    1    2    0    0 -0.45578909387E+01  0.13285925905E+03 -0.17698012989E+02  0.15681420208E+03  0.81271872286E+02 0.  0.
        -13    1    3    3    0    0 -0.40348815018E+02 -0.70471795930E+02  0.15298382758E+03  0.17320032447E+03  0.00000000000E+00 0.  1.
         14    1    3    3    0    0 -0.82285769730E+02 -0.11513766919E+03  0.64395627222E+03  0.65932337384E+03  0.00000000000E+00 0. -1.
        -13    1    5    5    0    0 -0.25474704353E+02  0.11892251367E+03 -0.34694633873E+02  0.12647229910E+03  0.00000000000E+00 0.  1.
         14    1    5    5    0    0  0.20916813415E+02  0.13936745385E+02  0.16996620884E+02  0.30341902986E+02  0.00000000000E+00 0. -1.
          5    1    4    4  501    0  0.40056275043E+02 -0.93222194054E+01 -0.52509416941E+03  0.52672325342E+03  0.47000000000E+01 0.  1.
         -5    1    4    4    0  501  0.12716991708E+02  0.10671306102E+03 -0.45847574581E+03  0.47092621372E+03  0.47000000000E+01 0.  1.
          1    1    1    2  502    0 -0.10199711970E+02 -0.27804281251E+02  0.45894530826E+03  0.45989988928E+03  0.00000000000E+00 0. -1.
          1    1    1    2  503    0  0.84618920906E+02 -0.16836354303E+02 -0.11962634282E+04  0.11993706742E+04  0.00000000000E+00 0. -1.
<mgrwt>
<rscale>  0 0.50546700E+02</rscale>
<asrwt>0</asrwt>
<pdfrwt beam="1">  1        2 0.19886853E+00 0.29616080E+02</pdfrwt>
<pdfrwt beam="2">  1        2 0.33734587E+00 0.86269652E+02</pdfrwt>
<totfact> 0.21724666E+01</totfact>
</mgrwt>
</event>
<event>
13    1  0.1675423E-008  0.1634672E+03  0.7546771E-02  0.1378052E+00
          2   -1    0    0  503    0  0.00000000000E+00  0.00000000000E+00  0.13394337824E+04  0.13394337824E+04  0.00000000000E+00 0. -1.
          2   -1    0    0  502    0 -0.00000000000E+00 -0.00000000000E+00 -0.16253304145E+04  0.16253304145E+04  0.00000000000E+00 0. -1.
         24    2    1    2    0    0 -0.43811328607E+02  0.29884757863E+02 -0.29057961280E+02  0.10061659118E+03  0.80416428922E+02 0.  0.
         25    2    1    2    0    0  0.42623295065E+02 -0.29423729620E+03 -0.15438330168E+03  0.35756482065E+03  0.12500426142E+03 0.  0.
         24    2    1    2    0    0  0.53039116169E+02  0.49400774558E+02 -0.10033866915E+04  0.10082305680E+04  0.67010754609E+02 0.  0.
        -11    1    3    3    0    0 -0.61757287000E+02  0.11456175399E+02 -0.13728051768E+01  0.62825878795E+02  0.00000000000E+00 0.  1.
         12    1    3    3    0    0  0.17945958393E+02  0.18428582464E+02 -0.27685156103E+02  0.37790712387E+02  0.00000000000E+00 0. -1.
        -11    1    5    5    0    0  0.24318417682E+02 -0.96432398590E+01 -0.14535828191E+03  0.14769362760E+03  0.00000000000E+00 0.  1.
         12    1    5    5    0    0  0.28720698487E+02  0.59044014417E+02 -0.85802840961E+03  0.86053694044E+03  0.00000000000E+00 0. -1.
          5    1    4    4  501    0  0.69103577512E+02 -0.22598208032E+03 -0.71628491141E+02  0.24697355282E+03  0.47000000000E+01 0.  1.
         -5    1    4    4    0  501 -0.26480282448E+02 -0.68255215882E+02 -0.82754810538E+02  0.11059126783E+03  0.47000000000E+01 0.  1.
          1    1    1    2  502    0 -0.59989063599E+02  0.23946541840E+03 -0.24753587891E+03  0.34959460195E+03  0.00000000000E+00 0. -1.
          1    1    1    2  503    0  0.81379809723E+01 -0.24513654622E+02  0.11484672012E+04  0.11487576151E+04  0.00000000000E+00 0. -1.
<mgrwt>
<rscale>  0 0.64978634E+02</rscale>
<asrwt>0</asrwt>
<pdfrwt beam="1">  1        2 0.19697556E+00 0.25829170E+02</pdfrwt>
<pdfrwt beam="2">  1        2 0.23901918E+00 0.16346723E+03</pdfrwt>
<totfact> 0.44232650E+01</totfact>
</mgrwt>
</event>
<event>
13    1  0.1675423E-008  0.1170706E+03  0.7546771E-02  0.1322986E+00
         -3   -1    0    0    0  501 -0.00000000000E+00  0.00000000000E+00  0.52954137844E+03  0.52954137844E+03  0.00000000000E+00 0.  1.
          2   -1    0    0  503    0  0.00000000000E+00 -0.00000000000E+00 -0.14523753502E+04  0.14523753502E+04  0.00000000000E+00 0. -1.
         24    2    1    2    0    0  0.23848561243E+03 -0.57273571947E+02 -0.56723237397E+03  0.62328393867E+03  0.81084232410E+02 0.  0.
         25    2    1    2    0    0 -0.16771822206E+03  0.20220900432E+03  0.20066464415E+03  0.35344208839E+03  0.12504849857E+03 0.  0.
         24    2    1    2    0    0  0.65967870276E+02 -0.45230767274E+02 -0.12818869337E+03  0.17108899231E+03  0.80259080271E+02 0.  0.
        -11    1    3    3    0    0  0.68012377358E+02 -0.57419196744E+01 -0.83725493519E+02  0.10802134687E+03  0.00000000000E+00 0.  1.
         12    1    3    3    0    0  0.17047323508E+03 -0.51531652273E+02 -0.48350688045E+03  0.51526259180E+03  0.00000000000E+00 0. -1.
        -11    1    5    5    0    0  0.49630387493E+02 -0.63289346974E+02 -0.65132363243E+02  0.10349367877E+03  0.00000000000E+00 0.  1.
         12    1    5    5    0    0  0.16337482784E+02  0.18058579700E+02 -0.63056330123E+02  0.67595313544E+02  0.00000000000E+00 0. -1.
          5    1    4    4  502    0 -0.26471836209E+02  0.47736439501E+02 -0.10826945269E+02  0.55846562226E+02  0.47000000000E+01 0. -1.
         -5    1    4    4    0  502 -0.14124638585E+03  0.15447256482E+03  0.21149158942E+03  0.29759552617E+03  0.47000000000E+01 0. -1.
          1    1    1    2  503    0 -0.13052177259E+03 -0.42357241391E+02 -0.61932479020E+03  0.63434475230E+03  0.00000000000E+00 0. -1.
         -4    1    1    2    0  501 -0.62134880616E+01 -0.57347423711E+02  0.19124724161E+03  0.19975695698E+03  0.00000000000E+00 0.  1.
<mgrwt>
<rscale>  0 0.82176583E+02</rscale>
<asrwt>0</asrwt>
<pdfrwt beam="2">  1        2 0.21358461E+00 0.11707062E+03</pdfrwt>
<pdfrwt beam="1">  1       -3 0.77873733E-01 0.57683052E+02</pdfrwt>
<totfact> 0.15742226E+01</totfact>
</mgrwt>
</event>
<event>
13    1  0.1675423E-008  0.2415711E+03  0.7546771E-02  0.1276665E+00
          2   -1    0    0  502    0  0.00000000000E+00  0.00000000000E+00  0.18799222994E+04  0.18799222994E+04  0.00000000000E+00 0. -1.
          2   -1    0    0  503    0 -0.00000000000E+00 -0.00000000000E+00 -0.40051394453E+04  0.40051394453E+04  0.00000000000E+00 0. -1.
         24    2    1    2    0    0 -0.88853857838E+02 -0.20174328392E+03  0.26087621710E+03  0.35055737538E+03  0.78985518454E+02 0.  0.
         25    2    1    2    0    0  0.14769367967E+03  0.99758532730E+02 -0.67309208336E+03  0.70742074927E+03  0.12500390375E+03 0.  0.
         24    2    1    2    0    0  0.15217062802E+03 -0.94754344018E+02 -0.43238685372E+03  0.47489797959E+03  0.80221032203E+02 0.  0.
        -13    1    5    5    0    0  0.15147291156E+03 -0.69057653698E+02 -0.33371481108E+03  0.37293240353E+03  0.00000000000E+00 0.  1.
         14    1    5    5    0    0  0.69771645429E+00 -0.25696690320E+02 -0.98672042645E+02  0.10196557606E+03  0.00000000000E+00 0. -1.
        -13    1    3    3    0    0 -0.43262304347E+02 -0.17542143319E+03  0.18904234584E+03  0.26149821170E+03  0.00000000000E+00 0.  1.
         14    1    3    3    0    0 -0.45591553491E+02 -0.26321850728E+02  0.71833871265E+02  0.89059163686E+02  0.00000000000E+00 0. -1.
          5    1    4    4  501    0  0.69598218221E+02 -0.19227009424E+02 -0.17491812307E+03  0.18929350134E+03  0.47000000000E+01 0.  1.
         -5    1    4    4    0  501  0.78095461453E+02  0.11898554215E+03 -0.49817396029E+03  0.51812724794E+03  0.47000000000E+01 0.  1.
          1    1    1    2  502    0 -0.16848673677E+03  0.20205192973E+03  0.15243540632E+04  0.15468898063E+04  0.00000000000E+00 0. -1.
          1    1    1    2  503    0 -0.42523713078E+02 -0.53128345193E+01 -0.28049684891E+04  0.28052958342E+04  0.00000000000E+00 0. -1.
<mgrwt>
<rscale>  0 0.10174657E+03</rscale>
<asrwt>0</asrwt>
<pdfrwt beam="1">  1        2 0.27645917E+00 0.24157111E+03</pdfrwt>
<pdfrwt beam="2">  1        2 0.58899109E+00 0.42854316E+02</pdfrwt>
<totfact> 0.13251804E+00</totfact>
</mgrwt>
</event>
<event>
13    1  0.1675423E-008  0.3301436E+03  0.7546771E-02  0.1110470E+00
         -3   -1    0    0    0  501 -0.00000000000E+00  0.00000000000E+00  0.11635049125E+04  0.11635049125E+04  0.00000000000E+00 0.  1.
          2   -1    0    0  503    0  0.00000000000E+00 -0.00000000000E+00 -0.36157838637E+04  0.36157838637E+04  0.00000000000E+00 0. -1.
         24    2    1    2    0    0 -0.88369261633E+02  0.30955164850E+03 -0.29036901717E+02  0.33293088209E+03  0.79802763705E+02 0.  0.
         25    2    1    2    0    0  0.33710814371E+03 -0.36467842571E+01 -0.11903036765E+04  0.12434240506E+04  0.12500131120E+03 0.  0.
         24    2    1    2    0    0 -0.24781174156E+03 -0.93702575439E+02  0.16681942487E+03  0.32312518095E+03  0.79939540584E+02 0.  0.
        -11    1    3    3    0    0 -0.26666556297E+01  0.57214552246E+02  0.22431474714E+02  0.61512495469E+02  0.00000000000E+00 0.  1.
         12    1    3    3    0    0 -0.85702606003E+02  0.25233709626E+03 -0.51468376431E+02  0.27141838662E+03  0.00000000000E+00 0. -1.
        -13    1    5    5    0    0 -0.21385302742E+03 -0.89138079035E+02  0.17189092293E+03  0.28848778805E+03  0.00000000000E+00 0.  1.
         14    1    5    5    0    0 -0.33958714146E+02 -0.45644964036E+01 -0.50714980648E+01  0.34637392894E+02  0.00000000000E+00 0. -1.
          5    1    4    4  502    0  0.11723723992E+03  0.50055682843E+02 -0.53931929036E+03  0.55419989964E+03  0.47000000000E+01 0.  1.
         -5    1    4    4    0  502  0.21987090378E+03 -0.53702467100E+02 -0.65098438615E+03  0.68922415100E+03  0.47000000000E+01 0.  1.
          1    1    1    2  503    0 -0.94857644338E+02  0.17179965926E+03 -0.20820421314E+04  0.20912705546E+04  0.00000000000E+00 0. -1.
         -4    1    1    2    0  501  0.93930503826E+02 -0.38400194806E+03  0.68228433358E+03  0.78853810784E+03  0.00000000000E+00 0.  1.
<mgrwt>
<rscale>  0 0.25453852E+03</rscale>
<asrwt>0</asrwt>
<pdfrwt beam="2">  1        2 0.53173291E+00 0.19624754E+03</pdfrwt>
<pdfrwt beam="1">  1       -3 0.17110367E+00 0.33014356E+03</pdfrwt>
<totfact> 0.17063868E-01</totfact>
</mgrwt>
</event>
<event>
13    1  0.1675423E-008  0.8633348E+02  0.7546771E-02  0.1424187E+00
          2   -1    0    0  503    0  0.00000000000E+00  0.00000000000E+00  0.11224315483E+04  0.11224315483E+04  0.00000000000E+00 0. -1.
          2   -1    0    0  502    0 -0.00000000000E+00 -0.00000000000E+00 -0.12627910415E+04  0.12627910415E+04  0.00000000000E+00 0. -1.
         24    2    1    2    0    0 -0.12256066214E+03  0.72371443069E+01  0.19162074519E+03  0.24188820309E+03  0.81962800374E+02 0.  0.
         25    2    1    2    0    0  0.21967473900E+03  0.30952872875E+02 -0.52267207551E+03  0.58140088461E+03  0.12500327518E+03 0.  0.
         24    2    1    2    0    0 -0.90191900962E+02  0.52749325343E+02 -0.60647860908E+02  0.14852851614E+03  0.86403048277E+02 0.  0.
        -11    1    3    3    0    0 -0.76790455747E+02  0.71221259440E+01  0.47268371376E+02  0.90453290180E+02  0.00000000000E+00 0.  1.
         12    1    3    3    0    0 -0.45770206393E+02  0.11501836284E+00  0.14435237381E+03  0.15143491291E+03  0.00000000000E+00 0. -1.
        -13    1    5    5    0    0  0.13348936996E+02  0.10164544498E+02  0.64843113291E+01  0.17987728517E+02  0.00000000000E+00 0.  1.
         14    1    5    5    0    0 -0.10354083796E+03  0.42584780846E+02 -0.67132172237E+02  0.13054078763E+03  0.00000000000E+00 0. -1.
          5    1    4    4  501    0  0.16779693746E+03  0.25080071352E+02 -0.24024719469E+03  0.29415238697E+03  0.47000000000E+01 0. -1.
         -5    1    4    4    0  501  0.51877801538E+02  0.58728015230E+01 -0.28242488082E+03  0.28724849764E+03  0.47000000000E+01 0. -1.
          1    1    1    2  502    0 -0.32853692410E+02 -0.85866714683E+01 -0.57829433867E+03  0.57929046097E+03  0.00000000000E+00 0. -1.
          1    1    1    2  503    0  0.25931516514E+02 -0.82352671057E+02  0.82963403667E+03  0.83411452497E+03  0.00000000000E+00 0. -1.
<mgrwt>
<rscale>  0 0.54144705E+02</rscale>
<asrwt>0</asrwt>
<pdfrwt beam="1">  1        2 0.16506346E+00 0.86333480E+02</pdfrwt>
<pdfrwt beam="2">  1        2 0.18570456E+00 0.33957268E+02</pdfrwt>
<totfact> 0.89388900E+01</totfact>
</mgrwt>
</event>
<event>
13    1  0.1675423E-008  0.9596694E+02  0.7546771E-02  0.1423798E+00
          2   -1    0    0  502    0  0.00000000000E+00  0.00000000000E+00  0.26659425828E+04  0.26659425828E+04  0.00000000000E+00 0. -1.
          2   -1    0    0  503    0 -0.00000000000E+00 -0.00000000000E+00 -0.58674444854E+03  0.58674444854E+03  0.00000000000E+00 0. -1.
         24    2    1    2    0    0  0.23212172504E+03  0.15576233193E+03  0.13881310952E+04  0.14197524838E+04  0.10318322849E+03 0.  0.
         25    2    1    2    0    0 -0.15153757146E+03 -0.72810952467E+02  0.39840038690E+03  0.45012368220E+03  0.12499356234E+03 0.  0.
         24    2    1    2    0    0 -0.45351579605E+02 -0.36056481462E+01 -0.60443066296E+02  0.99275365552E+02  0.64284270789E+02 0.  0.
        -11    1    3    3    0    0  0.10615516195E+03  0.57734473853E+02  0.84684516623E+03  0.85542324229E+03  0.00000000000E+00 0.  1.
         12    1    3    3    0    0  0.12596656309E+03  0.98027858075E+02  0.54128592893E+03  0.56432924152E+03  0.00000000000E+00 0. -1.
        -13    1    5    5    0    0 -0.23191161768E+02  0.11109161872E+02  0.71050144912E+01  0.26678168838E+02  0.00000000000E+00 0.  1.
         14    1    5    5    0    0 -0.22160417837E+02 -0.14714810018E+02 -0.67548080787E+02  0.72597196713E+02  0.00000000000E+00 0. -1.
          5    1    4    4  501    0 -0.15782735505E+03 -0.94489161395E+02  0.32859494103E+03  0.37660908233E+03  0.47000000000E+01 0.  1.
         -5    1    4    4    0  501  0.62897835923E+01  0.21678208928E+02  0.69805445874E+02  0.73514599867E+02  0.47000000000E+01 0.  1.
          1    1    1    2  502    0  0.22661981169E+02 -0.20620824721E+02  0.81437780333E+03  0.81495398052E+03  0.00000000000E+00 0. -1.
          1    1    1    2  503    0 -0.57894555145E+02 -0.58724906594E+02 -0.46126808481E+03  0.46858151930E+03  0.00000000000E+00 0. -1.
<mgrwt>
<rscale>  0 0.54225331E+02</rscale>
<asrwt>0</asrwt>
<pdfrwt beam="1">  1        2 0.39205037E+00 0.30639579E+02</pdfrwt>
<pdfrwt beam="2">  1        2 0.86285949E-01 0.95966936E+02</pdfrwt>
<totfact> 0.44616393E+01</totfact>
</mgrwt>
</event>
<event>
13    1  0.1675423E-008  0.1213413E+03  0.7546771E-02  0.1352535E+00
         -1   -1    0    0    0  501 -0.00000000000E+00  0.00000000000E+00  0.25939345117E+04  0.25939345117E+04  0.00000000000E+00 0.  1.
          2   -1    0    0  503    0  0.00000000000E+00 -0.00000000000E+00 -0.23063377986E+04  0.23063377986E+04  0.00000000000E+00 0. -1.
         24    2    1    2    0    0 -0.29076596594E+02  0.20107053116E+02 -0.63782609200E+03  0.64388037268E+03  0.80684996280E+02 0.  0.
         25    2    1    2    0    0 -0.95912792352E+02  0.61682039934E+02  0.70746868697E+03  0.72741978703E+03  0.12499466278E+03 0.  0.
         24    2    1    2    0    0 -0.32393729967E+02 -0.59625492256E+02 -0.47712387526E+01  0.11077007501E+03  0.87422489845E+02 0.  0.
        -11    1    5    5    0    0 -0.34193228302E+01 -0.72627837999E+02 -0.20200528829E+02  0.75462281876E+02  0.00000000000E+00 0.  1.
         12    1    5    5    0    0 -0.28974407137E+02  0.13002345743E+02  0.15429290076E+02  0.35307793135E+02  0.00000000000E+00 0. -1.
        -11    1    3    3    0    0 -0.27524347287E+02  0.41390720243E+02 -0.22155106396E+03  0.22705870465E+03  0.00000000000E+00 0.  1.
         12    1    3    3    0    0 -0.15522493070E+01 -0.21283667128E+02 -0.41627502804E+03  0.41682166802E+03  0.00000000000E+00 0. -1.
          5    1    4    4  502    0 -0.12134632559E+02 -0.32449362632E+02  0.78481673473E+02  0.85916666100E+02  0.47000000000E+01 0. -1.
         -5    1    4    4    0  502 -0.83778159793E+02  0.94131402566E+02  0.62898701350E+03  0.64150312093E+03  0.47000000000E+01 0. -1.
          1    1    1    2  503    0  0.19477575180E+03 -0.84018194652E+00 -0.15915458738E+04  0.16034202718E+04  0.00000000000E+00 0. -1.
         -2    1    1    2    0  501 -0.37392632890E+02 -0.21323418848E+02  0.18142712307E+04  0.18147818039E+04  0.00000000000E+00 0.  1.
<mgrwt>
<rscale>  0 0.72271501E+02</rscale>
<asrwt>0</asrwt>
<pdfrwt beam="2">  1        2 0.33916732E+00 0.12134126E+03</pdfrwt>
<pdfrwt beam="1">  1       -1 0.38146096E+00 0.43045292E+02</pdfrwt>
<totfact> 0.11450097E-01</totfact>
</mgrwt>
</event>
<event>
13    1  0.1675423E-008  0.8992348E+02  0.7546771E-02  0.1356066E+00
         -3   -1    0    0    0  501 -0.00000000000E+00  0.00000000000E+00  0.55829107681E+03  0.55829107681E+03  0.00000000000E+00 0.  1.
          2   -1    0    0  503    0  0.00000000000E+00 -0.00000000000E+00 -0.28331347241E+04  0.28331347241E+04  0.00000000000E+00 0. -1.
         24    2    1    2    0    0  0.49441044407E+02  0.24783467725E+03 -0.14824526529E+03  0.30493993115E+03  0.84529632747E+02 0.  0.
         25    2    1    2    0    0  0.45416405388E+02 -0.58883861403E+02 -0.41267041795E+02  0.15118664505E+03  0.12499789555E+03 0.  0.
         24    2    1    2    0    0 -0.20151894796E+03 -0.28850401864E+03 -0.45121034533E+03  0.57710205048E+03  0.74910251505E+02 0.  0.
        -13    1    5    5    0    0 -0.14910844122E+03 -0.25890128258E+03 -0.38958097501E+03  0.49095472038E+03  0.00000000000E+00 0.  1.
         14    1    5    5    0    0 -0.52410506744E+02 -0.29602736055E+02 -0.61629370312E+02  0.86147330104E+02  0.00000000000E+00 0. -1.
        -13    1    3    3    0    0 -0.66537675581E+01  0.93633921785E+02 -0.92117740837E+02  0.13151905607E+03  0.00000000000E+00 0.  1.
         14    1    3    3    0    0  0.56094811965E+02  0.15420075547E+03 -0.56127524450E+02  0.17342087509E+03  0.00000000000E+00 0. -1.
          5    1    4    4  502    0 -0.29488876026E+02  0.19626821013E+02 -0.18398713950E+02  0.40192145842E+02  0.47000000000E+01 0.  1.
         -5    1    4    4    0  502  0.74905281414E+02 -0.78510682415E+02 -0.22868327845E+02  0.11099449921E+03  0.47000000000E+01 0.  1.
          1    1    1    2  503    0  0.42047162948E+02  0.37547661209E+02 -0.19902159926E+04  0.19910141858E+04  0.00000000000E+00 0. -1.
         -4    1    1    2    0  501  0.64614335219E+02  0.62005541581E+02  0.35609499779E+03  0.36718298838E+03  0.00000000000E+00 0.  1.
<mgrwt>
<rscale>  0 0.71198013E+02</rscale>
<asrwt>0</asrwt>
<pdfrwt beam="2">  1        2 0.41663746E+00 0.56371897E+02</pdfrwt>
<pdfrwt beam="1">  1       -3 0.82101629E-01 0.89923479E+02</pdfrwt>
<totfact> 0.33015295E+00</totfact>
</mgrwt>
</event>
<event>
13    1  0.1675423E-008  0.1573373E+03  0.7546771E-02  0.1311191E+00
          2   -1    0    0  503    0  0.00000000000E+00  0.00000000000E+00  0.25804767318E+04  0.25804767318E+04  0.00000000000E+00 0. -1.
          2   -1    0    0  502    0 -0.00000000000E+00 -0.00000000000E+00 -0.21923391220E+04  0.21923391220E+04  0.00000000000E+00 0. -1.
         24    2    1    2    0    0 -0.51829606612E+02  0.24873626052E+02  0.21594235400E+03  0.23831718045E+03  0.82818916024E+02 0.  0.
         25    2    1    2    0    0 -0.14449411656E+03  0.10151362446E+03 -0.32185975124E+03  0.38781477502E+03  0.12499213810E+03 0.  0.
         24    2    1    2    0    0 -0.25319780850E+02  0.12314814715E+03 -0.10234425142E+03  0.18719675727E+03  0.93604074079E+02 0.  0.
        -11    1    5    5    0    0  0.27396187874E+02  0.70864208504E+01 -0.27055026950E+02  0.39150261222E+02  0.00000000000E+00 0.  1.
         12    1    5    5    0    0 -0.52715968724E+02  0.11606172630E+03 -0.75289224468E+02  0.14804649605E+03  0.00000000000E+00 0. -1.
        -11    1    3    3    0    0 -0.63921989637E+02  0.38719039926E+02  0.20158462438E+03  0.21499196636E+03  0.00000000000E+00 0.  1.
         12    1    3    3    0    0  0.12092383025E+02 -0.13845413874E+02  0.14357729621E+02  0.23325214092E+02  0.00000000000E+00 0. -1.
          5    1    4    4  501    0 -0.60654009956E+02  0.31717947049E+02 -0.27603324721E+02  0.73952488967E+02  0.47000000000E+01 0.  1.
         -5    1    4    4    0  501 -0.83840106602E+02  0.69795677411E+02 -0.29425642652E+03  0.31386228606E+03  0.47000000000E+01 0.  1.
          1    1    1    2  502    0  0.47174393023E+02 -0.71471714595E+01 -0.16714134389E+04  0.16720943123E+04  0.00000000000E+00 0. -1.
          1    1    1    2  503    0  0.17446911100E+03 -0.24238822620E+03  0.22678126974E+04  0.22873928288E+04  0.00000000000E+00 0. -1.
<mgrwt>
<rscale>  0 0.86642902E+02</rscale>
<asrwt>0</asrwt>
<pdfrwt beam="1">  1        2 0.37948187E+00 0.15733728E+03</pdfrwt>
<pdfrwt beam="2">  1        2 0.32240281E+00 0.47712739E+02</pdfrwt>
<totfact> 0.56535307E+00</totfact>
</mgrwt>
</event>
<event>
13    1  0.1675423E-008  0.8055698E+02  0.7546771E-02  0.1485627E+00
          4   -1    0    0  503    0 -0.00000000000E+00  0.00000000000E+00  0.60156379471E+03  0.60156379471E+03  0.00000000000E+00 0. -1.
          2   -1    0    0  502    0  0.00000000000E+00 -0.00000000000E+00 -0.31130633384E+04  0.31130633384E+04  0.00000000000E+00 0. -1.
         24    2    1    2    0    0  0.28830171138E+03 -0.13997403502E+03 -0.15569135673E+04  0.15915856749E+04  0.80339886079E+02 0.  0.
         25    2    1    2    0    0  0.17120565500E+03 -0.11605966594E+03  0.18486559040E+03  0.30427022758E+03  0.12499544999E+03 0.  0.
         24    2    1    2    0    0 -0.46947396495E+03  0.19425541442E+03 -0.12404247856E+03  0.52997247430E+03  0.85693157478E+02 0.  0.
        -11    1    5    5    0    0 -0.14954739461E+03  0.28015564940E+02 -0.61205421531E+02  0.16399816687E+03  0.00000000000E+00 0.  1.
         12    1    5    5    0    0 -0.31992657034E+03  0.16623984948E+03 -0.62837057028E+02  0.36597430743E+03  0.00000000000E+00 0. -1.
        -13    1    3    3    0    0  0.27916991432E+03 -0.13373211875E+03 -0.13784214758E+04  0.14127511761E+04  0.00000000000E+00 0.  1.
         14    1    3    3    0    0  0.91317970587E+01 -0.62419162752E+01 -0.17849209154E+03  0.17883449885E+03  0.00000000000E+00 0. -1.
          5    1    4    4  501    0  0.27764588222E-01 -0.23155403104E+02 -0.12682986767E+02  0.26816443036E+02  0.47000000000E+01 0.  1.
         -5    1    4    4    0  501  0.17117789041E+03 -0.92904262840E+02  0.19754857717E+03  0.27745378455E+03  0.47000000000E+01 0.  1.
          1    1    1    2  502    0  0.28849447444E+02  0.75276694208E+02 -0.11496968541E+04  0.11525197298E+04  0.00000000000E+00 0. -1.
          3    1    1    2  503    0 -0.18882848872E+02 -0.13498407656E+02  0.13428776588E+03  0.13627902647E+03  0.00000000000E+00 0. -1.
<mgrwt>
<rscale>  0 0.43241647E+02</rscale>
<asrwt>0</asrwt>
<pdfrwt beam="2">  1        2 0.45780342E+00 0.80556978E+02</pdfrwt>
<pdfrwt beam="1">  1        4 0.88465266E-01 0.23211398E+02</pdfrwt>
<totfact> 0.13376088E+00</totfact>
</mgrwt>
</event>
<event>
13    1  0.1675423E-008  0.6877555E+02  0.7546771E-02  0.1481771E+00
          2   -1    0    0  503    0  0.00000000000E+00  0.00000000000E+00  0.16413932050E+04  0.16413932050E+04  0.00000000000E+00 0. -1.
          2   -1    0    0  502    0 -0.00000000000E+00 -0.00000000000E+00 -0.11521921110E+04  0.11521921110E+04  0.00000000000E+00 0. -1.
         24    2    1    2    0    0  0.48661615697E+03  0.25199123840E+03  0.64982529528E+03  0.85187826012E+03  0.55935563178E+02 0.  0.
         25    2    1    2    0    0 -0.16464940552E+03  0.57890042653E+01 -0.33008567164E+03  0.38951721916E+03  0.12499669631E+03 0.  0.
         24    2    1    2    0    0 -0.24462611786E+03 -0.26611958319E+03 -0.10967865869E+03  0.38638800564E+03  0.81269383142E+02 0.  0.
        -11    1    3    3    0    0  0.30051488881E+03  0.13260778731E+03  0.35980523732E+03  0.48718972942E+03  0.00000000000E+00 0.  1.
         12    1    3    3    0    0  0.18610126816E+03  0.11938345109E+03  0.29002005796E+03  0.36468853070E+03  0.00000000000E+00 0. -1.
        -11    1    5    5    0    0 -0.21590723858E+03 -0.21162645117E+03 -0.11737271945E+03  0.32431164915E+03  0.00000000000E+00 0.  1.
         12    1    5    5    0    0 -0.28718879287E+02 -0.54493132021E+02  0.76940607531E+01  0.62076356496E+02  0.00000000000E+00 0. -1.
          5    1    4    4  501    0 -0.65840373241E+02 -0.56236252725E+02 -0.10701906427E+03  0.13774121020E+03  0.47000000000E+01 0.  1.
         -5    1    4    4    0  501 -0.98809032283E+02  0.62025256990E+02 -0.22306660737E+03  0.25177600896E+03  0.47000000000E+01 0.  1.
          1    1    1    2  502    0 -0.10816147399E+02  0.25755293957E+02 -0.44125184735E+03  0.44213517956E+03  0.00000000000E+00 0. -1.
          1    1    1    2  503    0 -0.66524486181E+02 -0.17415953434E+02  0.72039197648E+03  0.72366665149E+03  0.00000000000E+00 0. -1.
<mgrwt>
<rscale>  0 0.43831446E+02</rscale>
<asrwt>0</asrwt>
<pdfrwt beam="1">  1        2 0.24138135E+00 0.68775547E+02</pdfrwt>
<pdfrwt beam="2">  1        2 0.16944002E+00 0.27934284E+02</pdfrwt>
<totfact> 0.57295156E+01</totfact>
</mgrwt>
</event>
<event>
13    1  0.1675423E-008  0.5792670E+02  0.7546771E-02  0.1469190E+00
          2   -1    0    0  502    0  0.00000000000E+00  0.00000000000E+00  0.94236005862E+03  0.94236005862E+03  0.00000000000E+00 0. -1.
          2   -1    0    0  503    0 -0.00000000000E+00 -0.00000000000E+00 -0.13568366583E+04  0.13568366583E+04  0.00000000000E+00 0. -1.
         24    2    1    2    0    0  0.50452989734E+02 -0.36224485442E+02  0.21138149229E+03  0.23547292295E+03  0.83112241215E+02 0.  0.
         25    2    1    2    0    0 -0.36249748213E+02  0.62882658907E+02 -0.58820284101E+03  0.60570285033E+03  0.12500035075E+03 0.  0.
         24    2    1    2    0    0  0.80581059302E+01 -0.24989070887E+02  0.61195813957E+02  0.10479423660E+03  0.80916732777E+02 0.  0.
        -11    1    5    5    0    0 -0.19394336167E+02  0.11522391834E+02  0.54035944203E+02  0.58555862685E+02  0.00000000000E+00 0.  1.
         12    1    5    5    0    0  0.27452442098E+02 -0.36511462721E+02  0.71598697546E+01  0.46238373913E+02  0.00000000000E+00 0. -1.
        -13    1    3    3    0    0 -0.19741676793E+02 -0.57887687935E+01  0.17385859754E+02  0.26935325618E+02  0.00000000000E+00 0.  1.
         14    1    3    3    0    0  0.70194666527E+02 -0.30435716649E+02  0.19399563254E+03  0.20853759733E+03  0.00000000000E+00 0. -1.
          5    1    4    4  501    0 -0.21335573363E+02  0.97188597552E+02 -0.49923728350E+03  0.50907836865E+03  0.47000000000E+01 0.  1.
         -5    1    4    4    0  501 -0.14914174850E+02 -0.34305938645E+02 -0.88965557510E+02  0.96624481685E+02  0.47000000000E+01 0.  1.
          1    1    1    2  502    0  0.34032821436E+02  0.12537537060E+02  0.62550097112E+03  0.62655158419E+03  0.00000000000E+00 0. -1.
          1    1    1    2  503    0 -0.56294168887E+02 -0.14206639637E+02 -0.72435203608E+03  0.72667512289E+03  0.00000000000E+00 0. -1.
<mgrwt>
<rscale>  0 0.45835895E+02</rscale>
<asrwt>0</asrwt>
<pdfrwt beam="1">  1        2 0.13858236E+00 0.36268757E+02</pdfrwt>
<pdfrwt beam="2">  1        2 0.19953480E+00 0.57926696E+02</pdfrwt>
<totfact> 0.10163498E+02</totfact>
</mgrwt>
</event>
<event>
13    1  0.1675423E-008  0.7142786E+02  0.7546771E-02  0.1483852E+00
          2   -1    0    0  503    0  0.00000000000E+00  0.00000000000E+00  0.26869997308E+04  0.26869997308E+04  0.00000000000E+00 0. -1.
         -1   -1    0    0    0  501 -0.00000000000E+00 -0.00000000000E+00 -0.61609668366E+03  0.61609668366E+03  0.00000000000E+00 0.  1.
         24    2    1    2    0    0 -0.10729370290E+02 -0.16813620504E+02  0.43614252424E+03  0.44353366539E+03  0.78128059338E+02 0.  0.
         25    2    1    2    0    0 -0.45408997461E+02  0.57408210143E+01  0.23610373437E+03  0.27104666606E+03  0.12500555078E+03 0.  0.
         24    2    1    2    0    0  0.55487999110E+02  0.62358349641E+02 -0.60361413884E+02  0.13099640039E+03  0.80926354260E+02 0.  0.
        -11    1    3    3    0    0 -0.19936136261E+02 -0.43077452934E+02  0.19071758217E+03  0.19653577952E+03  0.00000000000E+00 0.  1.
         12    1    3    3    0    0  0.92067659708E+01  0.26263832430E+02  0.24542494207E+03  0.24699788587E+03  0.00000000000E+00 0. -1.
        -11    1    5    5    0    0 -0.16551478160E+01  0.55337289868E+02 -0.45174651888E+02  0.71454211474E+02  0.00000000000E+00 0.  1.
         12    1    5    5    0    0  0.57143146926E+02  0.70210597738E+01 -0.15186761996E+02  0.59542188916E+02  0.00000000000E+00 0. -1.
          5    1    4    4  502    0  0.31256047304E+02 -0.21961748065E+02  0.28288201122E+02  0.47765795229E+02  0.47000000000E+01 0. -1.
         -5    1    4    4    0  502 -0.76665044765E+02  0.27702569080E+02  0.20781553325E+03  0.22328087084E+03  0.47000000000E+01 0. -1.
          1    1    1    2  503    0 -0.19109099867E+02 -0.68953002787E+02  0.19572629518E+04  0.19585703808E+04  0.00000000000E+00 0. -1.
         -2    1    1    2    0  501  0.19759468508E+02  0.17667452635E+02 -0.49824474937E+03  0.49894930179E+03  0.00000000000E+00 0.  1.
<mgrwt>
<rscale>  0 0.43511802E+02</rscale>
<asrwt>0</asrwt>
<pdfrwt beam="1">  1        2 0.39514701E+00 0.71427861E+02</pdfrwt>
<pdfrwt beam="2">  1       -1 0.90602455E-01 0.26506140E+02</pdfrwt>
<totfact> 0.69357818E+00</totfact>
</mgrwt>
</event>
<event>
13    1  0.1675423E-008  0.1257262E+03  0.7546771E-02  0.1271762E+00
          2   -1    0    0  502    0  0.00000000000E+00  0.00000000000E+00  0.41748039149E+04  0.41748039149E+04  0.00000000000E+00 0. -1.
          2   -1    0    0  503    0 -0.00000000000E+00 -0.00000000000E+00 -0.64535753339E+03  0.64535753339E+03  0.00000000000E+00 0. -1.
         24    2    1    2    0    0  0.15298782616E+03 -0.22053798636E+03  0.10744453650E+04  0.11114618025E+04  0.94192450548E+02 0.  0.
         25    2    1    2    0    0 -0.29565077199E+03  0.43175345687E+02  0.49131565027E+03  0.58846533589E+03  0.12500757534E+03 0.  0.
         24    2    1    2    0    0  0.13430454763E+03  0.43338087067E+02  0.17352056861E+03  0.23736306056E+03  0.79472847465E+02 0.  0.
        -13    1    5    5    0    0  0.35409165387E+02 -0.18456200208E+02  0.20244376278E+02  0.44769130999E+02  0.00000000000E+00 0.  1.
         14    1    5    5    0    0  0.98895382241E+02  0.61794287275E+02  0.15327619233E+03  0.19259392956E+03  0.00000000000E+00 0. -1.
        -13    1    3    3    0    0  0.45088518478E+02 -0.14685517579E+03  0.56107759546E+03  0.58172801658E+03  0.00000000000E+00 0.  1.
         14    1    3    3    0    0  0.10789930768E+03 -0.73682810576E+02  0.51336776955E+03  0.52973378595E+03  0.00000000000E+00 0. -1.
          5    1    4    4  501    0 -0.30762678411E+02 -0.11647722336E+02  0.14629949902E+03  0.15002548194E+03  0.47000000000E+01 0.  1.
         -5    1    4    4    0  501 -0.26488809358E+03  0.54823068023E+02  0.34501615125E+03  0.43843985395E+03  0.47000000000E+01 0.  1.
          1    1    1    2  502    0  0.80554155792E+02  0.30993810116E+02  0.23284654782E+04  0.23300646067E+04  0.00000000000E+00 0. -1.
          1    1    1    2  503    0 -0.72195757588E+02  0.10303074349E+03 -0.53830068051E+03  0.55280664265E+03  0.00000000000E+00 0. -1.
<mgrwt>
<rscale>  0 0.10417077E+03</rscale>
<asrwt>0</asrwt>
<pdfrwt beam="1">  1        2 0.61394174E+00 0.86310997E+02</pdfrwt>
<pdfrwt beam="2">  1        2 0.94905521E-01 0.12572615E+03</pdfrwt>
<totfact> 0.44775934E+00</totfact>
</mgrwt>
</event>
<event>
13    1  0.1675423E-008  0.3263246E+02  0.7546771E-02  0.1592889E+00
          2   -1    0    0  503    0  0.00000000000E+00  0.00000000000E+00  0.16836378122E+04  0.16836378122E+04  0.00000000000E+00 0. -1.
          2   -1    0    0  502    0 -0.00000000000E+00 -0.00000000000E+00 -0.10087276927E+04  0.10087276927E+04  0.00000000000E+00 0. -1.
         24    2    1    2    0    0 -0.35562155592E+03 -0.74767259273E+02  0.43649526970E+03  0.57248482042E+03  0.71790772726E+02 0.  0.
         25    2    1    2    0    0  0.13604221778E+03  0.11659215286E+03 -0.23431118039E+03  0.32035732522E+03  0.12500348570E+03 0.  0.
         24    2    1    2    0    0  0.20702331582E+03 -0.10014225787E+03  0.31444002536E+03  0.39777254247E+03  0.80394905854E+02 0.  0.
        -11    1    5    5    0    0  0.10832264432E+03 -0.12099826016E+02  0.11485521012E+03  0.15834115180E+03  0.00000000000E+00 0.  1.
         12    1    5    5    0    0  0.98700671503E+02 -0.88042431856E+02  0.19958481524E+03  0.23943139067E+03  0.00000000000E+00 0. -1.
        -13    1    3    3    0    0 -0.22420004902E+03 -0.82154826553E+02  0.28361976695E+03  0.37074957817E+03  0.00000000000E+00 0.  1.
         14    1    3    3    0    0 -0.13142150691E+03  0.73875672802E+01  0.15287550274E+03  0.20173524225E+03  0.00000000000E+00 0. -1.
          5    1    4    4  501    0  0.15514905830E+03  0.74864413241E+02 -0.18486308114E+03  0.25272981508E+03  0.47000000000E+01 0.  1.
         -5    1    4    4    0  501 -0.19106840516E+02  0.41727739622E+02 -0.49448099252E+02  0.67627510143E+02  0.47000000000E+01 0.  1.
          1    1    1    2  502    0  0.13128574916E+02  0.29861680533E+02 -0.62104458935E+03  0.62190068452E+03  0.00000000000E+00 0. -1.
          1    1    1    2  503    0 -0.57255259977E+00  0.28455683749E+02  0.77933059418E+03  0.77985013226E+03  0.00000000000E+00 0. -1.
<mgrwt>
<rscale>  0 0.30475675E+02</rscale>
<asrwt>0</asrwt>
<pdfrwt beam="1">  1        2 0.24759380E+00 0.28461443E+02</pdfrwt>
<pdfrwt beam="2">  1        2 0.14834231E+00 0.32632456E+02</pdfrwt>
<totfact> 0.70020912E+01</totfact>
</mgrwt>
</event>
<event>
13    1  0.1675423E-008  0.9545396E+02  0.7546771E-02  0.1367575E+00
          2   -1    0    0  503    0  0.00000000000E+00  0.00000000000E+00  0.23053856896E+04  0.23053856896E+04  0.00000000000E+00 0. -1.
          2   -1    0    0  502    0 -0.00000000000E+00 -0.00000000000E+00 -0.16671392385E+04  0.16671392385E+04  0.00000000000E+00 0. -1.
         24    2    1    2    0    0  0.10933423934E+03 -0.28780176762E+03  0.75090774184E+03  0.81557113240E+03  0.80684582766E+02 0.  0.
         25    2    1    2    0    0 -0.94533891539E+02  0.38812377559E+03 -0.12128607896E+04  0.12830562874E+04  0.12500168008E+03 0.  0.
         24    2    1    2    0    0 -0.19812494660E+02 -0.18814585557E+02  0.61211997381E+01  0.85462531165E+02  0.80745597853E+02 0.  0.
        -13    1    5    5    0    0  0.10197214606E+02  0.27898551652E+02  0.13151239142E+01  0.29732842462E+02  0.00000000000E+00 0.  1.
         14    1    5    5    0    0 -0.30009709266E+02 -0.46713137209E+02  0.48060758239E+01  0.55729688703E+02  0.00000000000E+00 0. -1.
        -13    1    3    3    0    0  0.33155238962E+02 -0.15743157105E+03  0.30564370730E+03  0.34540128148E+03  0.00000000000E+00 0.  1.
         14    1    3    3    0    0  0.76179000379E+02 -0.13037019657E+03  0.44526403455E+03  0.47016985092E+03  0.00000000000E+00 0. -1.
          5    1    4    4  501    0 -0.81435368772E+02  0.10660447272E+03 -0.45900650202E+03  0.47823142075E+03  0.47000000000E+01 0.  1.
         -5    1    4    4    0  501 -0.13098522767E+02  0.28151930286E+03 -0.75385428756E+03  0.80482486670E+03  0.47000000000E+01 0.  1.
          1    1    1    2  502    0  0.48082541787E+02  0.36760252316E+01 -0.34391385415E+03  0.34727825020E+03  0.00000000000E+00 0. -1.
          1    1    1    2  503    0 -0.43070394928E+02 -0.85183447638E+02  0.14379921532E+04  0.14411567269E+04  0.00000000000E+00 0. -1.
<mgrwt>
<rscale>  0 0.67845874E+02</rscale>
<asrwt>0</asrwt>
<pdfrwt beam="1">  1        2 0.33902731E+00 0.95453957E+02</pdfrwt>
<pdfrwt beam="2">  1        2 0.24516753E+00 0.48222858E+02</pdfrwt>
<totfact> 0.14454491E+01</totfact>
</mgrwt>
</event>
<event>
13    1  0.1675423E-008  0.1057440E+03  0.7546771E-02  0.1359610E+00
          2   -1    0    0  502    0  0.00000000000E+00  0.00000000000E+00  0.10760280891E+04  0.10760280891E+04  0.00000000000E+00 0. -1.
          2   -1    0    0  503    0 -0.00000000000E+00 -0.00000000000E+00 -0.75526290162E+03  0.75526290162E+03  0.00000000000E+00 0. -1.
         24    2    1    2    0    0  0.19147737843E+02 -0.28383374029E+02  0.24461429274E+03  0.26007261486E+03  0.81420887986E+02 0.  0.
         25    2    1    2    0    0  0.50110826987E+02  0.14936864385E+03 -0.45884033080E+03  0.50097493908E+03  0.12497741266E+03 0.  0.
         24    2    1    2    0    0 -0.77836271159E+02  0.70328720572E+01  0.30351321204E+03  0.32345484803E+03  0.79967633685E+02 0.  0.
        -11    1    3    3    0    0  0.44423401624E+02 -0.59839991813E+01  0.19478921704E+03  0.19988017894E+03  0.00000000000E+00 0.  1.
         12    1    3    3    0    0 -0.25275663781E+02 -0.22399374848E+02  0.49825075697E+02  0.60192435915E+02  0.00000000000E+00 0. -1.
        -13    1    5    5    0    0 -0.71382201852E+02  0.29271143103E+02  0.15491430322E+03  0.17306258955E+03  0.00000000000E+00 0.  1.
         14    1    5    5    0    0 -0.64540693071E+01 -0.22238271046E+02  0.14859890881E+03  0.15039225848E+03  0.00000000000E+00 0. -1.
          5    1    4    4  501    0  0.39638606085E+02  0.13501316437E+03 -0.46141377151E+03  0.48241531089E+03  0.47000000000E+01 0. -1.
         -5    1    4    4    0  501  0.10472220902E+02  0.14355479473E+02  0.25734407073E+01  0.18559628191E+02  0.47000000000E+01 0. -1.
          1    1    1    2  502    0  0.43745959443E+02 -0.97556313293E+02  0.48111570200E+03  0.49285217048E+03  0.00000000000E+00 0. -1.
          1    1    1    2  503    0 -0.35168253114E+02 -0.30461828583E+02 -0.24963768848E+03  0.25393641829E+03  0.00000000000E+00 0. -1.
<mgrwt>
<rscale>  0 0.70142105E+02</rscale>
<asrwt>0</asrwt>
<pdfrwt beam="1">  1        2 0.15823943E+00 0.10574402E+03</pdfrwt>
<pdfrwt beam="2">  1        2 0.11106807E+00 0.46526649E+02</pdfrwt>
<totfact> 0.17642254E+02</totfact>
</mgrwt>
</event>
<event>
13    1  0.1675423E-008  0.1083639E+03  0.7546771E-02  0.1404295E+00
          2   -1    0    0  503    0  0.00000000000E+00  0.00000000000E+00  0.22636658907E+04  0.22636658907E+04  0.00000000000E+00 0. -1.
          2   -1    0    0  502    0 -0.00000000000E+00 -0.00000000000E+00 -0.33686715072E+04  0.33686715072E+04  0.00000000000E+00 0. -1.
         24    2    1    2    0    0  0.79444227174E+02  0.11382835950E+02  0.56198580381E+03  0.57331959329E+03  0.80164569350E+02 0.  0.
         25    2    1    2    0    0  0.11495963333E+03  0.36608991779E+02  0.98534779809E+01  0.17400529970E+03  0.12499927088E+03 0.  0.
         24    2    1    2    0    0 -0.32743502142E+03 -0.56556828065E+01 -0.28871377759E+04  0.29068577452E+04  0.83736099363E+02 0.  0.
        -11    1    5    5    0    0 -0.26011495788E+02 -0.23888783381E+02 -0.24860322730E+03  0.25109925629E+03  0.00000000000E+00 0.  1.
         12    1    5    5    0    0 -0.30142352563E+03  0.18233100575E+02 -0.26385345486E+04  0.26557584890E+04  0.00000000000E+00 0. -1.
        -11    1    3    3    0    0 -0.14258224888E+02  0.70412076657E+01  0.14735394822E+03  0.14820951939E+03  0.00000000000E+00 0.  1.
         12    1    3    3    0    0  0.93702452062E+02  0.43416282846E+01  0.41463185559E+03  0.42511007390E+03  0.00000000000E+00 0. -1.
          5    1    4    4  501    0  0.11413533999E+03 -0.32219353234E+01 -0.29274108013E+02  0.11796745357E+03  0.47000000000E+01 0. -1.
         -5    1    4    4    0  501  0.82429334357E+00  0.39830927102E+02  0.39127585994E+02  0.56037846132E+02  0.47000000000E+01 0. -1.
          1    1    1    2  502    0  0.31025217338E+02 -0.58210675222E+01 -0.38143741818E+03  0.38274136558E+03  0.00000000000E+00 0. -1.
          1    1    1    2  503    0  0.10200594357E+03 -0.36515077400E+02  0.15917302958E+04  0.15954133940E+04  0.00000000000E+00 0. -1.
<mgrwt>
<rscale>  0 0.58486552E+02</rscale>
<asrwt>0</asrwt>
<pdfrwt beam="1">  1        2 0.33289205E+00 0.10836387E+03</pdfrwt>
<pdfrwt beam="2">  1        2 0.49539286E+00 0.31566579E+02</pdfrwt>
<totfact> 0.23713718E+00</totfact>
</mgrwt>
</event>
<event>
13    1  0.1675423E-008  0.4839011E+02  0.7546771E-02  0.1539529E+00
          2   -1    0    0  503    0  0.00000000000E+00  0.00000000000E+00  0.18527938790E+04  0.18527938790E+04  0.00000000000E+00 0. -1.
          2   -1    0    0  502    0 -0.00000000000E+00 -0.00000000000E+00 -0.10930084363E+04  0.10930084363E+04  0.00000000000E+00 0. -1.
         24    2    1    2    0    0 -0.12475981037E+02  0.11031129100E+03  0.77184143185E+03  0.78420133515E+03  0.83116226472E+02 0.  0.
         25    2    1    2    0    0 -0.26320256904E+02 -0.71084904586E+02 -0.11039295246E+03  0.18318088025E+03  0.12499124510E+03 0.  0.
         24    2    1    2    0    0  0.14301121470E+02 -0.27461673866E+02  0.42111300016E+03  0.42940412473E+03  0.78058169502E+02 0.  0.
        -11    1    5    5    0    0 -0.99186902235E+01  0.12323248078E+02  0.28695528065E+03  0.28739098098E+03  0.00000000000E+00 0.  1.
         12    1    5    5    0    0  0.24219811694E+02 -0.39784921944E+02  0.13415771951E+03  0.14201314375E+03  0.00000000000E+00 0. -1.
        -11    1    3    3    0    0 -0.14661093483E+02 -0.51568375488E+01  0.34094560987E+02  0.37469717433E+02  0.00000000000E+00 0.  1.
         12    1    3    3    0    0  0.21851124464E+01  0.11546812855E+03  0.73774687086E+03  0.74673161771E+03  0.00000000000E+00 0. -1.
          5    1    4    4  501    0 -0.74804166616E+02 -0.31362359013E+02 -0.77306427471E+02  0.11215005410E+03  0.47000000000E+01 0.  1.
         -5    1    4    4    0  501  0.48483909711E+02 -0.39722545573E+02 -0.33086524989E+02  0.71030826150E+02  0.47000000000E+01 0.  1.
          1    1    1    2  502    0  0.29902183666E+02 -0.38060946374E+02 -0.93497582049E+03  0.93622783612E+03  0.00000000000E+00 0. -1.
          1    1    1    2  503    0 -0.54070671956E+01  0.26296233822E+02  0.61219978360E+03  0.61278813902E+03  0.00000000000E+00 0. -1.
<mgrwt>
<rscale>  0 0.36043023E+02</rscale>
<asrwt>0</asrwt>
<pdfrwt beam="1">  1        2 0.27246969E+00 0.26846383E+02</pdfrwt>
<pdfrwt beam="2">  1        2 0.16073653E+00 0.48390111E+02</pdfrwt>
<totfact> 0.52176928E+01</totfact>
</mgrwt>
</event>
<event>
13    1  0.1675423E-008  0.9184065E+02  0.7546771E-02  0.1452558E+00
          2   -1    0    0  503    0  0.00000000000E+00  0.00000000000E+00  0.15085586596E+03  0.15085586596E+03  0.00000000000E+00 0. -1.
         -1   -1    0    0    0  501 -0.00000000000E+00 -0.00000000000E+00 -0.12325885699E+04  0.12325885699E+04  0.00000000000E+00 0.  1.
         24    2    1    2    0    0  0.17719491505E+02  0.21388724444E+02 -0.90404097158E+01  0.85207912359E+02  0.80044996147E+02 0.  0.
         25    2    1    2    0    0  0.18710873804E+03 -0.47033332673E+02 -0.16207114903E+03  0.28127509999E+03  0.12500724095E+03 0.  0.
         24    2    1    2    0    0 -0.11012891792E+03 -0.14881138269E+02 -0.64745825402E+03  0.66172617707E+03  0.79558254655E+02 0.  0.
        -11    1    5    5    0    0 -0.11306252582E+03 -0.33419778013E+02 -0.56042110099E+03  0.57268824568E+03  0.00000000000E+00 0.  1.
         12    1    5    5    0    0  0.29336078908E+01  0.18538639743E+02 -0.87037153027E+02  0.89037931388E+02  0.00000000000E+00 0. -1.
        -13    1    3    3    0    0  0.41994370549E+02  0.31993985264E+02  0.84485308434E+01  0.53465128115E+02  0.00000000000E+00 0.  1.
         14    1    3    3    0    0 -0.24274879044E+02 -0.10605260821E+02 -0.17488940559E+02  0.31742784244E+02  0.00000000000E+00 0. -1.
          5    1    4    4  502    0 -0.27272497134E+01 -0.36515772428E+02 -0.11396267337E+02  0.38636827461E+02  0.47000000000E+01 0. -1.
         -5    1    4    4    0  502  0.18983598776E+03 -0.10517560244E+02 -0.15067488169E+03  0.24263827252E+03  0.47000000000E+01 0. -1.
          1    1    1    2  503    0 -0.79147364125E+02  0.61123568115E+02 -0.97107309428E+01  0.10047235502E+03  0.00000000000E+00 0. -1.
         -2    1    1    2    0  501 -0.15551947498E+02 -0.20597821616E+02 -0.25345216020E+03  0.25476289141E+03  0.00000000000E+00 0.  1.
<mgrwt>
<rscale>  0 0.48686413E+02</rscale>
<asrwt>0</asrwt>
<pdfrwt beam="1">  1        2 0.22184686E-01 0.91840654E+02</pdfrwt>
<pdfrwt beam="2">  1       -1 0.18126302E+00 0.25809559E+02</pdfrwt>
<totfact> 0.74012778E+01</totfact>
</mgrwt>
</event>
<event>
13    1  0.1675423E-008  0.6808864E+02  0.7546771E-02  0.1434666E+00
          2   -1    0    0  503    0  0.00000000000E+00  0.00000000000E+00  0.30022391423E+04  0.30022391423E+04  0.00000000000E+00 0. -1.
          2   -1    0    0  502    0 -0.00000000000E+00 -0.00000000000E+00 -0.23588481299E+04  0.23588481299E+04  0.00000000000E+00 0. -1.
         24    2    1    2    0    0  0.37019021842E+02 -0.10565939430E+03  0.21950228184E+03  0.25949883848E+03  0.81388450408E+02 0.  0.
         25    2    1    2    0    0  0.40467796922E+02  0.29326644182E+03 -0.18177426721E+04  0.18459299124E+04  0.12500388375E+03 0.  0.
         24    2    1    2    0    0 -0.93915172588E+02 -0.15597777167E+03 -0.35225800548E+03  0.40471631409E+03  0.80996713322E+02 0.  0.
        -11    1    3    3    0    0  0.58027663104E+02 -0.42894148417E+02  0.11049446412E+03  0.13197024003E+03  0.00000000000E+00 0.  1.
         12    1    3    3    0    0 -0.21008641262E+02 -0.62765245880E+02  0.10900781773E+03  0.12752859845E+03  0.00000000000E+00 0. -1.
        -11    1    5    5    0    0 -0.91546154081E+01 -0.20350406821E+01 -0.80785066138E+02  0.81327580099E+02  0.00000000000E+00 0.  1.
         12    1    5    5    0    0 -0.84760557180E+02 -0.15394273099E+03 -0.27147293934E+03  0.32338873399E+03  0.00000000000E+00 0. -1.
          5    1    4    4  501    0  0.99616561158E+01  0.21834822561E+02 -0.47768776786E+03  0.47831337806E+03  0.47000000000E+01 0.  1.
         -5    1    4    4    0  501  0.30506140806E+02  0.27143161926E+03 -0.13400549043E+04  0.13676165343E+04  0.47000000000E+01 0.  1.
          1    1    1    2  502    0 -0.38955182877E+02  0.79898070748E+01 -0.12501395120E+03  0.13118624656E+03  0.00000000000E+00 0. -1.
          1    1    1    2  503    0  0.55383536701E+02 -0.39619082926E+02  0.27189033594E+04  0.27197559606E+04  0.00000000000E+00 0. -1.
<mgrwt>
<rscale>  0 0.52034796E+02</rscale>
<asrwt>0</asrwt>
<pdfrwt beam="1">  1        2 0.44150576E+00 0.68088636E+02</pdfrwt>
<pdfrwt beam="2">  1        2 0.34688943E+00 0.39766107E+02</pdfrwt>
<totfact> 0.33037312E+00</totfact>
</mgrwt>
</event>
<event>
13    1  0.1675423E-008  0.2446047E+03  0.7546771E-02  0.1322425E+00
          2   -1    0    0  502    0  0.00000000000E+00  0.00000000000E+00  0.20068134522E+04  0.20068134522E+04  0.00000000000E+00 0. -1.
          2   -1    0    0  503    0 -0.00000000000E+00 -0.00000000000E+00 -0.49008797080E+04  0.49008797080E+04  0.00000000000E+00 0. -1.
         24    2    1    2    0    0  0.65110395026E+03 -0.53532689891E+03 -0.11508732110E+04  0.14288186518E+04  0.80637145730E+02 0.  0.
         25    2    1    2    0    0  0.18804274563E+03  0.55029895068E+03 -0.21561024939E+03  0.63269288049E+03  0.12499396815E+03 0.  0.
         24    2    1    2    0    0 -0.11052783952E+04  0.37940878021E+02  0.10455143048E+04  0.15227666910E+04  0.51365286246E+02 0.  0.
        -11    1    3    3    0    0  0.36519369590E+03 -0.29311592713E+03 -0.57176284479E+03  0.73905083245E+03  0.00000000000E+00 0.  1.
         12    1    3    3    0    0  0.28591025436E+03 -0.24221097178E+03 -0.57911036618E+03  0.68976781936E+03  0.00000000000E+00 0. -1.
        -13    1    5    5    0    0 -0.30804199372E+03  0.21328627075E+02  0.26419423123E+03  0.40637836070E+03  0.00000000000E+00 0.  1.
         14    1    5    5    0    0 -0.79723640146E+03  0.16612250946E+02  0.78132007355E+03  0.11163883303E+04  0.00000000000E+00 0. -1.
          5    1    4    4  501    0 -0.11662294642E+02  0.11583520797E+03 -0.37253409529E+02  0.12232624838E+03  0.47000000000E+01 0.  1.
         -5    1    4    4    0  501  0.19970504028E+03  0.43446374271E+03 -0.17835683986E+03  0.51036663210E+03  0.47000000000E+01 0.  1.
          1    1    1    2  502    0  0.25079188536E+02 -0.11868387435E+02  0.36956796759E+03  0.37060802337E+03  0.00000000000E+00 0. -1.
          1    1    1    2  503    0  0.24105251075E+03 -0.41044542350E+02 -0.29426650678E+04  0.29528069135E+04  0.00000000000E+00 0. -1.
<mgrwt>
<rscale>  0 0.82381614E+02</rscale>
<asrwt>0</asrwt>
<pdfrwt beam="1">  1        2 0.29511963E+00 0.27745708E+02</pdfrwt>
<pdfrwt beam="2">  1        2 0.72071760E+00 0.24460469E+03</pdfrwt>
<totfact> 0.18971908E-01</totfact>
</mgrwt>
</event>
<event>
13    1  0.1675423E-008  0.1534143E+03  0.7546771E-02  0.1223304E+00
         -3   -1    0    0    0  501 -0.00000000000E+00  0.00000000000E+00  0.20756233669E+03  0.20756233669E+03  0.00000000000E+00 0.  1.
          2   -1    0    0  503    0  0.00000000000E+00 -0.00000000000E+00 -0.25255478653E+04  0.25255478653E+04  0.00000000000E+00 0. -1.
         24    2    1    2    0    0 -0.12510473627E+02 -0.12577816027E+03 -0.72805719743E+03  0.74338408257E+03  0.81092255716E+02 0.  0.
         25    2    1    2    0    0  0.73142534831E+02  0.68334700022E+02 -0.20781604615E+02  0.16145857969E+03  0.12497014138E+03 0.  0.
         24    2    1    2    0    0  0.13395995048E+03  0.23579556720E+03 -0.71179565025E+03  0.76570658195E+03  0.78158199062E+02 0.  0.
        -11    1    5    5    0    0  0.88548873625E+02  0.82396986032E+02 -0.34319989814E+03  0.36389055554E+03  0.00000000000E+00 0.  1.
         12    1    5    5    0    0  0.45411076855E+02  0.15339858117E+03 -0.36859575211E+03  0.40181602641E+03  0.00000000000E+00 0. -1.
        -11    1    3    3    0    0 -0.21246045559E+02 -0.18815037082E+02 -0.32657297108E+03  0.32780376067E+03  0.00000000000E+00 0.  1.
         12    1    3    3    0    0  0.87355719312E+01 -0.10696312318E+03 -0.40148422635E+03  0.41558032190E+03  0.00000000000E+00 0. -1.
          5    1    4    4  502    0  0.10525721178E+03  0.29321255867E+02 -0.14038147967E+02  0.11026321361E+03  0.47000000000E+01 0.  1.
         -5    1    4    4    0  502 -0.32114676952E+02  0.39013444156E+02 -0.67434566481E+01  0.51195366081E+02  0.47000000000E+01 0.  1.
          1    1    1    2  503    0 -0.90051536846E+02 -0.71560290530E+02 -0.89986656413E+03  0.90718795611E+03  0.00000000000E+00 0. -1.
         -4    1    1    2    0  501 -0.10454047484E+03 -0.10679181643E+03  0.42515487844E+02  0.15537300165E+03  0.00000000000E+00 0.  1.
<mgrwt>
<rscale>  0 0.13283856E+03</rscale>
<asrwt>0</asrwt>
<pdfrwt beam="2">  1        2 0.37140410E+00 0.11502241E+03</pdfrwt>
<pdfrwt beam="1">  1       -3 0.30523873E-01 0.15341431E+03</pdfrwt>
<totfact> 0.31472197E+01</totfact>
</mgrwt>
</event>
<event>
13    1  0.1675423E-008  0.7786539E+02  0.7546771E-02  0.1386378E+00
         -1   -1    0    0    0  501 -0.00000000000E+00  0.00000000000E+00  0.84808585308E+03  0.84808585308E+03  0.00000000000E+00 0.  1.
          2   -1    0    0  503    0  0.00000000000E+00 -0.00000000000E+00 -0.50896538567E+03  0.50896538567E+03  0.00000000000E+00 0. -1.
         24    2    1    2    0    0  0.13001478052E+03 -0.60616586215E+02 -0.15042360239E+03  0.22281192249E+03  0.80247610377E+02 0.  0.
         25    2    1    2    0    0 -0.14675905181E+03  0.54130660644E+02  0.12311855422E+03  0.23505054773E+03  0.12498893505E+03 0.  0.
         24    2    1    2    0    0  0.56415464747E+02  0.21104580402E+02  0.38093050823E+03  0.39461631435E+03  0.83581549839E+02 0.  0.
        -11    1    5    5    0    0  0.38434351476E+01  0.36541046308E+02  0.24996958444E+03  0.25265552280E+03  0.00000000000E+00 0.  1.
         12    1    5    5    0    0  0.52572029599E+02 -0.15436465906E+02  0.13096092380E+03  0.14196079155E+03  0.00000000000E+00 0. -1.
        -13    1    3    3    0    0  0.13365681872E+02  0.75879439558E+01  0.56463936120E+01  0.16373762738E+02  0.00000000000E+00 0.  1.
         14    1    3    3    0    0  0.11664909865E+03 -0.68204530171E+02 -0.15606999600E+03  0.20643815975E+03  0.00000000000E+00 0. -1.
          5    1    4    4  502    0 -0.85115545534E+02 -0.17461910413E+02  0.10890306799E+03  0.13939706821E+03  0.47000000000E+01 0.  1.
         -5    1    4    4    0  502 -0.61643506276E+02  0.71592571057E+02  0.14215486234E+02  0.95653479526E+02  0.47000000000E+01 0.  1.
          1    1    1    2  503    0 -0.43418526637E+02 -0.65156091436E+02 -0.25088628848E+03  0.26282011805E+03  0.00000000000E+00 0. -1.
         -2    1    1    2    0  501  0.37473331817E+01  0.50537436605E+02  0.23638129583E+03  0.24175233612E+03  0.00000000000E+00 0.  1.
<mgrwt>
<rscale>  0 0.62816563E+02</rscale>
<asrwt>0</asrwt>
<pdfrwt beam="2">  1        2 0.74847851E-01 0.77865394E+02</pdfrwt>
<pdfrwt beam="1">  1       -1 0.12471851E+00 0.50676178E+02</pdfrwt>
<totfact> 0.49694409E+01</totfact>
</mgrwt>
</event>
<event>
13    1  0.1675423E-008  0.9308207E+02  0.7546771E-02  0.1370014E+00
          2   -1    0    0  502    0  0.00000000000E+00  0.00000000000E+00  0.26009201634E+04  0.26009201634E+04  0.00000000000E+00 0. -1.
          2   -1    0    0  503    0 -0.00000000000E+00 -0.00000000000E+00 -0.24107283706E+04  0.24107283706E+04  0.00000000000E+00 0. -1.
         24    2    1    2    0    0 -0.69991055427E+01 -0.13886813449E+02  0.76079508085E+02  0.11114842883E+03  0.79523899651E+02 0.  0.
         25    2    1    2    0    0  0.14021901563E+03 -0.92695294923E+02 -0.65978981651E+03  0.69224387218E+03  0.12500074625E+03 0.  0.
         24    2    1    2    0    0 -0.60944162877E+02 -0.31046347525E+02 -0.29025820215E+03  0.30892128854E+03  0.80650306322E+02 0.  0.
        -11    1    3    3    0    0  0.29764460662E+02  0.14432773329E+02  0.42554504330E+02  0.53899108557E+02  0.00000000000E+00 0.  1.
         12    1    3    3    0    0 -0.36763566205E+02 -0.28319586778E+02  0.33525003755E+02  0.57249320277E+02  0.00000000000E+00 0. -1.
        -13    1    5    5    0    0 -0.29515780470E+02  0.24927299815E+02 -0.14600093248E+03  0.15102590459E+03  0.00000000000E+00 0.  1.
         14    1    5    5    0    0 -0.31428382406E+02 -0.55973647340E+02 -0.14425726968E+03  0.15789538395E+03  0.00000000000E+00 0. -1.
          5    1    4    4  501    0  0.12976011484E+03 -0.57062967884E+02 -0.62583822264E+03  0.64170822079E+03  0.47000000000E+01 0.  1.
         -5    1    4    4    0  501  0.10458900792E+02 -0.35632327039E+02 -0.33951593866E+02  0.50535651396E+02  0.47000000000E+01 0.  1.
          1    1    1    2  502    0 -0.30426418611E+02  0.11319153356E+03  0.24799488978E+04  0.24827171860E+04  0.00000000000E+00 0. -1.
          1    1    1    2  503    0 -0.41849328598E+02  0.24436922338E+02 -0.14157885944E+04  0.14166177584E+04  0.00000000000E+00 0. -1.
<mgrwt>
<rscale>  0 0.67163300E+02</rscale>
<asrwt>0</asrwt>
<pdfrwt beam="1">  1        2 0.38248826E+00 0.93082072E+02</pdfrwt>
<pdfrwt beam="2">  1        2 0.35451888E+00 0.48461629E+02</pdfrwt>
<totfact> 0.46552088E+00</totfact>
</mgrwt>
</event>
<event>
13    1  0.1675423E-008  0.9660454E+02  0.7546771E-02  0.1355457E+00
          2   -1    0    0  502    0  0.00000000000E+00  0.00000000000E+00  0.59496626656E+03  0.59496626656E+03  0.00000000000E+00 0. -1.
          2   -1    0    0  503    0 -0.00000000000E+00 -0.00000000000E+00 -0.14699412043E+04  0.14699412043E+04  0.00000000000E+00 0. -1.
         24    2    1    2    0    0  0.80715319257E+02  0.12011578181E+03  0.26602076551E+03  0.31336488618E+03  0.80546510794E+02 0.  0.
         25    2    1    2    0    0 -0.49075569985E+02 -0.64886935343E+02 -0.10320843346E+03  0.18136640756E+03  0.12499226818E+03 0.  0.
         24    2    1    2    0    0  0.20566939577E+02 -0.33548989090E+02 -0.40745188049E+03  0.41748104077E+03  0.82005187691E+02 0.  0.
        -13    1    5    5    0    0  0.28333058460E+02  0.20666919999E+02 -0.19201523198E+03  0.19519152926E+03  0.00000000000E+00 0.  1.
         14    1    5    5    0    0 -0.77661188832E+01 -0.54215909090E+02 -0.21543664851E+03  0.22228951150E+03  0.00000000000E+00 0. -1.
        -13    1    3    3    0    0  0.26719249869E+02 -0.68120124340E+01  0.40143318393E+02  0.48701209827E+02  0.00000000000E+00 0.  1.
         14    1    3    3    0    0  0.53996069388E+02  0.12692779425E+03  0.22587744712E+03  0.26466367635E+03  0.00000000000E+00 0. -1.
          5    1    4    4  501    0 -0.21379749293E+02  0.12480415993E+02 -0.95417931976E+02  0.98689037921E+02  0.47000000000E+01 0.  1.
         -5    1    4    4    0  501 -0.27695820692E+02 -0.77367351336E+02 -0.77905014880E+01  0.82677369636E+02  0.47000000000E+01 0.  1.
          1    1    1    2  502    0  0.52447786608E+02  0.55840143990E+01  0.25519330933E+03  0.26058698483E+03  0.00000000000E+00 0. -1.
          1    1    1    2  503    0 -0.10465447546E+03 -0.27263871780E+02 -0.88552869863E+03  0.89210815154E+03  0.00000000000E+00 0. -1.
<mgrwt>
<rscale>  0 0.71381580E+02</rscale>
<asrwt>0</asrwt>
<pdfrwt beam="1">  1        2 0.87495041E-01 0.52744209E+02</pdfrwt>
<pdfrwt beam="2">  1        2 0.21616782E+00 0.96604538E+02</pdfrwt>
<totfact> 0.14350327E+02</totfact>
</mgrwt>
</event>
<event>
13    1  0.1675423E-008  0.9687471E+02  0.7546771E-02  0.1288556E+00
          2   -1    0    0  502    0  0.00000000000E+00  0.00000000000E+00  0.45248562766E+04  0.45248562766E+04  0.00000000000E+00 0. -1.
          2   -1    0    0  503    0 -0.00000000000E+00 -0.00000000000E+00 -0.16724850970E+04  0.16724850970E+04  0.00000000000E+00 0. -1.
         24    2    1    2    0    0  0.89889211736E+02 -0.61485544585E+02  0.27900526360E+03  0.30974797606E+03  0.78989423199E+02 0.  0.
         25    2    1    2    0    0 -0.70442718865E+02 -0.35309196338E+01 -0.30647948501E+03  0.33842242446E+03  0.12500167443E+03 0.  0.
         24    2    1    2    0    0 -0.29403535564E+02 -0.53628143314E+02  0.35649569840E+02  0.10811488166E+03  0.81715299343E+02 0.  0.
        -11    1    3    3    0    0  0.73923219016E+02 -0.73704301986E+02  0.17461147263E+03  0.20343581989E+03  0.00000000000E+00 0.  1.
         12    1    3    3    0    0  0.15965992720E+02  0.12218757401E+02  0.10439379098E+03  0.10631215617E+03  0.00000000000E+00 0. -1.
        -13    1    5    5    0    0  0.50269915264E+01  0.10734445868E+02 -0.15112178861E+02  0.19206168848E+02  0.00000000000E+00 0.  1.
         14    1    5    5    0    0 -0.34430527091E+02 -0.64362589182E+02  0.50761748701E+02  0.88908712808E+02  0.00000000000E+00 0. -1.
          5    1    4    4  501    0  0.38677387058E+01 -0.30360407204E+02 -0.21601709785E+03  0.21822509088E+03  0.47000000000E+01 0. -1.
         -5    1    4    4    0  501 -0.74310457571E+02  0.26829487570E+02 -0.90462387166E+02  0.12019733358E+03  0.47000000000E+01 0. -1.
          1    1    1    2  502    0  0.80274498222E+02  0.51687850464E+02  0.41402596173E+04  0.41413603233E+04  0.00000000000E+00 0. -1.
          1    1    1    2  503    0 -0.70317455527E+02  0.66956757069E+02 -0.12960637861E+04  0.12996957681E+04  0.00000000000E+00 0. -1.
<mgrwt>
<rscale>  0 0.96172711E+02</rscale>
<asrwt>0</asrwt>
<pdfrwt beam="1">  1        2 0.66542004E+00 0.95475803E+02</pdfrwt>
<pdfrwt beam="2">  1        2 0.24595369E+00 0.96874707E+02</pdfrwt>
<totfact> 0.63623478E-01</totfact>
</mgrwt>
</event>
<event>
13    1  0.1675423E-008  0.1184655E+03  0.7546771E-02  0.1332254E+00
          2   -1    0    0  502    0  0.00000000000E+00  0.00000000000E+00  0.67859558781E+03  0.67859558781E+03  0.00000000000E+00 0. -1.
          4   -1    0    0  503    0 -0.00000000000E+00 -0.00000000000E+00 -0.74360479611E+03  0.74360479611E+03  0.00000000000E+00 0. -1.
         24    2    1    2    0    0 -0.19603530857E+02  0.79365427032E+02  0.36181747376E+03  0.37938009222E+03  0.79587691418E+02 0.  0.
         25    2    1    2    0    0  0.11749756830E+03  0.10996496748E+02 -0.38108675879E+03  0.41806431249E+03  0.12499620057E+03 0.  0.
         24    2    1    2    0    0  0.76141798464E+01 -0.56024329670E+01  0.25613244274E+02  0.85101861889E+02  0.80603508762E+02 0.  0.
        -11    1    3    3    0    0 -0.43988601308E+02  0.36724505286E+02  0.12481469998E+03  0.13734043711E+03  0.00000000000E+00 0.  1.
         12    1    3    3    0    0  0.24385070452E+02  0.42640921746E+02  0.23700277378E+03  0.24203965511E+03  0.00000000000E+00 0. -1.
        -13    1    5    5    0    0 -0.44484007087E+01 -0.36332743756E+02  0.35140503890E+02  0.50741615577E+02  0.00000000000E+00 0.  1.
         14    1    5    5    0    0  0.12062580555E+02  0.30730310789E+02 -0.95272596158E+01  0.34360246312E+02  0.00000000000E+00 0. -1.
          5    1    4    4  501    0  0.10778364974E+02 -0.47643578593E+02 -0.90226961798E+02  0.10270870639E+03  0.47000000000E+01 0. -1.
         -5    1    4    4    0  501  0.10671920332E+03  0.58640075340E+02 -0.29085979699E+03  0.31535560610E+03  0.47000000000E+01 0. -1.
          1    1    1    2  502    0 -0.31096340392E+02  0.42330593914E+02  0.21302466318E+03  0.21940457764E+03  0.00000000000E+00 0. -1.
          3    1    1    2  503    0 -0.74411876895E+02 -0.12709008473E+03 -0.28437783073E+03  0.32024953968E+03  0.00000000000E+00 0. -1.
<mgrwt>
<rscale>  0 0.78882106E+02</rscale>
<asrwt>0</asrwt>
<pdfrwt beam="1">  1        2 0.99793469E-01 0.52524866E+02</pdfrwt>
<pdfrwt beam="2">  1        4 0.10935365E+00 0.11846554E+03</pdfrwt>
<totfact> 0.17240327E+01</totfact>
</mgrwt>
</event>
<event>
13    1  0.1675423E-008  0.9341214E+02  0.7546771E-02  0.1391798E+00
          2   -1    0    0  503    0  0.00000000000E+00  0.00000000000E+00  0.20958163336E+04  0.20958163336E+04  0.00000000000E+00 0. -1.
          2   -1    0    0  502    0 -0.00000000000E+00 -0.00000000000E+00 -0.38660140592E+04  0.38660140592E+04  0.00000000000E+00 0. -1.
         24    2    1    2    0    0 -0.54315977959E+02 -0.13910069697E+03  0.58636245971E+03  0.61078245680E+03  0.83276923667E+02 0.  0.
         25    2    1    2    0    0  0.19514936063E+03 -0.67515415621E-01 -0.80268268213E+03  0.83546999231E+03  0.12500936902E+03 0.  0.
         24    2    1    2    0    0 -0.17807600477E+03  0.78773103839E+02  0.28785802882E+03  0.35693302218E+03  0.81379802189E+02 0.  0.
        -11    1    5    5    0    0 -0.10866567635E+03  0.64647511751E+02  0.24054270010E+03  0.27175047482E+03  0.00000000000E+00 0.  1.
         12    1    5    5    0    0 -0.69410328425E+02  0.14125592088E+02  0.47315328720E+02  0.85182547366E+02  0.00000000000E+00 0. -1.
        -13    1    3    3    0    0 -0.71999396328E+02 -0.77391677531E+02  0.33061319131E+03  0.34710008224E+03  0.00000000000E+00 0.  1.
         14    1    3    3    0    0  0.17683418369E+02 -0.61709019439E+02  0.25574926840E+03  0.26368237456E+03  0.00000000000E+00 0. -1.
          5    1    4    4  501    0  0.98335896905E+02 -0.31299049630E+02 -0.59796260728E+03  0.60682035960E+03  0.47000000000E+01 0.  1.
         -5    1    4    4    0  501  0.96813463728E+02  0.31231534215E+02 -0.20472007485E+03  0.22864963271E+03  0.47000000000E+01 0.  1.
          1    1    1    2  502    0 -0.39756641968E+02  0.73994927388E+01 -0.29981680722E+04  0.29984407835E+04  0.00000000000E+00 0. -1.
          1    1    1    2  503    0  0.76999264066E+02  0.52995615808E+02  0.11564325401E+04  0.11602041380E+04  0.00000000000E+00 0. -1.
<mgrwt>
<rscale>  0 0.61461603E+02</rscale>
<asrwt>0</asrwt>
<pdfrwt beam="1">  1        2 0.30820829E+00 0.93412141E+02</pdfrwt>
<pdfrwt beam="2">  1        2 0.56853147E+00 0.40439375E+02</pdfrwt>
<totfact> 0.14177050E+00</totfact>
</mgrwt>
</event>
<event>
13    1  0.1675423E-008  0.3004220E+03  0.7546771E-02  0.1329579E+00
         -1   -1    0    0    0  501 -0.00000000000E+00  0.00000000000E+00  0.14554567168E+04  0.14554567168E+04  0.00000000000E+00 0.  1.
          2   -1    0    0  503    0  0.00000000000E+00 -0.00000000000E+00 -0.25356124193E+04  0.25356124193E+04  0.00000000000E+00 0. -1.
         24    2    1    2    0    0  0.16114559827E+03 -0.36452602184E+03 -0.17474518381E+03  0.44239736816E+03  0.79576552153E+02 0.  0.
         25    2    1    2    0    0 -0.12014667839E+03  0.36709382949E+02  0.18237293612E+03  0.25429877346E+03  0.12500070093E+03 0.  0.
         24    2    1    2    0    0 -0.77164460791E+02  0.14244957169E+02  0.69515168922E+02  0.13189984341E+03  0.80049591921E+02 0.  0.
        -13    1    5    5    0    0  0.79411421893E+01 -0.12028848627E+02  0.32297481127E+02  0.35367813415E+02  0.00000000000E+00 0.  1.
         14    1    5    5    0    0 -0.85105602981E+02  0.26273805796E+02  0.37217687794E+02  0.96532029992E+02  0.00000000000E+00 0. -1.
        -13    1    3    3    0    0  0.68728412072E+02 -0.13670607042E+03 -0.10913155399E+03  0.18794105563E+03  0.00000000000E+00 0.  1.
         14    1    3    3    0    0  0.92417186197E+02 -0.22781995141E+03 -0.65613629820E+02  0.25445631253E+03  0.00000000000E+00 0. -1.
          5    1    4    4  502    0 -0.64963181591E+02 -0.22240880810E+02  0.15383022101E+03  0.16852506828E+03  0.47000000000E+01 0.  1.
         -5    1    4    4    0  502 -0.55183496798E+02  0.58950263759E+02  0.28542715107E+02  0.85773705188E+02  0.47000000000E+01 0.  1.
          1    1    1    2  503    0  0.44197948227E+02  0.29394729003E+03 -0.21495448616E+04  0.21700003641E+04  0.00000000000E+00 0. -1.
         -2    1    1    2    0  501 -0.80324073160E+01  0.19624391685E+02  0.99224623792E+03  0.99247278703E+03  0.00000000000E+00 0.  1.
<mgrwt>
<rscale>  0 0.79814388E+02</rscale>
<asrwt>0</asrwt>
<pdfrwt beam="2">  1        2 0.37288418E+00 0.30042196E+03</pdfrwt>
<pdfrwt beam="1">  1       -1 0.21403775E+00 0.21204630E+02</pdfrwt>
<totfact> 0.86843262E-01</totfact>
</mgrwt>
</event>
<event>
13    1  0.1675423E-008  0.1082714E+03  0.7546771E-02  0.1364829E+00
          2   -1    0    0  503    0  0.00000000000E+00  0.00000000000E+00  0.13452005794E+04  0.13452005794E+04  0.00000000000E+00 0. -1.
          2   -1    0    0  502    0 -0.00000000000E+00 -0.00000000000E+00 -0.22479805087E+04  0.22479805087E+04  0.00000000000E+00 0. -1.
         24    2    1    2    0    0  0.52422770731E+02  0.72702922237E+02 -0.20362012280E+02  0.12113524366E+03  0.78900405068E+02 0.  0.
         25    2    1    2    0    0 -0.18139716698E+03  0.27494582768E+02  0.28223906633E+03  0.35909665338E+03  0.12502252453E+03 0.  0.
         24    2    1    2    0    0  0.45622008764E+02  0.54143996564E+01 -0.16807585289E+03  0.19161718064E+03  0.79730597548E+02 0.  0.
        -11    1    3    3    0    0 -0.41053808259E+01 -0.14205326909E+02  0.24290216741E+01  0.14984846032E+02  0.00000000000E+00 0.  1.
         12    1    3    3    0    0  0.56528151557E+02  0.86908249146E+02 -0.22791033954E+02  0.10615039763E+03  0.00000000000E+00 0. -1.
        -13    1    5    5    0    0 -0.18118344746E+02  0.79182955529E+01 -0.12300151461E+02  0.23286638803E+02  0.00000000000E+00 0.  1.
         14    1    5    5    0    0  0.63740353510E+02 -0.25038958965E+01 -0.15577570143E+03  0.16833054184E+03  0.00000000000E+00 0. -1.
          5    1    4    4  501    0 -0.45973026924E+01  0.43768947512E+02  0.61646349940E+02  0.75889514555E+02  0.47000000000E+01 0. -1.
         -5    1    4    4    0  501 -0.17679986429E+03 -0.16274364744E+02  0.22059271639E+03  0.28320713883E+03  0.47000000000E+01 0. -1.
          1    1    1    2  502    0  0.40327275344E+02 -0.99218916600E+02 -0.19570000769E+04  0.19599285659E+04  0.00000000000E+00 0. -1.
          1    1    1    2  503    0  0.43025112141E+02 -0.63929880620E+01  0.96041894636E+03  0.96140344450E+03  0.00000000000E+00 0. -1.
<mgrwt>
<rscale>  0 0.68626020E+02</rscale>
<asrwt>0</asrwt>
<pdfrwt beam="1">  1        2 0.19782361E+00 0.43497478E+02</pdfrwt>
<pdfrwt beam="2">  1        2 0.33058537E+00 0.10827135E+03</pdfrwt>
<totfact> 0.21798855E+01</totfact>
</mgrwt>
</event>
<event>
13    1  0.1675423E-008  0.1691845E+03  0.7546771E-02  0.1251537E+00
          2   -1    0    0  502    0  0.00000000000E+00  0.00000000000E+00  0.18076782506E+04  0.18076782506E+04  0.00000000000E+00 0. -1.
          2   -1    0    0  503    0 -0.00000000000E+00 -0.00000000000E+00 -0.13914407749E+04  0.13914407749E+04  0.00000000000E+00 0. -1.
         24    2    1    2    0    0 -0.83397041019E+02 -0.40420548893E+02  0.50326309037E+03  0.51801517911E+03  0.80480435108E+02 0.  0.
         25    2    1    2    0    0  0.14856938370E+03  0.12297933105E+03 -0.77307119659E+03  0.80651138576E+03  0.12499905088E+03 0.  0.
         24    2    1    2    0    0  0.98699410604E+02 -0.20140407279E+02  0.32222074913E+03  0.34698437075E+03  0.80154430387E+02 0.  0.
        -11    1    3    3    0    0 -0.23247173836E+02 -0.53923786514E+02  0.19505735411E+03  0.20370463234E+03  0.00000000000E+00 0.  1.
         12    1    3    3    0    0 -0.60149867183E+02  0.13503237621E+02  0.30820573625E+03  0.31431054677E+03  0.00000000000E+00 0. -1.
        -13    1    5    5    0    0 -0.27268594930E+01 -0.23997887885E+02  0.96780895637E+02  0.99749065891E+02  0.00000000000E+00 0.  1.
         14    1    5    5    0    0  0.10142627010E+03  0.38574806065E+01  0.22543985350E+03  0.24723530485E+03  0.00000000000E+00 0. -1.
          5    1    4    4  501    0  0.16272086288E+03  0.75254609827E+02 -0.62530942588E+03  0.65051925691E+03  0.47000000000E+01 0.  1.
         -5    1    4    4    0  501 -0.14151479178E+02  0.47724721225E+02 -0.14776177071E+03  0.15599212885E+03  0.47000000000E+01 0.  1.
          1    1    1    2  502    0 -0.11598781157E+03 -0.12424814145E+03  0.93539503454E+03  0.95071270305E+03  0.00000000000E+00 0. -1.
          1    1    1    2  503    0 -0.47883941720E+02  0.61829766575E+02 -0.57157020167E+03  0.57689538683E+03  0.00000000000E+00 0. -1.
<mgrwt>
<rscale>  0 0.11502533E+03</rscale>
<asrwt>0</asrwt>
<pdfrwt beam="1">  1        2 0.26583504E+00 0.16918451E+03</pdfrwt>
<pdfrwt beam="2">  1        2 0.20462364E+00 0.78203529E+02</pdfrwt>
<totfact> 0.31092873E+01</totfact>
</mgrwt>
</event>
<event>
13    1  0.1675423E-008  0.8636678E+02  0.7546771E-02  0.1414697E+00
          2   -1    0    0  503    0  0.00000000000E+00  0.00000000000E+00  0.22832986474E+04  0.22832986474E+04  0.00000000000E+00 0. -1.
          2   -1    0    0  502    0 -0.00000000000E+00 -0.00000000000E+00 -0.16159679860E+04  0.16159679860E+04  0.00000000000E+00 0. -1.
         24    2    1    2    0    0 -0.11947220326E+03 -0.52127063489E+02 -0.62630982852E+02  0.16504827700E+03  0.79545305494E+02 0.  0.
         25    2    1    2    0    0  0.20637008154E+03  0.44994753829E+02 -0.54190964331E+03  0.59489852047E+03  0.12500019891E+03 0.  0.
         24    2    1    2    0    0 -0.32780237322E+02 -0.94861439788E+02 -0.51960154199E+03  0.53535187421E+03  0.80886525795E+02 0.  0.
        -11    1    3    3    0    0 -0.10790094389E+03 -0.62693338633E+02 -0.74546750954E+02  0.14536260344E+03  0.00000000000E+00 0.  1.
         12    1    3    3    0    0 -0.11571259372E+02  0.10566275145E+02  0.11915768101E+02  0.19685673556E+02  0.00000000000E+00 0. -1.
        -11    1    5    5    0    0 -0.96380287923E+01 -0.91500932817E+02 -0.48460120437E+03  0.49325818754E+03  0.00000000000E+00 0.  1.
         12    1    5    5    0    0 -0.23142208530E+02 -0.33605069713E+01 -0.35000337628E+02  0.42093686662E+02  0.00000000000E+00 0. -1.
          5    1    4    4  501    0  0.68329217435E+02 -0.16419239296E+02 -0.69716336142E+02  0.99100609985E+02  0.47000000000E+01 0. -1.
         -5    1    4    4    0  501  0.13804086410E+03  0.61413993125E+02 -0.47219330716E+03  0.49579791049E+03  0.47000000000E+01 0. -1.
          1    1    1    2  502    0 -0.54155275254E+02  0.65477245631E+02 -0.40165076679E+03  0.41054037803E+03  0.00000000000E+00 0. -1.
          1    1    1    2  503    0  0.37634302429E-01  0.36516503817E+02  0.21931235963E+04  0.21934275838E+04  0.00000000000E+00 0. -1.
<mgrwt>
<rscale>  0 0.56158831E+02</rscale>
<asrwt>0</asrwt>
<pdfrwt beam="1">  1        2 0.33577921E+00 0.36516523E+02</pdfrwt>
<pdfrwt beam="2">  1        2 0.23764235E+00 0.86366775E+02</pdfrwt>
<totfact> 0.16804180E+01</totfact>
</mgrwt>
</event>
<event>
13    1  0.1675423E-008  0.3310296E+02  0.7546771E-02  0.1611277E+00
          2   -1    0    0  502    0  0.00000000000E+00  0.00000000000E+00  0.17420160627E+04  0.17420160627E+04  0.00000000000E+00 0. -1.
          2   -1    0    0  503    0 -0.00000000000E+00 -0.00000000000E+00 -0.16647104670E+04  0.16647104670E+04  0.00000000000E+00 0. -1.
         24    2    1    2    0    0  0.33348555013E+02 -0.34369267224E+02 -0.10724453549E+02  0.94675851421E+02  0.80963759098E+02 0.  0.
         25    2    1    2    0    0 -0.12547842201E+02  0.42302304443E+02 -0.28028891785E+03  0.31005462153E+03  0.12500023022E+03 0.  0.
         24    2    1    2    0    0 -0.33843729125E+02 -0.27625556030E+01 -0.20502318444E+02  0.89877012199E+02  0.80650496252E+02 0.  0.
        -11    1    5    5    0    0 -0.19679000899E+02 -0.34488132196E+02 -0.34322180944E+02  0.52485297403E+02  0.00000000000E+00 0.  1.
         12    1    5    5    0    0 -0.14164728226E+02  0.31725576593E+02  0.13819862500E+02  0.37391714796E+02  0.00000000000E+00 0. -1.
        -13    1    3    3    0    0  0.48677605338E+02 -0.35503483882E+02 -0.32162587944E+02  0.68296696058E+02  0.00000000000E+00 0.  1.
         14    1    3    3    0    0 -0.15329050325E+02  0.11342166580E+01  0.21438134395E+02  0.26379155362E+02  0.00000000000E+00 0. -1.
          5    1    4    4  501    0 -0.37260814418E+02  0.62911226196E+02 -0.26342006626E+03  0.27341984562E+03  0.47000000000E+01 0. -1.
         -5    1    4    4    0  501  0.24712972216E+02 -0.20608921753E+02 -0.16868851597E+02  0.36634775908E+02  0.47000000000E+01 0. -1.
          1    1    1    2  502    0 -0.17533641045E+02 -0.17996726042E+02  0.16501566514E+04  0.16503479284E+04  0.00000000000E+00 0. -1.
          1    1    1    2  503    0  0.30576657358E+02  0.12826244427E+02 -0.12613353658E+04  0.12617711162E+04  0.00000000000E+00 0. -1.
<mgrwt>
<rscale>  0 0.28839931E+02</rscale>
<asrwt>0</asrwt>
<pdfrwt beam="1">  1        2 0.25617883E+00 0.25125897E+02</pdfrwt>
<pdfrwt beam="2">  1        2 0.24481036E+00 0.33102963E+02</pdfrwt>
<totfact> 0.31998666E+01</totfact>
</mgrwt>
</event>
<event>
13    1  0.1675423E-008  0.1505418E+03  0.7546771E-02  0.1267324E+00
          2   -1    0    0  502    0  0.00000000000E+00  0.00000000000E+00  0.20738360292E+04  0.20738360292E+04  0.00000000000E+00 0. -1.
          4   -1    0    0  503    0 -0.00000000000E+00 -0.00000000000E+00 -0.15567936563E+03  0.15567936563E+03  0.00000000000E+00 0. -1.
         24    2    1    2    0    0  0.68215430941E+02 -0.17239774051E+03  0.89650699075E+03  0.91899710481E+03  0.80352773577E+02 0.  0.
         25    2    1    2    0    0  0.13165198786E+03  0.29255128840E+02  0.27335164545E+02  0.18591625548E+03  0.12501813612E+03 0.  0.
         24    2    1    2    0    0 -0.75172563498E+02  0.89769385430E+02  0.32089126696E+03  0.35078263643E+03  0.79798470839E+02 0.  0.
        -11    1    5    5    0    0 -0.35339816180E+02  0.50108769686E+02  0.26314981766E+03  0.27019921898E+03  0.00000000000E+00 0.  1.
         12    1    5    5    0    0 -0.39832747317E+02  0.39660615744E+02  0.57741449304E+02  0.80583417449E+02  0.00000000000E+00 0. -1.
        -13    1    3    3    0    0  0.17345745300E+02  0.32434305194E+01  0.51765454346E+02  0.54690556636E+02  0.00000000000E+00 0.  1.
         14    1    3    3    0    0  0.50869685641E+02 -0.17564117103E+03  0.84474153641E+03  0.86430654817E+03  0.00000000000E+00 0. -1.
          5    1    4    4  501    0  0.58835436644E+02  0.72840929397E+02 -0.75180072064E+01  0.94053282946E+02  0.47000000000E+01 0.  1.
         -5    1    4    4    0  501  0.72816551215E+02 -0.43585800557E+02  0.34853171751E+02  0.91862972531E+02  0.47000000000E+01 0.  1.
          1    1    1    2  502    0  0.66865351677E+02 -0.34512269658E+02  0.48596469097E+03  0.49175578582E+03  0.00000000000E+00 0. -1.
          3    1    1    2  503    0 -0.19156020698E+03  0.87885495894E+02  0.18745855031E+03  0.28206361228E+03  0.00000000000E+00 0. -1.
<mgrwt>
<rscale>  0 0.10643205E+03</rscale>
<asrwt>0</asrwt>
<pdfrwt beam="1">  1        2 0.30497587E+00 0.75246741E+02</pdfrwt>
<pdfrwt beam="2">  1        4 0.22894026E-01 0.15054182E+03</pdfrwt>
<totfact> 0.78792919E+01</totfact>
</mgrwt>
</event>
<event>
13    1  0.1675423E-008  0.5182115E+02  0.7546771E-02  0.1480537E+00
          2   -1    0    0  503    0  0.00000000000E+00  0.00000000000E+00  0.43758655471E+03  0.43758655471E+03  0.00000000000E+00 0. -1.
         -1   -1    0    0    0  501 -0.00000000000E+00 -0.00000000000E+00 -0.29165545682E+04  0.29165545682E+04  0.00000000000E+00 0.  1.
         24    2    1    2    0    0  0.52831551674E+02 -0.24534875648E+03  0.27449503773E+03  0.38081600675E+03  0.81768698765E+02 0.  0.
         25    2    1    2    0    0 -0.82091968887E+02  0.20162947344E+03 -0.13081468347E+04  0.13320159238E+04  0.12499897597E+03 0.  0.
         24    2    1    2    0    0  0.11416160297E+03  0.24167671483E+02 -0.38390294840E+03  0.40896892262E+03  0.79102199363E+02 0.  0.
        -13    1    5    5    0    0  0.85693681262E+02 -0.19208305870E+02 -0.21393953481E+03  0.23126281711E+03  0.00000000000E+00 0.  1.
         14    1    5    5    0    0  0.28467921705E+02  0.43375977353E+02 -0.16996341359E+03  0.17770610551E+03  0.00000000000E+00 0. -1.
        -13    1    3    3    0    0  0.48104134918E+02 -0.57858198732E+02  0.62949257873E+02  0.98102946049E+02  0.00000000000E+00 0.  1.
         14    1    3    3    0    0  0.47274167562E+01 -0.18749055774E+03  0.21154577986E+03  0.28271306070E+03  0.00000000000E+00 0. -1.
          5    1    4    4  502    0  0.25407295022E+02  0.21193793066E+02 -0.92544343108E+02  0.98393358242E+02  0.47000000000E+01 0.  1.
         -5    1    4    4    0  502 -0.10749926391E+03  0.18043568038E+03 -0.12156024916E+04  0.12336225655E+04  0.47000000000E+01 0.  1.
          1    1    1    2  503    0 -0.37384686485E+02 -0.98547854548E+00  0.80757854256E+02  0.88996724522E+02  0.00000000000E+00 0. -1.
         -2    1    1    2    0  501 -0.47516499269E+02  0.20537090098E+02 -0.11421711223E+04  0.11433435453E+04  0.00000000000E+00 0.  1.
<mgrwt>
<rscale>  0 0.44022611E+02</rscale>
<asrwt>0</asrwt>
<pdfrwt beam="1">  1        2 0.64350965E-01 0.37397673E+02</pdfrwt>
<pdfrwt beam="2">  1       -1 0.42890508E+00 0.51821146E+02</pdfrwt>
<totfact> 0.65764341E-01</totfact>
</mgrwt>
</event>
<event>
13    1  0.1675423E-008  0.1090027E+03  0.7546771E-02  0.1330893E+00
          2   -1    0    0  503    0  0.00000000000E+00  0.00000000000E+00  0.67829516130E+03  0.67829516130E+03  0.00000000000E+00 0. -1.
          2   -1    0    0  502    0 -0.00000000000E+00 -0.00000000000E+00 -0.73289414388E+03  0.73289414388E+03  0.00000000000E+00 0. -1.
         24    2    1    2    0    0  0.33192032239E+02  0.11313590225E+03  0.37102608131E+03  0.39791475647E+03  0.82306482262E+02 0.  0.
         25    2    1    2    0    0 -0.94269698844E+02 -0.51075584646E+02 -0.29481859798E+03  0.33769459898E+03  0.12499657996E+03 0.  0.
         24    2    1    2    0    0 -0.29766222745E+02  0.19461923194E+02 -0.15283131434E+02  0.88734267318E+02  0.79846112110E+02 0.  0.
        -11    1    3    3    0    0 -0.13522920946E+02 -0.44160037882E+01  0.69317553630E+02  0.70762233724E+02  0.00000000000E+00 0.  1.
         12    1    3    3    0    0  0.46714953186E+02  0.11755190604E+03  0.30170852769E+03  0.32715252275E+03  0.00000000000E+00 0. -1.
        -13    1    5    5    0    0 -0.42150750536E+02 -0.19433967878E+02 -0.10915234194E+02  0.47681308872E+02  0.00000000000E+00 0.  1.
         14    1    5    5    0    0  0.12384527792E+02  0.38895891071E+02 -0.43678972403E+01  0.41052958446E+02  0.00000000000E+00 0. -1.
          5    1    4    4  501    0 -0.11257294164E+03 -0.28546844510E+02 -0.14916670197E+03  0.18910416309E+03  0.47000000000E+01 0.  1.
         -5    1    4    4    0  501  0.18303242795E+02 -0.22528740136E+02 -0.14565189601E+03  0.14859043589E+03  0.47000000000E+01 0.  1.
          1    1    1    2  502    0  0.53382075491E+02  0.22085818338E+02 -0.33570445513E+03  0.34063897391E+03  0.00000000000E+00 0. -1.
          1    1    1    2  503    0  0.37461813858E+02 -0.10360805913E+03  0.22018112065E+03  0.24620670849E+03  0.00000000000E+00 0. -1.
<mgrwt>
<rscale>  0 0.79354531E+02</rscale>
<asrwt>0</asrwt>
<pdfrwt beam="1">  1        2 0.99749290E-01 0.10900274E+03</pdfrwt>
<pdfrwt beam="2">  1        2 0.10777855E+00 0.57770489E+02</pdfrwt>
<totfact> 0.32234635E+02</totfact>
</mgrwt>
</event>
<event>
13    1  0.1675423E-008  0.6221408E+02  0.7546771E-02  0.1447460E+00
          2   -1    0    0  503    0  0.00000000000E+00  0.00000000000E+00  0.25196354766E+04  0.25196354766E+04  0.00000000000E+00 0. -1.
          2   -1    0    0  502    0 -0.00000000000E+00 -0.00000000000E+00 -0.65547276099E+03  0.65547276099E+03  0.00000000000E+00 0. -1.
         24    2    1    2    0    0 -0.96180414006E+01  0.48936007470E+02  0.58278388459E+03  0.59058156027E+03  0.81622813239E+02 0.  0.
         25    2    1    2    0    0 -0.22091555325E+01  0.38496993210E+02  0.13946717983E+03  0.19122083668E+03  0.12500966073E+03 0.  0.
         24    2    1    2    0    0  0.27477403883E+02 -0.46200010171E+02 -0.47268115726E+03  0.48259515683E+03  0.81124350828E+02 0.  0.
        -13    1    5    5    0    0  0.47628953050E+02 -0.11450804730E+01 -0.25168593466E+03  0.25615549591E+03  0.00000000000E+00 0.  1.
         14    1    5    5    0    0 -0.20151549167E+02 -0.45054929698E+02 -0.22099522260E+03  0.22643966092E+03  0.00000000000E+00 0. -1.
        -13    1    3    3    0    0 -0.37819988478E+02  0.11069425578E+02  0.14501329020E+03  0.15027221315E+03  0.00000000000E+00 0.  1.
         14    1    3    3    0    0  0.28201947077E+02  0.37866581891E+02  0.43777059439E+03  0.44030934711E+03  0.00000000000E+00 0. -1.
          5    1    4    4  501    0 -0.20750095698E+01  0.34514000290E-02  0.15074660438E+03  0.15083412879E+03  0.47000000000E+01 0. -1.
         -5    1    4    4    0  501 -0.13414596270E+00  0.38493541810E+02 -0.11279424543E+02  0.40386707890E+02  0.47000000000E+01 0. -1.
          1    1    1    2  502    0 -0.53974104079E+02 -0.31427476479E+02 -0.14123951139E+03  0.15443280017E+03  0.00000000000E+00 0. -1.
          1    1    1    2  503    0  0.38323897130E+02 -0.98055140298E+01  0.17558323198E+04  0.17562778836E+04  0.00000000000E+00 0. -1.
<mgrwt>
<rscale>  0 0.49609385E+02</rscale>
<asrwt>0</asrwt>
<pdfrwt beam="1">  1        2 0.37053463E+00 0.39558428E+02</pdfrwt>
<pdfrwt beam="2">  1        2 0.96393054E-01 0.62214079E+02</pdfrwt>
<totfact> 0.44973875E+01</totfact>
</mgrwt>
</event>
<event>
13    1  0.1675423E-008  0.7968638E+02  0.7546771E-02  0.1485381E+00
          2   -1    0    0  503    0  0.00000000000E+00  0.00000000000E+00  0.16652053684E+04  0.16652053684E+04  0.00000000000E+00 0. -1.
          2   -1    0    0  502    0 -0.00000000000E+00 -0.00000000000E+00 -0.62943936425E+03  0.62943936425E+03  0.00000000000E+00 0. -1.
         24    2    1    2    0    0  0.16481844725E+02 -0.39326066425E+02  0.52996693035E+03  0.53792944769E+03  0.81761560173E+02 0.  0.
         25    2    1    2    0    0 -0.10646926582E+03 -0.36374654837E+02 -0.32025420153E+03  0.36172615689E+03  0.12499695558E+03 0.  0.
         24    2    1    2    0    0  0.66641813765E+02  0.72879443112E+01  0.45647885933E+02  0.11486207360E+03  0.81334623551E+02 0.  0.
        -13    1    5    5    0    0  0.78288012248E+01 -0.10708767371E+02 -0.20576733509E+02  0.24482029923E+02  0.00000000000E+00 0.  1.
         14    1    5    5    0    0  0.58813012541E+02  0.17996711682E+02  0.66224619442E+02  0.90380043681E+02  0.00000000000E+00 0. -1.
        -13    1    3    3    0    0 -0.32119721194E+02 -0.19365980806E+02  0.27996818230E+03  0.28246929178E+03  0.00000000000E+00 0.  1.
         14    1    3    3    0    0  0.48601565920E+02 -0.19960085618E+02  0.24999874805E+03  0.25546015591E+03  0.00000000000E+00 0. -1.
          5    1    4    4  501    0 -0.18647909237E+02 -0.54618227703E+02 -0.48564485437E+02  0.75574430611E+02  0.47000000000E+01 0. -1.
         -5    1    4    4    0  501 -0.87821356583E+02  0.18243572866E+02 -0.27168971609E+03  0.28615172628E+03  0.47000000000E+01 0. -1.
          1    1    1    2  502    0 -0.20138550164E+01 -0.23419059320E+02 -0.24709951603E+03  0.24821498499E+03  0.00000000000E+00 0. -1.
          1    1    1    2  503    0  0.25359462345E+02  0.91831836271E+02  0.10275049055E+04  0.10319120695E+04  0.00000000000E+00 0. -1.
<mgrwt>
<rscale>  0 0.43278947E+02</rscale>
<asrwt>0</asrwt>
<pdfrwt beam="1">  1        2 0.24488314E+00 0.79686381E+02</pdfrwt>
<pdfrwt beam="2">  1        2 0.92564613E-01 0.23505488E+02</pdfrwt>
<totfact> 0.11194032E+02</totfact>
</mgrwt>
</event>
<event>
13    1  0.1675423E-008  0.5408289E+02  0.7546771E-02  0.1449927E+00
          2   -1    0    0  502    0  0.00000000000E+00  0.00000000000E+00  0.31896364856E+04  0.31896364856E+04  0.00000000000E+00 0. -1.
          2   -1    0    0  503    0 -0.00000000000E+00 -0.00000000000E+00 -0.11387296223E+04  0.11387296223E+04  0.00000000000E+00 0. -1.
         24    2    1    2    0    0 -0.15558172870E+03  0.25937904094E+03  0.10263663785E+04  0.10748485777E+04  0.10192330893E+03 0.  0.
         25    2    1    2    0    0  0.61191768058E+03 -0.73058838805E+03  0.46027117147E+03  0.10656816966E+04  0.12500114675E+03 0.  0.
         24    2    1    2    0    0 -0.39659343723E+03  0.48007473060E+03 -0.78723658334E+02  0.63282842619E+03  0.80723609906E+02 0.  0.
        -11    1    5    5    0    0 -0.21172399908E+03  0.24420728038E+03 -0.92244495138E+00  0.32321061010E+03  0.00000000000E+00 0.  1.
         12    1    5    5    0    0 -0.18486943815E+03  0.23586745022E+03 -0.77801213383E+02  0.30961781609E+03  0.00000000000E+00 0. -1.
        -13    1    3    3    0    0 -0.86815160148E+02  0.11026917554E+03  0.63695811213E+03  0.65223600002E+03  0.00000000000E+00 0.  1.
         14    1    3    3    0    0 -0.68766568550E+02  0.14910986539E+03  0.38940826640E+03  0.42261257772E+03  0.00000000000E+00 0. -1.
          5    1    4    4  501    0  0.36972093891E+03 -0.52958558713E+03  0.29336731886E+03  0.70939477059E+03  0.47000000000E+01 0. -1.
         -5    1    4    4    0  501  0.24219674167E+03 -0.20100280093E+03  0.16690385261E+03  0.35628692605E+03  0.47000000000E+01 0. -1.
          1    1    1    2  502    0 -0.43149172812E+02  0.32624360412E+02  0.10972375870E+04  0.10985702173E+04  0.00000000000E+00 0. -1.
          1    1    1    2  503    0 -0.16593341842E+02 -0.41489743894E+02 -0.45424461534E+03  0.45643718999E+03  0.00000000000E+00 0. -1.
<mgrwt>
<rscale>  0 0.49159810E+02</rscale>
<asrwt>0</asrwt>
<pdfrwt beam="1">  1        2 0.46906419E+00 0.54082886E+02</pdfrwt>
<pdfrwt beam="2">  1        2 0.16746024E+00 0.44684873E+02</pdfrwt>
<totfact> 0.10173325E+01</totfact>
</mgrwt>
</event>
<event>
13    1  0.1675423E-008  0.1364302E+03  0.7546771E-02  0.1326505E+00
          2   -1    0    0  503    0  0.00000000000E+00  0.00000000000E+00  0.28242820938E+04  0.28242820938E+04  0.00000000000E+00 0. -1.
          2   -1    0    0  502    0 -0.00000000000E+00 -0.00000000000E+00 -0.12000687000E+04  0.12000687000E+04  0.00000000000E+00 0. -1.
         24    2    1    2    0    0 -0.10185992468E+03 -0.56682854526E+02  0.88521013401E+03  0.89623386563E+03  0.77780269373E+02 0.  0.
         25    2    1    2    0    0 -0.18785755557E+01  0.21586658514E+03 -0.24121504163E+03  0.34700200760E+03  0.12499514128E+03 0.  0.
         24    2    1    2    0    0  0.21830828039E+02 -0.14473392206E+02  0.46880216785E+03  0.47603620547E+03  0.78415127406E+02 0.  0.
        -11    1    3    3    0    0 -0.25297446091E+02  0.11392228359E+02  0.83138172737E+02  0.87645304562E+02  0.00000000000E+00 0.  1.
         12    1    3    3    0    0 -0.76562478587E+02 -0.68075082885E+02  0.80207196127E+03  0.80858856107E+03  0.00000000000E+00 0. -1.
        -13    1    5    5    0    0  0.44708621410E+02 -0.15671890326E+02  0.17366096542E+03  0.18000722176E+03  0.00000000000E+00 0.  1.
         14    1    5    5    0    0 -0.22877793371E+02  0.11984981198E+01  0.29514120243E+03  0.29602898372E+03  0.00000000000E+00 0. -1.
          5    1    4    4  501    0 -0.80337937982E+01  0.13387623049E+03 -0.58132362801E+02  0.14624926850E+03  0.47000000000E+01 0. -1.
         -5    1    4    4    0  501  0.61552182425E+01  0.81990354653E+02 -0.18308267883E+03  0.20075273910E+03  0.47000000000E+01 0. -1.
          1    1    1    2  502    0 -0.12685169022E+02  0.46269621058E+02 -0.88811669409E+03  0.88941163342E+03  0.00000000000E+00 0. -1.
          1    1    1    2  503    0  0.94592841217E+02 -0.19097995947E+03  0.13995328277E+04  0.14156670817E+04  0.00000000000E+00 0. -1.
<mgrwt>
<rscale>  0 0.80904324E+02</rscale>
<asrwt>0</asrwt>
<pdfrwt beam="1">  1        2 0.41533560E+00 0.13643019E+03</pdfrwt>
<pdfrwt beam="2">  1        2 0.17648069E+00 0.47976988E+02</pdfrwt>
<totfact> 0.12713597E+01</totfact>
</mgrwt>
</event>
<event>
13    1  0.1675423E-008  0.1230213E+03  0.7546771E-02  0.1383242E+00
          2   -1    0    0  503    0  0.00000000000E+00  0.00000000000E+00  0.25736632468E+04  0.25736632468E+04  0.00000000000E+00 0. -1.
          2   -1    0    0  502    0 -0.00000000000E+00 -0.00000000000E+00 -0.19360781215E+03  0.19360781215E+03  0.00000000000E+00 0. -1.
         24    2    1    2    0    0  0.10958067272E+02  0.23510205085E+02 -0.40654958367E+02  0.92923815236E+02  0.79430477883E+02 0.  0.
         25    2    1    2    0    0 -0.88071586771E+02  0.76053279744E+02  0.43504147167E+03  0.46736504927E+03  0.12501320509E+03 0.  0.
         24    2    1    2    0    0  0.15718253111E+03  0.81842956954E+02  0.89168172572E+03  0.91269656895E+03  0.80710032217E+02 0.  0.
        -13    1    5    5    0    0  0.13078075678E+03  0.26905171224E+02  0.63344027240E+03  0.64735930771E+03  0.00000000000E+00 0.  1.
         14    1    5    5    0    0  0.26401774332E+02  0.54937785730E+02  0.25824145332E+03  0.26533726124E+03  0.00000000000E+00 0. -1.
        -13    1    3    3    0    0  0.44144642691E+02  0.18187750237E+02 -0.13229049347E+02  0.49543430277E+02  0.00000000000E+00 0.  1.
         14    1    3    3    0    0 -0.33186575419E+02  0.53224548475E+01 -0.27425909020E+02  0.43380384959E+02  0.00000000000E+00 0. -1.
          5    1    4    4  501    0 -0.78441628824E+02  0.15222385637E+02  0.10736864331E+03  0.13392134155E+03  0.47000000000E+01 0. -1.
         -5    1    4    4    0  501 -0.96299579478E+01  0.60830894107E+02  0.32767282837E+03  0.33344370772E+03  0.47000000000E+01 0. -1.
          1    1    1    2  502    0 -0.53506515486E+02 -0.20081884162E+03  0.81858603876E+01  0.20798596745E+03  0.00000000000E+00 0. -1.
          1    1    1    2  503    0 -0.26562496122E+02  0.19412399833E+02  0.10858013353E+04  0.10862996581E+04  0.00000000000E+00 0. -1.
<mgrwt>
<rscale>  0 0.63619141E+02</rscale>
<asrwt>0</asrwt>
<pdfrwt beam="1">  1        2 0.37847987E+00 0.32899962E+02</pdfrwt>
<pdfrwt beam="2">  1        2 0.28471739E-01 0.12302127E+03</pdfrwt>
<totfact> 0.15928435E+02</totfact>
</mgrwt>
</event>
<event>
13    1  0.1675423E-008  0.8108111E+02  0.7546771E-02  0.1384189E+00
          2   -1    0    0  502    0  0.00000000000E+00  0.00000000000E+00  0.11628624052E+04  0.11628624052E+04  0.00000000000E+00 0. -1.
          2   -1    0    0  503    0 -0.00000000000E+00 -0.00000000000E+00 -0.17786692522E+04  0.17786692522E+04  0.00000000000E+00 0. -1.
         24    2    1    2    0    0 -0.53977821284E+02 -0.52436930010E+02  0.45348381441E+03  0.46474930038E+03  0.68418604524E+02 0.  0.
         25    2    1    2    0    0 -0.18304567059E+02  0.74763844556E+02  0.18910195136E+03  0.23937131833E+03  0.12495755442E+03 0.  0.
         24    2    1    2    0    0 -0.44713429982E+02  0.88951690819E+02 -0.24213206743E+03  0.27360542394E+03  0.79500288113E+02 0.  0.
        -11    1    5    5    0    0 -0.65915452469E+02  0.81196342078E+02 -0.20533956777E+03  0.23043877914E+03  0.00000000000E+00 0.  1.
         12    1    5    5    0    0  0.21202022487E+02  0.77553487415E+01 -0.36792499660E+02  0.43166644795E+02  0.00000000000E+00 0. -1.
        -13    1    3    3    0    0 -0.17434142354E+02  0.15876798720E+02  0.12966212111E+03  0.13178879963E+03  0.00000000000E+00 0.  1.
         14    1    3    3    0    0 -0.36543678930E+02 -0.68313728729E+02  0.32382169330E+03  0.33296050075E+03  0.00000000000E+00 0. -1.
          5    1    4    4  501    0  0.45869030732E+02 -0.19826580929E+01  0.68660111094E+02  0.82729678888E+02  0.47000000000E+01 0. -1.
         -5    1    4    4    0  501 -0.64173597791E+02  0.76746502649E+02  0.12044184026E+03  0.15664163944E+03  0.47000000000E+01 0. -1.
          1    1    1    2  502    0  0.46072882424E+02  0.18196073752E+02  0.46880783664E+03  0.47141764423E+03  0.00000000000E+00 0. -1.
          1    1    1    2  503    0  0.70922935901E+02 -0.12947467912E+03 -0.14850683820E+04  0.14923879705E+04  0.00000000000E+00 0. -1.
<mgrwt>
<rscale>  0 0.63375292E+02</rscale>
<asrwt>0</asrwt>
<pdfrwt beam="1">  1        2 0.17100918E+00 0.49535922E+02</pdfrwt>
<pdfrwt beam="2">  1        2 0.26156901E+00 0.81081113E+02</pdfrwt>
<totfact> 0.46249688E+01</totfact>
</mgrwt>
</event>
<event>
13    1  0.1675423E-008  0.2796975E+03  0.7546771E-02  0.1128100E+00
          2   -1    0    0  502    0  0.00000000000E+00  0.00000000000E+00  0.32250223628E+04  0.32250223628E+04  0.00000000000E+00 0. -1.
          2   -1    0    0  503    0 -0.00000000000E+00 -0.00000000000E+00 -0.15009407462E+04  0.15009407462E+04  0.00000000000E+00 0. -1.
         24    2    1    2    0    0  0.18103021420E+03  0.11599486395E+03  0.18816653367E+03  0.29599787674E+03  0.77339199142E+02 0.  0.
         25    2    1    2    0    0  0.17949011721E+03 -0.32589144806E+03 -0.16879450020E+03  0.42724480804E+03  0.12499841844E+03 0.  0.
         24    2    1    2    0    0 -0.68151074425E+02  0.49361249300E+02 -0.15962606308E+03  0.19761354603E+03  0.80557629572E+02 0.  0.
        -13    1    5    5    0    0 -0.52220532272E+02  0.66397227734E+02 -0.15046459091E+03  0.17255482885E+03  0.00000000000E+00 0.  1.
         14    1    5    5    0    0 -0.15930542153E+02 -0.17035978434E+02 -0.91614721743E+01  0.25058717184E+02  0.00000000000E+00 0. -1.
        -13    1    3    3    0    0  0.87157822831E+02  0.16851048921E+02  0.50609638856E+02  0.10218502569E+03  0.00000000000E+00 0.  1.
         14    1    3    3    0    0  0.93872391369E+02  0.99143815034E+02  0.13755689481E+03  0.19381285105E+03  0.00000000000E+00 0. -1.
          5    1    4    4  501    0 -0.34165002823E+01  0.73589979874E+01 -0.13811008805E+02  0.16693150984E+02  0.47000000000E+01 0.  1.
         -5    1    4    4    0  501  0.18290661749E+03 -0.33325044604E+03 -0.15498349140E+03  0.41055165706E+03  0.47000000000E+01 0.  1.
          1    1    1    2  502    0 -0.45508353136E+02  0.23098729918E+03  0.28127382637E+04  0.28225737692E+04  0.00000000000E+00 0. -1.
          1    1    1    2  503    0 -0.24686090385E+03 -0.70451964373E+02 -0.94840261757E+03  0.98253310893E+03  0.00000000000E+00 0. -1.
<mgrwt>
<rscale>  0 0.22793700E+03</rscale>
<asrwt>0</asrwt>
<pdfrwt beam="1">  1        2 0.47426799E+00 0.27969749E+03</pdfrwt>
<pdfrwt beam="2">  1        2 0.22072658E+00 0.18575524E+03</pdfrwt>
<totfact> 0.44245469E+00</totfact>
</mgrwt>
</event>
<event>
13    1  0.1675423E-008  0.1670381E+03  0.7546771E-02  0.1252649E+00
          2   -1    0    0  502    0  0.00000000000E+00  0.00000000000E+00  0.18242897759E+04  0.18242897759E+04  0.00000000000E+00 0. -1.
          2   -1    0    0  503    0 -0.00000000000E+00 -0.00000000000E+00 -0.35693939183E+04  0.35693939183E+04  0.00000000000E+00 0. -1.
         24    2    1    2    0    0 -0.16162107821E+03  0.13515132692E+03 -0.22993008146E+03  0.32213699192E+03  0.80728836909E+02 0.  0.
         25    2    1    2    0    0  0.62115958542E+02 -0.19536930420E+03 -0.72351766791E+03  0.76231906679E+03  0.12499994591E+03 0.  0.
         24    2    1    2    0    0 -0.11724566199E+03 -0.30425376104E+02 -0.69747871288E+03  0.71253368878E+03  0.80965757995E+02 0.  0.
        -11    1    5    5    0    0 -0.11670449469E+03 -0.18849985258E+02 -0.46586501764E+03  0.48063029002E+03  0.00000000000E+00 0.  1.
         12    1    5    5    0    0 -0.54116729291E+00 -0.11575390846E+02 -0.23161369524E+03  0.23190339876E+03  0.00000000000E+00 0. -1.
        -11    1    3    3    0    0 -0.46193593999E+02  0.24959129965E+02 -0.15312572777E+02  0.54692606266E+02  0.00000000000E+00 0.  1.
         12    1    3    3    0    0 -0.11542748422E+03  0.11019219696E+03 -0.21461750868E+03  0.26744438565E+03  0.00000000000E+00 0. -1.
          5    1    4    4  501    0  0.83034238718E+02 -0.82574617926E+02 -0.46337541683E+03  0.47796665077E+03  0.47000000000E+01 0.  1.
         -5    1    4    4    0  501 -0.20918280176E+02 -0.11279468628E+03 -0.26014225108E+03  0.28435241602E+03  0.47000000000E+01 0.  1.
          1    1    1    2  502    0  0.13847708826E+03  0.93768409946E+02  0.17464304990E+04  0.17544195355E+04  0.00000000000E+00 0. -1.
          1    1    1    2  503    0  0.78273693398E+02 -0.31250565620E+01 -0.18406081791E+04  0.18422744112E+04  0.00000000000E+00 0. -1.
<mgrwt>
<rscale>  0 0.11439016E+03</rscale>
<asrwt>0</asrwt>
<pdfrwt beam="1">  1        2 0.26827791E+00 0.16703815E+03</pdfrwt>
<pdfrwt beam="2">  1        2 0.52491087E+00 0.78336052E+02</pdfrwt>
<totfact> 0.23930174E+00</totfact>
</mgrwt>
</event>
<event>
13    1  0.1675423E-008  0.1466242E+03  0.7546771E-02  0.1263480E+00
          2   -1    0    0  503    0  0.00000000000E+00  0.00000000000E+00  0.38671324145E+04  0.38671324145E+04  0.00000000000E+00 0. -1.
          2   -1    0    0  502    0 -0.00000000000E+00 -0.00000000000E+00 -0.31081288024E+04  0.31081288024E+04  0.00000000000E+00 0. -1.
         24    2    1    2    0    0  0.51419980801E+02 -0.13227684620E+02  0.41382261257E+02  0.99760300102E+02  0.73624994830E+02 0.  0.
         25    2    1    2    0    0  0.21023532582E+03  0.26015026659E+03 -0.19625679617E+04  0.19947868160E+04  0.12499753414E+03 0.  0.
         24    2    1    2    0    0  0.19914971518E+01 -0.37495265221E+02 -0.11569936262E+03  0.14620457201E+03  0.81114569532E+02 0.  0.
        -13    1    3    3    0    0  0.58884331356E+02  0.15587935398E+02  0.29904357769E+02  0.67857341701E+02  0.00000000000E+00 0.  1.
         14    1    3    3    0    0 -0.74643505553E+01 -0.28815620018E+02  0.11477903489E+02  0.31902958401E+02  0.00000000000E+00 0. -1.
        -13    1    5    5    0    0 -0.27397731733E+02  0.13429806562E+02 -0.36730062942E+02  0.47750318660E+02  0.00000000000E+00 0.  1.
         14    1    5    5    0    0  0.29389228885E+02 -0.50925071783E+02 -0.78969299682E+02  0.98454253351E+02  0.00000000000E+00 0. -1.
          5    1    4    4  501    0  0.24559731402E+02  0.10396383643E+03 -0.80372539952E+03  0.81080717037E+03  0.47000000000E+01 0.  1.
         -5    1    4    4    0  501  0.18567559441E+03  0.15618643015E+03 -0.11588425622E+04  0.11839796456E+04  0.47000000000E+01 0.  1.
          1    1    1    2  502    0 -0.29375196524E+02 -0.74631919895E+02 -0.96279026625E+03  0.96612521053E+03  0.00000000000E+00 0. -1.
          1    1    1    2  503    0 -0.23427160724E+03 -0.13479539685E+03  0.37586789415E+04  0.37683843183E+04  0.00000000000E+00 0. -1.
<mgrwt>
<rscale>  0 0.10844345E+03</rscale>
<asrwt>0</asrwt>
<pdfrwt beam="1">  1        2 0.56869594E+00 0.14662424E+03</pdfrwt>
<pdfrwt beam="2">  1        2 0.45707776E+00 0.80204898E+02</pdfrwt>
<totfact> 0.34257644E-01</totfact>
</mgrwt>
</event>
<event>
13    1  0.1675423E-008  0.1519992E+03  0.7546771E-02  0.1264185E+00
          2   -1    0    0  503    0  0.00000000000E+00  0.00000000000E+00  0.14043162224E+04  0.14043162224E+04  0.00000000000E+00 0. -1.
          2   -1    0    0  502    0 -0.00000000000E+00 -0.00000000000E+00 -0.12523256478E+04  0.12523256478E+04  0.00000000000E+00 0. -1.
         24    2    1    2    0    0 -0.28744711962E+03  0.81797806914E+00  0.11103915744E+03  0.31853643071E+03  0.80679907910E+02 0.  0.
         25    2    1    2    0    0  0.18304171587E+03  0.63017229419E+02 -0.27649138478E+03  0.35992758314E+03  0.12499975319E+03 0.  0.
         24    2    1    2    0    0  0.27799054779E+02 -0.55565159435E+02 -0.29407663177E+02  0.10554898162E+03  0.80096831879E+02 0.  0.
        -11    1    5    5    0    0 -0.28397098091E+02 -0.21527702547E+02 -0.90345747462E+01  0.36762218347E+02  0.00000000000E+00 0.  1.
         12    1    5    5    0    0  0.56196152870E+02 -0.34037456888E+02 -0.20373088430E+02  0.68786763269E+02  0.00000000000E+00 0. -1.
        -13    1    3    3    0    0 -0.99709706061E+02  0.30113544656E+01 -0.12622190766E+01  0.99763154198E+02  0.00000000000E+00 0.  1.
         14    1    3    3    0    0 -0.18773741356E+03 -0.21933763964E+01  0.11230137651E+03  0.21877327651E+03  0.00000000000E+00 0. -1.
          5    1    4    4  501    0  0.16931616805E+03  0.95004983424E+02 -0.24596233490E+03  0.31339028675E+03  0.47000000000E+01 0. -1.
         -5    1    4    4    0  501  0.13725547822E+02 -0.31987754005E+02 -0.30529049881E+02  0.46537296397E+02  0.47000000000E+01 0. -1.
          1    1    1    2  502    0 -0.75965765460E+02 -0.11541375290E+02 -0.75568531662E+03  0.75958166027E+03  0.00000000000E+00 0. -1.
          1    1    1    2  503    0  0.15257211443E+03  0.32713272365E+01  0.11025357818E+04  0.11130472145E+04  0.00000000000E+00 0. -1.
<mgrwt>
<rscale>  0 0.10807053E+03</rscale>
<asrwt>0</asrwt>
<pdfrwt beam="1">  1        2 0.20651709E+00 0.15199923E+03</pdfrwt>
<pdfrwt beam="2">  1        2 0.18416554E+00 0.76837496E+02</pdfrwt>
<totfact> 0.58791096E+01</totfact>
</mgrwt>
</event>
<event>
13    1  0.1675423E-008  0.3143521E+02  0.7546771E-02  0.1583993E+00
          2   -1    0    0  503    0  0.00000000000E+00  0.00000000000E+00  0.28323978657E+04  0.28323978657E+04  0.00000000000E+00 0. -1.
          2   -1    0    0  502    0 -0.00000000000E+00 -0.00000000000E+00 -0.12637640737E+04  0.12637640737E+04  0.00000000000E+00 0. -1.
         24    2    1    2    0    0  0.12083617612E+03 -0.28853238278E+02  0.63638976120E+03  0.65324076375E+03  0.79357900930E+02 0.  0.
         25    2    1    2    0    0 -0.57218691734E+02  0.71662401409E+02 -0.53815891665E+03  0.56004439238E+03  0.12500089365E+03 0.  0.
         24    2    1    2    0    0 -0.23035126938E+02 -0.70319351401E+02 -0.33078582284E+03  0.34845706064E+03  0.80793776122E+02 0.  0.
        -11    1    3    3    0    0  0.66218352845E+02  0.20884091427E+02  0.23231399743E+03  0.24246816065E+03  0.00000000000E+00 0.  1.
         12    1    3    3    0    0  0.54617823279E+02 -0.49737329706E+02  0.40407576378E+03  0.41077260310E+03  0.00000000000E+00 0. -1.
        -13    1    5    5    0    0 -0.26374398687E+01 -0.61057728382E+02 -0.10445308263E+03  0.12101838189E+03  0.00000000000E+00 0.  1.
         14    1    5    5    0    0 -0.20397687070E+02 -0.92616230197E+01 -0.22633274021E+03  0.22743867875E+03  0.00000000000E+00 0. -1.
          5    1    4    4  501    0 -0.80705931965E+02  0.74571403148E+02 -0.51495324165E+03  0.52656744364E+03  0.47000000000E+01 0.  1.
         -5    1    4    4    0  501  0.23487240231E+02 -0.29090017385E+01 -0.23205675000E+02  0.33476948740E+02  0.47000000000E+01 0.  1.
          1    1    1    2  502    0 -0.31097896171E+02 -0.24591455881E+01 -0.36583769327E+03  0.36716528207E+03  0.00000000000E+00 0. -1.
          1    1    1    2  503    0 -0.94844612808E+01  0.29969333859E+02  0.21670264636E+04  0.21672544405E+04  0.00000000000E+00 0. -1.
<mgrwt>
<rscale>  0 0.31314861E+02</rscale>
<asrwt>0</asrwt>
<pdfrwt beam="1">  1        2 0.41652910E+00 0.31435207E+02</pdfrwt>
<pdfrwt beam="2">  1        2 0.18584766E+00 0.31194976E+02</pdfrwt>
<totfact> 0.15119645E+01</totfact>
</mgrwt>
</event>
<event>
13    1  0.1675423E-008  0.5004183E+02  0.7546771E-02  0.1487016E+00
          2   -1    0    0  503    0  0.00000000000E+00  0.00000000000E+00  0.13245281164E+04  0.13245281164E+04  0.00000000000E+00 0. -1.
         -1   -1    0    0    0  501 -0.00000000000E+00 -0.00000000000E+00 -0.13898485324E+04  0.13898485324E+04  0.00000000000E+00 0.  1.
         24    2    1    2    0    0  0.14836135348E+02 -0.27586161226E+02  0.62683905556E+03  0.63303566071E+03  0.82618635616E+02 0.  0.
         25    2    1    2    0    0  0.40969586036E+02 -0.22236269032E+02 -0.19556142041E+03  0.23673168149E+03  0.12499864491E+03 0.  0.
         24    2    1    2    0    0 -0.38460032017E+02  0.71210510493E+02 -0.30912564103E+03  0.32938659169E+03  0.79917169452E+02 0.  0.
        -11    1    5    5    0    0  0.36417959478E+01  0.11801147173E+02 -0.18550006812E+03  0.18591074478E+03  0.00000000000E+00 0.  1.
         12    1    5    5    0    0 -0.42101827965E+02  0.59409363320E+02 -0.12362557291E+03  0.14347584691E+03  0.00000000000E+00 0. -1.
        -11    1    3    3    0    0 -0.37037621628E+01  0.28386454208E+02  0.24582073065E+03  0.24748199986E+03  0.00000000000E+00 0.  1.
         12    1    3    3    0    0  0.18539897511E+02 -0.55972615434E+02  0.38101832491E+03  0.38555366085E+03  0.00000000000E+00 0. -1.
          5    1    4    4  502    0  0.32530928194E+02 -0.49082173689E+02 -0.19937991809E+03  0.20794653832E+03  0.47000000000E+01 0.  1.
         -5    1    4    4    0  502  0.84386578422E+01  0.26845904657E+02  0.38184976767E+01  0.28785143174E+02  0.47000000000E+01 0.  1.
          1    1    1    2  503    0 -0.49945901098E+02 -0.38804516276E+01  0.66252696034E+03  0.66441825992E+03  0.00000000000E+00 0. -1.
         -2    1    1    2    0  501  0.32600211731E+02 -0.17507628608E+02 -0.84999937046E+03  0.85080445500E+03  0.00000000000E+00 0.  1.
<mgrwt>
<rscale>  0 0.43031900E+02</rscale>
<asrwt>0</asrwt>
<pdfrwt beam="1">  1        2 0.19478355E+00 0.50041830E+02</pdfrwt>
<pdfrwt beam="2">  1       -1 0.20438949E+00 0.37003930E+02</pdfrwt>
<totfact> 0.44323114E+00</totfact>
</mgrwt>
</event>
<event>
13    1  0.1675423E-008  0.3743272E+03  0.7546771E-02  0.1191616E+00
          2   -1    0    0  502    0  0.00000000000E+00  0.00000000000E+00  0.17902371596E+04  0.17902371596E+04  0.00000000000E+00 0. -1.
          2   -1    0    0  503    0 -0.00000000000E+00 -0.00000000000E+00 -0.23411428930E+04  0.23411428930E+04  0.00000000000E+00 0. -1.
         24    2    1    2    0    0  0.11439420962E+03  0.35699728673E+03  0.91938518867E+03  0.99609303627E+03  0.79994461272E+02 0.  0.
         25    2    1    2    0    0 -0.48217604213E+03  0.87681608535E+02 -0.74942966014E+03  0.90413055337E+03  0.12500176787E+03 0.  0.
         24    2    1    2    0    0  0.17395001402E+03 -0.11425183615E+03 -0.29892388933E+03  0.37193756353E+03  0.75299203932E+02 0.  0.
        -11    1    5    5    0    0  0.34402033171E+02  0.84744415803E+01 -0.44969464041E+02  0.57250054520E+02  0.00000000000E+00 0.  1.
         12    1    5    5    0    0  0.13954798085E+03 -0.12272627773E+03 -0.25395442529E+03  0.31468750901E+03  0.00000000000E+00 0. -1.
        -11    1    3    3    0    0  0.36764222328E+01  0.13556338681E+03  0.33802779078E+03  0.36421660487E+03  0.00000000000E+00 0.  1.
         12    1    3    3    0    0  0.11071778739E+03  0.22143389992E+03  0.58135739789E+03  0.63187643140E+03  0.00000000000E+00 0. -1.
          5    1    4    4  501    0 -0.19184746429E+03  0.23472615434E+01 -0.20215098412E+03  0.27874373458E+03  0.47000000000E+01 0.  1.
         -5    1    4    4    0  501 -0.29032857784E+03  0.85334346991E+02 -0.54727867602E+03  0.62538681879E+03  0.47000000000E+01 0.  1.
          1    1    1    2  502    0  0.25595722239E+03 -0.30750385479E+03  0.66186586536E+03  0.77339455915E+03  0.00000000000E+00 0. -1.
          1    1    1    2  503    0 -0.62125403897E+02 -0.22923204328E+02 -0.10838032380E+04  0.10858243402E+04  0.00000000000E+00 0. -1.
<mgrwt>
<rscale>  0 0.15744144E+03</rscale>
<asrwt>0</asrwt>
<pdfrwt beam="1">  1        2 0.26327017E+00 0.37432718E+03</pdfrwt>
<pdfrwt beam="2">  1        2 0.34428572E+00 0.66219628E+02</pdfrwt>
<totfact> 0.10579896E+01</totfact>
</mgrwt>
</event>
<event>
13    1  0.1675423E-008  0.9164419E+02  0.7546771E-02  0.1419867E+00
         -1   -1    0    0    0  501 -0.00000000000E+00  0.00000000000E+00  0.60854507769E+03  0.60854507769E+03  0.00000000000E+00 0.  1.
          2   -1    0    0  503    0  0.00000000000E+00 -0.00000000000E+00 -0.39459684099E+04  0.39459684099E+04  0.00000000000E+00 0. -1.
         24    2    1    2    0    0  0.24433900137E+02  0.11335849968E+03 -0.36519756161E+03  0.39178347579E+03  0.81718223008E+02 0.  0.
         25    2    1    2    0    0  0.67468267259E+02 -0.14970822338E+03 -0.55735719251E+03  0.59433485239E+03  0.12498942952E+03 0.  0.
         24    2    1    2    0    0 -0.12075777015E+03  0.10846495915E+03  0.39560775213E+03  0.43524808258E+03  0.81168426303E+02 0.  0.
        -11    1    3    3    0    0  0.47252414131E+02  0.10431709111E+03 -0.32605866414E+03  0.34558515391E+03  0.00000000000E+00 0.  1.
         12    1    3    3    0    0 -0.22818513994E+02  0.90414085661E+01 -0.39138897462E+02  0.46198321877E+02  0.00000000000E+00 0. -1.
        -13    1    5    5    0    0 -0.55621308583E+02  0.85172342879E+02  0.30324412222E+03  0.31985161501E+03  0.00000000000E+00 0.  1.
         14    1    5    5    0    0 -0.65136461571E+02  0.23292616273E+02  0.92363629906E+02  0.11539646757E+03  0.00000000000E+00 0. -1.
          5    1    4    4  502    0 -0.31661515841E+02 -0.83998536018E+01 -0.74079252417E+02  0.81134670545E+02  0.47000000000E+01 0. -1.
         -5    1    4    4    0  502  0.99129783100E+02 -0.14130836978E+03 -0.48327794010E+03  0.51320018185E+03  0.47000000000E+01 0. -1.
          1    1    1    2  503    0  0.21742170430E+01 -0.91648230283E+02 -0.29694025002E+04  0.29708172838E+04  0.00000000000E+00 0. -1.
         -2    1    1    2    0  501  0.26681385715E+02  0.19532994831E+02  0.15892616995E+03  0.16232979309E+03  0.00000000000E+00 0.  1.
<mgrwt>
<rscale>  0 0.55049151E+02</rscale>
<asrwt>0</asrwt>
<pdfrwt beam="2">  1        2 0.58028947E+00 0.91644186E+02</pdfrwt>
<pdfrwt beam="1">  1       -1 0.89491923E-01 0.33067117E+02</pdfrwt>
<totfact> 0.13057263E+00</totfact>
</mgrwt>
</event>
<event>
13    1  0.1675423E-008  0.1036813E+03  0.7546771E-02  0.1309808E+00
         -1   -1    0    0    0  501 -0.00000000000E+00  0.00000000000E+00  0.24000407234E+03  0.24000407234E+03  0.00000000000E+00 0.  1.
          2   -1    0    0  503    0  0.00000000000E+00 -0.00000000000E+00 -0.25899953052E+04  0.25899953052E+04  0.00000000000E+00 0. -1.
         24    2    1    2    0    0 -0.27084532581E+02 -0.41127582105E+02  0.51942841996E+02  0.10887097892E+03  0.82035244271E+02 0.  0.
         25    2    1    2    0    0 -0.21050262790E+01  0.61983414439E+02 -0.41110038311E+03  0.43413745296E+03  0.12500171306E+03 0.  0.
         24    2    1    2    0    0 -0.29516347757E+02 -0.11094536869E+02  0.62248592318E+02  0.12573604521E+03  0.10459618677E+03 0.  0.
        -11    1    5    5    0    0  0.13298163417E+02  0.26618384969E+02  0.61898871765E+02  0.68679326544E+02  0.00000000000E+00 0.  1.
         12    1    5    5    0    0 -0.42814511175E+02 -0.37712921838E+02  0.34972055228E+00  0.57056718668E+02  0.00000000000E+00 0. -1.
        -11    1    3    3    0    0  0.15184264994E+02 -0.33872752657E+02  0.54463007663E+02  0.65910124257E+02  0.00000000000E+00 0.  1.
         12    1    3    3    0    0 -0.42268797575E+02 -0.72548294476E+01 -0.25201656668E+01  0.42960854667E+02  0.00000000000E+00 0. -1.
          5    1    4    4  502    0  0.60415207816E+02  0.40505475692E+02 -0.23124057568E+03  0.24245615013E+03  0.47000000000E+01 0. -1.
         -5    1    4    4    0  502 -0.62520234095E+02  0.21477938747E+02 -0.17985980743E+03  0.19168130283E+03  0.47000000000E+01 0. -1.
          1    1    1    2  503    0 -0.39932374044E+02  0.61489533610E+02 -0.20372266089E+04  0.20385455142E+04  0.00000000000E+00 0. -1.
         -2    1    1    2    0  501  0.98638280662E+02 -0.71250829076E+02 -0.15855675180E+02  0.12270938632E+03  0.00000000000E+00 0.  1.
<mgrwt>
<rscale>  0 0.87187867E+02</rscale>
<asrwt>0</asrwt>
<pdfrwt beam="2">  1        2 0.38088169E+00 0.73318192E+02</pdfrwt>
<pdfrwt beam="1">  1       -1 0.35294714E-01 0.10368128E+03</pdfrwt>
<totfact> 0.43187656E+01</totfact>
</mgrwt>
</event>
<event>
13    1  0.1675423E-008  0.9952668E+02  0.7546771E-02  0.1341997E+00
          2   -1    0    0  502    0  0.00000000000E+00  0.00000000000E+00  0.45215358774E+03  0.45215358774E+03  0.00000000000E+00 0. -1.
          2   -1    0    0  503    0 -0.00000000000E+00 -0.00000000000E+00 -0.22250931364E+04  0.22250931364E+04  0.00000000000E+00 0. -1.
         24    2    1    2    0    0 -0.83457423384E+02 -0.16903688453E+02  0.14132285103E+03  0.18210074771E+03  0.77056199578E+02 0.  0.
         25    2    1    2    0    0  0.28248321902E+03 -0.85240416500E+01 -0.36486926103E+03  0.47814677901E+03  0.12500134526E+03 0.  0.
         24    2    1    2    0    0 -0.66445834897E+02 -0.35071640694E+02 -0.13272926211E+03  0.17236567758E+03  0.80298199421E+02 0.  0.
        -11    1    3    3    0    0 -0.60692118140E+02 -0.46785398241E+02  0.10361918182E+03  0.12887723435E+03  0.00000000000E+00 0.  1.
         12    1    3    3    0    0 -0.22765305243E+02  0.29881709789E+02  0.37703669208E+02  0.53223513361E+02  0.00000000000E+00 0. -1.
        -11    1    5    5    0    0 -0.81694059235E+02 -0.25390410985E+02 -0.12753786562E+03  0.15357245668E+03  0.00000000000E+00 0.  1.
         12    1    5    5    0    0  0.15248224338E+02 -0.96812297091E+01 -0.51913964908E+01  0.18793220896E+02  0.00000000000E+00 0. -1.
          5    1    4    4  501    0  0.11340386997E+03  0.13069069971E+02 -0.60533665209E+02  0.12929676306E+03  0.47000000000E+01 0.  1.
         -5    1    4    4    0  501  0.16907934906E+03 -0.21593111621E+02 -0.30433559582E+03  0.34885001595E+03  0.47000000000E+01 0.  1.
          1    1    1    2  502    0 -0.97606190014E+02  0.14936517350E+02  0.20205719931E+03  0.22489370750E+03  0.00000000000E+00 0. -1.
          1    1    1    2  503    0 -0.34973770729E+02  0.45562853446E+02 -0.16187210758E+04  0.16197398123E+04  0.00000000000E+00 0. -1.
<mgrwt>
<rscale>  0 0.75608373E+02</rscale>
<asrwt>0</asrwt>
<pdfrwt beam="1">  1        2 0.66493176E-01 0.99526684E+02</pdfrwt>
<pdfrwt beam="2">  1        2 0.32721957E+00 0.57438125E+02</pdfrwt>
<totfact> 0.87545385E+01</totfact>
</mgrwt>
</event>
<event>
13    1  0.1675423E-008  0.7774773E+02  0.7546771E-02  0.1367997E+00
         -1   -1    0    0    0  501 -0.00000000000E+00  0.00000000000E+00  0.48477606496E+03  0.48477606496E+03  0.00000000000E+00 0.  1.
          2   -1    0    0  503    0  0.00000000000E+00 -0.00000000000E+00 -0.10025424728E+04  0.10025424728E+04  0.00000000000E+00 0. -1.
         24    2    1    2    0    0  0.10498820426E+03  0.32320677495E+02 -0.40098148349E+03  0.42359204414E+03  0.81098215333E+02 0.  0.
         25    2    1    2    0    0 -0.20260897648E+03 -0.37911410794E+01  0.72856206121E+02  0.24899465851E+03  0.12500217235E+03 0.  0.
         24    2    1    2    0    0  0.11804612734E+03 -0.28611015627E+02  0.35343896243E+02  0.14984329522E+03  0.80314031944E+02 0.  0.
        -11    1    5    5    0    0 -0.96926659730E+01 -0.41229725856E+01  0.14800675529E+02  0.18166085784E+02  0.00000000000E+00 0.  1.
         12    1    5    5    0    0  0.12773879331E+03 -0.24488043042E+02  0.20543220714E+02  0.13167720944E+03  0.00000000000E+00 0. -1.
        -11    1    3    3    0    0  0.24759829135E+01  0.23804573223E+02 -0.28745762958E+02  0.37404639896E+02  0.00000000000E+00 0.  1.
         12    1    3    3    0    0  0.10251222134E+03  0.85161042722E+01 -0.37223572053E+03  0.38618740424E+03  0.00000000000E+00 0. -1.
          5    1    4    4  502    0 -0.18035566692E+03 -0.48412609222E+02  0.67518896497E+02  0.19862738659E+03  0.47000000000E+01 0. -1.
         -5    1    4    4    0  502 -0.22253309565E+02  0.44621468143E+02  0.53373096240E+01  0.50367271912E+02  0.47000000000E+01 0. -1.
          1    1    1    2  503    0  0.55441884688E+02  0.20174321474E+02 -0.43588457156E+03  0.43985925652E+03  0.00000000000E+00 0. -1.
         -2    1    1    2    0  501 -0.75867239799E+02 -0.20092842262E+02  0.21089954481E+03  0.22502928340E+03  0.00000000000E+00 0.  1.
<mgrwt>
<rscale>  0 0.67727308E+02</rscale>
<asrwt>0</asrwt>
<pdfrwt beam="2">  1        2 0.14743271E+00 0.58998354E+02</pdfrwt>
<pdfrwt beam="1">  1       -1 0.71290599E-01 0.77747731E+02</pdfrwt>
<totfact> 0.73774755E+01</totfact>
</mgrwt>
</event>
<event>
13    1  0.1675423E-008  0.1635050E+03  0.7546771E-02  0.1236586E+00
          2   -1    0    0  502    0  0.00000000000E+00  0.00000000000E+00  0.93481239569E+03  0.93481239569E+03  0.00000000000E+00 0. -1.
          2   -1    0    0  503    0 -0.00000000000E+00 -0.00000000000E+00 -0.17590011924E+04  0.17590011924E+04  0.00000000000E+00 0. -1.
         24    2    1    2    0    0  0.57435224052E+02 -0.77617777956E+01  0.53740764429E+02  0.12070576039E+03  0.91229165699E+02 0.  0.
         25    2    1    2    0    0  0.68709094764E+02 -0.29759382650E+03  0.19084521718E+03  0.38122277089E+03  0.12500351537E+03 0.  0.
         24    2    1    2    0    0 -0.77505996746E+02 -0.15460882058E+02 -0.71381933355E+03  0.72273568716E+03  0.81009963280E+02 0.  0.
        -13    1    5    5    0    0  0.94975982567E+01 -0.21647889383E+02 -0.10036084873E+03  0.10310739763E+03  0.00000000000E+00 0.  1.
         14    1    5    5    0    0 -0.87003595003E+02  0.61870073247E+01 -0.61345848481E+03  0.61962828953E+03  0.00000000000E+00 0. -1.
        -13    1    3    3    0    0  0.70941262654E+02 -0.27989394130E+02  0.58256172572E+02  0.95967966392E+02  0.00000000000E+00 0.  1.
         14    1    3    3    0    0 -0.13506038602E+02  0.20227616335E+02 -0.45154081435E+01  0.24737794000E+02  0.00000000000E+00 0. -1.
          5    1    4    4  501    0 -0.25559275159E+01 -0.69081396557E+01  0.49379306348E+02  0.50146396225E+02  0.47000000000E+01 0. -1.
         -5    1    4    4    0  501  0.71265022280E+02 -0.29068568684E+03  0.14146591083E+03  0.33107637467E+03  0.47000000000E+01 0. -1.
          1    1    1    2  502    0 -0.22268049229E+02  0.23049512582E+03  0.53043199475E+03  0.57877626946E+03  0.00000000000E+00 0. -1.
          1    1    1    2  503    0 -0.26370272842E+02  0.90321360532E+02 -0.88538743952E+03  0.89037310018E+03  0.00000000000E+00 0. -1.
<mgrwt>
<rscale>  0 0.12403444E+03</rscale>
<asrwt>0</asrwt>
<pdfrwt beam="1">  1        2 0.13747241E+00 0.16350500E+03</pdfrwt>
<pdfrwt beam="2">  1        2 0.25867664E+00 0.94092186E+02</pdfrwt>
<totfact> 0.58848238E+01</totfact>
</mgrwt>
</event>
<event>
13    1  0.1675423E-008  0.5653177E+02  0.7546771E-02  0.1518034E+00
          2   -1    0    0  503    0  0.00000000000E+00  0.00000000000E+00  0.41641213715E+04  0.41641213715E+04  0.00000000000E+00 0. -1.
          2   -1    0    0  502    0 -0.00000000000E+00 -0.00000000000E+00 -0.32630916208E+03  0.32630916208E+03  0.00000000000E+00 0. -1.
         24    2    1    2    0    0  0.35652313189E+02 -0.56477162669E+02  0.51894164989E+03  0.52909530374E+03  0.78617091733E+02 0.  0.
         25    2    1    2    0    0 -0.49908826470E+02  0.66476828682E+01 -0.10637569863E+03  0.17168076417E+03  0.12499365136E+03 0.  0.
         24    2    1    2    0    0  0.13589326903E+02  0.12183781706E+03  0.21028315018E+03  0.25533991715E+03  0.77138489540E+02 0.  0.
        -11    1    3    3    0    0  0.16446774711E+02 -0.73472110900E+02  0.42952022343E+03  0.43606911128E+03  0.00000000000E+00 0.  1.
         12    1    3    3    0    0  0.19205538479E+02  0.16994948230E+02  0.89421426461E+02  0.93026192461E+02  0.00000000000E+00 0. -1.
        -11    1    5    5    0    0 -0.28767423229E+02  0.37925530926E+02  0.46761844300E+02  0.66727660064E+02  0.00000000000E+00 0.  1.
         12    1    5    5    0    0  0.42356750132E+02  0.83912286129E+02  0.16352130588E+03  0.18861225708E+03  0.00000000000E+00 0. -1.
          5    1    4    4  501    0 -0.79394669576E+02  0.15625344238E+02 -0.25448375583E+02  0.84955133803E+02  0.47000000000E+01 0. -1.
         -5    1    4    4    0  501  0.29485843106E+02 -0.89776613703E+01 -0.80927323048E+02  0.86725630370E+02  0.47000000000E+01 0. -1.
          1    1    1    2  502    0  0.18931161293E+02 -0.18525282699E+02 -0.15833895663E+03  0.16053909229E+03  0.00000000000E+00 0. -1.
          1    1    1    2  503    0 -0.18263974915E+02 -0.53483054555E+02  0.33733020646E+04  0.33737754562E+04  0.00000000000E+00 0. -1.
<mgrwt>
<rscale>  0 0.38695888E+02</rscale>
<asrwt>0</asrwt>
<pdfrwt beam="1">  1        2 0.61237076E+00 0.56531772E+02</pdfrwt>
<pdfrwt beam="2">  1        2 0.47986644E-01 0.26487260E+02</pdfrwt>
<totfact> 0.10351446E+01</totfact>
</mgrwt>
</event>
<event>
13    1  0.1675423E-008  0.3520850E+02  0.7546771E-02  0.1550572E+00
          2   -1    0    0  503    0  0.00000000000E+00  0.00000000000E+00  0.53992263510E+03  0.53992263510E+03  0.00000000000E+00 0. -1.
          2   -1    0    0  502    0 -0.00000000000E+00 -0.00000000000E+00 -0.10564828522E+04  0.10564828522E+04  0.00000000000E+00 0. -1.
         24    2    1    2    0    0 -0.13911557396E+02 -0.20317125190E+03 -0.52389029995E+01  0.21773899608E+03  0.76881306448E+02 0.  0.
         25    2    1    2    0    0  0.51722068098E+02  0.20727487744E+03 -0.20765005389E+02  0.24838166410E+03  0.12499687382E+03 0.  0.
         24    2    1    2    0    0  0.15432592307E+02  0.23613300713E+01 -0.24616407390E+02  0.86113659280E+02  0.81029957526E+02 0.  0.
        -13    1    5    5    0    0 -0.26518492354E+02 -0.20377377655E+02 -0.17880231917E+02  0.37923220463E+02  0.00000000000E+00 0.  1.
         14    1    5    5    0    0  0.41951084662E+02  0.22738707727E+02 -0.67361754724E+01  0.48190438817E+02  0.00000000000E+00 0. -1.
        -13    1    3    3    0    0  0.72457226647E+01  0.46391924304E+01 -0.19817157714E+01  0.88289184354E+01  0.00000000000E+00 0.  1.
         14    1    3    3    0    0 -0.21157280061E+02 -0.20781044433E+03 -0.32571872281E+01  0.20891007765E+03  0.00000000000E+00 0. -1.
          5    1    4    4  501    0 -0.68720930260E-01  0.47902117511E+02 -0.59291765379E+02  0.76368979477E+02  0.47000000000E+01 0. -1.
         -5    1    4    4    0  501  0.51790789028E+02  0.15937275993E+03  0.38526759990E+02  0.17201268462E+03  0.47000000000E+01 0. -1.
          1    1    1    2  502    0 -0.23419775416E+02 -0.25134947001E+02 -0.75359223957E+03  0.75437491672E+03  0.00000000000E+00 0. -1.
          1    1    1    2  503    0 -0.29823327594E+02  0.18669991391E+02  0.28765233826E+03  0.28979625110E+03  0.00000000000E+00 0. -1.
<mgrwt>
<rscale>  0 0.34779025E+02</rscale>
<asrwt>0</asrwt>
<pdfrwt beam="1">  1        2 0.79400388E-01 0.35208502E+02</pdfrwt>
<pdfrwt beam="2">  1        2 0.15536512E+00 0.34354788E+02</pdfrwt>
<totfact> 0.27798810E+02</totfact>
</mgrwt>
</event>
<event>
13    1  0.1675423E-008  0.2512264E+03  0.7546771E-02  0.1150083E+00
          2   -1    0    0  503    0  0.00000000000E+00  0.00000000000E+00  0.20223254869E+04  0.20223254869E+04  0.00000000000E+00 0. -1.
          2   -1    0    0  502    0 -0.00000000000E+00 -0.00000000000E+00 -0.90921293199E+03  0.90921293199E+03  0.00000000000E+00 0. -1.
         24    2    1    2    0    0 -0.14796842222E+03 -0.36251079819E+02  0.44983765784E+03  0.48117640234E+03  0.77252941676E+02 0.  0.
         25    2    1    2    0    0 -0.17365955363E+03 -0.32605137120E+03  0.52227043672E+03  0.65181142867E+03  0.12499836898E+03 0.  0.
         24    2    1    2    0    0  0.49525137550E+02  0.74018443421E+02  0.24995779612E+02  0.12265026217E+03  0.80540850478E+02 0.  0.
        -11    1    5    5    0    0 -0.15705706499E+02  0.46702352566E+02  0.80061828948E+01  0.49918713089E+02  0.00000000000E+00 0.  1.
         12    1    5    5    0    0  0.65230844049E+02  0.27316090854E+02  0.16989596717E+02  0.72731549080E+02  0.00000000000E+00 0. -1.
        -13    1    3    3    0    0 -0.14140394877E+03 -0.20164780831E+02  0.32323660226E+03  0.35338873235E+03  0.00000000000E+00 0.  1.
         14    1    3    3    0    0 -0.65644734451E+01 -0.16086298989E+02  0.12660105558E+03  0.12778766999E+03  0.00000000000E+00 0. -1.
          5    1    4    4  501    0 -0.42984394416E+02 -0.20014246463E+03  0.23181077659E+03  0.30929434274E+03  0.47000000000E+01 0. -1.
         -5    1    4    4    0  501 -0.13067515921E+03 -0.12590890657E+03  0.29045966014E+03  0.34251708593E+03  0.47000000000E+01 0. -1.
          1    1    1    2  502    0  0.17056742656E+03 -0.10281658836E+03 -0.72017535586E+03  0.74720615698E+03  0.00000000000E+00 0. -1.
          1    1    1    2  503    0  0.10153541174E+03  0.39110059596E+03  0.83618403662E+03  0.92869416877E+03  0.00000000000E+00 0. -1.
<mgrwt>
<rscale>  0 0.19959295E+03</rscale>
<asrwt>0</asrwt>
<pdfrwt beam="1">  1        2 0.29740081E+00 0.25122637E+03</pdfrwt>
<pdfrwt beam="2">  1        2 0.13370778E+00 0.15857152E+03</pdfrwt>
<totfact> 0.41380537E+01</totfact>
</mgrwt>
</event>
<event>
13    1  0.1675423E-008  0.9054845E+02  0.7546771E-02  0.1347680E+00
          2   -1    0    0  502    0  0.00000000000E+00  0.00000000000E+00  0.23273545320E+04  0.23273545320E+04  0.00000000000E+00 0. -1.
          2   -1    0    0  503    0 -0.00000000000E+00 -0.00000000000E+00 -0.21892593999E+04  0.21892593999E+04  0.00000000000E+00 0. -1.
         24    2    1    2    0    0  0.32598552734E+03  0.28061515915E+02 -0.64758759918E+02  0.34710613019E+03  0.96098678019E+02 0.  0.
         25    2    1    2    0    0  0.92487378834E+02 -0.37624305812E+03  0.25201215844E+03  0.47880835605E+03  0.12503823332E+03 0.  0.
         24    2    1    2    0    0 -0.27353219519E+03  0.32050482990E+03 -0.19764942741E+03  0.47248157176E+03  0.81426848802E+02 0.  0.
        -11    1    3    3    0    0  0.13382314370E+03 -0.35153895530E+02 -0.18538720663E+02  0.13959983640E+03  0.00000000000E+00 0.  1.
         12    1    3    3    0    0  0.19216238364E+03  0.63215411445E+02 -0.46220039255E+02  0.20750629378E+03  0.00000000000E+00 0. -1.
        -11    1    5    5    0    0 -0.21574407206E+03  0.25277590835E+03 -0.19075716001E+03  0.38318332240E+03  0.00000000000E+00 0.  1.
         12    1    5    5    0    0 -0.57788123134E+02  0.67728921546E+02 -0.68922673983E+01  0.89298249361E+02  0.00000000000E+00 0. -1.
          5    1    4    4  501    0  0.54509448509E+02 -0.85591487893E+02  0.16823767683E+02  0.10296752855E+03  0.47000000000E+01 0. -1.
         -5    1    4    4    0  501  0.37977930324E+02 -0.29065157023E+03  0.23518839076E+03  0.37584082750E+03  0.47000000000E+01 0. -1.
          1    1    1    2  502    0 -0.84917839377E+02  0.31136356854E+02  0.16815499452E+04  0.16839806205E+04  0.00000000000E+00 0. -1.
          1    1    1    2  503    0 -0.60022871608E+02 -0.34596445478E+01 -0.15330587841E+04  0.15342372534E+04  0.00000000000E+00 0. -1.
<mgrwt>
<rscale>  0 0.73783459E+02</rscale>
<asrwt>0</asrwt>
<pdfrwt beam="1">  1        2 0.34225802E+00 0.90548453E+02</pdfrwt>
<pdfrwt beam="2">  1        2 0.32194991E+00 0.60122494E+02</pdfrwt>
<totfact> 0.78974684E+00</totfact>
</mgrwt>
</event>
<event>
13    1  0.1675423E-008  0.2405680E+03  0.7546771E-02  0.1200979E+00
          2   -1    0    0  502    0  0.00000000000E+00  0.00000000000E+00  0.23891636612E+04  0.23891636612E+04  0.00000000000E+00 0. -1.
          2   -1    0    0  503    0 -0.00000000000E+00 -0.00000000000E+00 -0.18394518039E+04  0.18394518039E+04  0.00000000000E+00 0. -1.
         24    2    1    2    0    0 -0.16442594876E+03  0.35262473316E+03  0.12506024992E+04  0.13121790211E+04  0.80169054777E+02 0.  0.
         25    2    1    2    0    0  0.95267914204E+02 -0.80203397494E+03  0.31432414047E+03  0.87564706809E+03  0.12499460044E+03 0.  0.
         24    2    1    2    0    0  0.12777556751E+03  0.22163792838E+03 -0.33417989306E+03  0.43177766018E+03  0.96466470604E+02 0.  0.
        -11    1    3    3    0    0 -0.60349052000E+02  0.14265785516E+03  0.63116962305E+03  0.64989873425E+03  0.00000000000E+00 0.  1.
         12    1    3    3    0    0 -0.10407689676E+03  0.20996687799E+03  0.61943287616E+03  0.66228028686E+03  0.00000000000E+00 0. -1.
        -11    1    5    5    0    0  0.73376077694E+02  0.71711846869E+02 -0.19390843874E+03  0.21937894241E+03  0.00000000000E+00 0.  1.
         12    1    5    5    0    0  0.54399489816E+02  0.14992608151E+03 -0.14027145432E+03  0.21239871776E+03  0.00000000000E+00 0. -1.
          5    1    4    4  501    0  0.39179240475E+02 -0.16595438514E+03  0.11860236252E+03  0.20776063444E+03  0.47000000000E+01 0.  1.
         -5    1    4    4    0  501  0.56088673729E+02 -0.63607958980E+03  0.19572177796E+03  0.66788643365E+03  0.47000000000E+01 0.  1.
          1    1    1    2  502    0  0.86034215286E+02  0.35359165226E+02  0.44649031539E+03  0.45607648317E+03  0.00000000000E+00 0. -1.
          1    1    1    2  503    0 -0.14465174824E+03  0.19241214817E+03 -0.11275252048E+04  0.11529352325E+04  0.00000000000E+00 0. -1.
<mgrwt>
<rscale>  0 0.14958913E+03</rscale>
<asrwt>0</asrwt>
<pdfrwt beam="1">  1        2 0.35134760E+00 0.93016970E+02</pdfrwt>
<pdfrwt beam="2">  1        2 0.27050762E+00 0.24056800E+03</pdfrwt>
<totfact> 0.94163195E+00</totfact>
</mgrwt>
</event>
<event>
13    1  0.1675423E-008  0.1800763E+03  0.7546771E-02  0.1370189E+00
          2   -1    0    0  503    0  0.00000000000E+00  0.00000000000E+00  0.13311597291E+04  0.13311597291E+04  0.00000000000E+00 0. -1.
         -1   -1    0    0    0  501 -0.00000000000E+00 -0.00000000000E+00 -0.36834350545E+03  0.36834350545E+03  0.00000000000E+00 0.  1.
         24    2    1    2    0    0  0.15807812540E+03 -0.12887299685E+02  0.39404493787E+03  0.43235925171E+03  0.80674241546E+02 0.  0.
         25    2    1    2    0    0 -0.12642629013E+03 -0.22036003239E+03  0.53719325098E+02  0.28819020485E+03  0.12500271025E+03 0.  0.
         24    2    1    2    0    0  0.57265638544E+02  0.62115753786E+02 -0.18330472354E+03  0.21722252680E+03  0.80294982731E+02 0.  0.
        -11    1    3    3    0    0 -0.48170276601E+01  0.58876864779E+01  0.57416955296E+02  0.57918696144E+02  0.00000000000E+00 0.  1.
         12    1    3    3    0    0  0.16289515306E+03 -0.18774986163E+02  0.33662798258E+03  0.37444055556E+03  0.00000000000E+00 0. -1.
        -11    1    5    5    0    0  0.60870539183E+02  0.69755436929E+02 -0.11151127782E+03  0.14493380766E+03  0.00000000000E+00 0.  1.
         12    1    5    5    0    0 -0.36049006385E+01 -0.76396831425E+01 -0.71793445714E+02  0.72288719138E+02  0.00000000000E+00 0. -1.
          5    1    4    4  502    0  0.62342427723E+01 -0.11049828850E+03  0.23823750002E+02  0.11330665739E+03  0.47000000000E+01 0.  1.
         -5    1    4    4    0  502 -0.13266053290E+03 -0.10986174389E+03  0.29895575096E+02  0.17488354745E+03  0.47000000000E+01 0.  1.
          1    1    1    2  503    0 -0.11363254906E+03  0.16727847317E+03  0.70693302010E+03  0.73528820112E+03  0.00000000000E+00 0. -1.
         -2    1    1    2    0  501  0.24715075251E+02  0.38531051242E+01 -0.85763358397E+01  0.26443050131E+02  0.00000000000E+00 0.  1.
<mgrwt>
<rscale>  0 0.67114530E+02</rscale>
<asrwt>0</asrwt>
<pdfrwt beam="1">  1        2 0.19575878E+00 0.18007628E+03</pdfrwt>
<pdfrwt beam="2">  1       -1 0.54168163E-01 0.25013624E+02</pdfrwt>
<totfact> 0.77661397E+01</totfact>
</mgrwt>
</event>
<event>
13    1  0.1675423E-008  0.1047429E+03  0.7546771E-02  0.1437034E+00
          2   -1    0    0  502    0  0.00000000000E+00  0.00000000000E+00  0.10728872553E+04  0.10728872553E+04  0.00000000000E+00 0. -1.
          2   -1    0    0  503    0 -0.00000000000E+00 -0.00000000000E+00 -0.59715458843E+03  0.59715458843E+03  0.00000000000E+00 0. -1.
         24    2    1    2    0    0  0.91269033076E+01  0.15370565204E+02 -0.98717346882E+02  0.11934059079E+03  0.64633639817E+02 0.  0.
         25    2    1    2    0    0 -0.12375885598E+02 -0.18604771941E+03 -0.32830259263E+02  0.22686987433E+03  0.12500079004E+03 0.  0.
         24    2    1    2    0    0  0.24682055788E+02  0.89372836535E+01 -0.62014710013E+02  0.10350056462E+03  0.78596842828E+02 0.  0.
        -13    1    5    5    0    0 -0.22418405057E+02  0.21846470323E+02 -0.11798730666E+02  0.33452401950E+02  0.00000000000E+00 0.  1.
         14    1    5    5    0    0  0.47100460845E+02 -0.12909186670E+02 -0.50215979347E+02  0.70048162674E+02  0.00000000000E+00 0. -1.
        -13    1    3    3    0    0  0.36338214586E+02  0.14428070082E+02 -0.49330088084E+02  0.62945155779E+02  0.00000000000E+00 0.  1.
         14    1    3    3    0    0 -0.27211311279E+02  0.94249512232E+00 -0.49387258798E+02  0.56395435011E+02  0.00000000000E+00 0. -1.
          5    1    4    4  501    0  0.20631878532E+02 -0.15029577324E+03  0.22052893162E+02  0.15337181607E+03  0.47000000000E+01 0. -1.
         -5    1    4    4    0  501 -0.33007764130E+02 -0.35751946171E+02 -0.54883152425E+02  0.73498058260E+02  0.47000000000E+01 0. -1.
          1    1    1    2  502    0  0.19450039191E+02  0.16326347413E+02  0.92392202468E+03  0.92427093502E+03  0.00000000000E+00 0. -1.
          1    1    1    2  503    0 -0.40883112690E+02  0.14541352314E+03 -0.25462704163E+03  0.29605987899E+03  0.00000000000E+00 0. -1.
<mgrwt>
<rscale>  0 0.51573609E+02</rscale>
<asrwt>0</asrwt>
<pdfrwt beam="1">  1        2 0.15777754E+00 0.25393969E+02</pdfrwt>
<pdfrwt beam="2">  1        2 0.87816850E-01 0.10474287E+03</pdfrwt>
<totfact> 0.24435992E+02</totfact>
</mgrwt>
</event>
<event>
13    1  0.1675423E-008  0.1332638E+03  0.7546771E-02  0.1264099E+00
          2   -1    0    0  502    0  0.00000000000E+00  0.00000000000E+00  0.55895735678E+04  0.55895735678E+04  0.00000000000E+00 0. -1.
          2   -1    0    0  503    0 -0.00000000000E+00 -0.00000000000E+00 -0.76746963145E+03  0.76746963145E+03  0.00000000000E+00 0. -1.
         24    2    1    2    0    0  0.93573174991E+01 -0.12767839990E+03  0.22267300537E+04  0.22320462066E+04  0.85523114542E+02 0.  0.
         25    2    1    2    0    0  0.10102743370E+03  0.67954712392E+02 -0.80298577229E+02  0.19208806943E+03  0.12500231844E+03 0.  0.
         24    2    1    2    0    0 -0.46941467486E+02  0.54899663135E+01  0.86967970135E+02  0.12821441914E+03  0.81497658528E+02 0.  0.
        -13    1    5    5    0    0  0.88760035648E+01 -0.50884079764E+01  0.67333184730E+02  0.68106043057E+02  0.00000000000E+00 0.  1.
         14    1    5    5    0    0 -0.55817471051E+02  0.10578374290E+02  0.19634785405E+02  0.60108376080E+02  0.00000000000E+00 0. -1.
        -13    1    3    3    0    0 -0.17661886127E+02 -0.84379839080E+02  0.84775578332E+03  0.85212778831E+03  0.00000000000E+00 0.  1.
         14    1    3    3    0    0  0.27019203626E+02 -0.43298560823E+02  0.13789742704E+04  0.13799184183E+04  0.00000000000E+00 0. -1.
          5    1    4    4  501    0  0.62492696053E+02 -0.27813255292E+02 -0.48449257909E+02  0.83954361542E+02  0.47000000000E+01 0.  1.
         -5    1    4    4    0  501  0.38534737650E+02  0.95767967684E+02 -0.31849319320E+02  0.10813370789E+03  0.47000000000E+01 0.  1.
          1    1    1    2  502    0  0.74328713632E+02  0.46572763997E+02  0.31882596115E+04  0.31894659632E+04  0.00000000000E+00 0. -1.
          1    1    1    2  503    0 -0.13777199735E+03  0.76609572010E+01 -0.59955512175E+03  0.61522854090E+03  0.00000000000E+00 0. -1.
<mgrwt>
<rscale>  0 0.10811626E+03</rscale>
<asrwt>0</asrwt>
<pdfrwt beam="1">  1        2 0.82199609E+00 0.87714195E+02</pdfrwt>
<pdfrwt beam="2">  1        2 0.11286318E+00 0.13326377E+03</pdfrwt>
<totfact> 0.15584662E-01</totfact>
</mgrwt>
</event>
<event>
13    1  0.1675423E-008  0.3650835E+03  0.7546771E-02  0.1278359E+00
          2   -1    0    0  503    0  0.00000000000E+00  0.00000000000E+00  0.28852451340E+04  0.28852451340E+04  0.00000000000E+00 0. -1.
          2   -1    0    0  502    0 -0.00000000000E+00 -0.00000000000E+00 -0.12349873831E+04  0.12349873831E+04  0.00000000000E+00 0. -1.
         24    2    1    2    0    0  0.13922709054E+03 -0.45281936880E+03  0.10783184966E+04  0.11805713632E+04  0.80922184755E+02 0.  0.
         25    2    1    2    0    0  0.16553805438E+03  0.32424734680E+03 -0.89669960620E+02  0.39522814530E+03  0.12500158257E+03 0.  0.
         24    2    1    2    0    0 -0.28362065081E+02 -0.48448414088E+02  0.62315809859E+02  0.11581385434E+03  0.79861963006E+02 0.  0.
        -11    1    3    3    0    0  0.47691480051E+02 -0.12769370629E+03  0.22820075902E+03  0.26581148642E+03  0.00000000000E+00 0.  1.
         12    1    3    3    0    0  0.91535610492E+02 -0.32512566251E+03  0.85011773756E+03  0.91475987676E+03  0.00000000000E+00 0. -1.
        -13    1    5    5    0    0  0.18498185763E+02 -0.42817905599E+02  0.46944359120E+02  0.66176497108E+02  0.00000000000E+00 0.  1.
         14    1    5    5    0    0 -0.46860250844E+02 -0.56305084896E+01  0.15371450739E+02  0.49637357231E+02  0.00000000000E+00 0. -1.
          5    1    4    4  501    0  0.35559098956E+02  0.19026414555E+03 -0.76002808581E+02  0.20799858536E+03  0.47000000000E+01 0.  1.
         -5    1    4    4    0  501  0.12997895542E+03  0.13398320125E+03 -0.13667152039E+02  0.18722955994E+03  0.47000000000E+01 0.  1.
          1    1    1    2  502    0  0.27504663790E+02 -0.46864499538E+01 -0.89373860555E+03  0.89417401236E+03  0.00000000000E+00 0. -1.
          1    1    1    2  503    0 -0.30390774363E+03  0.18170688604E+03  0.14930320106E+04  0.15344451420E+04  0.00000000000E+00 0. -1.
<mgrwt>
<rscale>  0 0.10092679E+03</rscale>
<asrwt>0</asrwt>
<pdfrwt beam="1">  1        2 0.42430075E+00 0.36508346E+03</pdfrwt>
<pdfrwt beam="2">  1        2 0.18161579E+00 0.27901063E+02</pdfrwt>
<totfact> 0.10292813E+01</totfact>
</mgrwt>
</event>
<event>
13    1  0.1675423E-008  0.1389068E+03  0.7546771E-02  0.1263836E+00
          2   -1    0    0  502    0  0.00000000000E+00  0.00000000000E+00  0.16064606828E+04  0.16064606828E+04  0.00000000000E+00 0. -1.
          2   -1    0    0  503    0 -0.00000000000E+00 -0.00000000000E+00 -0.14714840800E+04  0.14714840800E+04  0.00000000000E+00 0. -1.
         24    2    1    2    0    0  0.42008096571E+03 -0.55677746002E+03  0.13212558895E+03  0.71441349680E+03  0.80376087294E+02 0.  0.
         25    2    1    2    0    0 -0.98663961926E+02  0.20950937172E+02 -0.68970948665E+02  0.17480103396E+03  0.12499956225E+03 0.  0.
         24    2    1    2    0    0 -0.15740338893E+03  0.57868109285E+03 -0.96055319864E+01  0.60649505276E+03  0.89979712826E+02 0.  0.
        -11    1    5    5    0    0 -0.20555309051E+01  0.30662976759E+02  0.19061043014E+02  0.36163057280E+02  0.00000000000E+00 0.  1.
         12    1    5    5    0    0 -0.15534785802E+03  0.54801811609E+03 -0.28666575001E+02  0.57033199549E+03  0.00000000000E+00 0. -1.
        -11    1    3    3    0    0  0.17327511723E+03 -0.18312407010E+03  0.74688283953E+02  0.26293921552E+03  0.00000000000E+00 0.  1.
         12    1    3    3    0    0  0.24680584848E+03 -0.37365338992E+03  0.57437304995E+02  0.45147428127E+03  0.00000000000E+00 0. -1.
          5    1    4    4  501    0 -0.56013211173E+01  0.15990388049E+02  0.32497330591E+02  0.36949070404E+02  0.47000000000E+01 0.  1.
         -5    1    4    4    0  501 -0.93062640809E+02  0.49605491223E+01 -0.10146827926E+03  0.13785196356E+03  0.47000000000E+01 0.  1.
          1    1    1    2  502    0 -0.13408260370E+03  0.36024705362E+02  0.82363159836E+03  0.83525141953E+03  0.00000000000E+00 0. -1.
          1    1    1    2  503    0 -0.29931011155E+02 -0.78879275355E+02 -0.74220410389E+03  0.74698375976E+03  0.00000000000E+00 0. -1.
<mgrwt>
<rscale>  0 0.10825509E+03</rscale>
<asrwt>0</asrwt>
<pdfrwt beam="1">  1        2 0.23624422E+00 0.13890683E+03</pdfrwt>
<pdfrwt beam="2">  1        2 0.21639472E+00 0.84367088E+02</pdfrwt>
<totfact> 0.36080855E+01</totfact>
</mgrwt>
</event>
<event>
13    1  0.1675423E-008  0.1346233E+03  0.7546771E-02  0.1303130E+00
          2   -1    0    0  503    0  0.00000000000E+00  0.00000000000E+00  0.37885360313E+04  0.37885360313E+04  0.00000000000E+00 0. -1.
          2   -1    0    0  502    0 -0.00000000000E+00 -0.00000000000E+00 -0.46646023951E+03  0.46646023951E+03  0.00000000000E+00 0. -1.
         24    2    1    2    0    0 -0.13663437096E+02  0.19097668248E+02  0.39472410360E+03  0.40500576520E+03  0.87585052586E+02 0.  0.
         25    2    1    2    0    0  0.19487774041E+02 -0.23023409434E+03  0.11697991952E+04  0.11989341249E+04  0.12500146940E+03 0.  0.
         24    2    1    2    0    0  0.86084768305E+02  0.78379709918E+02 -0.23211599072E+03  0.27232949225E+03  0.82046041582E+02 0.  0.
        -13    1    5    5    0    0  0.66835606206E+02  0.13333219734E+02 -0.15678613279E+03  0.17095807802E+03  0.00000000000E+00 0.  1.
         14    1    5    5    0    0  0.19249162099E+02  0.65046490184E+02 -0.75329857933E+02  0.10137141423E+03  0.00000000000E+00 0. -1.
        -13    1    3    3    0    0 -0.34198054927E+02  0.45695431888E+02  0.24761691903E+03  0.25410965752E+03  0.00000000000E+00 0.  1.
         14    1    3    3    0    0  0.20534617830E+02 -0.26597763640E+02  0.14710718457E+03  0.15089610768E+03  0.00000000000E+00 0. -1.
          5    1    4    4  501    0  0.62379785463E+02 -0.77499318158E+02  0.34910120096E+03  0.36303046767E+03  0.47000000000E+01 0.  1.
         -5    1    4    4    0  501 -0.42892011421E+02 -0.15273477618E+03  0.82069799422E+03  0.83590365726E+03  0.47000000000E+01 0.  1.
          1    1    1    2  502    0  0.59544784730E+02  0.74940676707E+01 -0.18536148691E+03  0.19483486153E+03  0.00000000000E+00 0. -1.
          1    1    1    2  503    0 -0.15145388998E+03  0.12526264850E+03  0.21750299706E+04  0.21838920269E+04  0.00000000000E+00 0. -1.
<mgrwt>
<rscale>  0 0.89885208E+02</rscale>
<asrwt>0</asrwt>
<pdfrwt beam="1">  1        2 0.55713764E+00 0.13462327E+03</pdfrwt>
<pdfrwt beam="2">  1        2 0.68597096E-01 0.60014519E+02</pdfrwt>
<totfact> 0.10687405E+01</totfact>
</mgrwt>
</event>
<event>
13    1  0.1675423E-008  0.1156571E+03  0.7546771E-02  0.1281111E+00
          2   -1    0    0  502    0  0.00000000000E+00  0.00000000000E+00  0.16013749435E+04  0.16013749435E+04  0.00000000000E+00 0. -1.
          2   -1    0    0  503    0 -0.00000000000E+00 -0.00000000000E+00 -0.12985948992E+04  0.12985948992E+04  0.00000000000E+00 0. -1.
         24    2    1    2    0    0  0.43863840155E+02 -0.19093059492E+02  0.12081913089E+02  0.94987405028E+02  0.81166822633E+02 0.  0.
         25    2    1    2    0    0 -0.34486280863E+02  0.89021634540E+02 -0.20044534867E+03  0.25478797974E+03  0.12499768731E+03 0.  0.
         24    2    1    2    0    0  0.26026327354E+02 -0.59482929277E+02  0.83292034444E+02  0.13065402707E+03  0.76924139233E+02 0.  0.
        -11    1    3    3    0    0  0.22291435486E+02  0.31859379477E+02  0.47340581992E+01  0.39170645435E+02  0.00000000000E+00 0.  1.
         12    1    3    3    0    0  0.21572404668E+02 -0.50952438969E+02  0.73478548900E+01  0.55816759594E+02  0.00000000000E+00 0. -1.
        -13    1    5    5    0    0 -0.14754341822E+02 -0.33779826559E+02  0.72385492800E+02  0.81230701418E+02  0.00000000000E+00 0.  1.
         14    1    5    5    0    0  0.40780669176E+02 -0.25703102718E+02  0.10906541644E+02  0.49423325651E+02  0.00000000000E+00 0. -1.
          5    1    4    4  501    0 -0.60830046903E+02  0.14704868560E+02 -0.35986172493E+02  0.72343779113E+02  0.47000000000E+01 0.  1.
         -5    1    4    4    0  501  0.26343766040E+02  0.74316765980E+02 -0.16445917617E+03  0.18244420063E+03  0.47000000000E+01 0.  1.
          1    1    1    2  502    0 -0.82659236393E+02 -0.82053648472E+02  0.14094600258E+04  0.14142640896E+04  0.00000000000E+00 0. -1.
          1    1    1    2  503    0  0.47255349748E+02  0.71608002701E+02 -0.10016085804E+04  0.10052763414E+04  0.00000000000E+00 0. -1.
<mgrwt>
<rscale>  0 0.99613213E+02</rscale>
<asrwt>0</asrwt>
<pdfrwt beam="1">  1        2 0.23549632E+00 0.11565706E+03</pdfrwt>
<pdfrwt beam="2">  1        2 0.19096984E+00 0.85794954E+02</pdfrwt>
<totfact> 0.44918672E+01</totfact>
</mgrwt>
</event>
<event>
13    1  0.1675423E-008  0.1221631E+03  0.7546771E-02  0.1355861E+00
          2   -1    0    0  503    0  0.00000000000E+00  0.00000000000E+00  0.25637145409E+04  0.25637145409E+04  0.00000000000E+00 0. -1.
          2   -1    0    0  502    0 -0.00000000000E+00 -0.00000000000E+00 -0.78879792443E+03  0.78879792443E+03  0.00000000000E+00 0. -1.
         24    2    1    2    0    0 -0.23357531705E+01  0.33190551693E+02  0.28557249047E+03  0.29835529346E+03  0.79731834040E+02 0.  0.
         25    2    1    2    0    0 -0.24729432734E+03  0.40075968566E+02 -0.99077433448E+02  0.29698723305E+03  0.12499804473E+03 0.  0.
         24    2    1    2    0    0  0.52433574981E+02  0.10665133763E+02  0.10408584822E+03  0.14101133424E+03  0.78659441396E+02 0.  0.
        -11    1    3    3    0    0 -0.27403523248E+02 -0.79756613114E+01  0.47192859615E+02  0.55151883543E+02  0.00000000000E+00 0.  1.
         12    1    3    3    0    0  0.25067770077E+02  0.41166213005E+02  0.23837963085E+03  0.24320340992E+03  0.00000000000E+00 0. -1.
        -13    1    5    5    0    0  0.70356879737E+01  0.32254442966E+02  0.10265618672E+02  0.34572140851E+02  0.00000000000E+00 0.  1.
         14    1    5    5    0    0  0.45397887007E+02 -0.21589309203E+02  0.93820229552E+02  0.10643919339E+03  0.00000000000E+00 0. -1.
          5    1    4    4  501    0 -0.24487777496E+03  0.54934200621E+01 -0.86117696240E+02  0.25967989899E+03  0.47000000000E+01 0.  1.
         -5    1    4    4    0  501 -0.24165523812E+01  0.34582548504E+02 -0.12959737208E+02  0.37307334064E+02  0.47000000000E+01 0.  1.
          1    1    1    2  502    0  0.26781700625E+02 -0.31789054537E+02 -0.56126873886E+03  0.56280582859E+03  0.00000000000E+00 0. -1.
          1    1    1    2  503    0  0.17041480490E+03 -0.52142599485E+02  0.20456044501E+04  0.20533527760E+04  0.00000000000E+00 0. -1.
<mgrwt>
<rscale>  0 0.71259641E+02</rscale>
<asrwt>0</asrwt>
<pdfrwt beam="1">  1        2 0.37701684E+00 0.12216311E+03</pdfrwt>
<pdfrwt beam="2">  1        2 0.11599970E+00 0.41566856E+02</pdfrwt>
<totfact> 0.30066191E+01</totfact>
</mgrwt>
</event>
<event>
13    1  0.1675423E-008  0.1170244E+03  0.7546771E-02  0.1302485E+00
          2   -1    0    0  502    0  0.00000000000E+00  0.00000000000E+00  0.52927151625E+03  0.52927151625E+03  0.00000000000E+00 0. -1.
          4   -1    0    0  503    0 -0.00000000000E+00 -0.00000000000E+00 -0.36125614718E+03  0.36125614718E+03  0.00000000000E+00 0. -1.
         24    2    1    2    0    0  0.35614041761E+02  0.18217905898E+02  0.15958294351E+03  0.18369339752E+03  0.81708606427E+02 0.  0.
         25    2    1    2    0    0  0.96537499721E+02 -0.37011617380E+02 -0.17288974631E+03  0.23707559081E+03  0.12499849080E+03 0.  0.
         24    2    1    2    0    0 -0.19249921377E+02  0.70227054988E+01 -0.14727024779E+01  0.82693782318E+02  0.80101279115E+02 0.  0.
        -11    1    3    3    0    0 -0.80097082048E+01  0.29071676626E+02  0.17939758918E+02  0.35087786442E+02  0.00000000000E+00 0.  1.
         12    1    3    3    0    0  0.43623749966E+02 -0.10853770727E+02  0.14164318460E+03  0.14860561107E+03  0.00000000000E+00 0. -1.
        -11    1    5    5    0    0 -0.28636343787E+02  0.27861732940E+02 -0.27159418823E+02  0.48310975758E+02  0.00000000000E+00 0.  1.
         12    1    5    5    0    0  0.93864224093E+01 -0.20839027441E+02  0.25686716345E+02  0.34382806560E+02  0.00000000000E+00 0. -1.
          5    1    4    4  501    0  0.53314672751E+02 -0.59668421256E+01  0.23191091371E+01  0.53902929445E+02  0.47000000000E+01 0.  1.
         -5    1    4    4    0  501  0.43222826970E+02 -0.31044775255E+02 -0.17520885545E+03  0.18317266136E+03  0.47000000000E+01 0.  1.
          1    1    1    2  502    0 -0.18155340091E+03  0.12754368917E+01  0.23729475517E+03  0.29878431176E+03  0.00000000000E+00 0. -1.
          3    1    1    2  503    0  0.68651780808E+02  0.10495569091E+02 -0.54499880818E+02  0.88280581035E+02  0.00000000000E+00 0. -1.
<mgrwt>
<rscale>  0 0.90151403E+02</rscale>
<asrwt>0</asrwt>
<pdfrwt beam="1">  1        2 0.77834047E-01 0.11702436E+03</pdfrwt>
<pdfrwt beam="2">  1        4 0.53125904E-01 0.69449435E+02</pdfrwt>
<totfact> 0.10393547E+02</totfact>
</mgrwt>
</event>
<event>
13    1  0.1675423E-008  0.1970963E+03  0.7546771E-02  0.1255116E+00
          2   -1    0    0  502    0  0.00000000000E+00  0.00000000000E+00  0.27048644366E+04  0.27048644366E+04  0.00000000000E+00 0. -1.
          2   -1    0    0  503    0 -0.00000000000E+00 -0.00000000000E+00 -0.13785698243E+04  0.13785698243E+04  0.00000000000E+00 0. -1.
         24    2    1    2    0    0 -0.32351027616E+02  0.39703014082E+03  0.94746333085E+03  0.10309846961E+04  0.81013322798E+02 0.  0.
         25    2    1    2    0    0  0.52430964616E+02 -0.38942298319E+02 -0.19575288308E+02  0.14235672643E+03  0.12496694363E+03 0.  0.
         24    2    1    2    0    0  0.40676389489E+01 -0.12444687550E+03  0.31685607508E+03  0.34912763091E+03  0.77387077963E+02 0.  0.
        -11    1    3    3    0    0  0.25869135986E+02  0.17486064553E+03  0.42125566223E+03  0.45683891090E+03  0.00000000000E+00 0.  1.
         12    1    3    3    0    0 -0.58220163602E+02  0.22216949529E+03  0.52620766862E+03  0.57414578515E+03  0.00000000000E+00 0. -1.
        -11    1    5    5    0    0 -0.31118482178E+02 -0.22845159897E+02  0.96608647164E+02  0.10403601285E+03  0.00000000000E+00 0.  1.
         12    1    5    5    0    0  0.35186121127E+02 -0.10160171561E+03  0.22024742792E+03  0.24509161805E+03  0.00000000000E+00 0. -1.
          5    1    4    4  501    0  0.51475620504E+02 -0.70714877976E+02  0.21513411445E+02  0.90195622651E+02  0.47000000000E+01 0. -1.
         -5    1    4    4    0  501  0.95534411245E+00  0.31772579658E+02 -0.41088699754E+02  0.52161103784E+02  0.47000000000E+01 0. -1.
          1    1    1    2  502    0 -0.92886847749E+01 -0.17058460779E+03  0.13148818857E+04  0.13259335434E+04  0.00000000000E+00 0. -1.
          1    1    1    2  503    0 -0.14858891174E+02 -0.63056359212E+02 -0.12333313911E+04  0.12350316641E+04  0.00000000000E+00 0. -1.
<mgrwt>
<rscale>  0 0.11299811E+03</rscale>
<asrwt>0</asrwt>
<pdfrwt beam="1">  1        2 0.39777418E+00 0.19709631E+03</pdfrwt>
<pdfrwt beam="2">  1        2 0.20273086E+00 0.64783417E+02</pdfrwt>
<totfact> 0.11140815E+01</totfact>
</mgrwt>
</event>
<event>
13    1  0.1675423E-008  0.1272973E+03  0.7546771E-02  0.1305197E+00
         -1   -1    0    0    0  501 -0.00000000000E+00  0.00000000000E+00  0.73481537785E+03  0.73481537785E+03  0.00000000000E+00 0.  1.
          2   -1    0    0  503    0  0.00000000000E+00 -0.00000000000E+00 -0.19086143173E+04  0.19086143173E+04  0.00000000000E+00 0. -1.
         24    2    1    2    0    0  0.16096867176E+03 -0.13510028966E+03 -0.41475957362E+03  0.47020235315E+03  0.70012480617E+02 0.  0.
         25    2    1    2    0    0 -0.33023697097E+03  0.30111978301E+02  0.41022326002E+02  0.35675237521E+03  0.12500495092E+03 0.  0.
         24    2    1    2    0    0 -0.82233127958E+01  0.79441531302E+02  0.26085757122E+03  0.28658553576E+03  0.87783922649E+02 0.  0.
        -11    1    5    5    0    0 -0.83214411976E+00  0.89568247892E+02  0.25882334251E+03  0.27388443936E+03  0.00000000000E+00 0.  1.
         12    1    5    5    0    0 -0.73911686761E+01 -0.10126716591E+02  0.20342287058E+01  0.12701096399E+02  0.00000000000E+00 0. -1.
        -13    1    3    3    0    0 -0.32769100280E+01 -0.21265725693E+02 -0.45706043327E+02  0.50517438823E+02  0.00000000000E+00 0.  1.
         14    1    3    3    0    0  0.16424558179E+03 -0.11383456397E+03 -0.36905353030E+03  0.41968491433E+03  0.00000000000E+00 0. -1.
          5    1    4    4  502    0 -0.28418632947E+03  0.70014290206E+02  0.26375455758E+02  0.29390751157E+03  0.47000000000E+01 0.  1.
         -5    1    4    4    0  502 -0.46050641498E+02 -0.39902311906E+02  0.14646870244E+02  0.62844863638E+02  0.47000000000E+01 0.  1.
          1    1    1    2  503    0  0.11821535016E+03  0.44649800886E+02 -0.12881221064E+04  0.12943056187E+04  0.00000000000E+00 0. -1.
         -2    1    1    2    0  501  0.59276261845E+02 -0.19103020829E+02  0.22720284330E+03  0.23558381232E+03  0.00000000000E+00 0.  1.
<mgrwt>
<rscale>  0 0.89038602E+02</rscale>
<asrwt>0</asrwt>
<pdfrwt beam="2">  1        2 0.28067858E+00 0.12729728E+03</pdfrwt>
<pdfrwt beam="1">  1       -1 0.10806108E+00 0.62278412E+02</pdfrwt>
<totfact> 0.10343761E+01</totfact>
</mgrwt>
</event>
<event>
13    1  0.1675423E-008  0.1438226E+03  0.7546771E-02  0.1346249E+00
         -1   -1    0    0    0  501 -0.00000000000E+00  0.00000000000E+00  0.70537412585E+03  0.70537412585E+03  0.00000000000E+00 0.  1.
          2   -1    0    0  503    0  0.00000000000E+00 -0.00000000000E+00 -0.28437295932E+04  0.28437295932E+04  0.00000000000E+00 0. -1.
         24    2    1    2    0    0 -0.14621229466E+03  0.13823018439E+02 -0.77730254743E+03  0.79524798055E+03  0.81553598206E+02 0.  0.
         25    2    1    2    0    0 -0.64835418242E+01 -0.10594052220E+03  0.10705152813E+03  0.19583370136E+03  0.12500151341E+03 0.  0.
         24    2    1    2    0    0 -0.92462622034E+02  0.19112646245E+02 -0.61841665709E+02  0.13919597810E+03  0.81464710045E+02 0.  0.
        -11    1    3    3    0    0 -0.15141439473E+03  0.98845686510E+01 -0.77219462027E+03  0.78696159703E+03  0.00000000000E+00 0.  1.
         12    1    3    3    0    0  0.52021000761E+01  0.39384497878E+01 -0.51079271600E+01  0.82863835178E+01  0.00000000000E+00 0. -1.
        -11    1    5    5    0    0 -0.52439922057E+02  0.19633501211E+02 -0.78011462920E+02  0.96027121908E+02  0.00000000000E+00 0.  1.
         12    1    5    5    0    0 -0.40022699977E+02 -0.52085496596E+00  0.16169797211E+02  0.43168856195E+02  0.00000000000E+00 0. -1.
          5    1    4    4  502    0 -0.20953846116E+02  0.20371674411E+02  0.46043398760E+02  0.54737129581E+02  0.47000000000E+01 0. -1.
         -5    1    4    4    0  502  0.14470304292E+02 -0.12631219661E+03  0.61008129368E+02  0.14109657178E+03  0.47000000000E+01 0. -1.
          1    1    1    2  503    0  0.20934466455E+03  0.86633981076E+02 -0.19050972873E+04  0.19185219074E+04  0.00000000000E+00 0. -1.
         -2    1    1    2    0  501  0.35813793962E+02 -0.13629123557E+02  0.49883450492E+03  0.50030415164E+03  0.00000000000E+00 0.  1.
<mgrwt>
<rscale>  0 0.74237471E+02</rscale>
<asrwt>0</asrwt>
<pdfrwt beam="2">  1        2 0.41819552E+00 0.14382255E+03</pdfrwt>
<pdfrwt beam="1">  1       -1 0.10373149E+00 0.38319458E+02</pdfrwt>
<totfact> 0.38752578E+00</totfact>
</mgrwt>
</event>
<event>
13    1  0.1675423E-008  0.2060006E+03  0.7546771E-02  0.1196092E+00
          2   -1    0    0  503    0  0.00000000000E+00  0.00000000000E+00  0.19764223732E+04  0.19764223732E+04  0.00000000000E+00 0. -1.
          2   -1    0    0  502    0 -0.00000000000E+00 -0.00000000000E+00 -0.55635044714E+04  0.55635044714E+04  0.00000000000E+00 0. -1.
         24    2    1    2    0    0  0.18557795600E+03  0.10879173350E+03 -0.19054156687E+03  0.29826006782E+03  0.79863385326E+02 0.  0.
         25    2    1    2    0    0 -0.42550193237E+03 -0.12019447413E+03 -0.16621878496E+04  0.17245264659E+04  0.12499791269E+03 0.  0.
         24    2    1    2    0    0  0.11616366387E+03  0.34534577757E+02 -0.13672398762E+04  0.13750050567E+04  0.81285871389E+02 0.  0.
        -11    1    3    3    0    0  0.17278683783E+03  0.10884859689E+03 -0.19715998391E+03  0.28385800610E+03  0.00000000000E+00 0.  1.
         12    1    3    3    0    0  0.12791118176E+02 -0.56863386984E-01  0.66184170388E+01  0.14402061718E+02  0.00000000000E+00 0. -1.
        -13    1    5    5    0    0  0.11756915113E+03  0.10708529016E+02 -0.99064156974E+03  0.99765119035E+03  0.00000000000E+00 0.  1.
         14    1    5    5    0    0 -0.14054872582E+01  0.23826048741E+02 -0.37659830647E+03  0.37735386633E+03  0.00000000000E+00 0. -1.
          5    1    4    4  501    0 -0.16344317515E+03 -0.20536989154E+02 -0.42205509487E+03  0.45308722398E+03  0.47000000000E+01 0. -1.
         -5    1    4    4    0  501 -0.26205875722E+03 -0.99657484975E+02 -0.12401327547E+04  0.12714392419E+04  0.47000000000E+01 0. -1.
          1    1    1    2  502    0  0.19177566028E+03 -0.11531721946E+03 -0.22473237167E+04  0.22584374804E+04  0.00000000000E+00 0. -1.
          1    1    1    2  503    0 -0.68015347786E+02  0.92185382326E+02  0.18802109112E+04  0.18836977738E+04  0.00000000000E+00 0. -1.
<mgrwt>
<rscale>  0 0.15362174E+03</rscale>
<asrwt>0</asrwt>
<pdfrwt beam="1">  1        2 0.29065036E+00 0.11456104E+03</pdfrwt>
<pdfrwt beam="2">  1        2 0.81816241E+00 0.20600057E+03</pdfrwt>
<totfact> 0.29896188E-02</totfact>
</mgrwt>
</event>
<event>
13    1  0.1675423E-008  0.1341343E+03  0.7546771E-02  0.1242110E+00
          2   -1    0    0  502    0  0.00000000000E+00  0.00000000000E+00  0.87053733202E+03  0.87053733202E+03  0.00000000000E+00 0. -1.
          2   -1    0    0  503    0 -0.00000000000E+00 -0.00000000000E+00 -0.11217248313E+04  0.11217248313E+04  0.00000000000E+00 0. -1.
         24    2    1    2    0    0  0.19886711450E+02  0.17910753126E+02  0.91166823042E+02  0.12389454828E+03  0.79512219814E+02 0.  0.
         25    2    1    2    0    0  0.14338668983E+03  0.22905518679E+03 -0.17288968639E+03  0.34429892659E+03  0.12499954308E+03 0.  0.
         24    2    1    2    0    0  0.12744020860E+02  0.60501838491E+02 -0.48556570241E+02  0.11229069770E+03  0.80178411983E+02 0.  0.
        -13    1    3    3    0    0  0.28715202849E+02 -0.89070646233E+01  0.17384005262E+01  0.30115124294E+02  0.00000000000E+00 0.  1.
         14    1    3    3    0    0 -0.88284913988E+01  0.26817817750E+02  0.89428422516E+02  0.93779423985E+02  0.00000000000E+00 0. -1.
        -13    1    5    5    0    0 -0.15075173018E+01  0.64928205798E+02 -0.37382482481E+01  0.65053201432E+02  0.00000000000E+00 0.  1.
         14    1    5    5    0    0  0.14251538162E+02 -0.44263673071E+01 -0.44818321993E+02  0.47237496269E+02  0.00000000000E+00 0. -1.
          5    1    4    4  501    0  0.47277654349E+02  0.14297205900E+03 -0.33571632688E+02  0.15435456189E+03  0.47000000000E+01 0.  1.
         -5    1    4    4    0  501  0.96109035483E+02  0.86083127793E+02 -0.13931805371E+03  0.18994436470E+03  0.47000000000E+01 0.  1.
          1    1    1    2  502    0 -0.59185325491E+02 -0.21988247406E+03  0.61798157759E+03  0.65859884254E+03  0.00000000000E+00 0. -1.
          1    1    1    2  503    0 -0.11683209665E+03 -0.87585304347E+02 -0.73888964331E+03  0.75317914823E+03  0.00000000000E+00 0. -1.
<mgrwt>
<rscale>  0 0.12060013E+03</rscale>
<asrwt>0</asrwt>
<pdfrwt beam="1">  1        2 0.12802020E+00 0.13413426E+03</pdfrwt>
<pdfrwt beam="2">  1        2 0.16495953E+00 0.10843160E+03</pdfrwt>
<totfact> 0.13499564E+02</totfact>
</mgrwt>
</event>
<event>
13    1  0.1675423E-008  0.1015640E+03  0.7546771E-02  0.1317101E+00
          2   -1    0    0  503    0  0.00000000000E+00  0.00000000000E+00  0.20078741992E+04  0.20078741992E+04  0.00000000000E+00 0. -1.
          2   -1    0    0  502    0 -0.00000000000E+00 -0.00000000000E+00 -0.13267164596E+04  0.13267164596E+04  0.00000000000E+00 0. -1.
         24    2    1    2    0    0  0.55877532000E+02  0.69105889444E+02  0.10749238178E+04  0.10815574464E+04  0.80046069620E+02 0.  0.
         25    2    1    2    0    0  0.11840293755E+03  0.28382151109E+02  0.99792052028E+01  0.17477870764E+03  0.12499283974E+03 0.  0.
         24    2    1    2    0    0 -0.11479752579E+03 -0.13070210970E+03  0.36150700772E+03  0.40946862551E+03  0.81949528640E+02 0.  0.
        -11    1    3    3    0    0 -0.13203088209E+02  0.32818724763E+02  0.19518223563E+03  0.19836203099E+03  0.00000000000E+00 0.  1.
         12    1    3    3    0    0  0.69080620209E+02  0.36287164681E+02  0.87974158220E+03  0.88319541544E+03  0.00000000000E+00 0. -1.
        -13    1    5    5    0    0 -0.16845723699E-01  0.24230222908E+01  0.63051346576E+02  0.63097889235E+02  0.00000000000E+00 0.  1.
         14    1    5    5    0    0 -0.11478068006E+03 -0.13312513199E+03  0.29845566114E+03  0.34637073628E+03  0.00000000000E+00 0. -1.
          5    1    4    4  501    0  0.39043887703E+02 -0.27188682259E+02  0.50606469160E+02  0.69618634939E+02  0.47000000000E+01 0.  1.
         -5    1    4    4    0  501  0.79359049848E+02  0.55570833368E+02 -0.40627263958E+02  0.10516007270E+03  0.47000000000E+01 0.  1.
          1    1    1    2  502    0  0.42361618502E+02  0.55825655700E+02 -0.12099688934E+04  0.12119965897E+04  0.00000000000E+00 0. -1.
          1    1    1    2  503    0 -0.10184456227E+03 -0.22611586556E+02  0.44471660218E+03  0.45678928946E+03  0.00000000000E+00 0. -1.
<mgrwt>
<rscale>  0 0.84365043E+02</rscale>
<asrwt>0</asrwt>
<pdfrwt beam="1">  1        2 0.29527562E+00 0.10156396E+03</pdfrwt>
<pdfrwt beam="2">  1        2 0.19510536E+00 0.70078603E+02</pdfrwt>
<totfact> 0.28326127E+01</totfact>
</mgrwt>
</event>
<event>
13    1  0.1675423E-008  0.1939295E+03  0.7546771E-02  0.1224427E+00
          2   -1    0    0  502    0  0.00000000000E+00  0.00000000000E+00  0.37141906608E+04  0.37141906608E+04  0.00000000000E+00 0. -1.
          2   -1    0    0  503    0 -0.00000000000E+00 -0.00000000000E+00 -0.39191377443E+03  0.39191377443E+03  0.00000000000E+00 0. -1.
         24    2    1    2    0    0 -0.43067695437E+02 -0.76729439341E+02  0.84965401034E+03  0.85808361601E+03  0.81567895127E+02 0.  0.
         25    2    1    2    0    0 -0.16894481284E+03  0.13714342536E+03  0.22400785028E+03  0.33638419377E+03  0.12499655967E+03 0.  0.
         24    2    1    2    0    0 -0.41341054614E+02  0.18308839016E+00 -0.46440321299E+02  0.10181175730E+03  0.80621424970E+02 0.  0.
        -11    1    5    5    0    0 -0.41764133599E+02  0.33986865139E+02 -0.15621149251E+02  0.56065766393E+02  0.00000000000E+00 0.  1.
         12    1    5    5    0    0  0.42307898546E+00 -0.33803776749E+02 -0.30819172048E+02  0.45745990907E+02  0.00000000000E+00 0. -1.
        -13    1    3    3    0    0  0.13238097018E+02  0.74854161802E+01  0.57453679867E+02  0.59432348080E+02  0.00000000000E+00 0.  1.
         14    1    3    3    0    0 -0.56305792456E+02 -0.84214855521E+02  0.79220033048E+03  0.79865126793E+03  0.00000000000E+00 0. -1.
          5    1    4    4  501    0 -0.70159931351E+02  0.11048492289E+03  0.18525450752E+03  0.22687145415E+03  0.47000000000E+01 0. -1.
         -5    1    4    4    0  501 -0.98784881488E+02  0.26658502472E+02  0.38753342758E+02  0.10951273962E+03  0.47000000000E+01 0. -1.
          1    1    1    2  502    0  0.31880102887E+03 -0.12227780738E+03  0.25327623634E+04  0.25556743039E+04  0.00000000000E+00 0. -1.
          1    1    1    2  503    0 -0.65447465980E+02  0.61680732969E+02 -0.23770701642E+03  0.25415056419E+03  0.00000000000E+00 0. -1.
<mgrwt>
<rscale>  0 0.13206284E+03</rscale>
<asrwt>0</asrwt>
<pdfrwt beam="1">  1        2 0.54620449E+00 0.19392948E+03</pdfrwt>
<pdfrwt beam="2">  1        2 0.57634381E-01 0.89932662E+02</pdfrwt>
<totfact> 0.13361006E+01</totfact>
</mgrwt>
</event>
<event>
13    1  0.1675423E-008  0.5246722E+02  0.7546771E-02  0.1443035E+00
          2   -1    0    0  502    0  0.00000000000E+00  0.00000000000E+00  0.92786155929E+03  0.92786155929E+03  0.00000000000E+00 0. -1.
          2   -1    0    0  503    0 -0.00000000000E+00 -0.00000000000E+00 -0.16867464627E+04  0.16867464627E+04  0.00000000000E+00 0. -1.
         24    2    1    2    0    0 -0.98108449081E+02  0.33840854121E+02  0.12684760762E+03  0.18624115831E+03  0.88458930032E+02 0.  0.
         25    2    1    2    0    0  0.35894759355E+03 -0.16502748249E+02 -0.38562266055E+03  0.54170439015E+03  0.12499237725E+03 0.  0.
         24    2    1    2    0    0 -0.21298286185E+03  0.20060564334E+02  0.28096233915E+02  0.22987447087E+03  0.79301628713E+02 0.  0.
        -11    1    5    5    0    0 -0.16130677577E+03  0.40032396915E+02  0.44576170101E+02  0.17207412256E+03  0.00000000000E+00 0.  1.
         12    1    5    5    0    0 -0.51676086077E+02 -0.19971832581E+02 -0.16479936186E+02  0.57800348317E+02  0.00000000000E+00 0. -1.
        -11    1    3    3    0    0 -0.77941539879E+02  0.14231674119E+02  0.13536828736E+03  0.15685023879E+03  0.00000000000E+00 0.  1.
         12    1    3    3    0    0 -0.20166909202E+02  0.19609180002E+02 -0.85206797386E+01  0.29390919522E+02  0.00000000000E+00 0. -1.
          5    1    4    4  501    0  0.13592091042E+03  0.53750067419E+02 -0.15941306883E+03  0.21632887036E+03  0.47000000000E+01 0. -1.
         -5    1    4    4    0  501  0.22302668313E+03 -0.70252815668E+02 -0.22620959172E+03  0.32537551980E+03  0.47000000000E+01 0. -1.
          1    1    1    2  502    0 -0.46072752819E+02  0.15061550413E+02  0.56261776698E+03  0.56470195730E+03  0.00000000000E+00 0. -1.
          1    1    1    2  503    0 -0.17835297981E+01 -0.52460220619E+02 -0.10908238514E+04  0.10920860454E+04  0.00000000000E+00 0. -1.
<mgrwt>
<rscale>  0 0.50430137E+02</rscale>
<asrwt>0</asrwt>
<pdfrwt beam="1">  1        2 0.13645023E+00 0.48472145E+02</pdfrwt>
<pdfrwt beam="2">  1        2 0.24805095E+00 0.52467221E+02</pdfrwt>
<totfact> 0.71591628E+01</totfact>
</mgrwt>
</event>
<event>
13    1  0.1675423E-008  0.1188403E+03  0.7546771E-02  0.1426350E+00
          2   -1    0    0  503    0  0.00000000000E+00  0.00000000000E+00  0.13474743872E+04  0.13474743872E+04  0.00000000000E+00 0. -1.
         -1   -1    0    0    0  501 -0.00000000000E+00 -0.00000000000E+00 -0.19518487938E+04  0.19518487938E+04  0.00000000000E+00 0.  1.
         24    2    1    2    0    0  0.86246276741E+02  0.29003723307E+03  0.29725229912E+02  0.31548764973E+03  0.84195314708E+02 0.  0.
         25    2    1    2    0    0  0.18682076798E+03 -0.32310728347E+03 -0.10935460553E+04  0.11622268569E+04  0.12501190272E+03 0.  0.
         24    2    1    2    0    0 -0.28976029905E+03 -0.71987177901E+02 -0.44070478119E+03  0.53836983470E+03  0.80487204331E+02 0.  0.
        -11    1    5    5    0    0 -0.24154951766E+03 -0.76626914940E+02 -0.40670492140E+03  0.47919385082E+03  0.00000000000E+00 0.  1.
         12    1    5    5    0    0 -0.48210781390E+02  0.46397370394E+01 -0.33999859796E+02  0.59175983881E+02  0.00000000000E+00 0. -1.
        -13    1    3    3    0    0  0.43078792825E+01  0.13139457661E+03 -0.12348802870E+02  0.13204387725E+03  0.00000000000E+00 0.  1.
         14    1    3    3    0    0  0.81938397458E+02  0.15864265646E+03  0.42074032782E+02  0.18344377248E+03  0.00000000000E+00 0. -1.
          5    1    4    4  502    0  0.76869394817E+02 -0.99633241156E+02 -0.21617646978E+03  0.25018002057E+03  0.47000000000E+01 0. -1.
         -5    1    4    4    0  502  0.10995137316E+03 -0.22347404232E+03 -0.87736958550E+03  0.91204683630E+03  0.47000000000E+01 0. -1.
          1    1    1    2  503    0 -0.32905714803E+01  0.11882099733E+03  0.10876753778E+04  0.10941512623E+04  0.00000000000E+00 0. -1.
         -2    1    1    2    0  501  0.19983825805E+02 -0.13763769028E+02 -0.18752417787E+03  0.18908757738E+03  0.00000000000E+00 0.  1.
<mgrwt>
<rscale>  0 0.53699816E+02</rscale>
<asrwt>0</asrwt>
<pdfrwt beam="1">  1        2 0.19815800E+00 0.11884028E+03</pdfrwt>
<pdfrwt beam="2">  1       -1 0.28703659E+00 0.24265091E+02</pdfrwt>
<totfact> 0.13695466E+00</totfact>
</mgrwt>
</event>
<event>
13    1  0.1675423E-008  0.6844779E+02  0.7546771E-02  0.1390031E+00
          2   -1    0    0  503    0  0.00000000000E+00  0.00000000000E+00  0.37751072097E+03  0.37751072097E+03  0.00000000000E+00 0. -1.
          2   -1    0    0  502    0 -0.00000000000E+00 -0.00000000000E+00 -0.34829970443E+04  0.34829970443E+04  0.00000000000E+00 0. -1.
         24    2    1    2    0    0 -0.18127311459E+03  0.56730864148E+02 -0.10618096505E+03  0.23172794536E+03  0.79656200648E+02 0.  0.
         25    2    1    2    0    0 -0.62232294302E+02  0.15631091232E+03 -0.11704957237E+04  0.11891137231E+04  0.12500098964E+03 0.  0.
         24    2    1    2    0    0  0.13345451506E+03 -0.21718144278E+03 -0.12528851326E+03  0.29380427278E+03  0.75138887880E+02 0.  0.
        -11    1    5    5    0    0  0.10471159829E+03 -0.18856644871E+03 -0.13173499535E+03  0.25273688571E+03  0.00000000000E+00 0.  1.
         12    1    5    5    0    0  0.28742916766E+02 -0.28614994071E+02  0.64464820902E+01  0.41067387076E+02  0.00000000000E+00 0. -1.
        -11    1    3    3    0    0 -0.10942343394E+03 -0.41793596681E+01 -0.39876043973E+02  0.11653777853E+03  0.00000000000E+00 0.  1.
         12    1    3    3    0    0 -0.71849680653E+02  0.60910223816E+02 -0.66304921076E+02  0.11519016683E+03  0.00000000000E+00 0. -1.
          5    1    4    4  501    0 -0.19975994778E+02  0.45813278969E+02 -0.98059097418E+02  0.11016157898E+03  0.47000000000E+01 0.  1.
         -5    1    4    4    0  501 -0.42256299524E+02  0.11049763335E+03 -0.10724366263E+04  0.10789521441E+04  0.47000000000E+01 0.  1.
          1    1    1    2  502    0  0.46974926151E+02  0.30442858070E+02 -0.19189943609E+04  0.19198106074E+04  0.00000000000E+00 0. -1.
          1    1    1    2  503    0  0.63075967683E+02 -0.26303191752E+02  0.21547323954E+03  0.22605121666E+03  0.00000000000E+00 0. -1.
<mgrwt>
<rscale>  0 0.61899060E+02</rscale>
<asrwt>0</asrwt>
<pdfrwt beam="1">  1        2 0.55516284E-01 0.68447786E+02</pdfrwt>
<pdfrwt beam="2">  1        2 0.51220544E+00 0.55976882E+02</pdfrwt>
<totfact> 0.24085865E+01</totfact>
</mgrwt>
</event>
<event>
13    1  0.1675423E-008  0.6791874E+02  0.7546771E-02  0.1444751E+00
          4   -1    0    0  503    0  0.00000000000E+00  0.00000000000E+00  0.22256469164E+03  0.22256469164E+03  0.00000000000E+00 0. -1.
         -3   -1    0    0    0  501 -0.00000000000E+00 -0.00000000000E+00 -0.27523365564E+04  0.27523365564E+04  0.00000000000E+00 0.  1.
         24    2    1    2    0    0  0.19693034602E+02  0.56378637659E+02  0.81035164138E+02  0.12769786340E+03  0.78572769418E+02 0.  0.
         25    2    1    2    0    0 -0.12512916133E+02 -0.13290250331E+03 -0.60904812272E+03  0.63591244528E+03  0.12500149528E+03 0.  0.
         24    2    1    2    0    0 -0.11714778630E+01 -0.19879309542E+02 -0.70368413521E+02  0.10674023298E+03  0.77750912581E+02 0.  0.
        -11    1    3    3    0    0  0.37633147098E+02  0.67355768167E+02  0.68740645629E+02  0.10333600354E+03  0.00000000000E+00 0.  1.
         12    1    3    3    0    0 -0.17940112496E+02 -0.10977130508E+02  0.12294518509E+02  0.24361859862E+02  0.00000000000E+00 0. -1.
        -11    1    5    5    0    0  0.21429671278E+02  0.18468418168E+02 -0.50737040863E+02  0.58090968285E+02  0.00000000000E+00 0.  1.
         12    1    5    5    0    0 -0.22601149141E+02 -0.38347727710E+02 -0.19631372658E+02  0.48649264696E+02  0.00000000000E+00 0. -1.
          5    1    4    4  502    0  0.55622789888E+02 -0.71980859820E+02 -0.32108186481E+03  0.33375259227E+03  0.47000000000E+01 0.  1.
         -5    1    4    4    0  502 -0.68135706021E+02 -0.60921643493E+02 -0.28796625790E+03  0.30215985301E+03  0.47000000000E+01 0.  1.
          3    1    1    2  503    0  0.14781866248E+02  0.65832651020E+02  0.73238565257E+02  0.99580765969E+02  0.00000000000E+00 0. -1.
         -4    1    1    2    0  501 -0.20790506855E+02  0.30570524177E+02 -0.20046290579E+04  0.20049699404E+04  0.00000000000E+00 0.  1.
<mgrwt>
<rscale>  0 0.50109633E+02</rscale>
<asrwt>0</asrwt>
<pdfrwt beam="1">  1        4 0.32730104E-01 0.67918741E+02</pdfrwt>
<pdfrwt beam="2">  1       -3 0.40475534E+00 0.36970287E+02</pdfrwt>
<totfact> 0.26476620E-01</totfact>
</mgrwt>
</event>
<event>
13    1  0.1675423E-008  0.4761869E+02  0.7546771E-02  0.1461519E+00
         -3   -1    0    0    0  501 -0.00000000000E+00  0.00000000000E+00  0.12876539462E+04  0.12876539462E+04  0.00000000000E+00 0.  1.
          2   -1    0    0  503    0  0.00000000000E+00 -0.00000000000E+00 -0.12618354928E+04  0.12618354928E+04  0.00000000000E+00 0. -1.
         24    2    1    2    0    0 -0.23890387321E+03 -0.22236347345E+03 -0.52212982110E+03  0.62119083270E+03  0.82084868260E+02 0.  0.
         25    2    1    2    0    0  0.30356548380E+03  0.24155075653E+03  0.41361048848E+03  0.58068630932E+03  0.12499673083E+03 0.  0.
         24    2    1    2    0    0 -0.58596257480E+02 -0.30405583700E+01 -0.12215554780E+03  0.15750270263E+03  0.80264295252E+02 0.  0.
        -11    1    3    3    0    0 -0.68156245810E+02 -0.18725323461E+02 -0.10341301420E+03  0.12526038115E+03  0.00000000000E+00 0.  1.
         12    1    3    3    0    0 -0.17074762740E+03 -0.20363814999E+03 -0.41871680690E+03  0.49593045155E+03  0.00000000000E+00 0. -1.
        -11    1    5    5    0    0 -0.73214317522E+02 -0.12693660134E+02 -0.68511029818E+02  0.10107040370E+03  0.00000000000E+00 0.  1.
         12    1    5    5    0    0  0.14618060042E+02  0.96531017636E+01 -0.53644517980E+02  0.56432298929E+02  0.00000000000E+00 0. -1.
          5    1    4    4  502    0  0.23170890979E+03  0.22019706318E+03  0.38473173308E+03  0.50021631515E+03  0.47000000000E+01 0. -1.
         -5    1    4    4    0  502  0.71856574005E+02  0.21353693352E+02  0.28878755404E+02  0.80469994166E+02  0.47000000000E+01 0. -1.
          1    1    1    2  503    0 -0.47403013454E+02  0.54269204340E+01 -0.46483421456E+03  0.46727651789E+03  0.00000000000E+00 0. -1.
         -4    1    1    2    0  501  0.41337660345E+02 -0.21573645149E+02  0.72132754842E+03  0.72283307647E+03  0.00000000000E+00 0.  1.
<mgrwt>
<rscale>  0 0.47121035E+02</rscale>
<asrwt>0</asrwt>
<pdfrwt beam="2">  1        2 0.18556404E+00 0.47618693E+02</pdfrwt>
<pdfrwt beam="1">  1       -3 0.18936087E+00 0.46628578E+02</pdfrwt>
<totfact> 0.26547949E+00</totfact>
</mgrwt>
</event>
<event>
13    1  0.1675423E-008  0.2833436E+03  0.7546771E-02  0.1186818E+00
          2   -1    0    0  503    0  0.00000000000E+00  0.00000000000E+00  0.28330028963E+04  0.28330028963E+04  0.00000000000E+00 0. -1.
         -3   -1    0    0    0  501 -0.00000000000E+00 -0.00000000000E+00 -0.97758790308E+03  0.97758790308E+03  0.00000000000E+00 0.  1.
         24    2    1    2    0    0  0.62754170914E+02 -0.17702096917E+03  0.76732286422E+01  0.20511293761E+03  0.82084890491E+02 0.  0.
         25    2    1    2    0    0 -0.40558993629E+03  0.37772087274E+03 -0.38723899697E+02  0.56947376310E+03  0.12499828932E+03 0.  0.
         24    2    1    2    0    0  0.11218840143E+03 -0.11677305961E+03  0.12641767673E+04  0.12770024606E+04  0.79813536341E+02 0.  0.
        -11    1    5    5    0    0  0.39773748650E+02 -0.43554530967E+02  0.76745281261E+03  0.76971603064E+03  0.00000000000E+00 0.  1.
         12    1    5    5    0    0  0.72414652782E+02 -0.73218528640E+02  0.49672395468E+03  0.50728642997E+03  0.00000000000E+00 0. -1.
        -13    1    3    3    0    0  0.43079833313E+02 -0.21399357074E+02  0.25193801235E+01  0.48167954053E+02  0.00000000000E+00 0.  1.
         14    1    3    3    0    0  0.19674337601E+02 -0.15562161209E+03  0.51538485187E+01  0.15694498356E+03  0.00000000000E+00 0. -1.
          5    1    4    4  502    0 -0.18682588494E+03  0.17683275172E+03 -0.80317723776E+02  0.26953062928E+03  0.47000000000E+01 0. -1.
         -5    1    4    4    0  502 -0.21876405135E+03  0.20088812102E+03  0.41593824079E+02  0.29994313382E+03  0.47000000000E+01 0. -1.
          1    1    1    2  503    0  0.39282912417E+02  0.83470485134E+02  0.11602887308E+04  0.11639503459E+04  0.00000000000E+00 0. -1.
         -4    1    1    2    0  501  0.19136445153E+03 -0.16739732910E+03 -0.53799983377E+03  0.59505129210E+03  0.00000000000E+00 0.  1.
<mgrwt>
<rscale>  0 0.16167583E+03</rscale>
<asrwt>0</asrwt>
<pdfrwt beam="1">  1        2 0.41661807E+00 0.92252204E+02</pdfrwt>
<pdfrwt beam="2">  1       -3 0.14376293E+00 0.28334362E+03</pdfrwt>
<totfact> 0.83711251E-01</totfact>
</mgrwt>
</event>
<event>
13    1  0.1675423E-008  0.1680515E+03  0.7546771E-02  0.1298906E+00
          2   -1    0    0  502    0  0.00000000000E+00  0.00000000000E+00  0.24674667859E+04  0.24674667859E+04  0.00000000000E+00 0. -1.
          2   -1    0    0  503    0 -0.00000000000E+00 -0.00000000000E+00 -0.21492487205E+04  0.21492487205E+04  0.00000000000E+00 0. -1.
         24    2    1    2    0    0 -0.43130057385E+02 -0.15750698805E+03  0.11989086035E+04  0.12126530660E+04  0.80479597278E+02 0.  0.
         25    2    1    2    0    0  0.16829563668E+03  0.24171753480E+03  0.57273709235E+02  0.32504840371E+03  0.12500159611E+03 0.  0.
         24    2    1    2    0    0 -0.58172470733E+02  0.96025447682E+02 -0.34984669564E+03  0.37612465057E+03  0.80449483315E+02 0.  0.
        -13    1    5    5    0    0 -0.55733020710E+02  0.10656077125E+03 -0.34263757665E+03  0.36312790653E+03  0.00000000000E+00 0.  1.
         14    1    5    5    0    0 -0.24394500228E+01 -0.10535323568E+02 -0.72091189817E+01  0.12996744038E+02  0.00000000000E+00 0. -1.
        -13    1    3    3    0    0 -0.15435257973E+02 -0.17238428656E+02  0.42622981789E+03  0.42685743319E+03  0.00000000000E+00 0.  1.
         14    1    3    3    0    0 -0.27694799412E+02 -0.14026855939E+03  0.77267878565E+03  0.78579563276E+03  0.00000000000E+00 0. -1.
          5    1    4    4  501    0 -0.10185838019E+02  0.64175758905E+01  0.24713243101E+02  0.27888545337E+02  0.47000000000E+01 0.  1.
         -5    1    4    4    0  501  0.17848147470E+03  0.23529995891E+03  0.32560466134E+02  0.29715985837E+03  0.47000000000E+01 0.  1.
          1    1    1    2  502    0  0.48978493157E+02  0.99671351721E+01  0.10492485480E+04  0.10504383619E+04  0.00000000000E+00 0. -1.
          1    1    1    2  503    0 -0.11597160172E+03 -0.19020312961E+03 -0.16373660997E+04  0.16524510242E+04  0.00000000000E+00 0. -1.
<mgrwt>
<rscale>  0 0.91649390E+02</rscale>
<asrwt>0</asrwt>
<pdfrwt beam="1">  1        2 0.36286277E+00 0.49982363E+02</pdfrwt>
<pdfrwt beam="2">  1        2 0.31606598E+00 0.16805149E+03</pdfrwt>
<totfact> 0.68013426E+00</totfact>
</mgrwt>
</event>
<event>
13    1  0.1675423E-008  0.2005303E+03  0.7546771E-02  0.1283231E+00
          2   -1    0    0  502    0  0.00000000000E+00  0.00000000000E+00  0.54315423805E+03  0.54315423805E+03  0.00000000000E+00 0. -1.
          2   -1    0    0  503    0 -0.00000000000E+00 -0.00000000000E+00 -0.77010440857E+03  0.77010440857E+03  0.00000000000E+00 0. -1.
         24    2    1    2    0    0  0.30817618963E+01  0.40988181830E+02  0.16314467762E+03  0.18773925933E+03  0.83308555109E+02 0.  0.
         25    2    1    2    0    0  0.18549419009E+03 -0.16702146545E+03  0.94222127927E+02  0.29462519295E+03  0.12498772121E+03 0.  0.
         24    2    1    2    0    0 -0.18312108743E+03 -0.52517475584E+02 -0.11494484063E+03  0.23720325901E+03  0.82229263614E+02 0.  0.
        -11    1    3    3    0    0  0.36897254169E+02  0.38432639240E+02  0.12921670606E+03  0.13976921066E+03  0.00000000000E+00 0.  1.
         12    1    3    3    0    0 -0.33815492273E+02  0.25555425898E+01  0.33927971556E+02  0.47970048670E+02  0.00000000000E+00 0. -1.
        -11    1    5    5    0    0 -0.18812635460E+02  0.18864040732E+02 -0.52846566758E+01  0.27160539057E+02  0.00000000000E+00 0.  1.
         12    1    5    5    0    0 -0.16430845197E+03 -0.71381516316E+02 -0.10966018395E+03  0.21004271995E+03  0.00000000000E+00 0. -1.
          5    1    4    4  501    0  0.12995915776E+03 -0.17743938632E+03  0.90260532011E+02  0.23778808242E+03  0.47000000000E+01 0. -1.
         -5    1    4    4    0  501  0.55535032329E+02  0.10417920871E+02  0.39615959163E+01  0.56837110529E+02  0.47000000000E+01 0. -1.
          1    1    1    2  502    0 -0.45521572234E+02 -0.16728418330E+02  0.84803691868E+02  0.97691963195E+02  0.00000000000E+00 0. -1.
          1    1    1    2  503    0  0.40066707680E+02  0.19527917754E+03 -0.45417582730E+03  0.49599897213E+03  0.00000000000E+00 0. -1.
<mgrwt>
<rscale>  0 0.98617005E+02</rscale>
<asrwt>0</asrwt>
<pdfrwt beam="1">  1        2 0.79875623E-01 0.48497974E+02</pdfrwt>
<pdfrwt beam="2">  1        2 0.11325065E+00 0.20053031E+03</pdfrwt>
<totfact> 0.37949296E+02</totfact>
</mgrwt>
</event>
<event>
13    1  0.1675423E-008  0.1221312E+03  0.7546771E-02  0.1358476E+00
          2   -1    0    0  503    0  0.00000000000E+00  0.00000000000E+00  0.12035484941E+04  0.12035484941E+04  0.00000000000E+00 0. -1.
          2   -1    0    0  502    0 -0.00000000000E+00 -0.00000000000E+00 -0.15045899697E+04  0.15045899697E+04  0.00000000000E+00 0. -1.
         24    2    1    2    0    0 -0.75259012715E+02  0.27198976427E+02  0.70121349755E+02  0.13360837476E+03  0.80811452166E+02 0.  0.
         25    2    1    2    0    0 -0.42961324780E+02 -0.10747787724E+03 -0.21726746805E+03  0.27609101506E+03  0.12499570552E+03 0.  0.
         24    2    1    2    0    0 -0.14673857601E+02 -0.45853796262E+01 -0.18360605603E+02  0.83033540592E+02  0.79505403728E+02 0.  0.
        -11    1    5    5    0    0 -0.18296631119E+02 -0.38413067077E+02 -0.23531619322E+02  0.48621677680E+02  0.00000000000E+00 0.  1.
         12    1    5    5    0    0  0.36227735180E+01  0.33827687450E+02  0.51710137187E+01  0.34411862912E+02  0.00000000000E+00 0. -1.
        -13    1    3    3    0    0 -0.67029730811E+02 -0.11668752616E+02  0.22657275476E+02  0.71711203672E+02  0.00000000000E+00 0.  1.
         14    1    3    3    0    0 -0.82292819046E+01  0.38867729043E+02  0.47464074279E+02  0.61897171088E+02  0.00000000000E+00 0. -1.
          5    1    4    4  501    0 -0.27034719272E+02 -0.12962166099E+03 -0.20853829992E+03  0.24706874262E+03  0.47000000000E+01 0. -1.
         -5    1    4    4    0  501 -0.15926605507E+02  0.22143783743E+02 -0.87291681285E+01  0.29022272441E+02  0.47000000000E+01 0. -1.
          1    1    1    2  502    0  0.40399648109E+02  0.46830223532E+01 -0.11715138376E+04  0.11722195758E+04  0.00000000000E+00 0. -1.
          1    1    1    2  503    0  0.92494546987E+02  0.80181258090E+02  0.10359790860E+04  0.10431859575E+04  0.00000000000E+00 0. -1.
<mgrwt>
<rscale>  0 0.70477634E+02</rscale>
<asrwt>0</asrwt>
<pdfrwt beam="1">  1        2 0.17699243E+00 0.12213122E+03</pdfrwt>
<pdfrwt beam="2">  1        2 0.22126323E+00 0.40670164E+02</pdfrwt>
<totfact> 0.59829927E+01</totfact>
</mgrwt>
</event>
<event>
13    1  0.1675423E-008  0.9771231E+02  0.7546771E-02  0.1335106E+00
          2   -1    0    0  503    0  0.00000000000E+00  0.00000000000E+00  0.93269780781E+03  0.93269780781E+03  0.00000000000E+00 0. -1.
          2   -1    0    0  502    0 -0.00000000000E+00 -0.00000000000E+00 -0.36863827565E+04  0.36863827565E+04  0.00000000000E+00 0. -1.
         24    2    1    2    0    0 -0.12682602615E+03  0.98640089122E+02  0.88849548667E+02  0.20004638901E+03  0.79433036982E+02 0.  0.
         25    2    1    2    0    0  0.11825731290E+03 -0.10956129767E+03 -0.16488345097E+03  0.26229621325E+03  0.12499712428E+03 0.  0.
         24    2    1    2    0    0  0.13845181010E+02 -0.38057955918E+02  0.55166630953E+02  0.10543998645E+03  0.80213069552E+02 0.  0.
        -11    1    3    3    0    0 -0.54744541478E+00  0.28789255454E+02  0.36598862670E+02  0.46568204548E+02  0.00000000000E+00 0.  1.
         12    1    3    3    0    0 -0.12627858074E+03  0.69850833667E+02  0.52250685997E+02  0.15347818446E+03  0.00000000000E+00 0. -1.
        -11    1    5    5    0    0  0.24141858467E+02 -0.51716716412E+01 -0.13842357484E+02  0.28305235885E+02  0.00000000000E+00 0.  1.
         12    1    5    5    0    0 -0.10296677456E+02 -0.32886284277E+02  0.69008988438E+02  0.77134750569E+02  0.00000000000E+00 0. -1.
          5    1    4    4  501    0  0.35536130469E+02 -0.10177760078E+03 -0.46285080515E+02  0.11741335217E+03  0.47000000000E+01 0. -1.
         -5    1    4    4    0  501  0.82721182430E+02 -0.77836968878E+01 -0.11859837046E+03  0.14488286108E+03  0.47000000000E+01 0. -1.
          1    1    1    2  502    0  0.42964392792E+02  0.88103120500E+02 -0.33898848180E+04  0.33913016938E+04  0.00000000000E+00 0. -1.
          1    1    1    2  503    0 -0.48240860550E+02 -0.39123956036E+02  0.65706714070E+03  0.65999628177E+03  0.00000000000E+00 0. -1.
<mgrwt>
<rscale>  0 0.77904291E+02</rscale>
<asrwt>0</asrwt>
<pdfrwt beam="1">  1        2 0.13716144E+00 0.62111710E+02</pdfrwt>
<pdfrwt beam="2">  1        2 0.54211511E+00 0.97712307E+02</pdfrwt>
<totfact> 0.60320363E+00</totfact>
</mgrwt>
</event>
<event>
13    1  0.1675423E-008  0.1424289E+03  0.7546771E-02  0.1310104E+00
          2   -1    0    0  502    0  0.00000000000E+00  0.00000000000E+00  0.16817853516E+04  0.16817853516E+04  0.00000000000E+00 0. -1.
          2   -1    0    0  503    0 -0.00000000000E+00 -0.00000000000E+00 -0.23953521950E+04  0.23953521950E+04  0.00000000000E+00 0. -1.
         24    2    1    2    0    0  0.27261495567E+01  0.58993386264E+02  0.23729157974E+03  0.25763391560E+03  0.81118981365E+02 0.  0.
         25    2    1    2    0    0  0.96246565050E+02 -0.23224818657E+03 -0.76550318913E+03  0.81536741170E+03  0.12500504807E+03 0.  0.
         24    2    1    2    0    0 -0.23834257684E+02 -0.73682807156E+00  0.23793744954E+03  0.25209782445E+03  0.79815214346E+02 0.  0.
        -13    1    3    3    0    0 -0.37291209196E+02  0.43765547609E+02  0.13321312047E+03  0.14509235991E+03  0.00000000000E+00 0.  1.
         14    1    3    3    0    0  0.40017358753E+02  0.15227838655E+02  0.10407845928E+03  0.11254155569E+03  0.00000000000E+00 0. -1.
        -13    1    5    5    0    0 -0.37708436900E+02  0.17083287848E+02  0.60975613556E+02  0.73700681039E+02  0.00000000000E+00 0.  1.
         14    1    5    5    0    0  0.13874179215E+02 -0.17820115920E+02  0.17696183599E+03  0.17839714341E+03  0.00000000000E+00 0. -1.
          5    1    4    4  501    0  0.11392491631E+03 -0.16176718608E+03 -0.64390332203E+03  0.67363275394E+03  0.47000000000E+01 0.  1.
         -5    1    4    4    0  501 -0.17678351263E+02 -0.70481000491E+02 -0.12159986710E+03  0.14173465777E+03  0.47000000000E+01 0.  1.
          1    1    1    2  502    0 -0.12194112458E+03  0.19934587023E+03  0.11521940051E+04  0.11756527715E+04  0.00000000000E+00 0. -1.
          1    1    1    2  503    0  0.46802667655E+02 -0.25354241849E+02 -0.15754866886E+04  0.15763856233E+04  0.00000000000E+00 0. -1.
<mgrwt>
<rscale>  0 0.87070938E+02</rscale>
<asrwt>0</asrwt>
<pdfrwt beam="1">  1        2 0.24732138E+00 0.14242888E+03</pdfrwt>
<pdfrwt beam="2">  1        2 0.35225767E+00 0.53229008E+02</pdfrwt>
<totfact> 0.12593028E+01</totfact>
</mgrwt>
</event>
<event>
13    1  0.1675423E-008  0.9391169E+02  0.7546771E-02  0.1384191E+00
          2   -1    0    0  503    0  0.00000000000E+00  0.00000000000E+00  0.21368499499E+04  0.21368499499E+04  0.00000000000E+00 0. -1.
          2   -1    0    0  502    0 -0.00000000000E+00 -0.00000000000E+00 -0.36367508229E+04  0.36367508229E+04  0.00000000000E+00 0. -1.
         24    2    1    2    0    0 -0.27953838872E+03  0.12744647613E+03 -0.30790060978E+03  0.44236445607E+03  0.80617686939E+02 0.  0.
         25    2    1    2    0    0  0.62300254481E+03 -0.45437676447E+03 -0.10929702496E+04  0.13434285818E+04  0.12500389178E+03 0.  0.
         24    2    1    2    0    0 -0.20867829651E+03  0.33729041196E+03 -0.49527709919E+03  0.64046815921E+03  0.87112596951E+02 0.  0.
        -11    1    3    3    0    0 -0.15479546496E+03  0.85871533690E+02 -0.22744823049E+03  0.28821563771E+03  0.00000000000E+00 0.  1.
         12    1    3    3    0    0 -0.12474292377E+03  0.41574942442E+02 -0.80452379286E+02  0.15414881836E+03  0.00000000000E+00 0. -1.
        -13    1    5    5    0    0 -0.18205964297E+03  0.28333648411E+03 -0.46197084226E+03  0.57170126458E+03  0.00000000000E+00 0.  1.
         14    1    5    5    0    0 -0.26618653538E+02  0.53953927846E+02 -0.33306256935E+02  0.68766894631E+02  0.00000000000E+00 0. -1.
          5    1    4    4  501    0  0.44347506636E+03 -0.35997437163E+03 -0.72229847890E+03  0.92086310890E+03  0.47000000000E+01 0. -1.
         -5    1    4    4    0  501  0.17952747845E+03 -0.94402392842E+02 -0.37067177074E+03  0.42256547293E+03  0.47000000000E+01 0. -1.
          1    1    1    2  502    0 -0.92355354824E+02 -0.15717698072E+02 -0.14738145116E+04  0.14767890073E+04  0.00000000000E+00 0. -1.
          1    1    1    2  503    0 -0.42430504753E+02  0.53575744531E+01  0.18700615973E+04  0.18705505684E+04  0.00000000000E+00 0. -1.
<mgrwt>
<rscale>  0 0.63374756E+02</rscale>
<asrwt>0</asrwt>
<pdfrwt beam="1">  1        2 0.31424264E+00 0.42767410E+02</pdfrwt>
<pdfrwt beam="2">  1        2 0.53481629E+00 0.93911689E+02</pdfrwt>
<totfact> 0.17244179E+00</totfact>
</mgrwt>
</event>
<event>
13    1  0.1675423E-008  0.9359944E+02  0.7546771E-02  0.1390131E+00
          4   -1    0    0  503    0  0.00000000000E+00  0.00000000000E+00  0.80058524036E+03  0.80058524036E+03  0.00000000000E+00 0. -1.
         -3   -1    0    0    0  501 -0.00000000000E+00 -0.00000000000E+00 -0.33483493339E+03  0.33483493339E+03  0.00000000000E+00 0.  1.
         24    2    1    2    0    0 -0.70510772595E+02 -0.52928864424E+02  0.32049058512E+02  0.12187872051E+03  0.77807754250E+02 0.  0.
         25    2    1    2    0    0 -0.28926565030E+02  0.43027842039E+02 -0.16010363114E+03  0.20960295891E+03  0.12494833462E+03 0.  0.
         24    2    1    2    0    0 -0.46040966410E+01  0.38204345383E+02  0.83060645314E+02  0.12100552778E+03  0.79135941532E+02 0.  0.
        -11    1    3    3    0    0 -0.24991706287E+02  0.19624763480E+02  0.58428940782E+01  0.32308762526E+02  0.00000000000E+00 0.  1.
         12    1    3    3    0    0 -0.45519066308E+02 -0.72553627904E+02  0.26206164434E+02  0.89569957988E+02  0.00000000000E+00 0. -1.
        -11    1    5    5    0    0  0.17455529984E+02 -0.19469560068E+02  0.22132747074E+02  0.34258105454E+02  0.00000000000E+00 0.  1.
         12    1    5    5    0    0 -0.22059626625E+02  0.57673905451E+02  0.60927898240E+02  0.86747422329E+02  0.00000000000E+00 0. -1.
          5    1    4    4  502    0 -0.14352993911E+02  0.45342095116E+02  0.95567770072E+00  0.47800809027E+02  0.47000000000E+01 0.  1.
         -5    1    4    4    0  502 -0.14573571119E+02 -0.23142530772E+01 -0.16105930884E+03  0.16180214988E+03  0.47000000000E+01 0.  1.
          3    1    1    2  503    0  0.95645026286E+02  0.11727591800E+02  0.58782580324E+03  0.59567162298E+03  0.00000000000E+00 0. -1.
         -4    1    1    2    0  501  0.83964079799E+01 -0.40030914798E+02 -0.77081568960E+02  0.87261343560E+02  0.00000000000E+00 0.  1.
<mgrwt>
<rscale>  0 0.61874104E+02</rscale>
<asrwt>0</asrwt>
<pdfrwt beam="1">  1        4 0.11773312E+00 0.93599445E+02</pdfrwt>
<pdfrwt beam="2">  1       -3 0.49240431E-01 0.40902002E+02</pdfrwt>
<totfact> 0.44783135E+00</totfact>
</mgrwt>
</event>
<event>
13    1  0.1675423E-008  0.1651216E+03  0.7546771E-02  0.1334039E+00
          2   -1    0    0  502    0  0.00000000000E+00  0.00000000000E+00  0.17317159020E+04  0.17317159020E+04  0.00000000000E+00 0. -1.
          2   -1    0    0  503    0 -0.00000000000E+00 -0.00000000000E+00 -0.31260224259E+04  0.31260224259E+04  0.00000000000E+00 0. -1.
         24    2    1    2    0    0 -0.15491861604E+02 -0.64198847278E+02  0.33539337003E+02  0.10896661756E+03  0.79920878671E+02 0.  0.
         25    2    1    2    0    0 -0.21140336958E+03 -0.23890771320E+03 -0.11150921016E+04  0.11665435814E+04  0.12500100895E+03 0.  0.
         24    2    1    2    0    0  0.11563168847E+03  0.21984051694E+02 -0.15266075789E+02  0.14406702781E+03  0.81659472970E+02 0.  0.
        -11    1    3    3    0    0 -0.43175008437E+01 -0.64837059975E+02  0.54758593388E+02  0.84976400898E+02  0.00000000000E+00 0.  1.
         12    1    3    3    0    0 -0.11174360761E+02  0.63821269765E+00 -0.21219256384E+02  0.23990216659E+02  0.00000000000E+00 0. -1.
        -11    1    5    5    0    0  0.98021918039E+02 -0.15876917962E+02  0.86601697049E+00  0.99303186885E+02  0.00000000000E+00 0.  1.
         12    1    5    5    0    0  0.17609770430E+02  0.37860969656E+02 -0.16132092760E+02  0.44763840928E+02  0.00000000000E+00 0. -1.
          5    1    4    4  501    0 -0.60270939666E+02 -0.59200647953E+02 -0.14013885560E+03  0.16370183791E+03  0.47000000000E+01 0.  1.
         -5    1    4    4    0  501 -0.15113242992E+03 -0.17970706524E+03 -0.97495324596E+03  0.10028417435E+04  0.47000000000E+01 0.  1.
          1    1    1    2  502    0  0.14824606311E+03  0.28406477872E+03  0.15538037555E+04  0.15864979686E+04  0.00000000000E+00 0. -1.
          1    1    1    2  503    0 -0.36982520388E+02 -0.29422699418E+01 -0.18512914391E+04  0.18516631325E+04  0.00000000000E+00 0. -1.
<mgrwt>
<rscale>  0 0.78268186E+02</rscale>
<asrwt>0</asrwt>
<pdfrwt beam="1">  1        2 0.25466411E+00 0.16512161E+03</pdfrwt>
<pdfrwt beam="2">  1        2 0.45970917E+00 0.37099377E+02</pdfrwt>
<totfact> 0.53990859E+00</totfact>
</mgrwt>
</event>
<event>
13    1  0.1675423E-008  0.9150278E+02  0.7546771E-02  0.1478599E+00
         -1   -1    0    0    0  501 -0.00000000000E+00  0.00000000000E+00  0.12092541596E+04  0.12092541596E+04  0.00000000000E+00 0.  1.
          2   -1    0    0  503    0  0.00000000000E+00 -0.00000000000E+00 -0.36603218095E+04  0.36603218095E+04  0.00000000000E+00 0. -1.
         24    2    1    2    0    0  0.15662015478E+03 -0.87826741284E+02 -0.12631418760E+04  0.12782180370E+04  0.77913682350E+02 0.  0.
         25    2    1    2    0    0  0.97741768162E+01 -0.13452310446E+03  0.49366924690E+03  0.52680878676E+03  0.12500468914E+03 0.  0.
         24    2    1    2    0    0 -0.71859617303E+02  0.21115371566E+03 -0.68180097024E+03  0.72176614696E+03  0.79649931844E+02 0.  0.
        -11    1    3    3    0    0  0.11706772743E+02 -0.19283452921E+02 -0.37830731264E+03  0.37897931722E+03  0.00000000000E+00 0.  1.
         12    1    3    3    0    0  0.14491338204E+03 -0.68543288363E+02 -0.88483456331E+03  0.89923871975E+03  0.00000000000E+00 0. -1.
        -11    1    5    5    0    0 -0.14844399286E+02  0.15035872117E+03 -0.38826790770E+03  0.41662941491E+03  0.00000000000E+00 0.  1.
         12    1    5    5    0    0 -0.57015218017E+02  0.60794994496E+02 -0.29353306254E+03  0.30513673205E+03  0.00000000000E+00 0. -1.
          5    1    4    4  502    0  0.35011017993E+02 -0.91327763137E+02  0.44907310442E+03  0.45962514598E+03  0.47000000000E+01 0.  1.
         -5    1    4    4    0  502 -0.25236841177E+02 -0.43195341325E+02  0.44596142476E+02  0.67183640780E+02  0.47000000000E+01 0.  1.
          1    1    1    2  503    0 -0.90954511451E+02 -0.99750562905E+01 -0.16698640682E+04  0.16723690475E+04  0.00000000000E+00 0. -1.
         -2    1    1    2    0  501 -0.35802028421E+01  0.21171186374E+02  0.67007001766E+03  0.67041395089E+03  0.00000000000E+00 0.  1.
<mgrwt>
<rscale>  0 0.44325240E+02</rscale>
<asrwt>0</asrwt>
<pdfrwt beam="2">  1        2 0.53828261E+00 0.91502783E+02</pdfrwt>
<pdfrwt beam="1">  1       -1 0.17783150E+00 0.21471772E+02</pdfrwt>
<totfact> 0.41423395E-01</totfact>
</mgrwt>
</event>
<event>
13    1  0.1675423E-008  0.2497159E+03  0.7546771E-02  0.1208272E+00
          2   -1    0    0  502    0  0.00000000000E+00  0.00000000000E+00  0.31212720180E+04  0.31212720180E+04  0.00000000000E+00 0. -1.
          2   -1    0    0  503    0 -0.00000000000E+00 -0.00000000000E+00 -0.19366750193E+03  0.19366750193E+03  0.00000000000E+00 0. -1.
         24    2    1    2    0    0  0.13242202714E+03  0.14034243798E+03  0.24809307034E+03  0.32486128005E+03  0.82177165660E+02 0.  0.
         25    2    1    2    0    0 -0.12600709140E+03 -0.24106488138E+03  0.49568530519E+03  0.57906675630E+03  0.12499728939E+03 0.  0.
         24    2    1    2    0    0 -0.23554225363E+03  0.40593896147E+02  0.20997873495E+03  0.32862320073E+03  0.82305050123E+02 0.  0.
        -13    1    3    3    0    0  0.18159554833E+02  0.35730628890E+02  0.10860132263E+02  0.41525772062E+02  0.00000000000E+00 0.  1.
         14    1    3    3    0    0  0.11426247230E+03  0.10461180909E+03  0.23723293808E+03  0.28333550799E+03  0.00000000000E+00 0. -1.
        -13    1    5    5    0    0 -0.78614449353E+02  0.65097743631E+00  0.11975019548E+03  0.14325070588E+03  0.00000000000E+00 0.  1.
         14    1    5    5    0    0 -0.15692780428E+03  0.39942918710E+02  0.90228539477E+02  0.18537249485E+03  0.00000000000E+00 0. -1.
          5    1    4    4  501    0 -0.77506949547E+01 -0.32622369236E+02  0.67323156066E+01  0.34521099638E+02  0.47000000000E+01 0. -1.
         -5    1    4    4    0  501 -0.11825639645E+03 -0.20844251215E+03  0.48895298958E+03  0.54454565666E+03  0.47000000000E+01 0. -1.
          1    1    1    2  502    0 -0.55414340175E+02 -0.61574031875E+02  0.15768158988E+04  0.15789903385E+04  0.00000000000E+00 0. -1.
          1    1    1    2  503    0  0.28454165807E+03  0.12170257913E+03  0.39703150675E+03  0.50339794428E+03  0.00000000000E+00 0. -1.
<mgrwt>
<rscale>  0 0.14382605E+03</rscale>
<asrwt>0</asrwt>
<pdfrwt beam="1">  1        2 0.45901056E+00 0.82837857E+02</pdfrwt>
<pdfrwt beam="2">  1        2 0.28480517E-01 0.24971593E+03</pdfrwt>
<totfact> 0.73562164E+01</totfact>
</mgrwt>
</event>
<event>
13    1  0.1675423E-008  0.5775855E+02  0.7546771E-02  0.1440230E+00
          2   -1    0    0  502    0  0.00000000000E+00  0.00000000000E+00  0.24588407472E+04  0.24588407472E+04  0.00000000000E+00 0. -1.
          2   -1    0    0  503    0 -0.00000000000E+00 -0.00000000000E+00 -0.13569860798E+04  0.13569860798E+04  0.00000000000E+00 0. -1.
         24    2    1    2    0    0 -0.15065678189E+03  0.98140597399E+02  0.11824374973E+04  0.11986191220E+04  0.78742122732E+02 0.  0.
         25    2    1    2    0    0  0.44898986340E+02 -0.30098199525E+02  0.79198845564E+03  0.80361295669E+03  0.12500499867E+03 0.  0.
         24    2    1    2    0    0  0.20644359528E+03 -0.53774838446E+02 -0.63847065876E+03  0.67904854267E+03  0.89170902850E+02 0.  0.
        -11    1    3    3    0    0  0.44669568910E+01  0.22952606878E+02  0.17201642114E+03  0.17359845912E+03  0.00000000000E+00 0.  1.
         12    1    3    3    0    0 -0.15512373878E+03  0.75187990521E+02  0.10104210761E+04  0.10250206629E+04  0.00000000000E+00 0. -1.
        -13    1    5    5    0    0  0.94714232488E+02 -0.69186939945E+02 -0.35907206574E+03  0.37774378471E+03  0.00000000000E+00 0.  1.
         14    1    5    5    0    0  0.11172936279E+03  0.15412101499E+02 -0.27939859303E+03  0.30130475796E+03  0.00000000000E+00 0. -1.
          5    1    4    4  501    0  0.50543084048E+02 -0.34251667188E+02  0.79277685930E+03  0.79513836449E+03  0.47000000000E+01 0.  1.
         -5    1    4    4    0  501 -0.56440977085E+01  0.41534676628E+01 -0.78840365235E+00  0.84745921959E+01  0.47000000000E+01 0.  1.
          1    1    1    2  502    0 -0.55726098854E+02 -0.14729119801E+02  0.44763438131E+03  0.45133012795E+03  0.00000000000E+00 0. -1.
          1    1    1    2  503    0 -0.44959700873E+02  0.46156037189E+00 -0.68173500799E+03  0.68321607773E+03  0.00000000000E+00 0. -1.
<mgrwt>
<rscale>  0 0.50960221E+02</rscale>
<asrwt>0</asrwt>
<pdfrwt beam="1">  1        2 0.36159423E+00 0.57758554E+02</pdfrwt>
<pdfrwt beam="2">  1        2 0.19955678E+00 0.44962070E+02</pdfrwt>
<totfact> 0.18350307E+01</totfact>
</mgrwt>
</event>
<event>
13    1  0.1675423E-008  0.7337810E+02  0.7546771E-02  0.1375322E+00
          2   -1    0    0  503    0  0.00000000000E+00  0.00000000000E+00  0.32979890238E+04  0.32979890238E+04  0.00000000000E+00 0. -1.
         -1   -1    0    0    0  501 -0.00000000000E+00 -0.00000000000E+00 -0.96811726366E+03  0.96811726366E+03  0.00000000000E+00 0.  1.
         24    2    1    2    0    0  0.50168143522E+02 -0.15389642055E+03  0.10145806151E+04  0.10308618399E+04  0.84269552918E+02 0.  0.
         25    2    1    2    0    0 -0.82124897297E+02  0.71509546578E+02 -0.19639674822E+03  0.25699241677E+03  0.12496121621E+03 0.  0.
         24    2    1    2    0    0 -0.33990135402E+01  0.20915794162E+01  0.57326243426E+03  0.57883981624E+03  0.80061141224E+02 0.  0.
        -11    1    5    5    0    0 -0.39888171778E+02  0.13025970327E+02  0.31538576788E+03  0.31816493322E+03  0.00000000000E+00 0.  1.
         12    1    5    5    0    0  0.36489158238E+02 -0.10934390911E+02  0.25787666638E+03  0.26067488302E+03  0.00000000000E+00 0. -1.
        -13    1    3    3    0    0 -0.20676009854E+02 -0.40412634920E+02  0.18051360029E+03  0.18613392580E+03  0.00000000000E+00 0.  1.
         14    1    3    3    0    0  0.70844153375E+02 -0.11348378564E+03  0.83406701478E+03  0.84472791408E+03  0.00000000000E+00 0. -1.
          5    1    4    4  502    0 -0.57484090521E+02  0.48144432684E+02 -0.20624878018E+02  0.77908809867E+02  0.47000000000E+01 0.  1.
         -5    1    4    4    0  502 -0.24640806776E+02  0.23365113894E+02 -0.17577187021E+03  0.17908360690E+03  0.47000000000E+01 0.  1.
          1    1    1    2  503    0  0.57905726096E+02  0.10458755122E+02  0.16665551314E+04  0.16675936150E+04  0.00000000000E+00 0. -1.
         -2    1    1    2    0  501 -0.22549958780E+02  0.69836539438E+02 -0.72812967239E+03  0.73181859959E+03  0.00000000000E+00 0.  1.
<mgrwt>
<rscale>  0 0.65709685E+02</rscale>
<asrwt>0</asrwt>
<pdfrwt beam="1">  1        2 0.48499838E+00 0.58842660E+02</pdfrwt>
<pdfrwt beam="2">  1       -1 0.14237019E+00 0.73378102E+02</pdfrwt>
<totfact> 0.11833366E+00</totfact>
</mgrwt>
</event>
<event>
13    1  0.1675423E-008  0.9282184E+02  0.7546771E-02  0.1309535E+00
          2   -1    0    0  502    0  0.00000000000E+00  0.00000000000E+00  0.46388269120E+04  0.46388269120E+04  0.00000000000E+00 0. -1.
          2   -1    0    0  503    0 -0.00000000000E+00 -0.00000000000E+00 -0.42331513045E+04  0.42331513045E+04  0.00000000000E+00 0. -1.
         24    2    1    2    0    0  0.22903158160E+04 -0.50053326408E+03  0.97630224097E+03  0.25406844202E+04  0.76362110383E+02 0.  0.
         25    2    1    2    0    0 -0.14087095147E+04  0.74636280572E+03 -0.95519011527E+03  0.18626687064E+04  0.12500647490E+03 0.  0.
         24    2    1    2    0    0 -0.87142435044E+03 -0.71255337729E+02 -0.19367263684E+03  0.89996599975E+03  0.89285994207E+02 0.  0.
        -11    1    5    5    0    0 -0.53203044620E+03 -0.55746655136E+02 -0.75456574515E+02  0.54023863235E+03  0.00000000000E+00 0.  1.
         12    1    5    5    0    0 -0.33939390424E+03 -0.15508682593E+02 -0.11821606233E+03  0.35972736741E+03  0.00000000000E+00 0. -1.
        -11    1    3    3    0    0  0.16000821648E+04 -0.37209922652E+03  0.65431721473E+03  0.17682906396E+04  0.00000000000E+00 0.  1.
         12    1    3    3    0    0  0.69023365121E+03 -0.12843403756E+03  0.32198502624E+03  0.77239378065E+03  0.00000000000E+00 0. -1.
          5    1    4    4  501    0 -0.41633643275E+03  0.15937826551E+03 -0.25032602150E+03  0.51129508485E+03  0.47000000000E+01 0. -1.
         -5    1    4    4    0  501 -0.99237308199E+03  0.58698454021E+03 -0.70486409376E+03  0.13513736215E+04  0.47000000000E+01 0. -1.
          1    1    1    2  502    0 -0.53860811883E+01 -0.81922458424E+02  0.20711944123E+04  0.20728209263E+04  0.00000000000E+00 0. -1.
          1    1    1    2  503    0 -0.47958696338E+01 -0.92651745483E+02 -0.14929582936E+04  0.14958381639E+04  0.00000000000E+00 0. -1.
<mgrwt>
<rscale>  0 0.87296106E+02</rscale>
<asrwt>0</asrwt>
<pdfrwt beam="1">  1        2 0.68218043E+00 0.82099324E+02</pdfrwt>
<pdfrwt beam="2">  1        2 0.62252225E+00 0.92821837E+02</pdfrwt>
<totfact> 0.20858241E-02</totfact>
</mgrwt>
</event>
<event>
13    1  0.1675423E-008  0.9920451E+02  0.7546771E-02  0.1450178E+00
         -1   -1    0    0    0  501 -0.00000000000E+00  0.00000000000E+00  0.18273537964E+04  0.18273537964E+04  0.00000000000E+00 0.  1.
          2   -1    0    0  503    0  0.00000000000E+00 -0.00000000000E+00 -0.74223495291E+03  0.74223495291E+03  0.00000000000E+00 0. -1.
         24    2    1    2    0    0  0.43029853180E+02  0.80277355587E+02 -0.12648531199E+03  0.17500737541E+03  0.79580306686E+02 0.  0.
         25    2    1    2    0    0 -0.29894058066E+02 -0.22079655539E+03 -0.30990258532E+02  0.25735257899E+03  0.12500072083E+03 0.  0.
         24    2    1    2    0    0  0.90234218474E+01  0.55147968906E+00  0.21893853311E+03  0.23373436759E+03  0.81338472066E+02 0.  0.
        -11    1    5    5    0    0  0.85925957040E+01  0.40724441578E+02  0.10761570603E+03  0.11538393748E+03  0.00000000000E+00 0.  1.
         12    1    5    5    0    0  0.43082614340E+00 -0.40172961889E+02  0.11132282708E+03  0.11835043011E+03  0.00000000000E+00 0. -1.
        -13    1    3    3    0    0  0.60437691103E+02  0.75487854314E+02 -0.81256618309E+02  0.12630822884E+03  0.00000000000E+00 0.  1.
         14    1    3    3    0    0 -0.17407837923E+02  0.47895012738E+01 -0.45228693686E+02  0.48699146565E+02  0.00000000000E+00 0. -1.
          5    1    4    4  502    0 -0.50434196293E+02 -0.64732326501E+02 -0.53789120136E+02  0.98230553776E+02  0.47000000000E+01 0. -1.
         -5    1    4    4    0  502  0.20540138227E+02 -0.15606422889E+03  0.22798861605E+02  0.15912202521E+03  0.47000000000E+01 0. -1.
          1    1    1    2  503    0 -0.12561440690E+02  0.20819615922E+02 -0.43714017247E+03  0.43781591633E+03  0.00000000000E+00 0. -1.
         -2    1    1    2    0  501 -0.95977762714E+01  0.11914810419E+03  0.14607960534E+04  0.14656785110E+04  0.00000000000E+00 0.  1.
<mgrwt>
<rscale>  0 0.49114282E+02</rscale>
<asrwt>0</asrwt>
<pdfrwt beam="2">  1        2 0.10915220E+00 0.24315555E+02</pdfrwt>
<pdfrwt beam="1">  1       -1 0.26872850E+00 0.99204511E+02</pdfrwt>
<totfact> 0.34723291E+00</totfact>
</mgrwt>
</event>
<event>
13    1  0.1675423E-008  0.1218262E+03  0.7546771E-02  0.1324860E+00
          2   -1    0    0  502    0  0.00000000000E+00  0.00000000000E+00  0.23116670651E+04  0.23116670651E+04  0.00000000000E+00 0. -1.
          2   -1    0    0  503    0 -0.00000000000E+00 -0.00000000000E+00 -0.16075065037E+04  0.16075065037E+04  0.00000000000E+00 0. -1.
         24    2    1    2    0    0  0.84951492432E+02  0.50762660470E+02  0.23632149743E+03  0.26847262753E+03  0.80225294138E+02 0.  0.
         25    2    1    2    0    0 -0.17286111599E+03  0.12109337966E-01 -0.74002128001E+03  0.77015100130E+03  0.12498041596E+03 0.  0.
         24    2    1    2    0    0  0.20274816174E+02  0.10472286082E+03 -0.49664331528E+02  0.14330169280E+03  0.81797821390E+02 0.  0.
        -11    1    5    5    0    0 -0.30003331889E+02  0.25810592556E+02 -0.23966741636E+02  0.46268686140E+02  0.00000000000E+00 0.  1.
         12    1    5    5    0    0  0.50278148063E+02  0.78912268263E+02 -0.25697589893E+02  0.97033006659E+02  0.00000000000E+00 0. -1.
        -13    1    3    3    0    0  0.28199746564E+02 -0.63950398923E+01  0.13979486104E+03  0.14275407320E+03  0.00000000000E+00 0.  1.
         14    1    3    3    0    0  0.56751745868E+02  0.57157700362E+02  0.96526636387E+02  0.12571855433E+03  0.00000000000E+00 0. -1.
          5    1    4    4  501    0 -0.17402305000E+03 -0.62004228539E+01 -0.74188135557E+03  0.76205807057E+03  0.47000000000E+01 0.  1.
         -5    1    4    4    0  501  0.11619340090E+01  0.62125321919E+01  0.18600755568E+01  0.80929307395E+01  0.47000000000E+01 0.  1.
          1    1    1    2  502    0  0.67976434709E+02 -0.10098226732E+03  0.19945240448E+04  0.19982353163E+04  0.00000000000E+00 0. -1.
          1    1    1    2  503    0 -0.34162732123E+00 -0.54515363311E+02 -0.73699936938E+03  0.73901293088E+03  0.00000000000E+00 0. -1.
<mgrwt>
<rscale>  0 0.81495586E+02</rscale>
<asrwt>0</asrwt>
<pdfrwt beam="1">  1        2 0.33995104E+00 0.12182621E+03</pdfrwt>
<pdfrwt beam="2">  1        2 0.23639802E+00 0.54516434E+02</pdfrwt>
<totfact> 0.14709360E+01</totfact>
</mgrwt>
</event>
<event>
13    1  0.1675423E-008  0.1913201E+03  0.7546771E-02  0.1256064E+00
          2   -1    0    0  503    0  0.00000000000E+00  0.00000000000E+00  0.29165538320E+04  0.29165538320E+04  0.00000000000E+00 0. -1.
          2   -1    0    0  502    0 -0.00000000000E+00 -0.00000000000E+00 -0.16417873502E+04  0.16417873502E+04  0.00000000000E+00 0. -1.
         24    2    1    2    0    0  0.14419652734E+03 -0.12059278085E+03  0.25681519909E+03  0.32818826343E+03  0.80113871991E+02 0.  0.
         25    2    1    2    0    0 -0.65930629942E+02 -0.20646085040E+03 -0.64276616194E+03  0.68974294424E+03  0.12499623787E+03 0.  0.
         24    2    1    2    0    0 -0.55736398627E+02  0.29259981631E+02 -0.10393753872E+01  0.10119543471E+03  0.79225898844E+02 0.  0.
        -11    1    3    3    0    0  0.52159770088E+02 -0.76581231371E+02  0.72995039258E+02  0.11795593402E+03  0.00000000000E+00 0.  1.
         12    1    3    3    0    0  0.92036757248E+02 -0.44011549478E+02  0.18382015983E+03  0.21023232941E+03  0.00000000000E+00 0. -1.
        -11    1    5    5    0    0 -0.71454829452E+02  0.70019367914E+01  0.85595191427E+01  0.72305498677E+02  0.00000000000E+00 0.  1.
         12    1    5    5    0    0  0.15718430826E+02  0.22258044840E+02 -0.95988945299E+01  0.28889936031E+02  0.00000000000E+00 0. -1.
          5    1    4    4  501    0  0.23121910572E+02 -0.58657893966E+02 -0.85398537362E+02  0.10625615962E+03  0.47000000000E+01 0. -1.
         -5    1    4    4    0  501 -0.89052540515E+02 -0.14780295643E+03 -0.55736762458E+03  0.58348678462E+03  0.47000000000E+01 0. -1.
          1    1    1    2  502    0  0.65202208001E+02  0.10955296124E+02 -0.87866335807E+03  0.88114734480E+03  0.00000000000E+00 0. -1.
          1    1    1    2  503    0 -0.87731706767E+02  0.28683835349E+03  0.25404201781E+04  0.25580671951E+04  0.00000000000E+00 0. -1.
<mgrwt>
<rscale>  0 0.11246933E+03</rscale>
<asrwt>0</asrwt>
<pdfrwt beam="1">  1        2 0.42890498E+00 0.19132010E+03</pdfrwt>
<pdfrwt beam="2">  1        2 0.24143932E+00 0.66116159E+02</pdfrwt>
<totfact> 0.64256559E+00</totfact>
</mgrwt>
</event>
<event>
13    1  0.1675423E-008  0.1426745E+03  0.7546771E-02  0.1318844E+00
         -1   -1    0    0    0  501  0.00000000000E+00  0.00000000000E+00  0.32885932199E+03  0.32885932199E+03  0.00000000000E+00 0.  1.
         -3   -1    0    0    0  502 -0.00000000000E+00 -0.00000000000E+00 -0.18219133148E+04  0.18219133148E+04  0.00000000000E+00 0.  1.
         24    2    1    2    0    0 -0.50179674920E+02  0.36972770466E+02 -0.10297274669E+03  0.14495792186E+03  0.80773925355E+02 0.  0.
         25    2    1    2    0    0 -0.76624591393E+02 -0.20365003909E+03  0.20002690825E+01  0.25094659131E+03  0.12500209672E+03 0.  0.
         24    2    1    2    0    0 -0.62302291345E+02  0.61739637669E+02 -0.34959293685E+03  0.36989710209E+03  0.83158200286E+02 0.  0.
        -11    1    3    3    0    0 -0.63996271287E+02  0.24445989426E+02 -0.10585270613E+03  0.12608697210E+03  0.00000000000E+00 0.  1.
         12    1    3    3    0    0  0.13816596367E+02  0.12526781040E+02  0.28799594411E+01  0.18870949759E+02  0.00000000000E+00 0. -1.
        -13    1    5    5    0    0 -0.66926855319E+02  0.10412004254E+02 -0.22762158607E+03  0.23748515794E+03  0.00000000000E+00 0.  1.
         14    1    5    5    0    0  0.46245639741E+01  0.51327633414E+02 -0.12197135078E+03  0.13241194416E+03  0.00000000000E+00 0. -1.
          5    1    4    4  503    0 -0.46073076978E+02 -0.20477984033E+03 -0.22956004398E+02  0.21120269781E+03  0.47000000000E+01 0. -1.
         -5    1    4    4    0  503 -0.30551514415E+02  0.11298012368E+01  0.24956273481E+02  0.39743893492E+02  0.47000000000E+01 0. -1.
         -2    1    1    2    0  501  0.34738573107E+02  0.34717600268E+02  0.16165135932E+03  0.16894745397E+03  0.00000000000E+00 0.  1.
         -4    1    1    2    0  502  0.15436798455E+03  0.70220030686E+02 -0.12041399377E+04  0.12160235676E+04  0.00000000000E+00 0.  1.
<mgrwt>
<rscale>  0 0.83708801E+02</rscale>
<asrwt>0</asrwt>
<pdfrwt beam="1">  1       -1 0.48361665E-01 0.49112933E+02</pdfrwt>
<pdfrwt beam="2">  1       -3 0.26792843E+00 0.14267450E+03</pdfrwt>
<totfact> 0.13568226E+00</totfact>
</mgrwt>
</event>
<event>
13    1  0.1675423E-008  0.8417765E+02  0.7546771E-02  0.1464425E+00
          2   -1    0    0  503    0  0.00000000000E+00  0.00000000000E+00  0.12073251375E+04  0.12073251375E+04  0.00000000000E+00 0. -1.
          2   -1    0    0  502    0 -0.00000000000E+00 -0.00000000000E+00 -0.28312110048E+04  0.28312110048E+04  0.00000000000E+00 0. -1.
         24    2    1    2    0    0  0.30366520504E+02 -0.58685080610E+01  0.54492200105E+02  0.10294403322E+03  0.81679306732E+02 0.  0.
         25    2    1    2    0    0  0.71236941469E+02 -0.22047590410E+02 -0.13343138296E+04  0.13422324064E+04  0.12503455022E+03 0.  0.
         24    2    1    2    0    0  0.17683858850E+01  0.24689858035E+02 -0.31782101784E+02  0.88121307034E+02  0.78374399398E+02 0.  0.
        -11    1    3    3    0    0  0.47788121338E+02  0.22570819731E+02  0.25179118093E+02  0.58541732399E+02  0.00000000000E+00 0.  1.
         12    1    3    3    0    0 -0.17421600834E+02 -0.28439327792E+02  0.29313082011E+02  0.44402300817E+02  0.00000000000E+00 0. -1.
        -13    1    5    5    0    0  0.10217874409E+02  0.38605742388E+02  0.11763763179E+02  0.41631651743E+02  0.00000000000E+00 0.  1.
         14    1    5    5    0    0 -0.84494885241E+01 -0.13915884353E+02 -0.43545864963E+02  0.46489655290E+02  0.00000000000E+00 0. -1.
          5    1    4    4  501    0  0.10394192164E+03 -0.28357652237E+02 -0.86154053915E+03  0.86826394035E+03  0.47000000000E+01 0.  1.
         -5    1    4    4    0  501 -0.32704980171E+02  0.63100618270E+01 -0.47277329045E+03  0.47396846601E+03  0.47000000000E+01 0.  1.
          1    1    1    2  502    0  0.26737995197E+01  0.25689982449E+02 -0.14059622616E+04  0.14061994899E+04  0.00000000000E+00 0. -1.
          1    1    1    2  503    0 -0.10604564738E+03 -0.22463742013E+02  0.10936801257E+04  0.10990389058E+04  0.00000000000E+00 0. -1.
<mgrwt>
<rscale>  0 0.46628357E+02</rscale>
<asrwt>0</asrwt>
<pdfrwt beam="1">  1        2 0.17754781E+00 0.84177653E+02</pdfrwt>
<pdfrwt beam="2">  1        2 0.41635456E+00 0.25828751E+02</pdfrwt>
<totfact> 0.15674680E+01</totfact>
</mgrwt>
</event>
<event>
13    1  0.1675423E-008  0.1021115E+03  0.7546771E-02  0.1288748E+00
          2   -1    0    0  502    0  0.00000000000E+00  0.00000000000E+00  0.33355995604E+03  0.33355995604E+03  0.00000000000E+00 0. -1.
          2   -1    0    0  503    0 -0.00000000000E+00 -0.00000000000E+00 -0.34223694092E+04  0.34223694092E+04  0.00000000000E+00 0. -1.
         24    2    1    2    0    0  0.65192223875E+02  0.18365723727E+02  0.50062597825E+02  0.11959305365E+03  0.84905293825E+02 0.  0.
         25    2    1    2    0    0 -0.82846296175E+02 -0.23478194558E+03 -0.11556997960E+04  0.11888065508E+04  0.12503170026E+03 0.  0.
         24    2    1    2    0    0 -0.41748406448E+02  0.63451608044E+02 -0.23660918065E+03  0.26256203862E+03  0.84769592150E+02 0.  0.
        -11    1    5    5    0    0 -0.78886781956E+01  0.83065971673E+01 -0.16748068114E+03  0.16787200289E+03  0.00000000000E+00 0.  1.
         12    1    5    5    0    0 -0.33859728252E+02  0.55145010876E+02 -0.69128499511E+02  0.94690035730E+02  0.00000000000E+00 0. -1.
        -13    1    3    3    0    0 -0.54389169625E+00 -0.43279319475E+01  0.49859242508E+02  0.50049684081E+02  0.00000000000E+00 0.  1.
         14    1    3    3    0    0  0.65736115571E+02  0.22693655675E+02  0.20335531714E+00  0.69543369573E+02  0.00000000000E+00 0. -1.
          5    1    4    4  501    0 -0.27004414276E+02 -0.13099516350E+02 -0.41761426670E+02  0.51642448397E+02  0.47000000000E+01 0. -1.
         -5    1    4    4    0  501 -0.55841881899E+02 -0.22168242923E+03 -0.11139383693E+04  0.11371641024E+04  0.47000000000E+01 0. -1.
          1    1    1    2  502    0 -0.14413961164E+02  0.10075028603E+03  0.20628594271E+03  0.23002667795E+03  0.00000000000E+00 0. -1.
          1    1    1    2  503    0  0.73816439912E+02  0.52214327779E+02 -0.19528490171E+04  0.19549410442E+04  0.00000000000E+00 0. -1.
<mgrwt>
<rscale>  0 0.96086420E+02</rscale>
<asrwt>0</asrwt>
<pdfrwt beam="1">  1        2 0.49052936E-01 0.10211152E+03</pdfrwt>
<pdfrwt beam="2">  1        2 0.50328961E+00 0.90416828E+02</pdfrwt>
<totfact> 0.27187151E+01</totfact>
</mgrwt>
</event>
<event>
13    1  0.1675423E-008  0.1219759E+03  0.7546771E-02  0.1305440E+00
          2   -1    0    0  503    0  0.00000000000E+00  0.00000000000E+00  0.29553196944E+04  0.29553196944E+04  0.00000000000E+00 0. -1.
          2   -1    0    0  502    0 -0.00000000000E+00 -0.00000000000E+00 -0.10815447409E+04  0.10815447409E+04  0.00000000000E+00 0. -1.
         24    2    1    2    0    0 -0.44593825883E+01 -0.54323825754E+02 -0.22454972492E+03  0.24331836563E+03  0.76225218639E+02 0.  0.
         25    2    1    2    0    0  0.10699938989E+03  0.21264268047E+03  0.69427816196E+03  0.74452179130E+03  0.12499901020E+03 0.  0.
         24    2    1    2    0    0  0.10418867167E+03 -0.19392488138E+03 -0.11501303483E+03  0.26031801006E+03  0.77944398515E+02 0.  0.
        -13    1    5    5    0    0 -0.77693157794E+01 -0.42655553993E+01  0.42841206421E+01  0.98443344225E+01  0.00000000000E+00 0.  1.
         14    1    5    5    0    0  0.11195798745E+03 -0.18965932598E+03 -0.11929715547E+03  0.25047367564E+03  0.00000000000E+00 0. -1.
        -13    1    3    3    0    0  0.17657762507E+02  0.65958321173E+01 -0.15348341802E+02  0.24307882963E+02  0.00000000000E+00 0.  1.
         14    1    3    3    0    0 -0.22117145095E+02 -0.60919657872E+02 -0.20920138312E+03  0.21901048267E+03  0.00000000000E+00 0. -1.
          5    1    4    4  501    0  0.91625907012E+02  0.48912728421E+02  0.24976838536E+03  0.27054407804E+03  0.47000000000E+01 0. -1.
         -5    1    4    4    0  501  0.15373482881E+02  0.16372995205E+03  0.44450977660E+03  0.47397771326E+03  0.47000000000E+01 0. -1.
          1    1    1    2  502    0 -0.15031179239E+03  0.36251463572E+01 -0.62542352256E+03  0.64324284620E+03  0.00000000000E+00 0. -1.
          1    1    1    2  503    0 -0.56416886590E+02  0.31980880302E+02  0.21444830738E+04  0.21454634222E+04  0.00000000000E+00 0. -1.
<mgrwt>
<rscale>  0 0.88939597E+02</rscale>
<asrwt>0</asrwt>
<pdfrwt beam="1">  1        2 0.43460584E+00 0.64850920E+02</pdfrwt>
<pdfrwt beam="2">  1        2 0.15905070E+00 0.12197594E+03</pdfrwt>
<totfact> 0.13312760E+01</totfact>
</mgrwt>
</event>
<event>
13    1  0.1675423E-008  0.6925115E+02  0.7546771E-02  0.1406054E+00
          2   -1    0    0  503    0  0.00000000000E+00  0.00000000000E+00  0.27661884275E+04  0.27661884275E+04  0.00000000000E+00 0. -1.
          2   -1    0    0  502    0 -0.00000000000E+00 -0.00000000000E+00 -0.12703657309E+04  0.12703657309E+04  0.00000000000E+00 0. -1.
         24    2    1    2    0    0 -0.14178114559E+03  0.79754646440E+03  0.15163434679E+04  0.17210237820E+04  0.80268857800E+02 0.  0.
         25    2    1    2    0    0  0.87891923203E+02 -0.43944955745E+03 -0.28624404182E+03  0.54627285545E+03  0.12504989973E+03 0.  0.
         24    2    1    2    0    0  0.16572389858E+03 -0.38425567416E+03  0.36123686976E+03  0.55862365747E+03  0.80321111336E+02 0.  0.
        -11    1    5    5    0    0  0.64881494831E+02 -0.20194205082E+03  0.22754451177E+03  0.31107347219E+03  0.00000000000E+00 0.  1.
         12    1    5    5    0    0  0.10084240375E+03 -0.18231362333E+03  0.13369235799E+03  0.24755018528E+03  0.00000000000E+00 0. -1.
        -13    1    3    3    0    0 -0.66153110242E+02  0.21106543377E+03  0.46041975503E+03  0.51079467709E+03  0.00000000000E+00 0.  1.
         14    1    3    3    0    0 -0.75628035350E+02  0.58648103062E+03  0.10559237129E+04  0.12102291049E+04  0.00000000000E+00 0. -1.
          5    1    4    4  501    0  0.24048764522E+02 -0.98313508326E+02 -0.13212907952E+03  0.16650547333E+03  0.47000000000E+01 0. -1.
         -5    1    4    4    0  501  0.63843158681E+02 -0.34113604912E+03 -0.15411496231E+03  0.37976738213E+03  0.47000000000E+01 0. -1.
          1    1    1    2  502    0 -0.63164633545E+02  0.28300893519E+02 -0.65016912855E+03  0.65384295303E+03  0.00000000000E+00 0. -1.
          1    1    1    2  503    0 -0.48670042643E+02 -0.21421263128E+01  0.55465552930E+03  0.55679091043E+03  0.00000000000E+00 0. -1.
<mgrwt>
<rscale>  0 0.58083728E+02</rscale>
<asrwt>0</asrwt>
<pdfrwt beam="1">  1        2 0.40679242E+00 0.48717161E+02</pdfrwt>
<pdfrwt beam="2">  1        2 0.18681849E+00 0.69251150E+02</pdfrwt>
<totfact> 0.14257386E+01</totfact>
</mgrwt>
</event>
<event>
13    1  0.1675423E-008  0.1011028E+03  0.7546771E-02  0.1448391E+00
          4   -1    0    0  503    0 -0.00000000000E+00  0.00000000000E+00  0.29396296581E+03  0.29396296581E+03  0.00000000000E+00 0. -1.
          2   -1    0    0  502    0  0.00000000000E+00 -0.00000000000E+00 -0.22563111779E+04  0.22563111779E+04  0.00000000000E+00 0. -1.
         24    2    1    2    0    0  0.15978184234E+01  0.47614804399E+01 -0.41725212989E+03  0.42499030514E+03  0.80574157422E+02 0.  0.
         25    2    1    2    0    0 -0.37389904757E+02  0.11423859893E+03  0.14186360448E+03  0.22404802640E+03  0.12499509348E+03 0.  0.
         24    2    1    2    0    0  0.28904024564E+01  0.22397930351E+01 -0.93871888943E+02  0.12378391628E+03  0.80604933446E+02 0.  0.
        -13    1    5    5    0    0 -0.34015390541E+02  0.16035042659E+02 -0.27459872717E+02  0.46564084833E+02  0.00000000000E+00 0.  1.
         14    1    5    5    0    0  0.36905792997E+02 -0.13795249624E+02 -0.66412016225E+02  0.77219831443E+02  0.00000000000E+00 0. -1.
        -13    1    3    3    0    0  0.26088439554E+02  0.33291899305E+02 -0.19021741668E+03  0.19486308744E+03  0.00000000000E+00 0.  1.
         14    1    3    3    0    0 -0.24490621131E+02 -0.28530418865E+02 -0.22703471321E+03  0.23012721770E+03  0.00000000000E+00 0. -1.
          5    1    4    4  501    0  0.14025925124E+02 -0.65580937994E+01 -0.13154337401E+02  0.20853339357E+02  0.47000000000E+01 0. -1.
         -5    1    4    4    0  501 -0.51415829880E+02  0.12079669273E+03  0.15501794188E+03  0.20319468704E+03  0.47000000000E+01 0. -1.
          1    1    1    2  502    0  0.10640857811E+02 -0.13066903581E+03 -0.16810875080E+04  0.16861918142E+04  0.00000000000E+00 0. -1.
          3    1    1    2  503    0  0.22260826066E+02  0.94291634051E+01  0.87999710271E+02  0.91260081675E+02  0.00000000000E+00 0. -1.
<mgrwt>
<rscale>  0 0.49438938E+02</rscale>
<asrwt>0</asrwt>
<pdfrwt beam="2">  1        2 0.33181048E+00 0.10110282E+03</pdfrwt>
<pdfrwt beam="1">  1        4 0.43229847E-01 0.24175473E+02</pdfrwt>
<totfact> 0.15092084E+01</totfact>
</mgrwt>
</event>
<event>
13    1  0.1675423E-008  0.1434113E+03  0.7546771E-02  0.1247418E+00
          4   -1    0    0  503    0 -0.00000000000E+00  0.00000000000E+00  0.53946865955E+03  0.53946865955E+03  0.00000000000E+00 0. -1.
          2   -1    0    0  502    0  0.00000000000E+00 -0.00000000000E+00 -0.19034030896E+04  0.19034030896E+04  0.00000000000E+00 0. -1.
         24    2    1    2    0    0 -0.50329122500E+03 -0.12127293192E+03 -0.71387370935E+03  0.88593805118E+03  0.85213710494E+02 0.  0.
         25    2    1    2    0    0  0.18557160348E+03  0.22165220679E+03  0.13134632168E+03  0.34123859613E+03  0.12500160991E+03 0.  0.
         24    2    1    2    0    0  0.12107326437E+03 -0.18746459488E+03 -0.20896319100E+03  0.31576867963E+03  0.79009709281E+02 0.  0.
        -11    1    5    5    0    0 -0.22146799520E+01 -0.42778969598E+02 -0.62633060030E+02  0.75880466893E+02  0.00000000000E+00 0.  1.
         12    1    5    5    0    0  0.12328794432E+03 -0.14468562528E+03 -0.14633013097E+03  0.23988821273E+03  0.00000000000E+00 0. -1.
        -13    1    3    3    0    0 -0.16668681141E+03 -0.55693308241E+02 -0.30772839063E+03  0.35437691810E+03  0.00000000000E+00 0.  1.
         14    1    3    3    0    0 -0.33660441358E+03 -0.65579623679E+02 -0.40614531872E+03  0.53156113308E+03  0.00000000000E+00 0. -1.
          5    1    4    4  501    0 -0.17373350638E+02  0.33134489866E+02  0.19819761237E+02  0.42598599350E+02  0.47000000000E+01 0. -1.
         -5    1    4    4    0  501  0.20294495412E+03  0.18851771692E+03  0.11152656044E+03  0.29863999678E+03  0.47000000000E+01 0. -1.
          1    1    1    2  502    0  0.10136879657E+03  0.99903810710E+02 -0.71442284360E+03  0.72846166939E+03  0.00000000000E+00 0. -1.
          3    1    1    2  503    0  0.95277560571E+02 -0.12818490698E+02  0.14197899218E+03  0.17146475286E+03  0.00000000000E+00 0. -1.
<mgrwt>
<rscale>  0 0.11741799E+03</rscale>
<asrwt>0</asrwt>
<pdfrwt beam="2">  1        2 0.27991222E+00 0.14341128E+03</pdfrwt>
<pdfrwt beam="1">  1        4 0.79333626E-01 0.96135983E+02</pdfrwt>
<totfact> 0.72501888E+00</totfact>
</mgrwt>
</event>
<event>
13    1  0.1675423E-008  0.4655160E+02  0.7546771E-02  0.1542931E+00
          2   -1    0    0  502    0  0.00000000000E+00  0.00000000000E+00  0.31849615171E+03  0.31849615171E+03  0.00000000000E+00 0. -1.
          2   -1    0    0  503    0 -0.00000000000E+00 -0.00000000000E+00 -0.20766823448E+04  0.20766823448E+04  0.00000000000E+00 0. -1.
         24    2    1    2    0    0  0.11038232126E+03  0.22514770016E+03 -0.80658328426E+02  0.27342477799E+03  0.73345753364E+02 0.  0.
         25    2    1    2    0    0 -0.27558789916E+02 -0.19981463333E+03 -0.58764917019E+03  0.63375117696E+03  0.12499452981E+03 0.  0.
         24    2    1    2    0    0 -0.13293146669E+02 -0.98763234353E+01 -0.13956062412E+03  0.16333596517E+03  0.83229923700E+02 0.  0.
        -11    1    3    3    0    0  0.28980225845E+02  0.93041096277E+01 -0.65925293199E+01  0.31142918759E+02  0.00000000000E+00 0.  1.
         12    1    3    3    0    0  0.81402095420E+02  0.21584359054E+03 -0.74065799106E+02  0.24228185923E+03  0.00000000000E+00 0. -1.
        -11    1    5    5    0    0  0.33768258248E+02  0.41674824200E+01 -0.73747228444E+02  0.81217712835E+02  0.00000000000E+00 0.  1.
         12    1    5    5    0    0 -0.47061404917E+02 -0.14043805855E+02 -0.65813395679E+02  0.82118252335E+02  0.00000000000E+00 0. -1.
          5    1    4    4  501    0  0.32726578963E+02 -0.85451826135E+02 -0.13634061680E+03  0.16426776114E+03  0.47000000000E+01 0.  1.
         -5    1    4    4    0  501 -0.60285368880E+02 -0.11436280720E+03 -0.45130855339E+03  0.46948341583E+03  0.47000000000E+01 0.  1.
          1    1    1    2  502    0 -0.46472352791E+02 -0.84764885127E+00  0.18412200007E+03  0.18989815426E+03  0.00000000000E+00 0. -1.
          1    1    1    2  503    0 -0.23058031888E+02 -0.14609094543E+02 -0.11344400704E+04  0.11347684221E+04  0.00000000000E+00 0. -1.
<mgrwt>
<rscale>  0 0.35646813E+02</rscale>
<asrwt>0</asrwt>
<pdfrwt beam="1">  1        2 0.46837669E-01 0.46551596E+02</pdfrwt>
<pdfrwt beam="2">  1        2 0.30539446E+00 0.27296492E+02</pdfrwt>
<totfact> 0.16167966E+02</totfact>
</mgrwt>
</event>
<event>
13    1  0.1675423E-008  0.1260652E+03  0.7546771E-02  0.1243708E+00
          2   -1    0    0  503    0  0.00000000000E+00  0.00000000000E+00  0.17433994354E+04  0.17433994354E+04  0.00000000000E+00 0. -1.
          2   -1    0    0  502    0 -0.00000000000E+00 -0.00000000000E+00 -0.91004600878E+03  0.91004600878E+03  0.00000000000E+00 0. -1.
         24    2    1    2    0    0 -0.11468749643E+02 -0.53549987416E+02  0.56632030471E+02  0.11204904014E+03  0.79678523775E+02 0.  0.
         25    2    1    2    0    0  0.83077080500E+02  0.24953210582E+03  0.19290942329E+03  0.34928634517E+03  0.12497532631E+03 0.  0.
         24    2    1    2    0    0 -0.21924607511E+02  0.37228472615E+02 -0.40824399256E+03  0.41881560776E+03  0.82925920272E+02 0.  0.
        -11    1    5    5    0    0 -0.51782743547E+02  0.29089979603E+02 -0.31557446083E+03  0.32111511918E+03  0.00000000000E+00 0.  1.
         12    1    5    5    0    0  0.29858136035E+02  0.81384930119E+01 -0.92669531733E+02  0.97700488574E+02  0.00000000000E+00 0. -1.
        -11    1    3    3    0    0  0.12611025902E+02 -0.66320653888E+02  0.29774154885E+02  0.73783246104E+02  0.00000000000E+00 0.  1.
         12    1    3    3    0    0 -0.24079775545E+02  0.12770666472E+02  0.26857875587E+02  0.38265794040E+02  0.00000000000E+00 0. -1.
          5    1    4    4  501    0 -0.29712881118E+02  0.94664694688E+02  0.59637584337E+02  0.11585763328E+03  0.47000000000E+01 0. -1.
         -5    1    4    4    0  501  0.11278996162E+03  0.15486741113E+03  0.13327183896E+03  0.23342871188E+03  0.47000000000E+01 0. -1.
          1    1    1    2  502    0 -0.98233054352E+02 -0.14602051756E+03 -0.36887688041E+03  0.40870756956E+03  0.00000000000E+00 0. -1.
          1    1    1    2  503    0  0.48549331007E+02 -0.87190073463E+02  0.13609328458E+04  0.13645868815E+04  0.00000000000E+00 0. -1.
<mgrwt>
<rscale>  0 0.11963043E+03</rscale>
<asrwt>0</asrwt>
<pdfrwt beam="1">  1        2 0.25638227E+00 0.11352412E+03</pdfrwt>
<pdfrwt beam="2">  1        2 0.13383030E+00 0.12606518E+03</pdfrwt>
<totfact> 0.61633052E+01</totfact>
</mgrwt>
</event>
<event>
13    1  0.1675423E-008  0.6373811E+02  0.7546771E-02  0.1383230E+00
          2   -1    0    0  502    0  0.00000000000E+00  0.00000000000E+00  0.15169501227E+04  0.15169501227E+04  0.00000000000E+00 0. -1.
          2   -1    0    0  503    0 -0.00000000000E+00 -0.00000000000E+00 -0.28723965519E+03  0.28723965519E+03  0.00000000000E+00 0. -1.
         24    2    1    2    0    0  0.11384100146E+03  0.63680599184E+02  0.20929221628E+03  0.25945769242E+03  0.80623011809E+02 0.  0.
         25    2    1    2    0    0 -0.56991970242E+02 -0.20074655541E+02 -0.10054889313E+03  0.17143763488E+03  0.12501882369E+03 0.  0.
         24    2    1    2    0    0 -0.72610829869E+02 -0.40813357218E+02  0.27419127766E+03  0.29736825350E+03  0.79428953775E+02 0.  0.
        -11    1    5    5    0    0 -0.85606514825E+02 -0.16036354085E+02  0.20998131695E+03  0.22732750274E+03  0.00000000000E+00 0.  1.
         12    1    5    5    0    0  0.12995684956E+02 -0.24777003133E+02  0.64209960717E+02  0.70040750760E+02  0.00000000000E+00 0. -1.
        -13    1    3    3    0    0  0.93367622015E+01  0.45343865902E+02  0.50808324196E+02  0.68736650420E+02  0.00000000000E+00 0.  1.
         14    1    3    3    0    0  0.10450423926E+03  0.18336733283E+02  0.15848389209E+03  0.19072104200E+03  0.00000000000E+00 0. -1.
          5    1    4    4  501    0  0.28133087869E+02  0.28235668030E+02 -0.37412460839E+02  0.54868076403E+02  0.47000000000E+01 0.  1.
         -5    1    4    4    0  501 -0.85125058112E+02 -0.48310323571E+02 -0.63136432289E+02  0.11656955848E+03  0.47000000000E+01 0.  1.
          1    1    1    2  502    0  0.21324430120E+02  0.60470282606E+02  0.95138802555E+03  0.95354630803E+03  0.00000000000E+00 0. -1.
          1    1    1    2  503    0 -0.55626314673E+01 -0.63262869032E+02 -0.10461215886E+03  0.12237988907E+03  0.00000000000E+00 0. -1.
<mgrwt>
<rscale>  0 0.63622429E+02</rscale>
<asrwt>0</asrwt>
<pdfrwt beam="1">  1        2 0.22308090E+00 0.63738112E+02</pdfrwt>
<pdfrwt beam="2">  1        2 0.42241126E-01 0.63506956E+02</pdfrwt>
<totfact> 0.29996453E+02</totfact>
</mgrwt>
</event>
<event>
13    1  0.1675423E-008  0.6807355E+02  0.7546771E-02  0.1412984E+00
          2   -1    0    0  502    0  0.00000000000E+00  0.00000000000E+00  0.74269657180E+03  0.74269657180E+03  0.00000000000E+00 0. -1.
          2   -1    0    0  503    0 -0.00000000000E+00 -0.00000000000E+00 -0.19297247633E+04  0.19297247633E+04  0.00000000000E+00 0. -1.
         24    2    1    2    0    0  0.13005323948E+03  0.19531572890E+03 -0.84341822837E+02  0.26104905584E+03  0.77272164603E+02 0.  0.
         25    2    1    2    0    0 -0.29648752396E+03 -0.27029055602E+03 -0.53440882336E+02  0.42360503407E+03  0.12499384165E+03 0.  0.
         24    2    1    2    0    0  0.79226747271E+02  0.50195180826E+02 -0.80127656053E+02  0.14951909870E+03  0.84493111854E+02 0.  0.
        -11    1    3    3    0    0  0.52333779746E+02  0.23005730349E+02 -0.10565775494E+02  0.58135391485E+02  0.00000000000E+00 0.  1.
         12    1    3    3    0    0  0.77719459735E+02  0.17230999855E+03 -0.73776047343E+02  0.20291366436E+03  0.00000000000E+00 0. -1.
        -13    1    5    5    0    0  0.44716887545E+02  0.96381879053E+01  0.81103822160E+01  0.46457216851E+02  0.00000000000E+00 0.  1.
         14    1    5    5    0    0  0.34509859725E+02  0.40556992920E+02 -0.88238038269E+02  0.10306188185E+03  0.00000000000E+00 0. -1.
          5    1    4    4  501    0 -0.20239399698E+03 -0.24554840701E+03 -0.67114913349E+02  0.32524429556E+03  0.47000000000E+01 0. -1.
         -5    1    4    4    0  501 -0.94093526978E+02 -0.24742149008E+02  0.13674031012E+02  0.98360738513E+02  0.47000000000E+01 0. -1.
          1    1    1    2  502    0  0.47058579731E+02  0.49116681718E+02  0.43150758806E+03  0.43683607555E+03  0.00000000000E+00 0. -1.
          1    1    1    2  503    0  0.40148957479E+02 -0.24337035421E+02 -0.14006254183E+04  0.14014120709E+04  0.00000000000E+00 0. -1.
<mgrwt>
<rscale>  0 0.56533183E+02</rscale>
<asrwt>0</asrwt>
<pdfrwt beam="1">  1        2 0.10922008E+00 0.68073553E+02</pdfrwt>
<pdfrwt beam="2">  1        2 0.28378305E+00 0.46949229E+02</pdfrwt>
<totfact> 0.71846254E+01</totfact>
</mgrwt>
</event>
<event>
13    1  0.1675423E-008  0.9871324E+02  0.7546771E-02  0.1304776E+00
          2   -1    0    0  503    0  0.00000000000E+00  0.00000000000E+00  0.11107539804E+04  0.11107539804E+04  0.00000000000E+00 0. -1.
         -1   -1    0    0    0  501 -0.00000000000E+00 -0.00000000000E+00 -0.87902788995E+03  0.87902788995E+03  0.00000000000E+00 0.  1.
         24    2    1    2    0    0 -0.10690729669E+03  0.58500125240E+02  0.14678367636E+03  0.20682760590E+03  0.79879760746E+02 0.  0.
         25    2    1    2    0    0  0.17382654695E+03  0.99868485461E+02  0.11407007715E+02  0.23652706316E+03  0.12500219585E+03 0.  0.
         24    2    1    2    0    0 -0.61449924295E+02  0.30065571848E+01 -0.58400650214E+03  0.59289240445E+03  0.81686450094E+02 0.  0.
        -11    1    5    5    0    0 -0.10287338576E+02 -0.30938961083E+02 -0.32841417666E+03  0.33002866554E+03  0.00000000000E+00 0.  1.
         12    1    5    5    0    0 -0.51162585719E+02  0.33945518267E+02 -0.25559232548E+03  0.26286373890E+03  0.00000000000E+00 0. -1.
        -11    1    3    3    0    0 -0.76048698128E+02  0.10640661708E+01  0.10399977355E+03  0.12884288735E+03  0.00000000000E+00 0.  1.
         12    1    3    3    0    0 -0.30858598563E+02  0.57436059070E+02  0.42783902818E+02  0.77984718548E+02  0.00000000000E+00 0. -1.
          5    1    4    4  502    0  0.12680979086E+03  0.24683580671E+02 -0.38212011049E+02  0.13480448806E+03  0.47000000000E+01 0.  1.
         -5    1    4    4    0  502  0.47016756094E+02  0.75184904789E+02  0.49619018764E+02  0.10172257510E+03  0.47000000000E+01 0.  1.
          1    1    1    2  503    0 -0.38075864286E+02 -0.71064304204E+02  0.78768777498E+03  0.79180296641E+03  0.00000000000E+00 0. -1.
         -2    1    1    2    0  501  0.32606538318E+02 -0.90310863682E+02 -0.13014586642E+03  0.16173183047E+03  0.00000000000E+00 0.  1.
<mgrwt>
<rscale>  0 0.89210195E+02</rscale>
<asrwt>0</asrwt>
<pdfrwt beam="1">  1        2 0.16334617E+00 0.80621999E+02</pdfrwt>
<pdfrwt beam="2">  1       -1 0.12926881E+00 0.98713241E+02</pdfrwt>
<totfact> 0.17380622E+01</totfact>
</mgrwt>
</event>
<event>
13    1  0.1675423E-008  0.4131433E+02  0.7546771E-02  0.1509970E+00
          2   -1    0    0  503    0  0.00000000000E+00  0.00000000000E+00  0.16247135993E+04  0.16247135993E+04  0.00000000000E+00 0. -1.
          2   -1    0    0  502    0 -0.00000000000E+00 -0.00000000000E+00 -0.26612789623E+04  0.26612789623E+04  0.00000000000E+00 0. -1.
         24    2    1    2    0    0 -0.77332995125E+02 -0.25803952088E+02  0.48486649648E+03  0.49842354874E+03  0.81757436704E+02 0.  0.
         25    2    1    2    0    0  0.26016981385E+03 -0.13233756597E+03 -0.67853470922E+02  0.32468782783E+03  0.12496610988E+03 0.  0.
         24    2    1    2    0    0 -0.13515120653E+03  0.14574484605E+03  0.33480541065E+03  0.39754113523E+03  0.80230183992E+02 0.  0.
        -11    1    3    3    0    0 -0.19814676528E+01 -0.30082240539E+02  0.62789924126E+02  0.69652293442E+02  0.00000000000E+00 0.  1.
         12    1    3    3    0    0 -0.75351527472E+02  0.42782884512E+01  0.42207657235E+03  0.42877125530E+03  0.00000000000E+00 0. -1.
        -13    1    5    5    0    0 -0.56101427877E+02  0.88468427924E+02  0.23812529144E+03  0.26014935590E+03  0.00000000000E+00 0.  1.
         14    1    5    5    0    0 -0.79049778651E+02  0.57276418131E+02  0.96680119205E+02  0.13739177933E+03  0.00000000000E+00 0. -1.
          5    1    4    4  501    0  0.26590419739E+03 -0.14307638985E+03 -0.56164369692E+02  0.30716839347E+03  0.47000000000E+01 0. -1.
         -5    1    4    4    0  501 -0.57343835366E+01  0.10738823881E+02 -0.11689101230E+02  0.17519434364E+02  0.47000000000E+01 0. -1.
          1    1    1    2  502    0 -0.34072491986E+02 -0.23368175243E+02 -0.24261124690E+04  0.24264642421E+04  0.00000000000E+00 0. -1.
          1    1    1    2  503    0 -0.13613120213E+02  0.35764847250E+02  0.63772866979E+03  0.63887580765E+03  0.00000000000E+00 0. -1.
<mgrwt>
<rscale>  0 0.39762011E+02</rscale>
<asrwt>0</asrwt>
<pdfrwt beam="1">  1        2 0.23892847E+00 0.38268020E+02</pdfrwt>
<pdfrwt beam="2">  1        2 0.39136455E+00 0.41314328E+02</pdfrwt>
<totfact> 0.11636366E+01</totfact>
</mgrwt>
</event>
<event>
13    1  0.1675423E-008  0.1096115E+03  0.7546771E-02  0.1354977E+00
          2   -1    0    0  503    0  0.00000000000E+00  0.00000000000E+00  0.27305410316E+04  0.27305410316E+04  0.00000000000E+00 0. -1.
         -1   -1    0    0    0  501 -0.00000000000E+00 -0.00000000000E+00 -0.73673939563E+03  0.73673939563E+03  0.00000000000E+00 0.  1.
         24    2    1    2    0    0  0.49511337642E+02 -0.31417354325E+02  0.50702184526E+03  0.51683556115E+03  0.81298357884E+02 0.  0.
         25    2    1    2    0    0 -0.40078465966E+02  0.12864985742E+03  0.50699137992E+02  0.19066515463E+03  0.12500291736E+03 0.  0.
         24    2    1    2    0    0  0.25875008830E+02 -0.19545634783E+02 -0.88435170139E+02  0.12405570227E+03  0.80730973158E+02 0.  0.
        -13    1    5    5    0    0  0.46875925631E+02 -0.16207821104E+02 -0.89970063689E+02  0.10273586632E+03  0.00000000000E+00 0.  1.
         14    1    5    5    0    0 -0.21000916801E+02 -0.33378136793E+01  0.15348935498E+01  0.21319835948E+02  0.00000000000E+00 0. -1.
        -13    1    3    3    0    0  0.59369879248E+02 -0.34257021357E+02  0.23946094635E+03  0.24907804179E+03  0.00000000000E+00 0.  1.
         14    1    3    3    0    0 -0.98585416060E+01  0.28396670315E+01  0.26756089891E+03  0.26775751937E+03  0.00000000000E+00 0. -1.
          5    1    4    4  502    0 -0.52567751032E+02  0.30496986971E+02  0.66664510853E+02  0.90330956322E+02  0.47000000000E+01 0. -1.
         -5    1    4    4    0  502  0.12489285066E+02  0.98152870450E+02 -0.15965372861E+02  0.10033419831E+03  0.47000000000E+01 0. -1.
          1    1    1    2  503    0 -0.65277529576E+01  0.46215733296E+02  0.20725732953E+04  0.20730987844E+04  0.00000000000E+00 0. -1.
         -2    1    1    2    0  501 -0.28780127548E+02 -0.12390260161E+03 -0.54805747245E+03  0.56262522476E+03  0.00000000000E+00 0.  1.
<mgrwt>
<rscale>  0 0.71526630E+02</rscale>
<asrwt>0</asrwt>
<pdfrwt beam="1">  1        2 0.40155015E+00 0.46674464E+02</pdfrwt>
<pdfrwt beam="2">  1       -1 0.10834403E+00 0.10961152E+03</pdfrwt>
<totfact> 0.45304269E+00</totfact>
</mgrwt>
</event>
<event>
13    1  0.1675423E-008  0.9478458E+02  0.7546771E-02  0.1390056E+00
          2   -1    0    0  503    0  0.00000000000E+00  0.00000000000E+00  0.48185492479E+04  0.48185492479E+04  0.00000000000E+00 0. -1.
          2   -1    0    0  502    0 -0.00000000000E+00 -0.00000000000E+00 -0.17012159452E+04  0.17012159452E+04  0.00000000000E+00 0. -1.
         24    2    1    2    0    0 -0.28530854234E+01 -0.17978582964E+03  0.23439722045E+04  0.23522049648E+04  0.79570198816E+02 0.  0.
         25    2    1    2    0    0  0.15735386546E+03 -0.88247928117E+02 -0.31967009501E+03  0.38776724202E+03  0.12500611404E+03 0.  0.
         24    2    1    2    0    0 -0.10582641392E+03  0.14220531209E+03 -0.50314411133E+02  0.20143914922E+03  0.81391708439E+02 0.  0.
        -13    1    5    5    0    0 -0.51705115890E+02  0.87080223905E+02 -0.68259662542E+02  0.12213011887E+03  0.00000000000E+00 0.  1.
         14    1    5    5    0    0 -0.54121298025E+02  0.55125088189E+02  0.17945251409E+02  0.79309030355E+02  0.00000000000E+00 0. -1.
        -13    1    3    3    0    0  0.35288023968E+02 -0.85361294089E+02  0.93237892687E+03  0.93694303906E+03  0.00000000000E+00 0.  1.
         14    1    3    3    0    0 -0.38141109392E+02 -0.94424535554E+02  0.14115932776E+04  0.14152619257E+04  0.00000000000E+00 0. -1.
          5    1    4    4  501    0  0.12530488804E+03  0.66028330076E-01 -0.18564892576E+03  0.22402886636E+03  0.47000000000E+01 0.  1.
         -5    1    4    4    0  501  0.32048977422E+02 -0.88313956447E+02 -0.13402116925E+03  0.16373837566E+03  0.47000000000E+01 0.  1.
          1    1    1    2  502    0 -0.11342382617E+02  0.38790877472E+02 -0.12162185371E+04  0.12168898519E+04  0.00000000000E+00 0. -1.
          1    1    1    2  503    0 -0.37331983503E+02  0.87037568194E+02  0.23595641415E+04  0.23614639851E+04  0.00000000000E+00 0. -1.
<mgrwt>
<rscale>  0 0.61892891E+02</rscale>
<asrwt>0</asrwt>
<pdfrwt beam="1">  1        2 0.70861018E+00 0.94784577E+02</pdfrwt>
<pdfrwt beam="2">  1        2 0.25017882E+00 0.40415119E+02</pdfrwt>
<totfact> 0.37754218E-01</totfact>
</mgrwt>
</event>
<event>
13    1  0.1675423E-008  0.4584381E+02  0.7546771E-02  0.1525236E+00
          2   -1    0    0  502    0  0.00000000000E+00  0.00000000000E+00  0.21330723454E+04  0.21330723454E+04  0.00000000000E+00 0. -1.
          2   -1    0    0  503    0 -0.00000000000E+00 -0.00000000000E+00 -0.28126907023E+04  0.28126907023E+04  0.00000000000E+00 0. -1.
         24    2    1    2    0    0 -0.31748604763E+03 -0.10947844500E+04  0.16230787000E+03  0.11561737304E+04  0.10508790469E+03 0.  0.
         25    2    1    2    0    0  0.38493330893E+03  0.14133545406E+04 -0.82758193367E+03  0.16870867726E+04  0.12500084585E+03 0.  0.
         24    2    1    2    0    0 -0.37099579400E+02 -0.35285616455E+03 -0.29791820207E+03  0.47022849385E+03  0.80471918430E+02 0.  0.
        -13    1    3    3    0    0  0.32824018720E+01 -0.71921533149E+02  0.13739684392E+00  0.71996527489E+02  0.00000000000E+00 0.  1.
         14    1    3    3    0    0 -0.32076844950E+03 -0.10228629169E+04  0.16217047316E+03  0.10841772029E+04  0.00000000000E+00 0. -1.
        -13    1    5    5    0    0  0.21407175955E+02 -0.40055914973E+02 -0.32554373028E+02  0.55879609072E+02  0.00000000000E+00 0.  1.
         14    1    5    5    0    0 -0.58506755355E+02 -0.31280024957E+03 -0.26536382904E+03  0.41434888478E+03  0.00000000000E+00 0. -1.
          5    1    4    4  501    0 -0.65884584556E+01  0.39934174826E+02 -0.12035927399E+02  0.42486464341E+02  0.47000000000E+01 0.  1.
         -5    1    4    4    0  501  0.39152176738E+03  0.13734203658E+04 -0.81554600627E+03  0.16446003082E+04  0.47000000000E+01 0.  1.
          1    1    1    2  502    0  0.14967198530E+02  0.27295937249E+02  0.95689118807E+03  0.95739742585E+03  0.00000000000E+00 0. -1.
          1    1    1    2  503    0 -0.45314880426E+02  0.69901366681E+01 -0.67331727926E+03  0.67487662498E+03  0.00000000000E+00 0. -1.
<mgrwt>
<rscale>  0 0.37777292E+02</rscale>
<asrwt>0</asrwt>
<pdfrwt beam="1">  1        2 0.31368711E+00 0.31130134E+02</pdfrwt>
<pdfrwt beam="2">  1        2 0.41363098E+00 0.45843805E+02</pdfrwt>
<totfact> 0.57828614E+00</totfact>
</mgrwt>
</event>
<event>
13    1  0.1675423E-008  0.1297131E+03  0.7546771E-02  0.1336502E+00
          2   -1    0    0  503    0  0.00000000000E+00  0.00000000000E+00  0.20456121820E+04  0.20456121820E+04  0.00000000000E+00 0. -1.
          2   -1    0    0  502    0 -0.00000000000E+00 -0.00000000000E+00 -0.12202490880E+04  0.12202490880E+04  0.00000000000E+00 0. -1.
         24    2    1    2    0    0  0.44452303976E+02 -0.53709000713E+02  0.24456750219E+03  0.26692394341E+03  0.81083070676E+02 0.  0.
         25    2    1    2    0    0 -0.13162683487E+03  0.14678069506E+03 -0.50083768935E+03  0.55257009563E+03  0.12500049368E+03 0.  0.
         24    2    1    2    0    0 -0.10934955046E+01  0.50370274569E+02  0.15078396393E+03  0.17758730267E+03  0.79139661345E+02 0.  0.
        -13    1    5    5    0    0 -0.12128915863E+02  0.68803569091E+02  0.95915546114E+02  0.11866268877E+03  0.00000000000E+00 0.  1.
         14    1    5    5    0    0  0.11035420358E+02 -0.18433294522E+02  0.54868417819E+02  0.58924613901E+02  0.00000000000E+00 0. -1.
        -13    1    3    3    0    0  0.16189557317E+02 -0.70337135265E+02  0.14280084883E+03  0.16000467740E+03  0.00000000000E+00 0.  1.
         14    1    3    3    0    0  0.28262746658E+02  0.16628134552E+02  0.10176665336E+03  0.10691926601E+03  0.00000000000E+00 0. -1.
          5    1    4    4  501    0 -0.12826607831E+02  0.58100612486E+02 -0.28171141475E+03  0.28796460588E+03  0.47000000000E+01 0.  1.
         -5    1    4    4    0  501 -0.11880022704E+03  0.88680082573E+02 -0.21912627460E+03  0.26460548975E+03  0.47000000000E+01 0.  1.
          1    1    1    2  502    0 -0.38814569877E+02  0.25098664142E+02 -0.66119227970E+03  0.66280596294E+03  0.00000000000E+00 0. -1.
          1    1    1    2  503    0  0.12708259627E+03 -0.16854063306E+03  0.15920415969E+04  0.16059739654E+04  0.00000000000E+00 0. -1.
<mgrwt>
<rscale>  0 0.77431617E+02</rscale>
<asrwt>0</asrwt>
<pdfrwt beam="1">  1        2 0.30082532E+00 0.12971309E+03</pdfrwt>
<pdfrwt beam="2">  1        2 0.17944840E+00 0.46222438E+02</pdfrwt>
<totfact> 0.30813306E+01</totfact>
</mgrwt>
</event>
<event>
13    1  0.1675423E-008  0.1028126E+03  0.7546771E-02  0.1324489E+00
          2   -1    0    0  503    0  0.00000000000E+00  0.00000000000E+00  0.11294913231E+04  0.11294913231E+04  0.00000000000E+00 0. -1.
          2   -1    0    0  502    0 -0.00000000000E+00 -0.00000000000E+00 -0.58071161499E+03  0.58071161499E+03  0.00000000000E+00 0. -1.
         24    2    1    2    0    0 -0.85826370486E+02 -0.11014695865E+03  0.66885356007E+02  0.17406363552E+03  0.79536029517E+02 0.  0.
         25    2    1    2    0    0  0.15409684109E+03  0.17150948180E+03  0.41326614445E+03  0.48946172092E+03  0.12499012490E+03 0.  0.
         24    2    1    2    0    0 -0.21597770936E+02  0.43946482594E+01 -0.13135993898E+02  0.82109795187E+02  0.77997996688E+02 0.  0.
        -13    1    5    5    0    0 -0.22781599923E+01  0.39545883135E+02 -0.13935564005E+02  0.41991270879E+02  0.00000000000E+00 0.  1.
         14    1    5    5    0    0 -0.19319610944E+02 -0.35151234876E+02  0.79957010675E+00  0.40118524308E+02  0.00000000000E+00 0. -1.
        -13    1    3    3    0    0 -0.50369526243E+02 -0.11320746215E+03  0.42800706269E+02  0.13109126255E+03  0.00000000000E+00 0.  1.
         14    1    3    3    0    0 -0.35456844243E+02  0.30605035007E+01  0.24084649739E+02  0.42972372967E+02  0.00000000000E+00 0. -1.
          5    1    4    4  501    0  0.13014707298E+03  0.12652350842E+03  0.19994213015E+03  0.27008406876E+03  0.47000000000E+01 0. -1.
         -5    1    4    4    0  501  0.23949768103E+02  0.44985973382E+02  0.21332401430E+03  0.21937765216E+03  0.47000000000E+01 0. -1.
          1    1    1    2  502    0 -0.28631827383E+02 -0.12800701105E+03 -0.42956603660E+03  0.44914647524E+03  0.00000000000E+00 0. -1.
          1    1    1    2  503    0 -0.18040872281E+02  0.62249839640E+02  0.51133023816E+03  0.51542131123E+03  0.00000000000E+00 0. -1.
<mgrwt>
<rscale>  0 0.81629806E+02</rscale>
<asrwt>0</asrwt>
<pdfrwt beam="1">  1        2 0.16610167E+00 0.64811385E+02</pdfrwt>
<pdfrwt beam="2">  1        2 0.85398767E-01 0.10281257E+03</pdfrwt>
<totfact> 0.22311030E+02</totfact>
</mgrwt>
</event>
<event>
13    1  0.1675423E-008  0.1575850E+03  0.7546771E-02  0.1234959E+00
          2   -1    0    0  502    0  0.00000000000E+00  0.00000000000E+00  0.60610928424E+03  0.60610928424E+03  0.00000000000E+00 0. -1.
          2   -1    0    0  503    0 -0.00000000000E+00 -0.00000000000E+00 -0.23380410919E+04  0.23380410919E+04  0.00000000000E+00 0. -1.
         24    2    1    2    0    0 -0.87253601033E+02  0.10212763609E+02  0.84826457349E+02  0.14627061537E+03  0.80511326037E+02 0.  0.
         25    2    1    2    0    0  0.46312010678E+02 -0.13360268092E+03 -0.62730790129E+03  0.65508368050E+03  0.12499978700E+03 0.  0.
         24    2    1    2    0    0 -0.26995973197E+02  0.12561236309E+03 -0.46227149070E+03  0.48547177747E+03  0.74031528914E+02 0.  0.
        -11    1    3    3    0    0 -0.88162807702E+01 -0.33827951344E+01 -0.15529218448E+02  0.18174892988E+02  0.00000000000E+00 0.  1.
         12    1    3    3    0    0 -0.78437320263E+02  0.13595558743E+02  0.10035567580E+03  0.12809572238E+03  0.00000000000E+00 0. -1.
        -13    1    5    5    0    0  0.38522493445E+01  0.11340084467E+03 -0.38516625502E+03  0.40153161196E+03  0.00000000000E+00 0.  1.
         14    1    5    5    0    0 -0.30848222542E+02  0.12211518415E+02 -0.77105235685E+02  0.83940165511E+02  0.00000000000E+00 0. -1.
          5    1    4    4  501    0  0.86273459263E+02 -0.70074695448E+02 -0.42273231327E+03  0.43712500660E+03  0.47000000000E+01 0. -1.
         -5    1    4    4    0  501 -0.39961448585E+02 -0.63527985476E+02 -0.20457558802E+03  0.21795867390E+03  0.47000000000E+01 0. -1.
          1    1    1    2  502    0 -0.93931329743E+02 -0.32099981879E+02  0.45400317626E+03  0.46472829438E+03  0.00000000000E+00 0. -1.
          1    1    1    2  503    0  0.16186889330E+03  0.29877536108E+02 -0.11811820493E+04  0.11925960084E+04  0.00000000000E+00 0. -1.
<mgrwt>
<rscale>  0 0.12507057E+03</rscale>
<asrwt>0</asrwt>
<pdfrwt beam="1">  1        2 0.89133720E-01 0.99264815E+02</pdfrwt>
<pdfrwt beam="2">  1        2 0.34382957E+00 0.15758503E+03</pdfrwt>
<totfact> 0.49757551E+01</totfact>
</mgrwt>
</event>
<event>
13    1  0.1675423E-008  0.9367783E+02  0.7546771E-02  0.1299485E+00
          2   -1    0    0  502    0  0.00000000000E+00  0.00000000000E+00  0.30148846885E+04  0.30148846885E+04  0.00000000000E+00 0. -1.
          2   -1    0    0  503    0 -0.00000000000E+00 -0.00000000000E+00 -0.79236698539E+03  0.79236698539E+03  0.00000000000E+00 0. -1.
         24    2    1    2    0    0 -0.63415349003E+02 -0.91787894878E+02  0.86240374130E+03  0.87321920222E+03  0.79530107440E+02 0.  0.
         25    2    1    2    0    0 -0.53823639754E+02  0.13421929399E+03  0.12532682179E+03  0.22857231970E+03  0.12500675980E+03 0.  0.
         24    2    1    2    0    0  0.16815097558E+02 -0.82305589130E+01  0.22000871307E+02  0.87443538298E+02  0.82533898769E+02 0.  0.
        -13    1    3    3    0    0 -0.37291528670E+02 -0.38510029499E+02  0.16939720524E+03  0.17767693611E+03  0.00000000000E+00 0.  1.
         14    1    3    3    0    0 -0.26123820333E+02 -0.53277865379E+02  0.69300653606E+03  0.69554226611E+03  0.00000000000E+00 0. -1.
        -13    1    5    5    0    0  0.23028014421E+02  0.22348253292E+02 -0.17936117988E+02  0.36761912380E+02  0.00000000000E+00 0.  1.
         14    1    5    5    0    0 -0.62129168634E+01 -0.30578812205E+02  0.39936989295E+02  0.50681625918E+02  0.00000000000E+00 0. -1.
          5    1    4    4  501    0 -0.51907259706E+02  0.15246151057E+03  0.80931805482E+02  0.18030785605E+03  0.47000000000E+01 0. -1.
         -5    1    4    4    0  501 -0.19163800472E+01 -0.18242216577E+02  0.44395016305E+02  0.48264463644E+02  0.47000000000E+01 0. -1.
          1    1    1    2  502    0  0.21541877470E+02 -0.86529341984E+02  0.19111688438E+04  0.19132479529E+04  0.00000000000E+00 0. -1.
          1    1    1    2  503    0  0.78882013728E+02  0.52328501783E+02 -0.69838257506E+03  0.70476866086E+03  0.00000000000E+00 0. -1.
<mgrwt>
<rscale>  0 0.91404836E+02</rscale>
<asrwt>0</asrwt>
<pdfrwt beam="1">  1        2 0.44336539E+00 0.89186999E+02</pdfrwt>
<pdfrwt beam="2">  1        2 0.11652456E+00 0.93677825E+02</pdfrwt>
<totfact> 0.17773659E+01</totfact>
</mgrwt>
</event>
<event>
13    1  0.1675423E-008  0.6689197E+02  0.7546771E-02  0.1473342E+00
          2   -1    0    0  502    0  0.00000000000E+00  0.00000000000E+00  0.30204714851E+04  0.30204714851E+04  0.00000000000E+00 0. -1.
          2   -1    0    0  503    0 -0.00000000000E+00 -0.00000000000E+00 -0.42675220940E+03  0.42675220940E+03  0.00000000000E+00 0. -1.
         24    2    1    2    0    0 -0.23047403471E+02 -0.12001452741E+03  0.16058463465E+04  0.16125317371E+04  0.81126104782E+02 0.  0.
         25    2    1    2    0    0 -0.96201923900E+02 -0.41406442278E+02 -0.13080118057E+02  0.16360161864E+03  0.12500038604E+03 0.  0.
         24    2    1    2    0    0  0.15702143791E+03  0.23534083886E+03  0.45214987360E+03  0.53989528001E+03  0.83704018924E+02 0.  0.
        -13    1    5    5    0    0  0.14374586784E+03  0.24078656790E+03  0.43466613669E+03  0.51727719473E+03  0.00000000000E+00 0.  1.
         14    1    5    5    0    0  0.13275570068E+02 -0.54457290432E+01  0.17483736914E+02  0.22618085284E+02  0.00000000000E+00 0. -1.
        -13    1    3    3    0    0  0.20128974269E+02 -0.19353482254E+01  0.17225241662E+03  0.17343533726E+03  0.00000000000E+00 0.  1.
         14    1    3    3    0    0 -0.43176377740E+02 -0.11807917918E+03  0.14335939299E+04  0.14390963998E+04  0.00000000000E+00 0. -1.
          5    1    4    4  501    0 -0.51223178225E+02 -0.76135292840E+02 -0.40402556329E+02  0.10037356904E+03  0.47000000000E+01 0.  1.
         -5    1    4    4    0  501 -0.44978745675E+02  0.34728850561E+02  0.27322438273E+02  0.63228049606E+02  0.47000000000E+01 0.  1.
          1    1    1    2  502    0 -0.82584222230E+01 -0.66269706730E+02  0.83786877151E+03  0.84052599831E+03  0.00000000000E+00 0. -1.
          1    1    1    2  503    0 -0.29513688314E+02 -0.76501624394E+01 -0.28906559791E+03  0.29066906041E+03  0.00000000000E+00 0. -1.
<mgrwt>
<rscale>  0 0.45160529E+02</rscale>
<asrwt>0</asrwt>
<pdfrwt beam="1">  1        2 0.44418697E+00 0.66891973E+02</pdfrwt>
<pdfrwt beam="2">  1        2 0.62757679E-01 0.30489060E+02</pdfrwt>
<totfact> 0.36852789E+01</totfact>
</mgrwt>
</event>
<event>
13    1  0.1675423E-008  0.2199472E+03  0.7546771E-02  0.1268208E+00
          2   -1    0    0  503    0  0.00000000000E+00  0.00000000000E+00  0.18428906943E+04  0.18428906943E+04  0.00000000000E+00 0. -1.
          2   -1    0    0  502    0 -0.00000000000E+00 -0.00000000000E+00 -0.22510291787E+04  0.22510291787E+04  0.00000000000E+00 0. -1.
         24    2    1    2    0    0  0.80801285787E+02  0.35411832194E+02  0.13576557094E+03  0.18061826113E+03  0.80048862317E+02 0.  0.
         25    2    1    2    0    0 -0.14807206109E+03 -0.30665588951E+03 -0.12449982201E+04  0.12967678829E+04  0.12499281580E+03 0.  0.
         24    2    1    2    0    0 -0.11611766394E+03 -0.64635066323E+02  0.31293653665E+02  0.15645321513E+03  0.76402304201E+02 0.  0.
        -13    1    5    5    0    0  0.76372315386E+01 -0.18804142732E+02 -0.18682424904E+01  0.20381693243E+02  0.00000000000E+00 0.  1.
         14    1    5    5    0    0 -0.12375489547E+03 -0.45830923591E+02  0.33161896155E+02  0.13607152188E+03  0.00000000000E+00 0. -1.
        -13    1    3    3    0    0  0.37854093180E+02  0.27295770177E+01  0.39194064225E+01  0.38154222675E+02  0.00000000000E+00 0.  1.
         14    1    3    3    0    0  0.42947192607E+02  0.32682255176E+02  0.13184616452E+03  0.14246403846E+03  0.00000000000E+00 0. -1.
          5    1    4    4  501    0 -0.55346014739E+02 -0.22164333002E+03 -0.92730913129E+03  0.95504620939E+03  0.47000000000E+01 0.  1.
         -5    1    4    4    0  501 -0.92726046347E+02 -0.85012559495E+02 -0.31768908885E+03  0.34172167346E+03  0.47000000000E+01 0.  1.
          1    1    1    2  502    0  0.46021493780E+02  0.22121714920E+02 -0.87564644482E+03  0.87713399460E+03  0.00000000000E+00 0. -1.
          1    1    1    2  503    0  0.13736694545E+03  0.31375740872E+03  0.15454469560E+04  0.15829465193E+04  0.00000000000E+00 0. -1.
<mgrwt>
<rscale>  0 0.10597635E+03</rscale>
<asrwt>0</asrwt>
<pdfrwt beam="1">  1        2 0.27101334E+00 0.21994717E+03</pdfrwt>
<pdfrwt beam="2">  1        2 0.33103370E+00 0.51062199E+02</pdfrwt>
<totfact> 0.11878583E+01</totfact>
</mgrwt>
</event>
<event>
13    1  0.1675423E-008  0.1350027E+03  0.7546771E-02  0.1334639E+00
          2   -1    0    0  503    0  0.00000000000E+00  0.00000000000E+00  0.12604442897E+04  0.12604442897E+04  0.00000000000E+00 0. -1.
          2   -1    0    0  502    0 -0.00000000000E+00 -0.00000000000E+00 -0.21279035574E+04  0.21279035574E+04  0.00000000000E+00 0. -1.
         24    2    1    2    0    0  0.16251822498E+03 -0.29587059129E+03  0.10790143901E+03  0.36352303980E+03  0.80961099812E+02 0.  0.
         25    2    1    2    0    0 -0.94249598423E+02 -0.17928377592E+03  0.34094466729E+03  0.41580580743E+03  0.12500217689E+03 0.  0.
         24    2    1    2    0    0 -0.18584175069E+03  0.48429288398E+03 -0.79958898042E+03  0.95512019213E+03  0.61929718530E+02 0.  0.
        -11    1    5    5    0    0 -0.14985943261E+03  0.33597945097E+03 -0.52678060232E+03  0.64252458630E+03  0.00000000000E+00 0.  1.
         12    1    5    5    0    0 -0.35982318079E+02  0.14831343301E+03 -0.27280837810E+03  0.31259560583E+03  0.00000000000E+00 0. -1.
        -11    1    3    3    0    0  0.17287765053E+02 -0.37503341336E+02  0.43964258851E+02  0.60317688021E+02  0.00000000000E+00 0.  1.
         12    1    3    3    0    0  0.14523045992E+03 -0.25836724996E+03  0.63937180157E+02  0.30320535178E+03  0.00000000000E+00 0. -1.
          5    1    4    4  501    0 -0.39978813982E+02 -0.14284573179E+03  0.30922755765E+03  0.34299705694E+03  0.47000000000E+01 0. -1.
         -5    1    4    4    0  501 -0.54270784441E+02 -0.36438044132E+02  0.31717109638E+02  0.72808750489E+02  0.47000000000E+01 0. -1.
          1    1    1    2  502    0  0.13079336543E+03  0.34021242795E+02 -0.10801943605E+04  0.10886157292E+04  0.00000000000E+00 0. -1.
          1    1    1    2  503    0 -0.13220241284E+02 -0.43159759567E+02  0.56347796699E+03  0.56528307856E+03  0.00000000000E+00 0. -1.
<mgrwt>
<rscale>  0 0.78063461E+02</rscale>
<asrwt>0</asrwt>
<pdfrwt beam="1">  1        2 0.18535945E+00 0.45139114E+02</pdfrwt>
<pdfrwt beam="2">  1        2 0.31292699E+00 0.13500274E+03</pdfrwt>
<totfact> 0.26741299E+01</totfact>
</mgrwt>
</event>
<event>
13    1  0.1675423E-008  0.7546032E+02  0.7546771E-02  0.1480744E+00
          2   -1    0    0  502    0  0.00000000000E+00  0.00000000000E+00  0.18828368825E+04  0.18828368825E+04  0.00000000000E+00 0. -1.
          2   -1    0    0  503    0 -0.00000000000E+00 -0.00000000000E+00 -0.24698397589E+04  0.24698397589E+04  0.00000000000E+00 0. -1.
         24    2    1    2    0    0  0.29252357861E+02 -0.24620332843E+03  0.95199960042E+03  0.98702635822E+03  0.80287067765E+02 0.  0.
         25    2    1    2    0    0 -0.59619805639E+02  0.11893095303E+02 -0.51877413485E+03  0.53707285378E+03  0.12499872135E+03 0.  0.
         24    2    1    2    0    0  0.66903651586E+02  0.27000227437E+03  0.10190392102E+03  0.30711196838E+03  0.80969285819E+02 0.  0.
        -11    1    5    5    0    0  0.78912732611E+02  0.26528777076E+03  0.98345490017E+02  0.29372888195E+03  0.00000000000E+00 0.  1.
         12    1    5    5    0    0 -0.12009081025E+02  0.47145036045E+01  0.35584310038E+01  0.13383086434E+02  0.00000000000E+00 0. -1.
        -13    1    3    3    0    0  0.30106858104E+02 -0.14823197130E+03  0.42789555533E+03  0.45384330610E+03  0.00000000000E+00 0.  1.
         14    1    3    3    0    0 -0.85450024300E+00 -0.97971357135E+02  0.52410404509E+03  0.53318305213E+03  0.00000000000E+00 0. -1.
          5    1    4    4  501    0 -0.85346323556E+02 -0.10587376370E+01 -0.48482895840E+03  0.49230714475E+03  0.47000000000E+01 0.  1.
         -5    1    4    4    0  501  0.25726517917E+02  0.12951832940E+02 -0.33945176448E+02  0.44765709027E+02  0.47000000000E+01 0.  1.
          1    1    1    2  502    0  0.10326886868E+02  0.23473695642E+02  0.69864949930E+03  0.69912000533E+03  0.00000000000E+00 0. -1.
          1    1    1    2  503    0 -0.46863090676E+02 -0.59165736878E+02 -0.18207817623E+04  0.18223454556E+04  0.00000000000E+00 0. -1.
<mgrwt>
<rscale>  0 0.43990563E+02</rscale>
<asrwt>0</asrwt>
<pdfrwt beam="1">  1        2 0.27688778E+00 0.25644863E+02</pdfrwt>
<pdfrwt beam="2">  1        2 0.36321173E+00 0.75460324E+02</pdfrwt>
<totfact> 0.10533289E+01</totfact>
</mgrwt>
</event>
<event>
13    1  0.1675423E-008  0.4274520E+02  0.7546771E-02  0.1494868E+00
          2   -1    0    0  502    0  0.00000000000E+00  0.00000000000E+00  0.29583019625E+03  0.29583019625E+03  0.00000000000E+00 0. -1.
          2   -1    0    0  503    0 -0.00000000000E+00 -0.00000000000E+00 -0.24858155300E+04  0.24858155300E+04  0.00000000000E+00 0. -1.
         24    2    1    2    0    0 -0.48760322949E+02 -0.47801490496E+02 -0.26610814689E+03  0.28549563394E+03  0.77663759669E+02 0.  0.
         25    2    1    2    0    0  0.48781224595E+02  0.36667153885E+02 -0.91044106510E+02  0.16624711887E+03  0.12499994862E+03 0.  0.
         24    2    1    2    0    0  0.25005508180E+02  0.29489937377E+01 -0.32943718526E+03  0.33879233713E+03  0.74949427382E+02 0.  0.
        -11    1    3    3    0    0  0.15666860739E+02 -0.26080813624E+02 -0.12790411577E+03  0.13147289529E+03  0.00000000000E+00 0.  1.
         12    1    3    3    0    0 -0.64427183688E+02 -0.21720676872E+02 -0.13820403112E+03  0.15402273865E+03  0.00000000000E+00 0. -1.
        -13    1    5    5    0    0  0.16357185063E+02  0.30861964034E+02 -0.27312640012E+03  0.27535077404E+03  0.00000000000E+00 0.  1.
         14    1    5    5    0    0  0.86483231172E+01 -0.27912970296E+02 -0.56310785144E+02  0.63441563088E+02  0.00000000000E+00 0. -1.
          5    1    4    4  501    0  0.48570426855E+02  0.57592677852E+02 -0.29110326093E+01  0.75541822972E+02  0.47000000000E+01 0.  1.
         -5    1    4    4    0  501  0.21079774005E+00 -0.20925523967E+02 -0.88133073901E+02  0.90705295899E+02  0.47000000000E+01 0.  1.
          1    1    1    2  502    0  0.27105209095E+01  0.40927705669E+02  0.24186696865E+03  0.24532031008E+03  0.00000000000E+00 0. -1.
          1    1    1    2  503    0 -0.27736930736E+02 -0.32742362795E+02 -0.17452628637E+04  0.17457903262E+04  0.00000000000E+00 0. -1.
<mgrwt>
<rscale>  0 0.41872369E+02</rscale>
<asrwt>0</asrwt>
<pdfrwt beam="1">  1        2 0.43504440E-01 0.41017362E+02</pdfrwt>
<pdfrwt beam="2">  1        2 0.36556111E+00 0.42745198E+02</pdfrwt>
<totfact> 0.10588497E+02</totfact>
</mgrwt>
</event>
<event>
13    1  0.1675423E-008  0.1877710E+03  0.7546771E-02  0.1270541E+00
          2   -1    0    0  502    0  0.00000000000E+00  0.00000000000E+00  0.32293141231E+04  0.32293141231E+04  0.00000000000E+00 0. -1.
          2   -1    0    0  503    0 -0.00000000000E+00 -0.00000000000E+00 -0.41311160832E+04  0.41311160832E+04  0.00000000000E+00 0. -1.
         24    2    1    2    0    0 -0.56713910511E+02 -0.95320485822E+02  0.37459853228E+03  0.39883818811E+03  0.80283106859E+02 0.  0.
         25    2    1    2    0    0  0.14884346691E+03  0.14182023117E+03 -0.74135146807E+03  0.77941873580E+03  0.12499684352E+03 0.  0.
         24    2    1    2    0    0  0.39165206314E+02 -0.59051026610E+02 -0.39628757093E+02  0.11586759591E+03  0.82667552667E+02 0.  0.
        -11    1    5    5    0    0  0.52296503066E+02 -0.41873326617E+02  0.40636686945E+01  0.67117904602E+02  0.00000000000E+00 0.  1.
         12    1    5    5    0    0 -0.13131296752E+02 -0.17177699993E+02 -0.43692425788E+02  0.48749691308E+02  0.00000000000E+00 0. -1.
        -13    1    3    3    0    0 -0.19923611408E+02 -0.96869141103E+02  0.24795438881E+03  0.26694935797E+03  0.00000000000E+00 0.  1.
         14    1    3    3    0    0 -0.36790299103E+02  0.15486552815E+01  0.12664414347E+03  0.13188883014E+03  0.00000000000E+00 0. -1.
          5    1    4    4  501    0  0.13289516177E+02 -0.21203923877E+02 -0.12606335933E+03  0.12860901288E+03  0.47000000000E+01 0. -1.
         -5    1    4    4    0  501  0.13555395073E+03  0.16302415505E+03 -0.61528810875E+03  0.65080972292E+03  0.47000000000E+01 0. -1.
          1    1    1    2  502    0 -0.17455453281E+03 -0.26794481308E+02  0.27823825344E+04  0.27879813121E+04  0.00000000000E+00 0. -1.
          1    1    1    2  503    0  0.43259770104E+02  0.39345762568E+02 -0.32778028016E+04  0.32783243743E+04  0.00000000000E+00 0. -1.
<mgrwt>
<rscale>  0 0.10478638E+03</rscale>
<asrwt>0</asrwt>
<pdfrwt beam="1">  1        2 0.47489914E+00 0.18777102E+03</pdfrwt>
<pdfrwt beam="2">  1        2 0.60751707E+00 0.58476463E+02</pdfrwt>
<totfact> 0.20702802E-01</totfact>
</mgrwt>
</event>
<event>
13    1  0.1675423E-008  0.1129640E+03  0.7546771E-02  0.1330875E+00
          2   -1    0    0  502    0  0.00000000000E+00  0.00000000000E+00  0.13995800887E+04  0.13995800887E+04  0.00000000000E+00 0. -1.
          2   -1    0    0  503    0 -0.00000000000E+00 -0.00000000000E+00 -0.20626879135E+04  0.20626879135E+04  0.00000000000E+00 0. -1.
         24    2    1    2    0    0  0.70469606655E+00 -0.99761859224E+02  0.96033482742E+03  0.96892885437E+03  0.81407732508E+02 0.  0.
         25    2    1    2    0    0  0.35249079862E+03 -0.52542049058E+02 -0.10921854857E+04  0.11556430635E+04  0.12502529812E+03 0.  0.
         24    2    1    2    0    0 -0.46808181122E+03  0.18172285295E+03 -0.13558078543E+02  0.50799754430E+03  0.75854507099E+02 0.  0.
        -11    1    3    3    0    0  0.69578245928E+01  0.47644672281E+01  0.31824020022E+03  0.31835190672E+03  0.00000000000E+00 0.  1.
         12    1    3    3    0    0 -0.62531285262E+01 -0.10452632645E+03  0.64209462720E+03  0.65057694765E+03  0.00000000000E+00 0. -1.
        -13    1    5    5    0    0 -0.39126997406E+03  0.16558083052E+03 -0.35934218760E+02  0.42638066574E+03  0.00000000000E+00 0.  1.
         14    1    5    5    0    0 -0.76811837157E+02  0.16142022423E+02  0.22376140217E+02  0.81616878563E+02  0.00000000000E+00 0. -1.
          5    1    4    4  501    0  0.35456768434E+03 -0.54847127573E+02 -0.10925862348E+04  0.11499970525E+04  0.47000000000E+01 0.  1.
         -5    1    4    4    0  501 -0.20768857128E+01  0.23050785142E+01  0.40074914023E+00  0.56460110781E+01  0.47000000000E+01 0.  1.
          1    1    1    2  502    0  0.83925754005E+02 -0.75785842626E+02  0.13416017124E+03  0.17545933339E+03  0.00000000000E+00 0. -1.
          1    1    1    2  503    0  0.30960562521E+02  0.46366897963E+02 -0.65185925927E+03  0.65423920667E+03  0.00000000000E+00 0. -1.
<mgrwt>
<rscale>  0 0.79360772E+02</rscale>
<asrwt>0</asrwt>
<pdfrwt beam="1">  1        2 0.20582060E+00 0.11296402E+03</pdfrwt>
<pdfrwt beam="2">  1        2 0.30333646E+00 0.55753436E+02</pdfrwt>
<totfact> 0.25308790E+01</totfact>
</mgrwt>
</event>
<event>
13    1  0.1675423E-008  0.1078540E+03  0.7546771E-02  0.1288363E+00
          2   -1    0    0  503    0  0.00000000000E+00  0.00000000000E+00  0.12830788044E+04  0.12830788044E+04  0.00000000000E+00 0. -1.
          2   -1    0    0  502    0 -0.00000000000E+00 -0.00000000000E+00 -0.79343073384E+03  0.79343073384E+03  0.00000000000E+00 0. -1.
         24    2    1    2    0    0  0.32194704650E+00  0.85551554189E+01  0.58913223411E+02  0.99463426209E+02  0.79680053503E+02 0.  0.
         25    2    1    2    0    0  0.46937080358E+02 -0.52741244355E+02  0.94271721419E+03  0.95358569107E+03  0.12500078366E+03 0.  0.
         24    2    1    2    0    0 -0.43035131591E+02 -0.64822529810E+02 -0.49122025927E+03  0.50357605191E+03  0.78977933746E+02 0.  0.
        -11    1    3    3    0    0 -0.20564448648E+02 -0.21505815232E+02  0.55150854377E+02  0.62665886857E+02  0.00000000000E+00 0.  1.
         12    1    3    3    0    0  0.20886395695E+02  0.30060970651E+02  0.37623690340E+01  0.36797539352E+02  0.00000000000E+00 0. -1.
        -11    1    5    5    0    0 -0.25714253150E+02 -0.50936053075E+02 -0.13368998911E+03  0.14535720658E+03  0.00000000000E+00 0.  1.
         12    1    5    5    0    0 -0.17320878441E+02 -0.13886476735E+02 -0.35753027016E+03  0.35821884533E+03  0.00000000000E+00 0. -1.
          5    1    4    4  501    0  0.35509193048E+02  0.15196245381E+02  0.70419972298E+03  0.70527382519E+03  0.47000000000E+01 0. -1.
         -5    1    4    4    0  501  0.11427887310E+02 -0.67937489736E+02  0.23851749121E+03  0.24831186587E+03  0.47000000000E+01 0. -1.
          1    1    1    2  502    0  0.75876843568E+02  0.15614192352E+03 -0.23161746093E+03  0.28945508093E+03  0.00000000000E+00 0. -1.
          1    1    1    2  503    0 -0.80100739381E+02 -0.47133304773E+02  0.21085535318E+03  0.23042928814E+03  0.00000000000E+00 0. -1.
<mgrwt>
<rscale>  0 0.96260148E+02</rscale>
<asrwt>0</asrwt>
<pdfrwt beam="1">  1        2 0.18868806E+00 0.85912607E+02</pdfrwt>
<pdfrwt beam="2">  1        2 0.11668099E+00 0.10785398E+03</pdfrwt>
<totfact> 0.12711181E+02</totfact>
</mgrwt>
</event>
<event>
13    1  0.1675423E-008  0.9379884E+02  0.7546771E-02  0.1461542E+00
          2   -1    0    0  502    0  0.00000000000E+00  0.00000000000E+00  0.17029418235E+04  0.17029418235E+04  0.00000000000E+00 0. -1.
          2   -1    0    0  503    0 -0.00000000000E+00 -0.00000000000E+00 -0.71767297758E+03  0.71767297758E+03  0.00000000000E+00 0. -1.
         24    2    1    2    0    0 -0.18146974811E+02 -0.18205045825E+02 -0.22145239371E+01  0.91756380578E+02  0.88054488086E+02 0.  0.
         25    2    1    2    0    0  0.12320153226E+02 -0.29423103037E+02 -0.24715033204E+03  0.27879461621E+03  0.12500258489E+03 0.  0.
         24    2    1    2    0    0 -0.79561251605E+01 -0.27484116325E+02 -0.35462690667E+02  0.97792184392E+02  0.86527639058E+02 0.  0.
        -11    1    3    3    0    0 -0.48492562329E+02 -0.33061347886E+00  0.17306705844E+02  0.51489416132E+02  0.00000000000E+00 0.  1.
         12    1    3    3    0    0  0.30345587517E+02 -0.17874432346E+02 -0.19521229781E+02  0.40266964445E+02  0.00000000000E+00 0. -1.
        -13    1    5    5    0    0 -0.20965813121E+02  0.12016289272E+02  0.17947052184E+02  0.30100717762E+02  0.00000000000E+00 0.  1.
         14    1    5    5    0    0  0.13009687961E+02 -0.39500405597E+02 -0.53409742850E+02  0.67691466630E+02  0.00000000000E+00 0. -1.
          5    1    4    4  501    0 -0.25067572977E+02  0.41464879430E+02 -0.89682233290E+02  0.10204269895E+03  0.47000000000E+01 0. -1.
         -5    1    4    4    0  501  0.37387726204E+02 -0.70887982467E+02 -0.15746809876E+03  0.17675191726E+03  0.47000000000E+01 0. -1.
          1    1    1    2  502    0  0.33816155490E+02  0.87715256876E+02  0.16094001511E+04  0.16121434009E+04  0.00000000000E+00 0. -1.
          1    1    1    2  503    0 -0.20033208744E+02 -0.12602991689E+02 -0.33930375851E+03  0.34012821904E+03  0.00000000000E+00 0. -1.
<mgrwt>
<rscale>  0 0.47117007E+02</rscale>
<asrwt>0</asrwt>
<pdfrwt beam="1">  1        2 0.25043262E+00 0.93798838E+02</pdfrwt>
<pdfrwt beam="2">  1        2 0.10554014E+00 0.23667802E+02</pdfrwt>
<totfact> 0.92037957E+01</totfact>
</mgrwt>
</event>
<event>
13    1  0.1675423E-008  0.1112553E+03  0.7546771E-02  0.1300514E+00
          2   -1    0    0  503    0  0.00000000000E+00  0.00000000000E+00  0.18393105792E+04  0.18393105792E+04  0.00000000000E+00 0. -1.
          2   -1    0    0  502    0 -0.00000000000E+00 -0.00000000000E+00 -0.45484435650E+04  0.45484435650E+04  0.00000000000E+00 0. -1.
         24    2    1    2    0    0 -0.17086917764E+03  0.16898969795E+03  0.50632906139E+03  0.57066737013E+03  0.10741664232E+03 0.  0.
         25    2    1    2    0    0  0.18272481509E+02 -0.26003577441E+02  0.35009597421E+02  0.13364131194E+03  0.12499703487E+03 0.  0.
         24    2    1    2    0    0  0.21835782883E+02 -0.27338150446E+03  0.10225854378E+03  0.30307081904E+03  0.78618465926E+02 0.  0.
        -11    1    3    3    0    0 -0.17359188339E+03  0.16712374067E+03  0.41954623840E+03  0.48382179863E+03  0.00000000000E+00 0.  1.
         12    1    3    3    0    0  0.27227057533E+01  0.18659572756E+01  0.86782822990E+02  0.86845571500E+02  0.00000000000E+00 0. -1.
        -11    1    5    5    0    0  0.27786883959E+02 -0.13050193797E+03  0.12000816956E+02  0.13396598950E+03  0.00000000000E+00 0.  1.
         12    1    5    5    0    0 -0.59511010758E+01 -0.14287956649E+03  0.90257726827E+02  0.16910482954E+03  0.00000000000E+00 0. -1.
          5    1    4    4  501    0  0.34083935002E+02 -0.67535536938E+02 -0.16923999590E+01  0.75813703197E+02  0.47000000000E+01 0. -1.
         -5    1    4    4    0  501 -0.15811453494E+02  0.41531959497E+02  0.36701997380E+02  0.57827608743E+02  0.47000000000E+01 0. -1.
          1    1    1    2  502    0  0.72108823439E+02  0.84641451457E+02 -0.43644788558E+04  0.43658950446E+04  0.00000000000E+00 0. -1.
          1    1    1    2  503    0  0.58652089807E+02  0.45753932495E+02  0.10117486673E+04  0.10144795985E+04  0.00000000000E+00 0. -1.
<mgrwt>
<rscale>  0 0.90972516E+02</rscale>
<asrwt>0</asrwt>
<pdfrwt beam="1">  1        2 0.27048685E+00 0.74387432E+02</pdfrwt>
<pdfrwt beam="2">  1        2 0.66888875E+00 0.11125533E+03</pdfrwt>
<totfact> 0.50051974E-01</totfact>
</mgrwt>
</event>
<event>
13    1  0.1675423E-008  0.1785395E+03  0.7546771E-02  0.1212564E+00
          2   -1    0    0  502    0  0.00000000000E+00  0.00000000000E+00  0.21348788010E+04  0.21348788010E+04  0.00000000000E+00 0. -1.
          2   -1    0    0  503    0 -0.00000000000E+00 -0.00000000000E+00 -0.17758937590E+04  0.17758937590E+04  0.00000000000E+00 0. -1.
         24    2    1    2    0    0  0.56479614397E+03 -0.16027406999E+03  0.51729734454E+03  0.78662823329E+03  0.80653412708E+02 0.  0.
         25    2    1    2    0    0 -0.57945241466E+03 -0.14977526244E+03 -0.66586390707E+03  0.90399044925E+03  0.12500503789E+03 0.  0.
         24    2    1    2    0    0  0.51255963539E+02  0.10692691311E+02 -0.68316284169E+02  0.11809242844E+03  0.80852950022E+02 0.  0.
        -13    1    3    3    0    0  0.63974257061E+02 -0.24223621510E+02  0.29860027151E+02  0.74639872904E+02  0.00000000000E+00 0.  1.
         14    1    3    3    0    0  0.50082188691E+03 -0.13605044848E+03  0.48743731738E+03  0.71198836038E+03  0.00000000000E+00 0. -1.
        -13    1    5    5    0    0 -0.88713663860E+01  0.12081948475E+02 -0.54308903426E+02  0.56339432122E+02  0.00000000000E+00 0.  1.
         14    1    5    5    0    0  0.60127329925E+02 -0.13892571634E+01 -0.14007380743E+02  0.61752996321E+02  0.00000000000E+00 0. -1.
          5    1    4    4  501    0 -0.22652801863E+03 -0.12019621006E+03 -0.30165152624E+03  0.39595177158E+03  0.47000000000E+01 0. -1.
         -5    1    4    4    0  501 -0.35292439603E+03 -0.29579052382E+02 -0.36421238082E+03  0.50803867766E+03  0.47000000000E+01 0. -1.
          1    1    1    2  502    0 -0.33426882825E+00  0.17769288430E+03  0.13277242680E+04  0.13395620944E+04  0.00000000000E+00 0. -1.
          1    1    1    2  503    0 -0.36265424026E+02  0.12166375682E+03 -0.75185637927E+03  0.76249935459E+03  0.00000000000E+00 0. -1.
<mgrwt>
<rscale>  0 0.14057003E+03</rscale>
<asrwt>0</asrwt>
<pdfrwt beam="1">  1        2 0.31395277E+00 0.17853950E+03</pdfrwt>
<pdfrwt beam="2">  1        2 0.26116084E+00 0.11067541E+03</pdfrwt>
<totfact> 0.13436338E+01</totfact>
</mgrwt>
</event>
<event>
13    1  0.1675423E-008  0.3460740E+02  0.7546771E-02  0.1563918E+00
          2   -1    0    0  503    0  0.00000000000E+00  0.00000000000E+00  0.74806022298E+03  0.74806022298E+03  0.00000000000E+00 0. -1.
          2   -1    0    0  502    0 -0.00000000000E+00 -0.00000000000E+00 -0.80882253965E+03  0.80882253965E+03  0.00000000000E+00 0. -1.
         24    2    1    2    0    0 -0.43954296058E+02 -0.16818412525E+02  0.22555152358E+03  0.24548947723E+03  0.84715727576E+02 0.  0.
         25    2    1    2    0    0  0.64679572334E+02 -0.13946259617E+03 -0.27396668480E+03  0.33810770304E+03  0.12500324664E+03 0.  0.
         24    2    1    2    0    0 -0.60936826273E+01  0.11292677391E+03  0.18925881583E+03  0.23449892450E+03  0.79882770275E+02 0.  0.
        -11    1    3    3    0    0 -0.99898825256E+01  0.15036553671E+02  0.17807885650E+03  0.17899154961E+03  0.00000000000E+00 0.  1.
         12    1    3    3    0    0 -0.33964413532E+02 -0.31854966195E+02  0.47472667079E+02  0.66497927618E+02  0.00000000000E+00 0. -1.
        -13    1    5    5    0    0  0.24366451380E+02  0.11601447018E+02  0.15670308700E+02  0.31206988008E+02  0.00000000000E+00 0.  1.
         14    1    5    5    0    0 -0.30460134007E+02  0.10132532690E+03  0.17358850713E+03  0.20329193649E+03  0.00000000000E+00 0. -1.
          5    1    4    4  501    0  0.88431816885E+01 -0.12753761805E+03 -0.23873764760E+03  0.27085383560E+03  0.47000000000E+01 0. -1.
         -5    1    4    4    0  501  0.55836390646E+02 -0.11924978119E+02 -0.35229037201E+02  0.67253867439E+02  0.47000000000E+01 0. -1.
          1    1    1    2  502    0  0.16238465517E+02  0.27697112084E+02 -0.46852946505E+03  0.46962823318E+03  0.00000000000E+00 0. -1.
          1    1    1    2  503    0 -0.30870059167E+02  0.15657122692E+02  0.26692349378E+03  0.26915842468E+03  0.00000000000E+00 0. -1.
<mgrwt>
<rscale>  0 0.33333428E+02</rscale>
<asrwt>0</asrwt>
<pdfrwt beam="1">  1        2 0.11000886E+00 0.34607403E+02</pdfrwt>
<pdfrwt beam="2">  1        2 0.11894449E+00 0.32106351E+02</pdfrwt>
<totfact> 0.27146296E+02</totfact>
</mgrwt>
</event>
<event>
13    1  0.1675423E-008  0.2111868E+03  0.7546771E-02  0.1217229E+00
          2   -1    0    0  503    0  0.00000000000E+00  0.00000000000E+00  0.38023360272E+04  0.38023360272E+04  0.00000000000E+00 0. -1.
          2   -1    0    0  502    0 -0.00000000000E+00 -0.00000000000E+00 -0.26579712439E+04  0.26579712439E+04  0.00000000000E+00 0. -1.
         24    2    1    2    0    0  0.17343084709E+03  0.31425941602E+03  0.15607324899E+04  0.16036678029E+04  0.83828858769E+02 0.  0.
         25    2    1    2    0    0  0.11573010683E+03 -0.12670840693E+03 -0.26855408055E+03  0.34233520351E+03  0.12499447734E+03 0.  0.
         24    2    1    2    0    0 -0.10417673488E+03 -0.21704728422E+02  0.51544463714E+03  0.53237494832E+03  0.80100089358E+02 0.  0.
        -11    1    5    5    0    0 -0.27557927899E+01 -0.31145324416E+02  0.11414949672E+03  0.11835427000E+03  0.00000000000E+00 0.  1.
         12    1    5    5    0    0 -0.10142094209E+03  0.94405959939E+01  0.40129514043E+03  0.41402067832E+03  0.00000000000E+00 0. -1.
        -13    1    3    3    0    0  0.45287718361E+02  0.39909233107E+02  0.37798357930E+03  0.38277318420E+03  0.00000000000E+00 0.  1.
         14    1    3    3    0    0  0.12814312873E+03  0.27435018292E+03  0.11827489106E+04  0.12208946187E+04  0.00000000000E+00 0. -1.
          5    1    4    4  501    0  0.96351959736E+02 -0.98997121672E+02 -0.10062897338E+03  0.17097488274E+03  0.47000000000E+01 0.  1.
         -5    1    4    4    0  501  0.19378147093E+02 -0.27711285262E+02 -0.16792510717E+03  0.17136032077E+03  0.47000000000E+01 0.  1.
          1    1    1    2  502    0 -0.59286442869E+01  0.88859055450E+02 -0.23071225348E+04  0.23088407202E+04  0.00000000000E+00 0. -1.
          1    1    1    2  503    0 -0.17905557475E+03 -0.25470533612E+03  0.16438642716E+04  0.16730885961E+04  0.00000000000E+00 0. -1.
<mgrwt>
<rscale>  0 0.13714074E+03</rscale>
<asrwt>0</asrwt>
<pdfrwt beam="1">  1        2 0.55916707E+00 0.21118682E+03</pdfrwt>
<pdfrwt beam="2">  1        2 0.39087812E+00 0.89056614E+02</pdfrwt>
<totfact> 0.59578139E-01</totfact>
</mgrwt>
</event>
<event>
13    1  0.1675423E-008  0.5572342E+02  0.7546771E-02  0.1516444E+00
          2   -1    0    0  503    0  0.00000000000E+00  0.00000000000E+00  0.10434479947E+04  0.10434479947E+04  0.00000000000E+00 0. -1.
          2   -1    0    0  502    0 -0.00000000000E+00 -0.00000000000E+00 -0.59051390290E+03  0.59051390290E+03  0.00000000000E+00 0. -1.
         24    2    1    2    0    0 -0.11116271293E+03 -0.13193696620E+01  0.11442899698E+02  0.13719716002E+03  0.79581601409E+02 0.  0.
         25    2    1    2    0    0  0.51775615786E+02  0.18989905023E+02 -0.30907363375E+03  0.33792024226E+03  0.12498899216E+03 0.  0.
         24    2    1    2    0    0  0.30398878516E+02 -0.75361248069E+02  0.21026152919E+02  0.10923239018E+03  0.69901405074E+02 0.  0.
        -11    1    5    5    0    0  0.19545259645E+01  0.12918339247E+02  0.86311455185E+01  0.15658873958E+02  0.00000000000E+00 0.  1.
         12    1    5    5    0    0  0.28444352552E+02 -0.88279587317E+02  0.12395007400E+02  0.93573516218E+02  0.00000000000E+00 0. -1.
        -11    1    3    3    0    0 -0.10548712108E+03 -0.94966614049E+01 -0.16812409557E+02  0.10723980793E+03  0.00000000000E+00 0.  1.
         12    1    3    3    0    0 -0.56755918558E+01  0.81772917429E+01  0.28255309256E+02  0.29957352091E+02  0.00000000000E+00 0. -1.
          5    1    4    4  501    0  0.55012380084E+02 -0.43859959074E+02 -0.12760925311E+03  0.14579529983E+03  0.47000000000E+01 0.  1.
         -5    1    4    4    0  501 -0.32367642979E+01  0.62849864098E+02 -0.18146438065E+03  0.19212494243E+03  0.47000000000E+01 0.  1.
          1    1    1    2  502    0 -0.14556072348E+02  0.22929663142E+02 -0.15800449325E+03  0.16032176578E+03  0.00000000000E+00 0. -1.
          1    1    1    2  503    0  0.43544290976E+02  0.34761049566E+02  0.88754316615E+03  0.88929033933E+03  0.00000000000E+00 0. -1.
<mgrwt>
<rscale>  0 0.38902839E+02</rscale>
<asrwt>0</asrwt>
<pdfrwt beam="1">  1        2 0.15344823E+00 0.55723424E+02</pdfrwt>
<pdfrwt beam="2">  1        2 0.86840280E-01 0.27159689E+02</pdfrwt>
<totfact> 0.25167100E+02</totfact>
</mgrwt>
</event>
<event>
13    1  0.1675423E-008  0.9239876E+02  0.7546771E-02  0.1454508E+00
          2   -1    0    0  503    0  0.00000000000E+00  0.00000000000E+00  0.31527419740E+04  0.31527419740E+04  0.00000000000E+00 0. -1.
          2   -1    0    0  502    0 -0.00000000000E+00 -0.00000000000E+00 -0.19698347887E+03  0.19698347887E+03  0.00000000000E+00 0. -1.
         24    2    1    2    0    0 -0.22303684786E+03  0.84743210660E+02  0.87241632372E+02  0.26540859991E+03  0.76836028197E+02 0.  0.
         25    2    1    2    0    0  0.19524917183E+03 -0.22513554916E+02  0.13135004282E+03  0.26740174055E+03  0.12498703071E+03 0.  0.
         24    2    1    2    0    0  0.54982656753E+02 -0.12975843845E+03  0.46417661555E+03  0.49163905896E+03  0.79929274916E+02 0.  0.
        -13    1    3    3    0    0 -0.39718583208E+02 -0.29131927319E+01  0.40711784039E+02  0.56951750663E+02  0.00000000000E+00 0.  1.
         14    1    3    3    0    0 -0.18331826465E+03  0.87656403392E+02  0.46529848333E+02  0.20845684924E+03  0.00000000000E+00 0. -1.
        -13    1    5    5    0    0 -0.40205259925E+01 -0.89472294719E+02  0.23067109756E+03  0.24744819943E+03  0.00000000000E+00 0.  1.
         14    1    5    5    0    0  0.59003182746E+02 -0.40286143727E+02  0.23350551798E+03  0.24419085953E+03  0.00000000000E+00 0. -1.
          5    1    4    4  501    0  0.26463677234E+02 -0.52553803330E+02  0.17565069727E+02  0.61586119636E+02  0.47000000000E+01 0.  1.
         -5    1    4    4    0  501  0.16878549459E+03  0.30040248415E+02  0.11378497309E+03  0.20581562091E+03  0.47000000000E+01 0.  1.
          1    1    1    2  502    0 -0.97661936221E+01 -0.23327864846E+02 -0.18867230855E+02  0.31552182433E+02  0.00000000000E+00 0. -1.
          1    1    1    2  503    0 -0.17428787100E+02  0.90856647548E+02  0.22918574352E+04  0.22937238710E+04  0.00000000000E+00 0. -1.
<mgrwt>
<rscale>  0 0.48339787E+02</rscale>
<asrwt>0</asrwt>
<pdfrwt beam="1">  1        2 0.46363849E+00 0.92398765E+02</pdfrwt>
<pdfrwt beam="2">  1        2 0.28968161E-01 0.25289678E+02</pdfrwt>
<totfact> 0.64149953E+01</totfact>
</mgrwt>
</event>
<event>
13    1  0.1675423E-008  0.1567126E+03  0.7546771E-02  0.1243413E+00
          2   -1    0    0  503    0  0.00000000000E+00  0.00000000000E+00  0.10226037581E+04  0.10226037581E+04  0.00000000000E+00 0. -1.
          2   -1    0    0  502    0 -0.00000000000E+00 -0.00000000000E+00 -0.16317398362E+04  0.16317398362E+04  0.00000000000E+00 0. -1.
         24    2    1    2    0    0 -0.29330868444E+02  0.66232123208E+02  0.13052489984E+03  0.17063480677E+03  0.82658900397E+02 0.  0.
         25    2    1    2    0    0  0.69393552655E+02 -0.16374264168E+03  0.33700252564E+03  0.40102856217E+03  0.12500435006E+03 0.  0.
         24    2    1    2    0    0  0.38902955417E+02 -0.77222653975E+02 -0.20155615876E+03  0.23741886407E+03  0.90917840123E+02 0.  0.
        -11    1    3    3    0    0 -0.36408550859E+02  0.83252544370E+02  0.10129620995E+03  0.13607898761E+03  0.00000000000E+00 0.  1.
         12    1    3    3    0    0  0.70776824148E+01 -0.17020421162E+02  0.29228689887E+02  0.34555819154E+02  0.00000000000E+00 0. -1.
        -11    1    5    5    0    0  0.55406449365E+02 -0.43201340440E+02 -0.18148338682E+03  0.19460845341E+03  0.00000000000E+00 0.  1.
         12    1    5    5    0    0 -0.16503493948E+02 -0.34021313534E+02 -0.20072771941E+02  0.42810410656E+02  0.00000000000E+00 0. -1.
          5    1    4    4  501    0 -0.11124213617E+02 -0.20503910631E+02 -0.23956898640E+01  0.23916266634E+02  0.47000000000E+01 0. -1.
         -5    1    4    4    0  501  0.80517766272E+02 -0.14323873104E+03  0.33939821550E+03  0.37711229553E+03  0.47000000000E+01 0. -1.
          1    1    1    2  502    0 -0.78434501456E+02  0.26632666710E+03 -0.13415158623E+04  0.13699440403E+04  0.00000000000E+00 0. -1.
          1    1    1    2  503    0 -0.53113817128E+00 -0.91593494656E+02  0.46640851753E+03  0.47531732095E+03  0.00000000000E+00 0. -1.
<mgrwt>
<rscale>  0 0.11980857E+03</rscale>
<asrwt>0</asrwt>
<pdfrwt beam="1">  1        2 0.15038291E+00 0.91595035E+02</pdfrwt>
<pdfrwt beam="2">  1        2 0.23996174E+00 0.15671258E+03</pdfrwt>
<totfact> 0.59284319E+01</totfact>
</mgrwt>
</event>
<event>
13    1  0.1675423E-008  0.6940946E+02  0.7546771E-02  0.1473723E+00
          4   -1    0    0  503    0 -0.00000000000E+00  0.00000000000E+00  0.16146775983E+04  0.16146775983E+04  0.00000000000E+00 0. -1.
          2   -1    0    0  502    0  0.00000000000E+00 -0.00000000000E+00 -0.20162642649E+04  0.20162642649E+04  0.00000000000E+00 0. -1.
         24    2    1    2    0    0  0.20314056250E+03  0.34974561943E+02 -0.50967105307E+03  0.55935441154E+03  0.10307020548E+03 0.  0.
         25    2    1    2    0    0 -0.13004282230E+03 -0.18408887425E+02  0.32364132816E+03  0.37096925723E+03  0.12499783098E+03 0.  0.
         24    2    1    2    0    0 -0.46524162416E+02 -0.54511044655E+02  0.63612974083E+02  0.12564632717E+03  0.81267689654E+02 0.  0.
        -13    1    3    3    0    0  0.56426235269E+02  0.46776860307E+02 -0.25377711807E+03  0.26414923877E+03  0.00000000000E+00 0.  1.
         14    1    3    3    0    0  0.14671432723E+03 -0.11802298364E+02 -0.25589393501E+03  0.29520517278E+03  0.00000000000E+00 0. -1.
        -13    1    5    5    0    0  0.17607032122E+02 -0.30477427216E+01 -0.49973463160E+01  0.18554508510E+02  0.00000000000E+00 0.  1.
         14    1    5    5    0    0 -0.64131194537E+02 -0.51463301933E+02  0.68610320399E+02  0.10709181866E+03  0.00000000000E+00 0. -1.
          5    1    4    4  501    0 -0.82431536711E+02 -0.39390054561E+02  0.79179058571E+02  0.12098738760E+03  0.47000000000E+01 0. -1.
         -5    1    4    4    0  501 -0.47611285587E+02  0.20981167136E+02  0.24446226958E+03  0.24998186962E+03  0.47000000000E+01 0. -1.
          1    1    1    2  502    0 -0.55654150267E+02  0.41553313612E+02 -0.14260385297E+04  0.14277289486E+04  0.00000000000E+00 0. -1.
          3    1    1    2  503    0  0.29080572483E+02 -0.36079434754E+01  0.11468686139E+04  0.11472429187E+04  0.00000000000E+00 0. -1.
<mgrwt>
<rscale>  0 0.45099248E+02</rscale>
<asrwt>0</asrwt>
<pdfrwt beam="2">  1        2 0.29650945E+00 0.69409456E+02</pdfrwt>
<pdfrwt beam="1">  1        4 0.23745259E+00 0.29303531E+02</pdfrwt>
<totfact> 0.44582654E-01</totfact>
</mgrwt>
</event>
<event>
13    1  0.1675423E-008  0.1506093E+03  0.7546771E-02  0.1240638E+00
          2   -1    0    0  502    0  0.00000000000E+00  0.00000000000E+00  0.31556278783E+04  0.31556278783E+04  0.00000000000E+00 0. -1.
          2   -1    0    0  503    0 -0.00000000000E+00 -0.00000000000E+00 -0.29782728747E+04  0.29782728747E+04  0.00000000000E+00 0. -1.
         24    2    1    2    0    0  0.10465148305E+04  0.88020542531E+03  0.15548824152E+03  0.13795808000E+04  0.95455274175E+02 0.  0.
         25    2    1    2    0    0 -0.82738191740E+03 -0.94000144336E+02 -0.55536390109E+03  0.10086874802E+04  0.12499802316E+03 0.  0.
         24    2    1    2    0    0 -0.18672424280E+02 -0.63966485807E+03 -0.52293086842E+03  0.83040894081E+03  0.81255927478E+02 0.  0.
        -11    1    5    5    0    0 -0.43704010244E+02 -0.22201363845E+03 -0.16967738542E+03  0.28282593815E+03  0.00000000000E+00 0.  1.
         12    1    5    5    0    0  0.25031585963E+02 -0.41765121962E+03 -0.35325348300E+03  0.54758300266E+03  0.00000000000E+00 0. -1.
        -13    1    3    3    0    0  0.51972372315E+03  0.40408419397E+03  0.11551011350E+03  0.66838564508E+03  0.00000000000E+00 0.  1.
         14    1    3    3    0    0  0.52679110736E+03  0.47612123134E+03  0.39978128016E+02  0.71119515496E+03  0.00000000000E+00 0. -1.
          5    1    4    4  501    0 -0.53135955855E+03 -0.39400373657E+02 -0.28611376588E+03  0.60479628548E+03  0.47000000000E+01 0.  1.
         -5    1    4    4    0  501 -0.29602235885E+03 -0.54599770679E+02 -0.26925013520E+03  0.40389119476E+03  0.47000000000E+01 0.  1.
          1    1    1    2  502    0 -0.12419518789E+03 -0.84962621521E+02  0.20022141940E+04  0.20078607448E+04  0.00000000000E+00 0. -1.
          1    1    1    2  503    0 -0.76265300941E+02 -0.61577801384E+02 -0.90205266235E+03  0.90736278709E+03  0.00000000000E+00 0. -1.
<mgrwt>
<rscale>  0 0.12150289E+03</rscale>
<asrwt>0</asrwt>
<pdfrwt beam="1">  1        2 0.46406293E+00 0.15060926E+03</pdfrwt>
<pdfrwt beam="2">  1        2 0.43798130E+00 0.98021537E+02</pdfrwt>
<totfact> 0.10375900E+00</totfact>
</mgrwt>
</event>
<event>
13    1  0.1675423E-008  0.1484068E+03  0.7546771E-02  0.1227518E+00
          2   -1    0    0  503    0  0.00000000000E+00  0.00000000000E+00  0.70551525360E+03  0.70551525360E+03  0.00000000000E+00 0. -1.
         -1   -1    0    0    0  501 -0.00000000000E+00 -0.00000000000E+00 -0.74442333027E+03  0.74442333027E+03  0.00000000000E+00 0.  1.
         24    2    1    2    0    0 -0.21252489325E+02  0.61625116280E+02 -0.58159456933E+02  0.11716992349E+03  0.78082938476E+02 0.  0.
         25    2    1    2    0    0 -0.63059400158E+02  0.11499627913E+02 -0.26855715079E+03  0.30308426378E+03  0.12501359252E+03 0.  0.
         24    2    1    2    0    0  0.11013879241E+03 -0.92287307332E+02 -0.92535102343E+02  0.19044666488E+03  0.84021939463E+02 0.  0.
        -13    1    5    5    0    0  0.74976623193E+02 -0.13910841541E+02 -0.22197290345E+02  0.79421188838E+02  0.00000000000E+00 0.  1.
         14    1    5    5    0    0  0.35162169212E+02 -0.78376465791E+02 -0.70337811998E+02  0.11102547604E+03  0.00000000000E+00 0. -1.
        -13    1    3    3    0    0  0.30988359583E+01 -0.10208100981E+02  0.10421527808E+02  0.14913629732E+02  0.00000000000E+00 0.  1.
         14    1    3    3    0    0 -0.24351325284E+02  0.71833217261E+02 -0.68580984741E+02  0.10225629376E+03  0.00000000000E+00 0. -1.
          5    1    4    4  502    0 -0.10322960321E+02 -0.14579661038E+02  0.81229682751E+01  0.20179262607E+02  0.47000000000E+01 0.  1.
         -5    1    4    4    0  502 -0.52736439838E+02  0.26079288951E+02 -0.27668011907E+03  0.28290500117E+03  0.47000000000E+01 0.  1.
          1    1    1    2  503    0  0.38376598561E+02  0.14526819958E+03  0.57740344887E+03  0.59663251327E+03  0.00000000000E+00 0. -1.
         -2    1    1    2    0  501 -0.64203501482E+02 -0.12610563644E+03 -0.19705981548E+03  0.24260521845E+03  0.00000000000E+00 0.  1.
<mgrwt>
<rscale>  0 0.12995826E+03</rscale>
<asrwt>0</asrwt>
<pdfrwt beam="1">  1        2 0.10375224E+00 0.14840685E+03</pdfrwt>
<pdfrwt beam="2">  1       -1 0.10947402E+00 0.11380302E+03</pdfrwt>
<totfact> 0.44049146E+01</totfact>
</mgrwt>
</event>
<event>
13    1  0.1675423E-008  0.3177769E+02  0.7546771E-02  0.1590630E+00
          2   -1    0    0  503    0  0.00000000000E+00  0.00000000000E+00  0.30320981504E+04  0.30320981504E+04  0.00000000000E+00 0. -1.
          2   -1    0    0  502    0 -0.00000000000E+00 -0.00000000000E+00 -0.98084587727E+03  0.98084587727E+03  0.00000000000E+00 0. -1.
         24    2    1    2    0    0 -0.28122221031E+03 -0.46492930211E+03  0.88315288976E+03  0.10408019351E+04  0.89802304708E+02 0.  0.
         25    2    1    2    0    0 -0.29487059696E+03  0.30811075434E+03  0.35720533596E+03  0.57017738316E+03  0.12500276133E+03 0.  0.
         24    2    1    2    0    0  0.60622470431E+03  0.18781327787E+03  0.94210408358E+02  0.64495664033E+03  0.65660089880E+02 0.  0.
        -13    1    3    3    0    0 -0.15573137741E+03 -0.21634973231E+03  0.35744165168E+03  0.44589685235E+03  0.00000000000E+00 0.  1.
         14    1    3    3    0    0 -0.12549083290E+03 -0.24857956981E+03  0.52571123807E+03  0.59490508277E+03  0.00000000000E+00 0. -1.
        -13    1    5    5    0    0  0.17397046950E+03  0.54766718857E+02  0.57345565455E+02  0.19119004062E+03  0.00000000000E+00 0.  1.
         14    1    5    5    0    0  0.43225423481E+03  0.13304655901E+03  0.36864842903E+02  0.45376659971E+03  0.00000000000E+00 0. -1.
          5    1    4    4  501    0 -0.23484995460E+03  0.30385187713E+03  0.30815316927E+03  0.49240321906E+03  0.47000000000E+01 0. -1.
         -5    1    4    4    0  501 -0.60020642365E+02  0.42588772113E+01  0.49052166688E+02  0.77774164102E+02  0.47000000000E+01 0. -1.
          1    1    1    2  502    0 -0.31746590141E+02 -0.14074551210E+01 -0.51949916690E+03  0.52047018294E+03  0.00000000000E+00 0. -1.
          1    1    1    2  503    0  0.16146931037E+01 -0.29587274970E+02  0.12361828060E+04  0.12365378861E+04  0.00000000000E+00 0. -1.
<mgrwt>
<rscale>  0 0.30685737E+02</rscale>
<asrwt>0</asrwt>
<pdfrwt beam="1">  1        2 0.44589678E+00 0.29631302E+02</pdfrwt>
<pdfrwt beam="2">  1        2 0.14424204E+00 0.31777693E+02</pdfrwt>
<totfact> 0.16953845E+01</totfact>
</mgrwt>
</event>
<event>
13    1  0.1675423E-008  0.1426184E+03  0.7546771E-02  0.1378757E+00
          2   -1    0    0  502    0  0.00000000000E+00  0.00000000000E+00  0.17278538621E+04  0.17278538621E+04  0.00000000000E+00 0. -1.
          4   -1    0    0  503    0 -0.00000000000E+00 -0.00000000000E+00 -0.28058545200E+03  0.28058545200E+03  0.00000000000E+00 0. -1.
         24    2    1    2    0    0  0.20422706302E+03  0.52402333340E+02  0.57583968846E+03  0.62084171287E+03  0.96945282618E+02 0.  0.
         25    2    1    2    0    0  0.72923857843E+02 -0.12882794704E+03 -0.48072856806E+02  0.19961646859E+03  0.12498482304E+03 0.  0.
         24    2    1    2    0    0 -0.40298730821E+02  0.25981842663E+02  0.14593805225E+03  0.17304442949E+03  0.79670669822E+02 0.  0.
        -11    1    3    3    0    0  0.76952911971E+01 -0.38295218657E+01  0.13099892823E+03  0.13128062287E+03  0.00000000000E+00 0.  1.
         12    1    3    3    0    0  0.19653177182E+03  0.56231855205E+02  0.44484076023E+03  0.48956109000E+03  0.00000000000E+00 0. -1.
        -11    1    5    5    0    0  0.10967015075E+02 -0.14033342425E+02  0.73802594288E+02  0.75921229198E+02  0.00000000000E+00 0.  1.
         12    1    5    5    0    0 -0.51265745896E+02  0.40015185088E+02  0.72135457957E+02  0.97123200290E+02  0.00000000000E+00 0. -1.
          5    1    4    4  501    0  0.83040954869E+01 -0.28618486998E+02 -0.71862634649E+02  0.77937821747E+02  0.47000000000E+01 0.  1.
         -5    1    4    4    0  501  0.64619762356E+02 -0.10020946004E+03  0.23789777843E+02  0.12167864685E+03  0.47000000000E+01 0.  1.
          1    1    1    2  502    0 -0.22394959595E+03  0.76899943033E+02  0.87647621007E+03  0.90789733427E+03  0.00000000000E+00 0. -1.
          3    1    1    2  503    0 -0.12902594093E+02 -0.26456171997E+02 -0.10291268391E+03  0.10703936884E+03  0.00000000000E+00 0. -1.
<mgrwt>
<rscale>  0 0.64791519E+02</rscale>
<asrwt>0</asrwt>
<pdfrwt beam="1">  1        2 0.25409615E+00 0.14261842E+03</pdfrwt>
<pdfrwt beam="2">  1        4 0.41262567E-01 0.29434775E+02</pdfrwt>
<totfact> 0.29760846E+01</totfact>
</mgrwt>
</event>
<event>
13    1  0.1675423E-008  0.7056333E+02  0.7546771E-02  0.1424055E+00
          2   -1    0    0  503    0  0.00000000000E+00  0.00000000000E+00  0.11877570577E+04  0.11877570577E+04  0.00000000000E+00 0. -1.
          2   -1    0    0  502    0 -0.00000000000E+00 -0.00000000000E+00 -0.73893543775E+03  0.73893543775E+03  0.00000000000E+00 0. -1.
         24    2    1    2    0    0 -0.16791399362E+02  0.45600422563E+02  0.40981254712E+03  0.42047865573E+03  0.80589245687E+02 0.  0.
         25    2    1    2    0    0  0.60948676424E+02 -0.14220457121E+03  0.39519529520E+02  0.20277771567E+03  0.12498050860E+03 0.  0.
         24    2    1    2    0    0  0.50430326393E+02  0.72794040393E+02  0.19568443620E+03  0.22995475370E+03  0.82125513948E+02 0.  0.
        -13    1    5    5    0    0  0.13179466691E+02 -0.18043548696E+02  0.42320489222E+02  0.47856993217E+02  0.00000000000E+00 0.  1.
         14    1    5    5    0    0  0.37250859702E+02  0.90837589088E+02  0.15336394698E+03  0.18209776048E+03  0.00000000000E+00 0. -1.
        -13    1    3    3    0    0 -0.12480385380E+02 -0.22392034546E+02  0.12869509021E+03  0.13122343340E+03  0.00000000000E+00 0.  1.
         14    1    3    3    0    0 -0.43110139826E+01  0.67992457109E+02  0.28111745691E+03  0.28925522233E+03  0.00000000000E+00 0. -1.
          5    1    4    4  501    0  0.41933927067E+02 -0.46604988484E+02 -0.42012396310E+02  0.75614883685E+02  0.47000000000E+01 0. -1.
         -5    1    4    4    0  501  0.19014749357E+02 -0.95599582724E+02  0.81531925830E+02  0.12716283199E+03  0.47000000000E+01 0. -1.
          1    1    1    2  502    0 -0.25187475641E+02  0.33093482988E+02 -0.63135547679E+03  0.63272373562E+03  0.00000000000E+00 0. -1.
          1    1    1    2  503    0 -0.69400127813E+02 -0.92833747357E+01  0.43516058389E+03  0.44075763471E+03  0.00000000000E+00 0. -1.
<mgrwt>
<rscale>  0 0.54172039E+02</rscale>
<asrwt>0</asrwt>
<pdfrwt beam="1">  1        2 0.17467016E+00 0.70563334E+02</pdfrwt>
<pdfrwt beam="2">  1        2 0.10866698E+00 0.41588310E+02</pdfrwt>
<totfact> 0.16161428E+02</totfact>
</mgrwt>
</event>
<event>
13    1  0.1675423E-008  0.1991477E+03  0.7546771E-02  0.1297856E+00
          2   -1    0    0  503    0  0.00000000000E+00  0.00000000000E+00  0.10861777459E+04  0.10861777459E+04  0.00000000000E+00 0. -1.
          2   -1    0    0  502    0 -0.00000000000E+00 -0.00000000000E+00 -0.23643868770E+04  0.23643868770E+04  0.00000000000E+00 0. -1.
         24    2    1    2    0    0  0.47204097319E+02 -0.31205467988E+03  0.93382550961E+02  0.34039802379E+03  0.86857145596E+02 0.  0.
         25    2    1    2    0    0  0.10703673260E+03  0.63131040079E+02 -0.44437671328E+03  0.47805561253E+03  0.12499646004E+03 0.  0.
         24    2    1    2    0    0 -0.53551288557E+02  0.11189706313E+03  0.92138480887E+02  0.16641293372E+03  0.61766265924E+02 0.  0.
        -11    1    5    5    0    0 -0.54351631070E+02  0.48698473178E+02  0.33891526281E+02  0.80462889854E+02  0.00000000000E+00 0.  1.
         12    1    5    5    0    0  0.80034251314E+00  0.63198589948E+02  0.58246954606E+02  0.85950043865E+02  0.00000000000E+00 0. -1.
        -11    1    3    3    0    0  0.18101386532E+02 -0.12430285663E+03 -0.64359741589E+01  0.12577870298E+03  0.00000000000E+00 0.  1.
         12    1    3    3    0    0  0.29102710787E+02 -0.18775182325E+03  0.99818525119E+02  0.21461932081E+03  0.00000000000E+00 0. -1.
          5    1    4    4  501    0  0.77997853239E+02  0.63256280409E+02 -0.43604068659E+03  0.44748027050E+03  0.47000000000E+01 0.  1.
         -5    1    4    4    0  501  0.29038879359E+02 -0.12524033015E+00 -0.83360266835E+01  0.30575342033E+02  0.47000000000E+01 0.  1.
          1    1    1    2  502    0 -0.43451408140E+01 -0.42366907706E+02 -0.17279239999E+04  0.17284487799E+04  0.00000000000E+00 0. -1.
          1    1    1    2  503    0 -0.96344400545E+02  0.17939348438E+03  0.70857055030E+03  0.73724927298E+03  0.00000000000E+00 0. -1.
<mgrwt>
<rscale>  0 0.92095216E+02</rscale>
<asrwt>0</asrwt>
<pdfrwt beam="1">  1        2 0.15973203E+00 0.19914767E+03</pdfrwt>
<pdfrwt beam="2">  1        2 0.34770394E+00 0.42589143E+02</pdfrwt>
<totfact> 0.26867740E+01</totfact>
</mgrwt>
</event>
<event>
13    1  0.1675423E-008  0.9918322E+02  0.7546771E-02  0.1400861E+00
          2   -1    0    0  502    0  0.00000000000E+00  0.00000000000E+00  0.25387428844E+04  0.25387428844E+04  0.00000000000E+00 0. -1.
          2   -1    0    0  503    0 -0.00000000000E+00 -0.00000000000E+00 -0.18989660448E+04  0.18989660448E+04  0.00000000000E+00 0. -1.
         24    2    1    2    0    0  0.59968710381E+02 -0.12105302014E+03  0.77417541649E+03  0.78999562880E+03  0.80594280887E+02 0.  0.
         25    2    1    2    0    0 -0.14987122977E+02  0.81293525178E+02 -0.25830493945E+03  0.29862933176E+03  0.12499913982E+03 0.  0.
         24    2    1    2    0    0 -0.10892629901E+03  0.42677155304E+02 -0.46774038790E+02  0.14985079803E+03  0.81124427664E+02 0.  0.
        -11    1    5    5    0    0 -0.62061049089E+01  0.69094354196E+01  0.20118171910E+02  0.22158449336E+02  0.00000000000E+00 0.  1.
         12    1    5    5    0    0 -0.10272019410E+03  0.35767719884E+02 -0.66892210700E+02  0.12769234869E+03  0.00000000000E+00 0. -1.
        -13    1    3    3    0    0  0.18656918279E+02 -0.17058003287E+02  0.36258225560E+03  0.36346244394E+03  0.00000000000E+00 0.  1.
         14    1    3    3    0    0  0.41311792101E+02 -0.10399501685E+03  0.41159316089E+03  0.42653318486E+03  0.00000000000E+00 0. -1.
          5    1    4    4  501    0  0.18800521662E+01  0.14810744324E+02  0.11997304064E+02  0.19721005258E+02  0.47000000000E+01 0. -1.
         -5    1    4    4    0  501 -0.16867175143E+02  0.66482780854E+02 -0.27030224351E+03  0.27890832651E+03  0.47000000000E+01 0. -1.
          1    1    1    2  502    0  0.98970777426E+02 -0.82882192843E+01  0.16832855746E+04  0.16862129862E+04  0.00000000000E+00 0. -1.
          1    1    1    2  503    0 -0.35026065821E+02  0.53705589406E+01 -0.15126051733E+04  0.15130201844E+04  0.00000000000E+00 0. -1.
<mgrwt>
<rscale>  0 0.59284043E+02</rscale>
<asrwt>0</asrwt>
<pdfrwt beam="1">  1        2 0.37334454E+00 0.99183215E+02</pdfrwt>
<pdfrwt beam="2">  1        2 0.27925971E+00 0.35435409E+02</pdfrwt>
<totfact> 0.89056035E+00</totfact>
</mgrwt>
</event>
<event>
13    1  0.1675423E-008  0.3456947E+03  0.7546771E-02  0.1242392E+00
          2   -1    0    0  502    0  0.00000000000E+00  0.00000000000E+00  0.22210739961E+04  0.22210739961E+04  0.00000000000E+00 0. -1.
          2   -1    0    0  503    0 -0.00000000000E+00 -0.00000000000E+00 -0.20858170828E+04  0.20858170828E+04  0.00000000000E+00 0. -1.
         24    2    1    2    0    0 -0.23462668058E+01 -0.25094720236E+03  0.18075754322E+03  0.31872618346E+03  0.77026536039E+02 0.  0.
         25    2    1    2    0    0  0.84288003242E+02 -0.15394525784E+03  0.71763658522E+02  0.22710343546E+03  0.12498935080E+03 0.  0.
         24    2    1    2    0    0  0.25659352508E+03  0.56985111097E+03  0.48275205883E+03  0.79176185258E+03  0.57155534418E+02 0.  0.
        -13    1    5    5    0    0  0.20570066421E+03  0.43914767276E+03  0.34474663956E+03  0.59499049340E+03  0.00000000000E+00 0.  1.
         14    1    5    5    0    0  0.50892860871E+02  0.13070343821E+03  0.13800541927E+03  0.19677135918E+03  0.00000000000E+00 0. -1.
        -13    1    3    3    0    0 -0.27779290072E+02 -0.53619463850E+02  0.22292113034E+02  0.64371376900E+02  0.00000000000E+00 0.  1.
         14    1    3    3    0    0  0.25433023266E+02 -0.19732773851E+03  0.15846543019E+03  0.25435480656E+03  0.00000000000E+00 0. -1.
          5    1    4    4  501    0  0.14236182405E+02 -0.13913743647E+03  0.67100641842E+02  0.15519819991E+03  0.47000000000E+01 0. -1.
         -5    1    4    4    0  501  0.70051820838E+02 -0.14807821362E+02  0.46630166795E+01  0.71905235559E+02  0.47000000000E+01 0. -1.
          1    1    1    2  502    0 -0.29713877438E+03 -0.17177145542E+03  0.11595271595E+04  0.12092560182E+04  0.00000000000E+00 0. -1.
          1    1    1    2  503    0 -0.41396487140E+02  0.68128046448E+01 -0.17595435067E+04  0.17600435891E+04  0.00000000000E+00 0. -1.
<mgrwt>
<rscale>  0 0.12042861E+03</rscale>
<asrwt>0</asrwt>
<pdfrwt beam="1">  1        2 0.32662853E+00 0.34569472E+03</pdfrwt>
<pdfrwt beam="2">  1        2 0.30673780E+00 0.41953349E+02</pdfrwt>
<totfact> 0.89799594E+00</totfact>
</mgrwt>
</event>
<event>
13    1  0.1675423E-008  0.1309065E+03  0.7546771E-02  0.1267154E+00
          2   -1    0    0  503    0  0.00000000000E+00  0.00000000000E+00  0.29738670694E+04  0.29738670694E+04  0.00000000000E+00 0. -1.
          2   -1    0    0  502    0 -0.00000000000E+00 -0.00000000000E+00 -0.16433324160E+04  0.16433324160E+04  0.00000000000E+00 0. -1.
         24    2    1    2    0    0  0.19847778093E+02  0.93705654366E+02  0.52173829144E+03  0.53628967173E+03  0.78873844163E+02 0.  0.
         25    2    1    2    0    0 -0.62238019925E+02  0.78285157737E+02 -0.18848526125E+03  0.24729308859E+03  0.12500016365E+03 0.  0.
         24    2    1    2    0    0  0.11217283310E+03 -0.89836022391E+02  0.40522565536E+03  0.43580715326E+03  0.71181371639E+02 0.  0.
        -13    1    5    5    0    0  0.34513758923E+02 -0.50378474312E+02  0.25447032837E+03  0.26169512462E+03  0.00000000000E+00 0.  1.
         14    1    5    5    0    0  0.77659074178E+02 -0.39457548079E+02  0.15075532699E+03  0.17411202865E+03  0.00000000000E+00 0. -1.
        -13    1    3    3    0    0 -0.19858373876E+02  0.25813500815E+02  0.63648136980E+02  0.71496693479E+02  0.00000000000E+00 0.  1.
         14    1    3    3    0    0  0.39706151969E+02  0.67892153551E+02  0.45809015446E+03  0.46479297825E+03  0.00000000000E+00 0. -1.
          5    1    4    4  501    0 -0.63196774655E+02  0.52563360493E+02 -0.31518258177E+02  0.88160250633E+02  0.47000000000E+01 0. -1.
         -5    1    4    4    0  501  0.95875472991E+00  0.25721797244E+02 -0.15696700307E+03  0.15913283796E+03  0.47000000000E+01 0. -1.
          1    1    1    2  502    0  0.85871416171E+02  0.11782404862E+02 -0.13973891977E+04  0.14000747462E+04  0.00000000000E+00 0. -1.
          1    1    1    2  503    0 -0.15565400744E+03 -0.93937194575E+02  0.19894451655E+04  0.19977348255E+04  0.00000000000E+00 0. -1.
<mgrwt>
<rscale>  0 0.10651971E+03</rscale>
<asrwt>0</asrwt>
<pdfrwt beam="1">  1        2 0.43733339E+00 0.13090648E+03</pdfrwt>
<pdfrwt beam="2">  1        2 0.24166653E+00 0.86675978E+02</pdfrwt>
<totfact> 0.61609181E+00</totfact>
</mgrwt>
</event>
<event>
13    1  0.1675423E-008  0.9521797E+02  0.7546771E-02  0.1373192E+00
          2   -1    0    0  502    0  0.00000000000E+00  0.00000000000E+00  0.20729782551E+04  0.20729782551E+04  0.00000000000E+00 0. -1.
          2   -1    0    0  503    0 -0.00000000000E+00 -0.00000000000E+00 -0.83846613639E+03  0.83846613639E+03  0.00000000000E+00 0. -1.
         24    2    1    2    0    0  0.30328707459E+02  0.19027623647E+02  0.24343140439E+03  0.26020258193E+03  0.84644279432E+02 0.  0.
         25    2    1    2    0    0  0.42266958264E+02 -0.60957850663E+02 -0.27714219624E+03  0.31294633921E+03  0.12500103587E+03 0.  0.
         24    2    1    2    0    0 -0.10940766512E+02 -0.55618024915E+01  0.42393919990E+02  0.92554664696E+02  0.81354087089E+02 0.  0.
        -11    1    5    5    0    0  0.86769337200E+01  0.11940730552E+02 -0.19994781537E+02  0.24852796897E+02  0.00000000000E+00 0.  1.
         12    1    5    5    0    0 -0.19617700232E+02 -0.17502533043E+02  0.62388701527E+02  0.67701867799E+02  0.00000000000E+00 0. -1.
        -13    1    3    3    0    0  0.50475215339E+02  0.30872206171E+02  0.11158992207E+03  0.12630578445E+03  0.00000000000E+00 0.  1.
         14    1    3    3    0    0 -0.20146507880E+02 -0.11844582524E+02  0.13184148232E+03  0.13389679748E+03  0.00000000000E+00 0. -1.
          5    1    4    4  501    0  0.14924252358E+02 -0.79878016920E+02 -0.84227384501E+02  0.11713058181E+03  0.47000000000E+01 0. -1.
         -5    1    4    4    0  501  0.27342705905E+02  0.18920166257E+02 -0.19291481173E+03  0.19581575739E+03  0.47000000000E+01 0. -1.
          1    1    1    2  502    0 -0.10751575190E+03  0.42357288379E+02  0.17328124725E+04  0.17366614067E+04  0.00000000000E+00 0. -1.
          1    1    1    2  503    0  0.45860852692E+02  0.51347411281E+01 -0.50698348197E+03  0.50907939889E+03  0.00000000000E+00 0. -1.
<mgrwt>
<rscale>  0 0.66287726E+02</rscale>
<asrwt>0</asrwt>
<pdfrwt beam="1">  1        2 0.30484974E+00 0.95217969E+02</pdfrwt>
<pdfrwt beam="2">  1        2 0.12330384E+00 0.46147409E+02</pdfrwt>
<totfact> 0.50070271E+01</totfact>
</mgrwt>
</event>
<event>
13    1  0.1675423E-008  0.1455196E+03  0.7546771E-02  0.1215535E+00
          2   -1    0    0  503    0  0.00000000000E+00  0.00000000000E+00  0.26437861864E+04  0.26437861864E+04  0.00000000000E+00 0. -1.
          2   -1    0    0  502    0 -0.00000000000E+00 -0.00000000000E+00 -0.10482931211E+04  0.10482931211E+04  0.00000000000E+00 0. -1.
         24    2    1    2    0    0  0.12536390336E+03  0.52906534621E+02  0.11139746496E+04  0.11252567210E+04  0.82145959147E+02 0.  0.
         25    2    1    2    0    0 -0.14389231014E+03  0.20229317693E+03  0.14318395760E+03  0.31265982405E+03  0.12500797379E+03 0.  0.
         24    2    1    2    0    0 -0.28628735864E+01  0.54477823985E+02 -0.12258118023E+02  0.98226017300E+02  0.80759269844E+02 0.  0.
        -11    1    5    5    0    0  0.28500630925E+02  0.29820402905E+02  0.20998578072E+02  0.46286960082E+02  0.00000000000E+00 0.  1.
         12    1    5    5    0    0 -0.31363504512E+02  0.24657421080E+02 -0.33256696095E+02  0.51939057218E+02  0.00000000000E+00 0. -1.
        -13    1    3    3    0    0  0.15409649117E+01 -0.10270221024E+02  0.24617993601E+03  0.24639888982E+03  0.00000000000E+00 0.  1.
         14    1    3    3    0    0  0.12382293844E+03  0.63176755645E+02  0.86779471356E+03  0.87885783117E+03  0.00000000000E+00 0. -1.
          5    1    4    4  501    0  0.12568746618E+02  0.49888117318E+02  0.39034142298E+00  0.51662752613E+02  0.47000000000E+01 0. -1.
         -5    1    4    4    0  501 -0.15646105676E+03  0.15240505961E+03  0.14279361618E+03  0.26099707144E+03  0.47000000000E+01 0. -1.
          1    1    1    2  502    0  0.94188420923E+02 -0.18344800299E+03 -0.88656262344E+03  0.91022959395E+03  0.00000000000E+00 0. -1.
          1    1    1    2  503    0 -0.72797140547E+02 -0.12622953254E+03  0.12371551996E+04  0.12457071512E+04  0.00000000000E+00 0. -1.
<mgrwt>
<rscale>  0 0.13837289E+03</rscale>
<asrwt>0</asrwt>
<pdfrwt beam="1">  1        2 0.38879209E+00 0.14551958E+03</pdfrwt>
<pdfrwt beam="2">  1        2 0.15416075E+00 0.13157719E+03</pdfrwt>
<totfact> 0.17832389E+01</totfact>
</mgrwt>
</event>
<event>
13    1  0.1675423E-008  0.1155327E+03  0.7546771E-02  0.1274757E+00
          2   -1    0    0  503    0  0.00000000000E+00  0.00000000000E+00  0.11140219379E+04  0.11140219379E+04  0.00000000000E+00 0. -1.
          2   -1    0    0  502    0 -0.00000000000E+00 -0.00000000000E+00 -0.14591768703E+04  0.14591768703E+04  0.00000000000E+00 0. -1.
         24    2    1    2    0    0  0.20581500681E+01  0.78314163276E+02  0.50332071828E+03  0.51666501942E+03  0.86450290298E+02 0.  0.
         25    2    1    2    0    0 -0.14686948718E+03 -0.17674695173E+03 -0.46060744697E+03  0.52971027536E+03  0.12499449750E+03 0.  0.
         24    2    1    2    0    0  0.50027587245E+02  0.22621305839E+02  0.10561566034E+03  0.14334959939E+03  0.79874632855E+02 0.  0.
        -11    1    5    5    0    0  0.46795380996E+02  0.11980256992E+02  0.12938259306E+02  0.50007327403E+02  0.00000000000E+00 0.  1.
         12    1    5    5    0    0  0.32322062487E+01  0.10641048847E+02  0.92677401032E+02  0.93342271988E+02  0.00000000000E+00 0. -1.
        -13    1    3    3    0    0 -0.23063152682E+02 -0.47606567625E+01  0.19315957204E+03  0.19458980738E+03  0.00000000000E+00 0.  1.
         14    1    3    3    0    0  0.25121302750E+02  0.83074820039E+02  0.31016114623E+03  0.32207521204E+03  0.00000000000E+00 0. -1.
          5    1    4    4  501    0 -0.54578028786E+02 -0.22741945146E+02 -0.37791539970E+02  0.70329565535E+02  0.47000000000E+01 0.  1.
         -5    1    4    4    0  501 -0.92291458398E+02 -0.15400500659E+03 -0.42281590700E+03  0.45938070983E+03  0.47000000000E+01 0.  1.
          1    1    1    2  502    0 -0.19560708737E+02  0.89138011252E+02 -0.92875974541E+03  0.93323248501E+03  0.00000000000E+00 0. -1.
          1    1    1    2  503    0  0.11434445861E+03 -0.13326528633E+02  0.43527588133E+03  0.45024142907E+03  0.00000000000E+00 0. -1.
<mgrwt>
<rscale>  0 0.10268104E+03</rscale>
<asrwt>0</asrwt>
<pdfrwt beam="1">  1        2 0.16382676E+00 0.11553266E+03</pdfrwt>
<pdfrwt beam="2">  1        2 0.21458483E+00 0.91259007E+02</pdfrwt>
<totfact> 0.66175823E+01</totfact>
</mgrwt>
</event>
<event>
13    1  0.1675423E-008  0.2264645E+03  0.7546771E-02  0.1350890E+00
         -1   -1    0    0    0  501 -0.00000000000E+00  0.00000000000E+00  0.10212290253E+04  0.10212290253E+04  0.00000000000E+00 0.  1.
          2   -1    0    0  503    0  0.00000000000E+00 -0.00000000000E+00 -0.14063743448E+04  0.14063743448E+04  0.00000000000E+00 0. -1.
         24    2    1    2    0    0  0.16771321170E+03 -0.18272858842E+03  0.10617315622E+03  0.28648569169E+03  0.96352758322E+02 0.  0.
         25    2    1    2    0    0 -0.18721694196E+03 -0.13253505714E+02 -0.41068214706E+03  0.46851965960E+03  0.12500002701E+03 0.  0.
         24    2    1    2    0    0 -0.13613741216E+03  0.37286394723E+03  0.20059576829E+02  0.40566744266E+03  0.81257426002E+02 0.  0.
        -11    1    5    5    0    0 -0.13868310260E+03  0.30283618526E+03  0.11337760979E+01  0.33308263765E+03  0.00000000000E+00 0.  1.
         12    1    5    5    0    0  0.25456904474E+01  0.70027761966E+02  0.18925800731E+02  0.72584805015E+02  0.00000000000E+00 0. -1.
        -13    1    3    3    0    0  0.11336479831E+03 -0.88531340637E+02  0.15084999223E+02  0.14462687500E+03  0.00000000000E+00 0.  1.
         14    1    3    3    0    0  0.54348413396E+02 -0.94197247786E+02  0.91088156995E+02  0.14185881669E+03  0.00000000000E+00 0. -1.
          5    1    4    4  502    0 -0.71030320384E+02  0.52255163101E+02 -0.12332585382E+03  0.15168145801E+03  0.47000000000E+01 0.  1.
         -5    1    4    4    0  502 -0.11618662158E+03 -0.65508668815E+02 -0.28735629324E+03  0.31683820159E+03  0.47000000000E+01 0.  1.
          1    1    1    2  503    0 -0.88931827261E+01 -0.21632299179E+02 -0.66165900908E+03  0.66207226899E+03  0.00000000000E+00 0. -1.
         -2    1    1    2    0  501  0.16453432514E+03 -0.15524955391E+03  0.56096310356E+03  0.60485830713E+03  0.00000000000E+00 0.  1.
<mgrwt>
<rscale>  0 0.72778963E+02</rscale>
<asrwt>0</asrwt>
<pdfrwt beam="2">  1        2 0.20681976E+00 0.23388995E+02</pdfrwt>
<pdfrwt beam="1">  1       -1 0.15018074E+00 0.22646452E+03</pdfrwt>
<totfact> 0.87939961E+00</totfact>
</mgrwt>
</event>
<event>
13    1  0.1675423E-008  0.6857571E+02  0.7546771E-02  0.1432456E+00
          2   -1    0    0  503    0  0.00000000000E+00  0.00000000000E+00  0.21346107891E+04  0.21346107891E+04  0.00000000000E+00 0. -1.
          2   -1    0    0  502    0 -0.00000000000E+00 -0.00000000000E+00 -0.18028340023E+04  0.18028340023E+04  0.00000000000E+00 0. -1.
         24    2    1    2    0    0 -0.65558128804E+02 -0.78420168301E+03 -0.37634269032E+03  0.87599692375E+03  0.80415433652E+02 0.  0.
         25    2    1    2    0    0  0.45807664442E+03  0.45461438177E+03  0.46433557087E+02  0.65900658256E+03  0.12500060942E+03 0.  0.
         24    2    1    2    0    0 -0.44613990771E+03  0.23983628963E+03 -0.27431075168E+03  0.58514830300E+03  0.10290716664E+03 0.  0.
        -11    1    5    5    0    0 -0.29655770667E+03  0.21035279141E+03 -0.17804029384E+03  0.40483714809E+03  0.00000000000E+00 0.  1.
         12    1    5    5    0    0 -0.14958220104E+03  0.29483498221E+02 -0.96270457844E+02  0.18031115492E+03  0.00000000000E+00 0. -1.
        -11    1    3    3    0    0 -0.60887671832E+02 -0.45742407977E+03 -0.25614900504E+03  0.52778443528E+03  0.00000000000E+00 0.  1.
         12    1    3    3    0    0 -0.46704569718E+01 -0.32677760324E+03 -0.12019368528E+03  0.34821248847E+03  0.00000000000E+00 0. -1.
          5    1    4    4  501    0  0.31706291479E+03  0.25437061698E+03  0.71547370778E+02  0.41276436254E+03  0.47000000000E+01 0.  1.
         -5    1    4    4    0  501  0.14101372963E+03  0.20024376479E+03 -0.25113813691E+02  0.24624222002E+03  0.47000000000E+01 0.  1.
          1    1    1    2  502    0  0.69438776644E+01  0.39542017664E+02 -0.43887789303E+03  0.44071032843E+03  0.00000000000E+00 0. -1.
          1    1    1    2  503    0  0.46677514426E+02  0.50208993944E+02  0.13748745648E+04  0.13765826536E+04  0.00000000000E+00 0. -1.
<mgrwt>
<rscale>  0 0.52470135E+02</rscale>
<asrwt>0</asrwt>
<pdfrwt beam="1">  1        2 0.31391335E+00 0.68575711E+02</pdfrwt>
<pdfrwt beam="2">  1        2 0.26512265E+00 0.40147087E+02</pdfrwt>
<totfact> 0.15998176E+01</totfact>
</mgrwt>
</event>
<event>
13    1  0.1675423E-008  0.2328156E+03  0.7546771E-02  0.1222348E+00
          2   -1    0    0  503    0  0.00000000000E+00  0.00000000000E+00  0.21779025718E+04  0.21779025718E+04  0.00000000000E+00 0. -1.
         -3   -1    0    0    0  501 -0.00000000000E+00 -0.00000000000E+00 -0.43417770575E+03  0.43417770575E+03  0.00000000000E+00 0.  1.
         24    2    1    2    0    0  0.19973217290E+03 -0.42512883362E+02  0.46010246493E+03  0.50927161373E+03  0.77220542475E+02 0.  0.
         25    2    1    2    0    0  0.12751353630E+02 -0.78538098319E+02  0.77180116980E+03  0.78589650356E+03  0.12500175477E+03 0.  0.
         24    2    1    2    0    0  0.14497148623E+02  0.23729626862E+02 -0.86814939776E+02  0.12060612518E+03  0.78966709140E+02 0.  0.
        -13    1    3    3    0    0  0.27750656523E+02 -0.32993649218E+02  0.12953238074E+03  0.13651856096E+03  0.00000000000E+00 0.  1.
         14    1    3    3    0    0  0.17198151637E+03 -0.95192341448E+01  0.33057008419E+03  0.37275305278E+03  0.00000000000E+00 0. -1.
        -13    1    5    5    0    0  0.22617578989E+02 -0.23162238647E+02 -0.53435497767E+02  0.62477168631E+02  0.00000000000E+00 0.  1.
         14    1    5    5    0    0 -0.81204303658E+01  0.46891865509E+02 -0.33379442009E+02  0.58128956545E+02  0.00000000000E+00 0. -1.
          5    1    4    4  502    0  0.34900712596E+02  0.21095994009E+02  0.14027636387E+03  0.14615966942E+03  0.47000000000E+01 0.  1.
         -5    1    4    4    0  502 -0.22149358966E+02 -0.99634092328E+02  0.63152480593E+03  0.63973683414E+03  0.47000000000E+01 0.  1.
          1    1    1    2  503    0 -0.25323350278E+03  0.25408656342E+02  0.87410247243E+03  0.91039987866E+03  0.00000000000E+00 0. -1.
         -4    1    1    2    0  501  0.26252827632E+02  0.71912698477E+02 -0.27546630129E+03  0.28590615647E+03  0.00000000000E+00 0.  1.
<mgrwt>
<rscale>  0 0.13350345E+03</rscale>
<asrwt>0</asrwt>
<pdfrwt beam="1">  1        2 0.32027978E+00 0.23281565E+03</pdfrwt>
<pdfrwt beam="2">  1       -3 0.63849664E-01 0.76554864E+02</pdfrwt>
<totfact> 0.99037944E+00</totfact>
</mgrwt>
</event>
<event>
13    1  0.1675423E-008  0.2046734E+03  0.7546771E-02  0.1211010E+00
          2   -1    0    0  503    0  0.00000000000E+00  0.00000000000E+00  0.98530856572E+03  0.98530856572E+03  0.00000000000E+00 0. -1.
         -1   -1    0    0    0  501 -0.00000000000E+00 -0.00000000000E+00 -0.63893873736E+03  0.63893873736E+03  0.00000000000E+00 0.  1.
         24    2    1    2    0    0  0.11310775573E+03 -0.10627954264E+02 -0.58368259894E+00  0.13865098187E+03  0.79482301603E+02 0.  0.
         25    2    1    2    0    0 -0.16111536408E+03 -0.14873556867E+03  0.26457229052E+03  0.36565385547E+03  0.12499526062E+03 0.  0.
         24    2    1    2    0    0  0.71123804106E+01 -0.93409932939E+02  0.10196238521E+03  0.15951020199E+03  0.79190750819E+02 0.  0.
        -13    1    3    3    0    0  0.10910806052E+03 -0.31180458408E+02  0.12182423159E+02  0.11412800398E+03  0.00000000000E+00 0.  1.
         14    1    3    3    0    0  0.39996952106E+01  0.20552504144E+02 -0.12766105758E+02  0.24522977890E+02  0.00000000000E+00 0. -1.
        -13    1    5    5    0    0  0.24219028656E+02 -0.10106126622E+03  0.85898470739E+02  0.13482762386E+03  0.00000000000E+00 0.  1.
         14    1    5    5    0    0 -0.17106648246E+02  0.76513332849E+01  0.16063914472E+02  0.24682578136E+02  0.00000000000E+00 0. -1.
          5    1    4    4  502    0  0.19178553590E+02 -0.31307319628E+02  0.43673393845E+02  0.57248759899E+02  0.47000000000E+01 0. -1.
         -5    1    4    4    0  502 -0.18029391767E+03 -0.11742824905E+03  0.22089889668E+03  0.30840509557E+03  0.47000000000E+01 0. -1.
          1    1    1    2  503    0 -0.61863095423E+02  0.76205106284E+02  0.44353087178E+03  0.45426192336E+03  0.00000000000E+00 0. -1.
         -2    1    1    2    0  501  0.10275832336E+03  0.17656834959E+03 -0.46311203655E+03  0.50617034039E+03  0.00000000000E+00 0.  1.
<mgrwt>
<rscale>  0 0.14173766E+03</rscale>
<asrwt>0</asrwt>
<pdfrwt beam="1">  1        2 0.14489832E+00 0.98154270E+02</pdfrwt>
<pdfrwt beam="2">  1       -1 0.93961579E-01 0.20467335E+03</pdfrwt>
<totfact> 0.40469026E+01</totfact>
</mgrwt>
</event>
<event>
13    1  0.1675423E-008  0.1674753E+03  0.7546771E-02  0.1200004E+00
          2   -1    0    0  502    0  0.00000000000E+00  0.00000000000E+00  0.14264228549E+04  0.14264228549E+04  0.00000000000E+00 0. -1.
          2   -1    0    0  503    0 -0.00000000000E+00 -0.00000000000E+00 -0.19578968307E+04  0.19578968307E+04  0.00000000000E+00 0. -1.
         24    2    1    2    0    0  0.33617305823E+02  0.50060819627E+02  0.29409067186E+03  0.31029538475E+03  0.78470973026E+02 0.  0.
         25    2    1    2    0    0  0.66049299713E+02  0.20083489968E+03 -0.95070913082E+03  0.98192142708E+03  0.12499868247E+03 0.  0.
         24    2    1    2    0    0  0.82209957159E+02 -0.15227381584E+03 -0.23451895503E+02  0.19168971627E+03  0.79051653218E+02 0.  0.
        -11    1    3    3    0    0 -0.12959032949E+01 -0.17433766454E+02  0.10604294220E+03  0.10747428143E+03  0.00000000000E+00 0.  1.
         12    1    3    3    0    0  0.34913209118E+02  0.67494586081E+02  0.18804772966E+03  0.20282110332E+03  0.00000000000E+00 0. -1.
        -13    1    5    5    0    0 -0.68701072070E+01 -0.36621565050E+02  0.15878245773E+02  0.40502544223E+02  0.00000000000E+00 0.  1.
         14    1    5    5    0    0  0.89080064366E+02 -0.11565225079E+03 -0.39330141276E+02  0.15118717205E+03  0.00000000000E+00 0. -1.
          5    1    4    4  501    0  0.37314431812E+02  0.70030409890E+02 -0.62028543723E+03  0.62535808844E+03  0.47000000000E+01 0. -1.
         -5    1    4    4    0  501  0.28734867901E+02  0.13080448979E+03 -0.33042369359E+03  0.35656333865E+03  0.47000000000E+01 0. -1.
          1    1    1    2  502    0 -0.31628641287E+03 -0.87201875994E+02  0.99274507919E+03  0.10455544244E+04  0.00000000000E+00 0. -1.
          1    1    1    2  503    0  0.13440985018E+03 -0.11420027481E+02 -0.84414870060E+03  0.85485873311E+03  0.00000000000E+00 0. -1.
<mgrwt>
<rscale>  0 0.15038224E+03</rscale>
<asrwt>0</asrwt>
<pdfrwt beam="1">  1        2 0.20976807E+00 0.16747533E+03</pdfrwt>
<pdfrwt beam="2">  1        2 0.28792600E+00 0.13503372E+03</pdfrwt>
<totfact> 0.24369926E+01</totfact>
</mgrwt>
</event>
<event>
13    1  0.1675423E-008  0.1466279E+03  0.7546771E-02  0.1218849E+00
          2   -1    0    0  503    0  0.00000000000E+00  0.00000000000E+00  0.90126753637E+03  0.90126753637E+03  0.00000000000E+00 0. -1.
          2   -1    0    0  502    0 -0.00000000000E+00 -0.00000000000E+00 -0.79822915761E+03  0.79822915761E+03  0.00000000000E+00 0. -1.
         24    2    1    2    0    0  0.10555255175E+03  0.63555123790E+02  0.59337890888E+03  0.61131325662E+03  0.80154683416E+02 0.  0.
         25    2    1    2    0    0 -0.10448147396E+02 -0.33456027836E+03 -0.13329990579E+03  0.38135806522E+03  0.12500146154E+03 0.  0.
         24    2    1    2    0    0 -0.24056768032E+02  0.57560791690E+02 -0.66355900581E+02  0.12190783821E+03  0.81033589622E+02 0.  0.
        -11    1    5    5    0    0 -0.51149788847E+02  0.47213903551E+02 -0.60704792507E+02  0.92360843549E+02  0.00000000000E+00 0.  1.
         12    1    5    5    0    0  0.27093020815E+02  0.10346888139E+02 -0.56511080744E+01  0.29546994661E+02  0.00000000000E+00 0. -1.
        -13    1    3    3    0    0  0.11143942711E+03  0.54883432046E+02  0.42959598916E+03  0.44719531631E+03  0.00000000000E+00 0.  1.
         14    1    3    3    0    0 -0.58868753585E+01  0.86716917443E+01  0.16378291972E+03  0.16411794030E+03  0.00000000000E+00 0. -1.
          5    1    4    4  501    0  0.52628715628E+02 -0.14886282352E+03 -0.84768378732E+02  0.17926988026E+03  0.47000000000E+01 0. -1.
         -5    1    4    4    0  501 -0.63076863025E+02 -0.18569745484E+03 -0.48531527053E+02  0.20208818496E+03  0.47000000000E+01 0. -1.
          1    1    1    2  502    0 -0.13884198442E+03  0.10894558631E+03 -0.38839004724E+03  0.42660645354E+03  0.00000000000E+00 0. -1.
          1    1    1    2  503    0  0.67794348097E+02  0.10449877657E+03  0.97705323481E+02  0.15831108039E+03  0.00000000000E+00 0. -1.
<mgrwt>
<rscale>  0 0.13597593E+03</rscale>
<asrwt>0</asrwt>
<pdfrwt beam="1">  1        2 0.13253934E+00 0.12609775E+03</pdfrwt>
<pdfrwt beam="2">  1        2 0.11738664E+00 0.14662793E+03</pdfrwt>
<totfact> 0.19955750E+02</totfact>
</mgrwt>
</event>
<event>
13    1  0.1675423E-008  0.6295356E+02  0.7546771E-02  0.1421895E+00
          2   -1    0    0  502    0  0.00000000000E+00  0.00000000000E+00  0.84774485142E+03  0.84774485142E+03  0.00000000000E+00 0. -1.
          2   -1    0    0  503    0 -0.00000000000E+00 -0.00000000000E+00 -0.18886553961E+04  0.18886553961E+04  0.00000000000E+00 0. -1.
         24    2    1    2    0    0  0.12826698101E+03  0.15185881320E+03  0.61045642370E+03  0.64687012608E+03  0.79185839664E+02 0.  0.
         25    2    1    2    0    0 -0.82067946504E+02 -0.10905011308E+03 -0.54236801982E+03  0.57307686726E+03  0.12500780718E+03 0.  0.
         24    2    1    2    0    0 -0.24523217210E+02 -0.89488712245E+02  0.25069014240E+02  0.12463214149E+03  0.79341649946E+02 0.  0.
        -13    1    5    5    0    0  0.23922690355E+02 -0.37639733893E+02  0.29600028698E+02  0.53527622591E+02  0.00000000000E+00 0.  1.
         14    1    5    5    0    0 -0.48445907566E+02 -0.51848978352E+02 -0.45310144577E+01  0.71104518900E+02  0.00000000000E+00 0. -1.
        -13    1    3    3    0    0  0.12502255965E+03  0.99487441403E+02  0.42161421046E+03  0.45087352316E+03  0.00000000000E+00 0.  1.
         14    1    3    3    0    0  0.32444213553E+01  0.52371371800E+02  0.18884221324E+03  0.19599660292E+03  0.00000000000E+00 0. -1.
          5    1    4    4  501    0 -0.10578563989E+03 -0.99456958979E+02 -0.51590953756E+03  0.53597297435E+03  0.47000000000E+01 0.  1.
         -5    1    4    4    0  501  0.23717693383E+02 -0.95931540988E+01 -0.26458482267E+02  0.37103892907E+02  0.47000000000E+01 0.  1.
          1    1    1    2  502    0  0.38403598241E+02  0.27771949298E+02  0.12370464633E+03  0.13247247657E+03  0.00000000000E+00 0. -1.
          1    1    1    2  503    0 -0.60079415535E+02  0.18908062821E+02 -0.12577726091E+04  0.12593486361E+04  0.00000000000E+00 0. -1.
<mgrwt>
<rscale>  0 0.54622084E+02</rscale>
<asrwt>0</asrwt>
<pdfrwt beam="1">  1        2 0.12466836E+00 0.47393222E+02</pdfrwt>
<pdfrwt beam="2">  1        2 0.27774344E+00 0.62953561E+02</pdfrwt>
<totfact> 0.63115946E+01</totfact>
</mgrwt>
</event>
<event>
13    1  0.1675423E-008  0.9364817E+02  0.7546771E-02  0.1367686E+00
          2   -1    0    0  503    0  0.00000000000E+00  0.00000000000E+00  0.11374697775E+04  0.11374697775E+04  0.00000000000E+00 0. -1.
         -3   -1    0    0    0  501 -0.00000000000E+00 -0.00000000000E+00 -0.15121303577E+03  0.15121303577E+03  0.00000000000E+00 0.  1.
         24    2    1    2    0    0 -0.24660183513E+02  0.11693415332E+03  0.19442490099E+03  0.24165236903E+03  0.79455046844E+02 0.  0.
         25    2    1    2    0    0  0.10494334173E+03  0.61909303169E+02  0.27467483009E+03  0.32544993021E+03  0.12500211197E+03 0.  0.
         24    2    1    2    0    0 -0.25409422567E+02 -0.16764002701E+03  0.30646474679E+03  0.35610344803E+03  0.64344442393E+02 0.  0.
        -11    1    5    5    0    0 -0.82378103433E+01 -0.20409976992E+02  0.90499487508E+01  0.23797694268E+02  0.00000000000E+00 0.  1.
         12    1    5    5    0    0 -0.17171612224E+02 -0.14723005002E+03  0.29741479804E+03  0.33230575377E+03  0.00000000000E+00 0. -1.
        -13    1    3    3    0    0 -0.49978784135E+02  0.85660213377E+02  0.16213102059E+03  0.19005793553E+03  0.00000000000E+00 0.  1.
         14    1    3    3    0    0  0.25318600621E+02  0.31273939946E+02  0.32293880396E+02  0.51594433500E+02  0.00000000000E+00 0. -1.
          5    1    4    4  502    0  0.43214967518E+02  0.83660394605E+02  0.22239087071E+03  0.24154996257E+03  0.47000000000E+01 0. -1.
         -5    1    4    4    0  502  0.61728374211E+02 -0.21751091436E+02  0.52283959380E+02  0.83899967639E+02  0.47000000000E+01 0. -1.
          1    1    1    2  503    0  0.38225786037E+02 -0.30827890109E+02  0.25559388941E+03  0.26026871850E+03  0.00000000000E+00 0. -1.
         -4    1    1    2    0  501 -0.93099521687E+02  0.19624460624E+02 -0.44901625587E+02  0.10520834745E+03  0.00000000000E+00 0.  1.
<mgrwt>
<rscale>  0 0.67814817E+02</rscale>
<asrwt>0</asrwt>
<pdfrwt beam="1">  1        2 0.16727496E+00 0.49107734E+02</pdfrwt>
<pdfrwt beam="2">  1       -3 0.22237212E-01 0.93648169E+02</pdfrwt>
<totfact> 0.27712477E+02</totfact>
</mgrwt>
</event>
<event>
13    1  0.1675423E-008  0.8283536E+02  0.7546771E-02  0.1393797E+00
          2   -1    0    0  503    0  0.00000000000E+00  0.00000000000E+00  0.80433884569E+03  0.80433884569E+03  0.00000000000E+00 0. -1.
          2   -1    0    0  502    0 -0.00000000000E+00 -0.00000000000E+00 -0.28492550637E+04  0.28492550637E+04  0.00000000000E+00 0. -1.
         24    2    1    2    0    0  0.22421177057E+01  0.21223297175E+02  0.14015477759E+03  0.16228576926E+03  0.78980084743E+02 0.  0.
         25    2    1    2    0    0 -0.10990082731E+03 -0.10428347487E+02 -0.23156514203E+03  0.28536604871E+03  0.12499769788E+03 0.  0.
         24    2    1    2    0    0  0.39478459393E+02 -0.88110389758E+01  0.10134347405E+03  0.13421292781E+03  0.78143631200E+02 0.  0.
        -13    1    5    5    0    0  0.57527267588E+02 -0.20640301583E+02  0.92551638916E+02  0.11091084001E+03  0.00000000000E+00 0.  1.
         14    1    5    5    0    0 -0.18048808195E+02  0.11829262607E+02  0.87918351292E+01  0.23302087804E+02  0.00000000000E+00 0. -1.
        -13    1    3    3    0    0  0.26735252824E+02 -0.16617291029E+01  0.12047083740E+03  0.12341295617E+03  0.00000000000E+00 0.  1.
         14    1    3    3    0    0 -0.24493135118E+02  0.22885026278E+02  0.19683940196E+02  0.38872813087E+02  0.00000000000E+00 0. -1.
          5    1    4    4  501    0 -0.96089951003E+02  0.46747695291E+02 -0.16227090793E+03  0.19435164846E+03  0.47000000000E+01 0.  1.
         -5    1    4    4    0  501 -0.13810876306E+02 -0.57176042778E+02 -0.69294234107E+02  0.91014400249E+02  0.47000000000E+01 0.  1.
          1    1    1    2  502    0  0.70984910572E+02  0.42807752779E+02 -0.25616271459E+04  0.25629680052E+04  0.00000000000E+00 0. -1.
          1    1    1    2  503    0 -0.28046603618E+01 -0.44791663491E+02  0.50677781825E+03  0.50876115841E+03  0.00000000000E+00 0. -1.
<mgrwt>
<rscale>  0 0.60972126E+02</rscale>
<asrwt>0</asrwt>
<pdfrwt beam="1">  1        2 0.11828512E+00 0.44879385E+02</pdfrwt>
<pdfrwt beam="2">  1        2 0.41900810E+00 0.82835363E+02</pdfrwt>
<totfact> 0.22131746E+01</totfact>
</mgrwt>
</event>
<event>
13    1  0.1675423E-008  0.1228975E+03  0.7546771E-02  0.1262940E+00
          4   -1    0    0  503    0 -0.00000000000E+00  0.00000000000E+00  0.13364711978E+04  0.13364711978E+04  0.00000000000E+00 0. -1.
          2   -1    0    0  502    0  0.00000000000E+00 -0.00000000000E+00 -0.87068011310E+03  0.87068011310E+03  0.00000000000E+00 0. -1.
         24    2    1    2    0    0  0.39957498508E+02 -0.20730525479E+03 -0.15411334201E+03  0.27374304120E+03  0.81315804571E+02 0.  0.
         25    2    1    2    0    0  0.40341599953E+02  0.14953081316E+03 -0.15038981987E+03  0.24945699322E+03  0.12499913908E+03 0.  0.
         24    2    1    2    0    0  0.38317889980E+01  0.13056242577E+02  0.17161699017E+03  0.19031084785E+03  0.81121386927E+02 0.  0.
        -11    1    5    5    0    0 -0.64236826832E+01 -0.25463621061E+02  0.13022139004E+03  0.13284302812E+03  0.00000000000E+00 0.  1.
         12    1    5    5    0    0  0.10255471681E+02  0.38519863637E+02  0.41395600129E+02  0.57467819726E+02  0.00000000000E+00 0. -1.
        -13    1    3    3    0    0 -0.48664028827E+01 -0.52759281325E+02 -0.31136793500E+01  0.53074651596E+02  0.00000000000E+00 0.  1.
         14    1    3    3    0    0  0.44823901391E+02 -0.15454597346E+03 -0.15099966266E+03  0.22066838961E+03  0.00000000000E+00 0. -1.
          5    1    4    4  501    0  0.74898579681E+02  0.42188262150E+02 -0.61814843792E+02  0.10598495938E+03  0.47000000000E+01 0. -1.
         -5    1    4    4    0  501 -0.34556979728E+02  0.10734255101E+03 -0.88574976078E+02  0.14347203384E+03  0.47000000000E+01 0. -1.
          1    1    1    2  502    0  0.24538471627E+02 -0.93068175923E+02 -0.43482301677E+03  0.44534804128E+03  0.00000000000E+00 0. -1.
          3    1    1    2  503    0 -0.10866935909E+03  0.13778637497E+03  0.10335002732E+04  0.10482923874E+04  0.00000000000E+00 0. -1.
<mgrwt>
<rscale>  0 0.10872999E+03</rscale>
<asrwt>0</asrwt>
<pdfrwt beam="2">  1        2 0.12804119E+00 0.96195708E+02</pdfrwt>
<pdfrwt beam="1">  1        4 0.19653988E+00 0.12289749E+03</pdfrwt>
<totfact> 0.28434048E+00</totfact>
</mgrwt>
</event>
<event>
13    1  0.1675423E-008  0.1198140E+03  0.7546771E-02  0.1348988E+00
          2   -1    0    0  502    0  0.00000000000E+00  0.00000000000E+00  0.17243674842E+04  0.17243674842E+04  0.00000000000E+00 0. -1.
          2   -1    0    0  503    0 -0.00000000000E+00 -0.00000000000E+00 -0.12183918211E+04  0.12183918211E+04  0.00000000000E+00 0. -1.
         24    2    1    2    0    0  0.29658927956E+02 -0.15864406111E+02  0.55583354758E+03  0.56256390318E+03  0.79974253083E+02 0.  0.
         25    2    1    2    0    0 -0.28991849702E+02  0.12285814300E+03  0.17752529259E+03  0.25114688100E+03  0.12499950270E+03 0.  0.
         24    2    1    2    0    0  0.25653690123E+02  0.16702760392E+02 -0.69688302807E+02  0.10763410271E+03  0.76102210851E+02 0.  0.
        -11    1    3    3    0    0  0.35006226551E+02  0.26364904653E+02  0.25601628838E+03  0.25974003159E+03  0.00000000000E+00 0.  1.
         12    1    3    3    0    0 -0.53472985949E+01 -0.42229310764E+02  0.29981725920E+03  0.30282387159E+03  0.00000000000E+00 0. -1.
        -11    1    5    5    0    0  0.25237685430E+02 -0.25661482059E+02 -0.16389263359E+02  0.39548203256E+02  0.00000000000E+00 0.  1.
         12    1    5    5    0    0  0.41600469306E+00  0.42364242451E+02 -0.53299039448E+02  0.68085899454E+02  0.00000000000E+00 0. -1.
          5    1    4    4  501    0  0.17434596987E+02  0.29878629282E+02  0.13383392547E+03  0.13831235400E+03  0.47000000000E+01 0. -1.
         -5    1    4    4    0  501 -0.46426446689E+02  0.92979513716E+02  0.43691367115E+02  0.11283452700E+03  0.47000000000E+01 0. -1.
          1    1    1    2  502    0 -0.13649059945E+02 -0.16680413357E+03  0.92387504397E+03  0.93891161069E+03  0.00000000000E+00 0. -1.
          1    1    1    2  503    0 -0.12671708432E+02  0.43107636289E+02 -0.10815699183E+04  0.10825028077E+04  0.00000000000E+00 0. -1.
<mgrwt>
<rscale>  0 0.73371817E+02</rscale>
<asrwt>0</asrwt>
<pdfrwt beam="1">  1        2 0.25358345E+00 0.11981399E+03</pdfrwt>
<pdfrwt beam="2">  1        2 0.17917527E+00 0.44931509E+02</pdfrwt>
<totfact> 0.44688453E+01</totfact>
</mgrwt>
</event>
<event>
13    1  0.1675423E-008  0.6533778E+02  0.7546771E-02  0.1444113E+00
          2   -1    0    0  503    0  0.00000000000E+00  0.00000000000E+00  0.26106943388E+04  0.26106943388E+04  0.00000000000E+00 0. -1.
          2   -1    0    0  502    0 -0.00000000000E+00 -0.00000000000E+00 -0.25208547093E+04  0.25208547093E+04  0.00000000000E+00 0. -1.
         24    2    1    2    0    0 -0.12607376885E+03  0.39711121249E+02  0.95041783568E+02  0.18179079912E+03  0.80891196541E+02 0.  0.
         25    2    1    2    0    0 -0.19553782937E+02 -0.67171596007E+02 -0.16945099235E+04  0.17005498344E+04  0.12494592764E+03 0.  0.
         24    2    1    2    0    0  0.14310181860E+03  0.61902241058E+00 -0.55084177052E+02  0.17259019590E+03  0.79212344273E+02 0.  0.
        -11    1    3    3    0    0 -0.12168819763E+03  0.87557581824E+01  0.85925849666E+02  0.14922443629E+03  0.00000000000E+00 0.  1.
         12    1    3    3    0    0 -0.43855712239E+01  0.30955363066E+02  0.91159339015E+01  0.32566362837E+02  0.00000000000E+00 0. -1.
        -13    1    5    5    0    0  0.20303729219E+00  0.10461942050E+02  0.10702409729E+02  0.14967799759E+02  0.00000000000E+00 0.  1.
         14    1    5    5    0    0  0.14289878130E+03 -0.98429196394E+01 -0.65786586781E+02  0.15762239614E+03  0.00000000000E+00 0. -1.
          5    1    4    4  501    0  0.42337750134E+02 -0.66644944939E+02 -0.10882356750E+04  0.10911063230E+04  0.47000000000E+01 0. -1.
         -5    1    4    4    0  501 -0.61891533071E+02 -0.52665106846E+00 -0.60627424850E+03  0.60944351142E+03  0.47000000000E+01 0. -1.
          1    1    1    2  502    0  0.28948498642E+01 -0.38504482523E+02 -0.66511020366E+03  0.66623010915E+03  0.00000000000E+00 0. -1.
          1    1    1    2  503    0 -0.36911666900E+00  0.65345934871E+02  0.24095021501E+04  0.24103881096E+04  0.00000000000E+00 0. -1.
<mgrwt>
<rscale>  0 0.50228453E+02</rscale>
<asrwt>0</asrwt>
<pdfrwt beam="1">  1        2 0.38392564E+00 0.65337780E+02</pdfrwt>
<pdfrwt beam="2">  1        2 0.37071393E+00 0.38613150E+02</pdfrwt>
<totfact> 0.44269461E+00</totfact>
</mgrwt>
</event>
<event>
13    1  0.1675423E-008  0.2137713E+03  0.7546771E-02  0.1274639E+00
          2   -1    0    0  503    0  0.00000000000E+00  0.00000000000E+00  0.15269891241E+04  0.15269891241E+04  0.00000000000E+00 0. -1.
          2   -1    0    0  502    0 -0.00000000000E+00 -0.00000000000E+00 -0.32732900712E+03  0.32732900712E+03  0.00000000000E+00 0. -1.
         24    2    1    2    0    0 -0.35565976118E+02  0.16798921729E+03  0.23243521322E+03  0.30046399345E+03  0.82262793728E+02 0.  0.
         25    2    1    2    0    0  0.18904041035E+03 -0.16834332374E+03  0.46068551866E+03  0.54030793917E+03  0.12500308249E+03 0.  0.
         24    2    1    2    0    0  0.26582842554E+02 -0.16303159196E+03  0.13614065397E+03  0.22855597639E+03  0.80109981798E+02 0.  0.
        -11    1    5    5    0    0 -0.28520796658E+02 -0.56748425381E+02  0.54026918100E+02  0.83383016884E+02  0.00000000000E+00 0.  1.
         12    1    5    5    0    0  0.55103639212E+02 -0.10628316658E+03  0.82113735866E+02  0.14517295950E+03  0.00000000000E+00 0. -1.
        -13    1    3    3    0    0  0.26161544817E+02  0.45024502415E+02  0.76037476706E+02  0.92159264910E+02  0.00000000000E+00 0.  1.
         14    1    3    3    0    0 -0.61727520935E+02  0.12296471488E+03  0.15639773651E+03  0.20830472854E+03  0.00000000000E+00 0. -1.
          5    1    4    4  501    0  0.47100859333E+02  0.67299829267E+01  0.14288062978E+03  0.15066767399E+03  0.47000000000E+01 0. -1.
         -5    1    4    4    0  501  0.14193955101E+03 -0.17507330666E+03  0.31780488888E+03  0.38964026517E+03  0.47000000000E+01 0. -1.
          1    1    1    2  502    0 -0.13068853597E+03  0.16427533145E+03 -0.15268962850E+03  0.25957657947E+03  0.00000000000E+00 0. -1.
          1    1    1    2  503    0 -0.49368740809E+02 -0.88963305131E+00  0.52308835961E+03  0.52541364273E+03  0.00000000000E+00 0. -1.
<mgrwt>
<rscale>  0 0.10273914E+03</rscale>
<asrwt>0</asrwt>
<pdfrwt beam="1">  1        2 0.22455722E+00 0.49376756E+02</pdfrwt>
<pdfrwt beam="2">  1        2 0.48136619E-01 0.21377126E+03</pdfrwt>
<totfact> 0.26617896E+02</totfact>
</mgrwt>
</event>
<event>
13    1  0.1675423E-008  0.3576653E+02  0.7546771E-02  0.1583902E+00
         -3   -1    0    0    0  501 -0.00000000000E+00  0.00000000000E+00  0.24249018590E+04  0.24249018590E+04  0.00000000000E+00 0.  1.
          2   -1    0    0  503    0  0.00000000000E+00 -0.00000000000E+00 -0.28285273763E+04  0.28285273763E+04  0.00000000000E+00 0. -1.
         24    2    1    2    0    0 -0.12039254574E+04 -0.32764610397E+02  0.19956752057E+03  0.12242161911E+04  0.91477104740E+02 0.  0.
         25    2    1    2    0    0 -0.48932402685E+03  0.27587234345E+03  0.45745639786E+03  0.73514894439E+03  0.12503624020E+03 0.  0.
         24    2    1    2    0    0  0.16626784299E+04 -0.23330187569E+03 -0.16055379593E+04  0.23244468376E+04  0.79822524904E+02 0.  0.
        -11    1    5    5    0    0  0.36295216036E+03 -0.84240628591E+02 -0.36027735880E+03  0.51829579342E+03  0.00000000000E+00 0.  1.
         12    1    5    5    0    0  0.12997262695E+04 -0.14906124710E+03 -0.12452606005E+04  0.18061510442E+04  0.00000000000E+00 0. -1.
        -11    1    3    3    0    0 -0.53537987989E+03 -0.29394152694E+02  0.45313637895E+02  0.53809753557E+03  0.00000000000E+00 0.  1.
         12    1    3    3    0    0 -0.66854557747E+03 -0.33704577033E+01  0.15425388267E+03  0.68611865553E+03  0.00000000000E+00 0. -1.
          5    1    4    4  502    0 -0.21915887293E+03  0.16175292687E+03  0.28785056067E+03  0.39632645157E+03  0.47000000000E+01 0.  1.
         -5    1    4    4    0  502 -0.27016515392E+03  0.11411941658E+03  0.16960583719E+03  0.33882249282E+03  0.47000000000E+01 0.  1.
          1    1    1    2  503    0  0.15501105087E+02  0.22633369101E+02 -0.21105379898E+03  0.21282917967E+03  0.00000000000E+00 0. -1.
         -4    1    1    2    0  501  0.15069949242E+02 -0.32439226461E+02  0.75594232256E+03  0.75678808251E+03  0.00000000000E+00 0.  1.
<mgrwt>
<rscale>  0 0.31323681E+02</rscale>
<asrwt>0</asrwt>
<pdfrwt beam="2">  1        2 0.41595991E+00 0.27432711E+02</pdfrwt>
<pdfrwt beam="1">  1       -3 0.35660321E+00 0.35766535E+02</pdfrwt>
<totfact> 0.73148227E-02</totfact>
</mgrwt>
</event>
<event>
13    1  0.1675423E-008  0.9913759E+02  0.7546771E-02  0.1422931E+00
         -1   -1    0    0    0  501 -0.00000000000E+00  0.00000000000E+00  0.70361001238E+03  0.70361001238E+03  0.00000000000E+00 0.  1.
          2   -1    0    0  503    0  0.00000000000E+00 -0.00000000000E+00 -0.14005698240E+04  0.14005698240E+04  0.00000000000E+00 0. -1.
         24    2    1    2    0    0 -0.13686131608E+03 -0.11750683660E+03  0.40071874764E+02  0.20225540898E+03  0.82235143522E+02 0.  0.
         25    2    1    2    0    0  0.19758702296E+03  0.22834415109E+03  0.20931779048E+03  0.38809958696E+03  0.12500267598E+03 0.  0.
         24    2    1    2    0    0 -0.14186649776E+03 -0.24366730960E+02 -0.51331442186E+02  0.17271702462E+03  0.80476163376E+02 0.  0.
        -11    1    5    5    0    0 -0.19582347385E+02  0.83992294268E+01 -0.40366685589E+02  0.45645204452E+02  0.00000000000E+00 0.  1.
         12    1    5    5    0    0 -0.12228415037E+03 -0.32765960387E+02 -0.10964756597E+02  0.12707182017E+03  0.00000000000E+00 0. -1.
        -13    1    3    3    0    0 -0.40725042983E+02 -0.45393625788E+02  0.53765367501E+02  0.81300831058E+02  0.00000000000E+00 0.  1.
         14    1    3    3    0    0 -0.96136273092E+02 -0.72113210810E+02 -0.13693492737E+02  0.12095457792E+03  0.00000000000E+00 0. -1.
          5    1    4    4  502    0  0.11234436152E+03  0.40057976109E+02  0.89078254805E+02  0.14893932487E+03  0.47000000000E+01 0.  1.
         -5    1    4    4    0  502  0.85242661444E+02  0.18828617498E+03  0.12023953568E+03  0.23916026208E+03  0.47000000000E+01 0.  1.
          1    1    1    2  503    0  0.81288763279E+02 -0.56613704678E+02 -0.11148576279E+04  0.11192499743E+04  0.00000000000E+00 0. -1.
         -2    1    1    2    0  501 -0.14797240660E+00 -0.29856878856E+02  0.21983959319E+03  0.22185784152E+03  0.00000000000E+00 0.  1.
<mgrwt>
<rscale>  0 0.54405657E+02</rscale>
<asrwt>0</asrwt>
<pdfrwt beam="2">  1        2 0.20596615E+00 0.99137595E+02</pdfrwt>
<pdfrwt beam="1">  1       -1 0.10347206E+00 0.29857246E+02</pdfrwt>
<totfact> 0.21312212E+01</totfact>
</mgrwt>
</event>
<event>
13    1  0.1675423E-008  0.1559097E+03  0.7546771E-02  0.1204196E+00
          2   -1    0    0  503    0  0.00000000000E+00  0.00000000000E+00  0.14230705193E+04  0.14230705193E+04  0.00000000000E+00 0. -1.
          2   -1    0    0  502    0 -0.00000000000E+00 -0.00000000000E+00 -0.26404879264E+04  0.26404879264E+04  0.00000000000E+00 0. -1.
         24    2    1    2    0    0 -0.56030590232E+02 -0.11913050864E+03  0.35387203317E+03  0.38569530980E+03  0.78765163682E+02 0.  0.
         25    2    1    2    0    0  0.27729175170E+03  0.35044790141E+02 -0.52012518967E+03  0.60355057757E+03  0.12499693547E+03 0.  0.
         24    2    1    2    0    0 -0.30778460981E+02 -0.57765144812E+02  0.63835608777E+02  0.12154204628E+03  0.80083446788E+02 0.  0.
        -11    1    5    5    0    0 -0.45208403865E+02 -0.69845675145E+02  0.43689169412E+02  0.93973196394E+02  0.00000000000E+00 0.  1.
         12    1    5    5    0    0  0.14429942884E+02  0.12080530333E+02  0.20146439365E+02  0.27568849882E+02  0.00000000000E+00 0. -1.
        -13    1    3    3    0    0 -0.22322256600E+02 -0.43864457675E+01  0.17516819147E+02  0.28711722331E+02  0.00000000000E+00 0.  1.
         14    1    3    3    0    0 -0.33708333632E+02 -0.11474406287E+03  0.33635521402E+03  0.35698358747E+03  0.00000000000E+00 0. -1.
          5    1    4    4  501    0  0.26644965569E+03  0.59696572684E+02 -0.49958562717E+03  0.56935664453E+03  0.47000000000E+01 0. -1.
         -5    1    4    4    0  501  0.10842096016E+02 -0.24651782543E+02 -0.20539562506E+02  0.34193933037E+02  0.47000000000E+01 0. -1.
          1    1    1    2  502    0 -0.24648513322E+01  0.20533175003E+03 -0.20178991777E+04  0.20283205601E+04  0.00000000000E+00 0. -1.
          1    1    1    2  503    0 -0.18801784916E+03 -0.63480886721E+02  0.90289931838E+03  0.92444995198E+03  0.00000000000E+00 0. -1.
<mgrwt>
<rscale>  0 0.14700975E+03</rscale>
<asrwt>0</asrwt>
<pdfrwt beam="1">  1        2 0.20927508E+00 0.15590965E+03</pdfrwt>
<pdfrwt beam="2">  1        2 0.38830704E+00 0.13861789E+03</pdfrwt>
<totfact> 0.11230530E+01</totfact>
</mgrwt>
</event>
<event>
13    1  0.1675423E-008  0.1017653E+03  0.7546771E-02  0.1441864E+00
          4   -1    0    0  503    0 -0.00000000000E+00  0.00000000000E+00  0.17613740609E+03  0.17613740609E+03  0.00000000000E+00 0. -1.
          2   -1    0    0  502    0  0.00000000000E+00 -0.00000000000E+00 -0.41971371391E+04  0.41971371391E+04  0.00000000000E+00 0. -1.
         24    2    1    2    0    0 -0.51485947334E+02  0.83997408829E+02 -0.65686644526E+03  0.66909945932E+03  0.80710545071E+02 0.  0.
         25    2    1    2    0    0  0.93506699933E+02  0.55730049559E+02 -0.14306995003E+03  0.21894638178E+03  0.12497666237E+03 0.  0.
         24    2    1    2    0    0 -0.51518715542E+02 -0.21320462940E+02 -0.22563542039E+03  0.24616663896E+03  0.81104445064E+02 0.  0.
        -11    1    5    5    0    0 -0.25020445737E+02  0.29958013938E+02 -0.11391538720E+03  0.12041686238E+03  0.00000000000E+00 0.  1.
         12    1    5    5    0    0 -0.26498269805E+02 -0.51278476878E+02 -0.11172003320E+03  0.12574977658E+03  0.00000000000E+00 0. -1.
        -11    1    3    3    0    0 -0.46811611787E+02  0.63012869498E+02 -0.25856147101E+03  0.27021469800E+03  0.00000000000E+00 0.  1.
         12    1    3    3    0    0 -0.46743355461E+01  0.20984539332E+02 -0.39830497424E+03  0.39888476132E+03  0.00000000000E+00 0. -1.
          5    1    4    4  501    0 -0.16389939661E+02 -0.52700262796E+01  0.10292920864E+02  0.20601881443E+02  0.47000000000E+01 0.  1.
         -5    1    4    4    0  501  0.10989663959E+03  0.61000075839E+02 -0.15336287089E+03  0.19834450034E+03  0.47000000000E+01 0.  1.
          1    1    1    2  502    0  0.24662678929E+02 -0.98268419354E+02 -0.31151082560E+04  0.31167554246E+04  0.00000000000E+00 0. -1.
          3    1    1    2  503    0 -0.15164715986E+02 -0.20138576095E+02  0.11968033868E+03  0.12230664056E+03  0.00000000000E+00 0. -1.
<mgrwt>
<rscale>  0 0.50650534E+02</rscale>
<asrwt>0</asrwt>
<pdfrwt beam="2">  1        2 0.61722608E+00 0.10176530E+03</pdfrwt>
<pdfrwt beam="1">  1        4 0.25902558E-01 0.25209737E+02</pdfrwt>
<totfact> 0.30467604E+00</totfact>
</mgrwt>
</event>
<event>
13    1  0.1675423E-008  0.1128190E+03  0.7546771E-02  0.1412608E+00
          2   -1    0    0  503    0  0.00000000000E+00  0.00000000000E+00  0.25709529655E+04  0.25709529655E+04  0.00000000000E+00 0. -1.
         -3   -1    0    0    0  501 -0.00000000000E+00 -0.00000000000E+00 -0.96699279581E+02  0.96699279581E+02  0.00000000000E+00 0.  1.
         24    2    1    2    0    0  0.10942490276E+03 -0.23912179818E+02  0.77283716025E+03  0.78512962413E+03  0.81275142182E+02 0.  0.
         25    2    1    2    0    0 -0.21211527199E+02  0.70364876948E+02  0.30861833475E+03  0.34098494683E+03  0.12499725047E+03 0.  0.
         24    2    1    2    0    0 -0.12162746585E+03  0.42550313313E+02  0.23700426549E+03  0.28082607589E+03  0.78028798711E+02 0.  0.
        -11    1    5    5    0    0 -0.66467301954E+02  0.61009743509E+02  0.16696685821E+03  0.18978414784E+03  0.00000000000E+00 0.  1.
         12    1    5    5    0    0 -0.55160163897E+02 -0.18459430197E+02  0.70037407279E+02  0.91041928048E+02  0.00000000000E+00 0. -1.
        -13    1    3    3    0    0  0.11668911008E+03 -0.37755379228E+02  0.67508584096E+03  0.68613607231E+03  0.00000000000E+00 0.  1.
         14    1    3    3    0    0 -0.72642073108E+01  0.13843199410E+02  0.97751319292E+02  0.98993551816E+02  0.00000000000E+00 0. -1.
          5    1    4    4  502    0  0.50260705236E+02  0.46826257410E+02  0.16470797353E+03  0.17852070865E+03  0.47000000000E+01 0. -1.
         -5    1    4    4    0  502 -0.71472232435E+02  0.23538619538E+02  0.14391036122E+03  0.16246423818E+03  0.47000000000E+01 0. -1.
          1    1    1    2  503    0  0.16130322900E+02  0.23388585250E+02  0.11462466595E+04  0.11465987169E+04  0.00000000000E+00 0. -1.
         -4    1    1    2    0  501  0.17283767384E+02 -0.11239159569E+03  0.95472659485E+01  0.11411288133E+03  0.00000000000E+00 0.  1.
<mgrwt>
<rscale>  0 0.56615876E+02</rscale>
<asrwt>0</asrwt>
<pdfrwt beam="1">  1        2 0.37808127E+00 0.28411498E+02</pdfrwt>
<pdfrwt beam="2">  1       -3 0.14220484E-01 0.11281902E+03</pdfrwt>
<totfact> 0.13765219E+02</totfact>
</mgrwt>
</event>
<event>
13    1  0.1675423E-008  0.1408904E+03  0.7546771E-02  0.1278853E+00
          2   -1    0    0  502    0  0.00000000000E+00  0.00000000000E+00  0.16711514060E+04  0.16711514060E+04  0.00000000000E+00 0. -1.
          2   -1    0    0  503    0 -0.00000000000E+00 -0.00000000000E+00 -0.14180783133E+04  0.14180783133E+04  0.00000000000E+00 0. -1.
         24    2    1    2    0    0 -0.50209581376E+02 -0.19296347139E+02  0.62548433955E+03  0.63380474560E+03  0.87088721684E+02 0.  0.
         25    2    1    2    0    0 -0.30343496926E+03  0.87066533340E+02  0.16225019331E+03  0.37630966476E+03  0.12502190516E+03 0.  0.
         24    2    1    2    0    0  0.13398751578E+03 -0.91608262111E+02 -0.19318762433E+03  0.26520552866E+03  0.81656513322E+02 0.  0.
        -11    1    3    3    0    0  0.21120498836E+02 -0.73870905473E+01  0.66533747013E+02  0.70195327974E+02  0.00000000000E+00 0.  1.
         12    1    3    3    0    0 -0.71330080213E+02 -0.11909256592E+02  0.55895059254E+03  0.56360941763E+03  0.00000000000E+00 0. -1.
        -11    1    5    5    0    0  0.37901288841E+02  0.12556655866E+02 -0.45128752462E+02  0.60255967348E+02  0.00000000000E+00 0.  1.
         12    1    5    5    0    0  0.96086226937E+02 -0.10416491798E+03 -0.14805887187E+03  0.20494956132E+03  0.00000000000E+00 0. -1.
          5    1    4    4  501    0 -0.24438705244E+03  0.10785404450E+03  0.16403543615E+03  0.31350795944E+03  0.47000000000E+01 0.  1.
         -5    1    4    4    0  501 -0.59047916812E+02 -0.20787511160E+02 -0.17852428347E+01  0.62801705327E+02  0.47000000000E+01 0.  1.
          1    1    1    2  502    0  0.21216178986E+03  0.95405436285E+02  0.71658941187E+03  0.75340242073E+03  0.00000000000E+00 0. -1.
          1    1    1    2  503    0  0.74952449909E+01 -0.71567360375E+02 -0.10580632277E+04  0.10605073595E+04  0.00000000000E+00 0. -1.
<mgrwt>
<rscale>  0 0.10068912E+03</rscale>
<asrwt>0</asrwt>
<pdfrwt beam="1">  1        2 0.24575756E+00 0.14089038E+03</pdfrwt>
<pdfrwt beam="2">  1        2 0.20854093E+00 0.71958778E+02</pdfrwt>
<totfact> 0.36003643E+01</totfact>
</mgrwt>
</event>
<event>
13    1  0.1675423E-008  0.8436701E+02  0.7546771E-02  0.1345487E+00
          2   -1    0    0  502    0  0.00000000000E+00  0.00000000000E+00  0.30408311751E+04  0.30408311751E+04  0.00000000000E+00 0. -1.
          2   -1    0    0  503    0 -0.00000000000E+00 -0.00000000000E+00 -0.22622751888E+04  0.22622751888E+04  0.00000000000E+00 0. -1.
         24    2    1    2    0    0  0.82622152441E+02 -0.10969190058E+03  0.16853539178E+04  0.16929253532E+04  0.81973715344E+02 0.  0.
         25    2    1    2    0    0 -0.16282141305E+03  0.34716518470E+02 -0.40383122967E+03  0.45433452210E+03  0.12499658680E+03 0.  0.
         24    2    1    2    0    0 -0.43057487738E+02  0.48933072096E+02  0.51321019781E+03  0.52344121723E+03  0.79734609562E+02 0.  0.
        -11    1    3    3    0    0  0.18287744639E+02 -0.31918463683E+02  0.15740957179E+03  0.16165086829E+03  0.00000000000E+00 0.  1.
         12    1    3    3    0    0  0.64334407802E+02 -0.77773436896E+02  0.15279443460E+04  0.15312744849E+04  0.00000000000E+00 0. -1.
        -11    1    5    5    0    0 -0.58790858469E+02  0.85276341431E+01  0.27965834964E+03  0.28589837024E+03  0.00000000000E+00 0.  1.
         12    1    5    5    0    0  0.15733370730E+02  0.40405437953E+02  0.23355184817E+03  0.23754284699E+03  0.00000000000E+00 0. -1.
          5    1    4    4  501    0 -0.20071107209E+02 -0.12146113530E+02 -0.53194958256E+00  0.23932204011E+02  0.47000000000E+01 0. -1.
         -5    1    4    4    0  501 -0.14275030584E+03  0.46862632000E+02 -0.40329928009E+03  0.43040231809E+03  0.47000000000E+01 0. -1.
          1    1    1    2  502    0  0.42440780801E+02  0.50221538327E+02  0.80579919522E+03  0.80847743679E+03  0.00000000000E+00 0. -1.
          1    1    1    2  503    0  0.80815967548E+02 -0.24179228314E+02 -0.18219760949E+04  0.18239278346E+04  0.00000000000E+00 0. -1.
<mgrwt>
<rscale>  0 0.74480615E+02</rscale>
<asrwt>0</asrwt>
<pdfrwt beam="1">  1        2 0.44718105E+00 0.65752740E+02</pdfrwt>
<pdfrwt beam="2">  1        2 0.33268753E+00 0.84367010E+02</pdfrwt>
<totfact> 0.32003392E+00</totfact>
</mgrwt>
</event>
<event>
13    1  0.1675423E-008  0.7854364E+02  0.7546771E-02  0.1380031E+00
          2   -1    0    0  502    0  0.00000000000E+00  0.00000000000E+00  0.33090223585E+04  0.33090223585E+04  0.00000000000E+00 0. -1.
          2   -1    0    0  503    0 -0.00000000000E+00 -0.00000000000E+00 -0.74897777788E+03  0.74897777788E+03  0.00000000000E+00 0. -1.
         24    2    1    2    0    0 -0.48557841735E+02 -0.59778076169E+02  0.44085701350E+03  0.45455920280E+03  0.79610803981E+02 0.  0.
         25    2    1    2    0    0  0.18859223000E+03  0.56969878778E+02 -0.23355494489E+03  0.33012853682E+03  0.12499736893E+03 0.  0.
         24    2    1    2    0    0 -0.58239137282E+02  0.38324733956E+02  0.16685500718E+03  0.19782823838E+03  0.80217430376E+02 0.  0.
        -11    1    5    5    0    0 -0.63208819192E+02  0.54345483691E+02  0.10683457148E+03  0.13550797794E+03  0.00000000000E+00 0.  1.
         12    1    5    5    0    0  0.49696819100E+01 -0.16020749735E+02  0.60020435700E+02  0.62320260445E+02  0.00000000000E+00 0. -1.
        -13    1    3    3    0    0 -0.11824601287E+01 -0.42815455283E+02  0.33058700227E+03  0.33335015748E+03  0.00000000000E+00 0.  1.
         14    1    3    3    0    0 -0.47375381606E+02 -0.16962620885E+02  0.11027001124E+03  0.12120904532E+03  0.00000000000E+00 0. -1.
          5    1    4    4  501    0  0.77680319726E+02  0.88563597953E+02 -0.11805353315E+03  0.16684264936E+03  0.47000000000E+01 0.  1.
         -5    1    4    4    0  501  0.11091191027E+03 -0.31593719176E+02 -0.11550141174E+03  0.16328588747E+03  0.47000000000E+01 0.  1.
          1    1    1    2  502    0 -0.39827376309E+02 -0.67711385822E+02  0.26285244376E+04  0.26296980380E+04  0.00000000000E+00 0. -1.
          1    1    1    2  503    0 -0.41967874674E+02  0.32194849257E+02 -0.44263693283E+03  0.44578612038E+03  0.00000000000E+00 0. -1.
<mgrwt>
<rscale>  0 0.64455519E+02</rscale>
<asrwt>0</asrwt>
<pdfrwt beam="1">  1        2 0.48662093E+00 0.78543644E+02</pdfrwt>
<pdfrwt beam="2">  1        2 0.11014379E+00 0.52894336E+02</pdfrwt>
<totfact> 0.13660301E+01</totfact>
</mgrwt>
</event>
<event>
13    1  0.1675423E-008  0.8238872E+02  0.7546771E-02  0.1361479E+00
         -1   -1    0    0    0  501 -0.00000000000E+00  0.00000000000E+00  0.44748443128E+03  0.44748443128E+03  0.00000000000E+00 0.  1.
          2   -1    0    0  503    0  0.00000000000E+00 -0.00000000000E+00 -0.14130812786E+04  0.14130812786E+04  0.00000000000E+00 0. -1.
         24    2    1    2    0    0  0.17892983809E+02 -0.60502775175E+02 -0.46167869516E+03  0.47307971579E+03  0.81709578727E+02 0.  0.
         25    2    1    2    0    0  0.11978604546E+03  0.11101445058E+02  0.54782135479E+02  0.18192302504E+03  0.12499186335E+03 0.  0.
         24    2    1    2    0    0 -0.82539484960E+02 -0.26692576319E+02 -0.15256222867E+03  0.19362124313E+03  0.81784423721E+02 0.  0.
        -11    1    5    5    0    0 -0.83124778539E+02 -0.11061679544E+01 -0.75065956459E+02  0.11200825967E+03  0.00000000000E+00 0.  1.
         12    1    5    5    0    0  0.58529357954E+00 -0.25586408364E+02 -0.77496272215E+02  0.81612983457E+02  0.00000000000E+00 0. -1.
        -13    1    3    3    0    0 -0.20868272220E+02  0.55009408746E+01 -0.17623008067E+03  0.17754657549E+03  0.00000000000E+00 0.  1.
         14    1    3    3    0    0  0.38761256030E+02 -0.66003716049E+02 -0.28544861449E+03  0.29553314030E+03  0.00000000000E+00 0. -1.
          5    1    4    4  502    0  0.11930349485E+03  0.36669593075E+02  0.41082283316E+01  0.12496779777E+03  0.47000000000E+01 0.  1.
         -5    1    4    4    0  502  0.48255060994E+00 -0.25568148017E+02  0.50673907148E+02  0.56955227273E+02  0.47000000000E+01 0.  1.
          1    1    1    2  503    0 -0.87116556775E+01  0.11215373079E+03 -0.70166469440E+03  0.71062486281E+03  0.00000000000E+00 0. -1.
         -2    1    1    2    0  501 -0.46427888629E+02 -0.36059824356E+02  0.29552663541E+03  0.30131686314E+03  0.00000000000E+00 0.  1.
<mgrwt>
<rscale>  0 0.69594177E+02</rscale>
<asrwt>0</asrwt>
<pdfrwt beam="2">  1        2 0.20780607E+00 0.82388719E+02</pdfrwt>
<pdfrwt beam="1">  1       -1 0.65806534E-01 0.58786561E+02</pdfrwt>
<totfact> 0.51734083E+01</totfact>
</mgrwt>
</event>
<event>
13    1  0.1675423E-008  0.5358068E+02  0.7546771E-02  0.1428945E+00
          2   -1    0    0  503    0  0.00000000000E+00  0.00000000000E+00  0.14818623297E+04  0.14818623297E+04  0.00000000000E+00 0. -1.
          2   -1    0    0  502    0 -0.00000000000E+00 -0.00000000000E+00 -0.16048117684E+04  0.16048117684E+04  0.00000000000E+00 0. -1.
         24    2    1    2    0    0  0.13138269717E+03  0.95311650253E+02  0.58328729369E+03  0.61071257952E+03  0.80000400107E+02 0.  0.
         25    2    1    2    0    0 -0.16738429272E+03 -0.60319282888E+02 -0.74469066054E+03  0.77578587707E+03  0.12499451919E+03 0.  0.
         24    2    1    2    0    0  0.25610243428E+02 -0.53399210812E+02  0.13614733108E+03  0.16877705951E+03  0.80263564421E+02 0.  0.
        -11    1    3    3    0    0  0.33743773444E+02  0.60215003212E+02  0.14913003871E+03  0.16432972130E+03  0.00000000000E+00 0.  1.
         12    1    3    3    0    0  0.97638923728E+02  0.35096647041E+02  0.43415725498E+03  0.44638285822E+03  0.00000000000E+00 0. -1.
        -13    1    5    5    0    0  0.98576246995E+01  0.20612530767E+02  0.21263908450E+02  0.31212225039E+02  0.00000000000E+00 0.  1.
         14    1    5    5    0    0  0.15752618729E+02 -0.74011741579E+02  0.11488342263E+03  0.13756483447E+03  0.00000000000E+00 0. -1.
          5    1    4    4  501    0 -0.13058869017E+03 -0.98157131598E+02 -0.52829576102E+03  0.55299794719E+03  0.47000000000E+01 0.  1.
         -5    1    4    4    0  501 -0.36795602543E+02  0.37837848710E+02 -0.21639489952E+03  0.22278792988E+03  0.47000000000E+01 0.  1.
          1    1    1    2  502    0 -0.39095384985E+02  0.36721321860E+02 -0.81268972488E+03  0.81445779113E+03  0.00000000000E+00 0. -1.
          1    1    1    2  503    0  0.49486737103E+02 -0.18314478413E+02  0.71499632193E+03  0.71694079089E+03  0.00000000000E+00 0. -1.
<mgrwt>
<rscale>  0 0.53172289E+02</rscale>
<asrwt>0</asrwt>
<pdfrwt beam="1">  1        2 0.21792093E+00 0.52767009E+02</pdfrwt>
<pdfrwt beam="2">  1        2 0.23600173E+00 0.53580682E+02</pdfrwt>
<totfact> 0.40175588E+01</totfact>
</mgrwt>
</event>
<event>
13    1  0.1675423E-008  0.7037176E+02  0.7546771E-02  0.1428716E+00
          2   -1    0    0  502    0  0.00000000000E+00  0.00000000000E+00  0.19577171944E+04  0.19577171944E+04  0.00000000000E+00 0. -1.
          2   -1    0    0  503    0 -0.00000000000E+00 -0.00000000000E+00 -0.33356983528E+04  0.33356983528E+04  0.00000000000E+00 0. -1.
         24    2    1    2    0    0  0.84085480129E+02  0.25189814850E+02  0.74947640880E+03  0.75929082442E+03  0.84277956501E+02 0.  0.
         25    2    1    2    0    0 -0.12267625148E+03  0.56872171348E+02 -0.13103634366E+03  0.22601473159E+03  0.12501291527E+03 0.  0.
         24    2    1    2    0    0 -0.76289481925E+01 -0.51204980475E+02 -0.47169347417E+02  0.10743276716E+03  0.81465951470E+02 0.  0.
        -13    1    5    5    0    0 -0.24562797567E+02 -0.38525221311E+02 -0.65214538602E+02  0.79627003877E+02  0.00000000000E+00 0.  1.
         14    1    5    5    0    0  0.16933849374E+02 -0.12679759164E+02  0.18045191185E+02  0.27805763287E+02  0.00000000000E+00 0. -1.
        -13    1    3    3    0    0  0.55564600572E+02 -0.15898029090E+02  0.22026040551E+03  0.22771653080E+03  0.00000000000E+00 0.  1.
         14    1    3    3    0    0  0.28520879557E+02  0.41087843940E+02  0.52921600329E+03  0.53157429362E+03  0.00000000000E+00 0. -1.
          5    1    4    4  501    0 -0.12234653273E+03  0.58482065403E+02 -0.49664054048E+02  0.14449025680E+03  0.47000000000E+01 0.  1.
         -5    1    4    4    0  501 -0.32971874775E+00 -0.16098940553E+01 -0.81372289608E+02  0.81524474787E+02  0.47000000000E+01 0.  1.
          1    1    1    2  502    0  0.20474753821E+02  0.34649235855E+02  0.11249500153E+04  0.11256697216E+04  0.00000000000E+00 0. -1.
          1    1    1    2  503    0  0.25744965724E+02 -0.65506241577E+02 -0.30742018915E+04  0.30750075025E+04  0.00000000000E+00 0. -1.
<mgrwt>
<rscale>  0 0.53218614E+02</rscale>
<asrwt>0</asrwt>
<pdfrwt beam="1">  1        2 0.28789959E+00 0.40246554E+02</pdfrwt>
<pdfrwt beam="2">  1        2 0.49054387E+00 0.70371761E+02</pdfrwt>
<totfact> 0.33179264E+00</totfact>
</mgrwt>
</event>
<event>
13    1  0.1675423E-008  0.1469898E+03  0.7546771E-02  0.1283501E+00
          2   -1    0    0  502    0  0.00000000000E+00  0.00000000000E+00  0.30561122617E+04  0.30561122617E+04  0.00000000000E+00 0. -1.
          4   -1    0    0  503    0 -0.00000000000E+00 -0.00000000000E+00 -0.42188102292E+03  0.42188102292E+03  0.00000000000E+00 0. -1.
         24    2    1    2    0    0 -0.73645147310E+02  0.10500862089E+03  0.12625708837E+04  0.12715932423E+04  0.80085698460E+02 0.  0.
         25    2    1    2    0    0  0.38075773443E+02  0.63671785166E+02  0.17495765889E+03  0.22745080878E+03  0.12497930733E+03 0.  0.
         24    2    1    2    0    0 -0.50051409863E+02  0.12351130576E+02  0.51826868976E+02  0.10831958684E+03  0.79933813176E+02 0.  0.
        -11    1    5    5    0    0 -0.13665469552E+01  0.38950375427E+02  0.15154454297E+02  0.41816942518E+02  0.00000000000E+00 0.  1.
         12    1    5    5    0    0 -0.48684862908E+02 -0.26599244851E+02  0.36672414679E+02  0.66502644319E+02  0.00000000000E+00 0. -1.
        -11    1    3    3    0    0 -0.86079667715E+02  0.99780200223E+02  0.12156550715E+04  0.12227767787E+04  0.00000000000E+00 0.  1.
         12    1    3    3    0    0  0.12434520405E+02  0.52284206635E+01  0.46915812212E+02  0.48816463574E+02  0.00000000000E+00 0. -1.
          5    1    4    4  501    0  0.22488287627E+02  0.47541761041E+02  0.19184769992E+03  0.19898133603E+03  0.47000000000E+01 0. -1.
         -5    1    4    4    0  501  0.15587485816E+02  0.16130024126E+02 -0.16890041035E+02  0.28469472748E+02  0.47000000000E+01 0. -1.
          1    1    1    2  502    0  0.65371857368E+02 -0.24384313868E+03  0.14940727503E+04  0.15152512462E+04  0.00000000000E+00 0. -1.
          3    1    1    2  503    0  0.20248926362E+02  0.62811602054E+02 -0.34919692317E+03  0.35537840047E+03  0.00000000000E+00 0. -1.
<mgrwt>
<rscale>  0 0.98491434E+02</rscale>
<asrwt>0</asrwt>
<pdfrwt beam="1">  1        2 0.44942826E+00 0.14698976E+03</pdfrwt>
<pdfrwt beam="2">  1        4 0.62041329E-01 0.65994821E+02</pdfrwt>
<totfact> 0.30841351E+00</totfact>
</mgrwt>
</event>
<event>
13    1  0.1675423E-008  0.7008643E+02  0.7546771E-02  0.1445531E+00
         -3   -1    0    0    0  501 -0.00000000000E+00  0.00000000000E+00  0.31094585290E+03  0.31094585290E+03  0.00000000000E+00 0.  1.
          2   -1    0    0  503    0  0.00000000000E+00 -0.00000000000E+00 -0.17756755813E+04  0.17756755813E+04  0.00000000000E+00 0. -1.
         24    2    1    2    0    0 -0.31003754926E+02  0.29435278863E+02 -0.59176225976E+03  0.59819145167E+03  0.76307092150E+02 0.  0.
         25    2    1    2    0    0 -0.54663188779E+02  0.54404062407E+01 -0.69152439303E+02  0.15305194425E+03  0.12500070220E+03 0.  0.
         24    2    1    2    0    0 -0.17782573016E+01 -0.58430427470E+02 -0.14363787875E+03  0.17557327363E+03  0.82321668768E+02 0.  0.
        -11    1    3    3    0    0 -0.48612580200E+01 -0.23231354565E+02 -0.27469226320E+03  0.27571573608E+03  0.00000000000E+00 0.  1.
         12    1    3    3    0    0 -0.26142496906E+02  0.52666633428E+02 -0.31706999656E+03  0.32247571558E+03  0.00000000000E+00 0. -1.
        -13    1    5    5    0    0  0.27586815038E+02 -0.63239464149E+02 -0.82267460674E+02  0.10736944293E+03  0.00000000000E+00 0.  1.
         14    1    5    5    0    0 -0.29365072340E+02  0.48090366798E+01 -0.61370418075E+02  0.68203830699E+02  0.00000000000E+00 0. -1.
          5    1    4    4  502    0 -0.15197464810E+02 -0.49240447677E+02  0.58567789258E+01  0.52076640478E+02  0.47000000000E+01 0. -1.
         -5    1    4    4    0  502 -0.39465723969E+02  0.54680853918E+02 -0.75009218228E+02  0.10097530378E+03  0.47000000000E+01 0. -1.
          1    1    1    2  503    0  0.69397831723E+02 -0.71549315261E+01 -0.90737532870E+03  0.91005342658E+03  0.00000000000E+00 0. -1.
         -4    1    1    2    0  501  0.18047369284E+02  0.30709673892E+02  0.24719817810E+03  0.24975133807E+03  0.00000000000E+00 0.  1.
<mgrwt>
<rscale>  0 0.49964844E+02</rscale>
<asrwt>0</asrwt>
<pdfrwt beam="2">  1        2 0.26112876E+00 0.70086427E+02</pdfrwt>
<pdfrwt beam="1">  1       -3 0.45727332E-01 0.35620101E+02</pdfrwt>
<totfact> 0.32212924E+01</totfact>
</mgrwt>
</event>
<event>
13    1  0.1675423E-008  0.1692460E+03  0.7546771E-02  0.1358720E+00
          2   -1    0    0  503    0  0.00000000000E+00  0.00000000000E+00  0.50029513276E+03  0.50029513276E+03  0.00000000000E+00 0. -1.
          2   -1    0    0  502    0 -0.00000000000E+00 -0.00000000000E+00 -0.14575090664E+04  0.14575090664E+04  0.00000000000E+00 0. -1.
         24    2    1    2    0    0 -0.12513808653E+02  0.27456972323E+03 -0.17697977336E+03  0.33579085606E+03  0.76736761189E+02 0.  0.
         25    2    1    2    0    0  0.96678644855E+02  0.20376415514E+01 -0.71608965689E+03  0.73332064609E+03  0.12499544363E+03 0.  0.
         24    2    1    2    0    0  0.92861562191E+01 -0.56579077413E+02  0.12495761611E+03  0.16406562396E+03  0.89530433058E+02 0.  0.
        -11    1    5    5    0    0 -0.72785765095E+01 -0.65228247464E+02  0.39529935318E+02  0.76617998731E+02  0.00000000000E+00 0.  1.
         12    1    5    5    0    0  0.16564732729E+02  0.86491700508E+01  0.85427680792E+02  0.87447625231E+02  0.00000000000E+00 0. -1.
        -13    1    3    3    0    0 -0.20333374104E+02  0.19356233205E+03 -0.16158973781E+03  0.25296455455E+03  0.00000000000E+00 0.  1.
         14    1    3    3    0    0  0.78195654508E+01  0.81007391173E+02 -0.15390035549E+02  0.82826301515E+02  0.00000000000E+00 0. -1.
          5    1    4    4  501    0  0.11031415865E+03 -0.27857621955E+02 -0.64355462064E+03  0.65355175805E+03  0.47000000000E+01 0.  1.
         -5    1    4    4    0  501 -0.13635513793E+02  0.29895263506E+02 -0.72535036247E+02  0.79768888045E+02  0.47000000000E+01 0.  1.
          1    1    1    2  502    0 -0.28676753221E+02  0.59537735352E+01 -0.40463551705E+03  0.40569410305E+03  0.00000000000E+00 0. -1.
          1    1    1    2  503    0 -0.64774239200E+02 -0.22598206090E+03  0.21553339752E+03  0.31893297001E+03  0.00000000000E+00 0. -1.
<mgrwt>
<rscale>  0 0.70405439E+02</rscale>
<asrwt>0</asrwt>
<pdfrwt beam="1">  1        2 0.73572813E-01 0.16924603E+03</pdfrwt>
<pdfrwt beam="2">  1        2 0.21433957E+00 0.29288284E+02</pdfrwt>
<totfact> 0.18980817E+02</totfact>
</mgrwt>
</event>
<event>
13    1  0.1675423E-008  0.1048278E+03  0.7546771E-02  0.1369830E+00
          2   -1    0    0  502    0  0.00000000000E+00  0.00000000000E+00  0.16173185105E+04  0.16173185105E+04  0.00000000000E+00 0. -1.
          2   -1    0    0  503    0 -0.00000000000E+00 -0.00000000000E+00 -0.31403045009E+04  0.31403045009E+04  0.00000000000E+00 0. -1.
         24    2    1    2    0    0 -0.31888845426E+03 -0.33551541459E+03 -0.29600624302E+03  0.55553236605E+03  0.82073589741E+02 0.  0.
         25    2    1    2    0    0  0.30099805630E+03  0.23412430236E+03 -0.10985181378E+04  0.11695214842E+04  0.12499753705E+03 0.  0.
         24    2    1    2    0    0  0.10516915817E+03  0.11272278299E+03 -0.97269472178E+02  0.19876735442E+03  0.79247292267E+02 0.  0.
        -11    1    5    5    0    0 -0.12481231890E+02  0.82792845998E+01 -0.15146152912E+02  0.21301024647E+02  0.00000000000E+00 0.  1.
         12    1    5    5    0    0  0.11765039006E+03  0.10444349839E+03 -0.82123319266E+02  0.17746632978E+03  0.00000000000E+00 0. -1.
        -13    1    3    3    0    0 -0.21557599510E+03 -0.23032469489E+03 -0.15489562832E+03  0.35144719435E+03  0.00000000000E+00 0.  1.
         14    1    3    3    0    0 -0.10331245916E+03 -0.10519071970E+03 -0.14111061470E+03  0.20408517170E+03  0.00000000000E+00 0. -1.
          5    1    4    4  501    0  0.26076967553E+03  0.19860367678E+03 -0.77397613815E+03  0.84053875374E+03  0.47000000000E+01 0.  1.
         -5    1    4    4    0  501  0.40228380766E+02  0.35520625576E+02 -0.32454199961E+03  0.32898273050E+03  0.47000000000E+01 0.  1.
          1    1    1    2  502    0 -0.10057220236E+03  0.29663973290E+02  0.13990182741E+04  0.14029422121E+04  0.00000000000E+00 0. -1.
          1    1    1    2  503    0  0.13293442154E+02 -0.40995644044E+02 -0.14302104115E+04  0.14308595947E+04  0.00000000000E+00 0. -1.
<mgrwt>
<rscale>  0 0.67214367E+02</rscale>
<asrwt>0</asrwt>
<pdfrwt beam="1">  1        2 0.23784096E+00 0.10482777E+03</pdfrwt>
<pdfrwt beam="2">  1        2 0.46180948E+00 0.43097082E+02</pdfrwt>
<totfact> 0.61060136E+00</totfact>
</mgrwt>
</event>
<event>
13    1  0.1675423E-008  0.1111178E+03  0.7546771E-02  0.1413301E+00
          2   -1    0    0  502    0  0.00000000000E+00  0.00000000000E+00  0.16017654090E+04  0.16017654090E+04  0.00000000000E+00 0. -1.
          2   -1    0    0  503    0 -0.00000000000E+00 -0.00000000000E+00 -0.18762762768E+04  0.18762762768E+04  0.00000000000E+00 0. -1.
         24    2    1    2    0    0  0.67511193526E+02  0.78494484982E+02  0.47871051553E+03  0.49824786758E+03  0.91476961321E+02 0.  0.
         25    2    1    2    0    0 -0.94345094611E+01  0.12076716648E+03 -0.46448741417E+03  0.49602449278E+03  0.12497208108E+03 0.  0.
         24    2    1    2    0    0 -0.71812670677E+02 -0.61070890514E+02 -0.25368649963E+03  0.28218450836E+03  0.79903337359E+02 0.  0.
        -11    1    3    3    0    0  0.56449870106E+02  0.24819558784E+02  0.11554248583E+03  0.13096818073E+03  0.00000000000E+00 0.  1.
         12    1    3    3    0    0  0.11061323419E+02  0.53674926198E+02  0.36316802970E+03  0.36727968685E+03  0.00000000000E+00 0. -1.
        -13    1    5    5    0    0 -0.22996871104E+02 -0.22382408530E+02 -0.14851718107E+02  0.35361021236E+02  0.00000000000E+00 0.  1.
         14    1    5    5    0    0 -0.48815799573E+02 -0.38688481985E+02 -0.23883478153E+03  0.24682348712E+03  0.00000000000E+00 0. -1.
          5    1    4    4  501    0 -0.18194943538E+02 -0.20779803427E+02 -0.43264870843E+02  0.51544109750E+02  0.47000000000E+01 0. -1.
         -5    1    4    4    0  501  0.87604340767E+01  0.14154696990E+03 -0.42122254333E+03  0.44448038303E+03  0.47000000000E+01 0. -1.
          1    1    1    2  502    0  0.48551140624E+01 -0.11090819404E+03  0.10802394756E+04  0.10859288762E+04  0.00000000000E+00 0. -1.
          1    1    1    2  503    0  0.88808725502E+01 -0.27282566902E+02 -0.11152869451E+04  0.11156559408E+04  0.00000000000E+00 0. -1.
<mgrwt>
<rscale>  0 0.56463686E+02</rscale>
<asrwt>0</asrwt>
<pdfrwt beam="1">  1        2 0.23555374E+00 0.11111778E+03</pdfrwt>
<pdfrwt beam="2">  1        2 0.27592298E+00 0.28691608E+02</pdfrwt>
<totfact> 0.26396288E+01</totfact>
</mgrwt>
</event>
<event>
13    1  0.1675423E-008  0.2079032E+03  0.7546771E-02  0.1349158E+00
          2   -1    0    0  503    0  0.00000000000E+00  0.00000000000E+00  0.41519251232E+04  0.41519251232E+04  0.00000000000E+00 0. -1.
          2   -1    0    0  502    0 -0.00000000000E+00 -0.00000000000E+00 -0.18987342296E+04  0.18987342296E+04  0.00000000000E+00 0. -1.
         24    2    1    2    0    0  0.13386569518E+03  0.17516626377E+03 -0.29593410917E+02  0.23716876155E+03  0.82280053331E+02 0.  0.
         25    2    1    2    0    0  0.19434963344E+02 -0.21890821492E+03 -0.49879725182E+03  0.55921950857E+03  0.12501694275E+03 0.  0.
         24    2    1    2    0    0  0.19564890297E+02 -0.15897673821E+02 -0.18173499456E+03  0.20036083853E+03  0.80506747566E+02 0.  0.
        -11    1    3    3    0    0  0.12779519752E+03  0.11129819987E+03 -0.86739402033E+01  0.16968835859E+03  0.00000000000E+00 0.  1.
         12    1    3    3    0    0  0.60704976609E+01  0.63868063907E+02 -0.20919470714E+02  0.67480402963E+02  0.00000000000E+00 0. -1.
        -13    1    5    5    0    0  0.40612489369E+02 -0.32318289807E+02 -0.15089535295E+03  0.15957209559E+03  0.00000000000E+00 0.  1.
         14    1    5    5    0    0 -0.21047599072E+02  0.16420615986E+02 -0.30839641608E+02  0.40788742939E+02  0.00000000000E+00 0. -1.
          5    1    4    4  501    0 -0.23162562269E+02 -0.18717259747E+03 -0.30870195152E+03  0.36178594557E+03  0.47000000000E+01 0.  1.
         -5    1    4    4    0  501  0.42597525613E+02 -0.31735617452E+02 -0.19009530030E+03  0.19743356300E+03  0.47000000000E+01 0.  1.
          1    1    1    2  502    0  0.25732436628E+02 -0.25286375903E+01 -0.10424356165E+04  0.10427562356E+04  0.00000000000E+00 0. -1.
          1    1    1    2  503    0 -0.19859798545E+03  0.62168262561E+02  0.40057521674E+04  0.40111540084E+04  0.00000000000E+00 0. -1.
<mgrwt>
<rscale>  0 0.73318638E+02</rscale>
<asrwt>0</asrwt>
<pdfrwt beam="1">  1        2 0.61057722E+00 0.20790316E+03</pdfrwt>
<pdfrwt beam="2">  1        2 0.27922562E+00 0.25856378E+02</pdfrwt>
<totfact> 0.92271213E-01</totfact>
</mgrwt>
</event>
<event>
13    1  0.1675423E-008  0.1126624E+03  0.7546771E-02  0.1284834E+00
          4   -1    0    0  503    0 -0.00000000000E+00  0.00000000000E+00  0.33775052650E+03  0.33775052650E+03  0.00000000000E+00 0. -1.
          2   -1    0    0  502    0  0.00000000000E+00 -0.00000000000E+00 -0.13533261564E+04  0.13533261564E+04  0.00000000000E+00 0. -1.
         24    2    1    2    0    0 -0.38230349647E+02 -0.88101168907E+02 -0.15685840932E+03  0.20331709615E+03  0.86659710446E+02 0.  0.
         25    2    1    2    0    0 -0.22403224292E+03 -0.62938739285E+02 -0.49320800870E+02  0.26870612764E+03  0.12497484091E+03 0.  0.
         24    2    1    2    0    0  0.23318827549E+03  0.12736020313E+03 -0.63770381108E+03  0.69544819125E+03  0.79903960408E+02 0.  0.
        -13    1    3    3    0    0 -0.55776083879E+02 -0.26172872129E+02 -0.99883580915E+02  0.11735723457E+03  0.00000000000E+00 0.  1.
         14    1    3    3    0    0  0.17545734232E+02 -0.61928296777E+02 -0.56974828405E+02  0.85959861583E+02  0.00000000000E+00 0. -1.
        -13    1    5    5    0    0 -0.87958434764E+00  0.17500888330E+02 -0.60279158904E+02  0.62774451484E+02  0.00000000000E+00 0.  1.
         14    1    5    5    0    0  0.23406785983E+03  0.10985931480E+03 -0.57742465217E+03  0.63267373977E+03  0.00000000000E+00 0. -1.
          5    1    4    4  501    0 -0.61922214910E+02 -0.70620950837E+02 -0.49655387218E+02  0.10634578918E+03  0.47000000000E+01 0.  1.
         -5    1    4    4    0  501 -0.16211002802E+03  0.76822115512E+01  0.33458634806E+00  0.16236033846E+03  0.47000000000E+01 0.  1.
          1    1    1    2  502    0  0.51901145570E+02  0.10558249141E+03 -0.32646468543E+03  0.34701668870E+03  0.00000000000E+00 0. -1.
          3    1    1    2  503    0 -0.22826828483E+02 -0.81902786349E+02  0.15477207684E+03  0.17658857913E+03  0.00000000000E+00 0. -1.
<mgrwt>
<rscale>  0 0.97872572E+02</rscale>
<asrwt>0</asrwt>
<pdfrwt beam="2">  1        2 0.19901855E+00 0.11266239E+03</pdfrwt>
<pdfrwt beam="1">  1        4 0.49669194E-01 0.85024294E+02</pdfrwt>
<totfact> 0.36696966E+01</totfact>
</mgrwt>
</event>
<event>
13    1  0.1675423E-008  0.3398449E+02  0.7546771E-02  0.1605193E+00
          2   -1    0    0  503    0  0.00000000000E+00  0.00000000000E+00  0.44594003005E+03  0.44594003005E+03  0.00000000000E+00 0. -1.
          2   -1    0    0  502    0 -0.00000000000E+00 -0.00000000000E+00 -0.25700595670E+04  0.25700595670E+04  0.00000000000E+00 0. -1.
         24    2    1    2    0    0 -0.89778156251E+02  0.10407350114E+03  0.12574740643E+03  0.20389056748E+03  0.82870635968E+02 0.  0.
         25    2    1    2    0    0  0.23483952883E+02  0.24984356778E+02 -0.25042211601E+03  0.28197850844E+03  0.12499971563E+03 0.  0.
         24    2    1    2    0    0  0.46096650398E+02 -0.16164763249E+03  0.80577276710E+02  0.19975114288E+03  0.71784143751E+02 0.  0.
        -11    1    3    3    0    0  0.55669349523E+01 -0.97815701178E+01  0.14409726860E+02  0.18284149062E+02  0.00000000000E+00 0.  1.
         12    1    3    3    0    0 -0.95345091203E+02  0.11385507125E+03  0.11133767957E+03  0.18560641842E+03  0.00000000000E+00 0. -1.
        -13    1    5    5    0    0 -0.11007292522E+02 -0.17476010358E+01 -0.13525568810E+01  0.11226932269E+02  0.00000000000E+00 0.  1.
         14    1    5    5    0    0  0.57103942920E+02 -0.15990003145E+03  0.81929833591E+02  0.18852421062E+03  0.00000000000E+00 0. -1.
          5    1    4    4  501    0  0.20717564647E+02  0.35587038323E+02 -0.26206001545E+03  0.26531716206E+03  0.47000000000E+01 0.  1.
         -5    1    4    4    0  501  0.27663882369E+01 -0.10602681545E+02  0.11637899444E+02  0.16661346383E+02  0.47000000000E+01 0.  1.
          1    1    1    2  502    0 -0.51595445815E+01  0.33592537425E+02 -0.22037822298E+04  0.22040442817E+04  0.00000000000E+00 0. -1.
          1    1    1    2  503    0  0.25357097551E+02 -0.10027628505E+01  0.12376012565E+03  0.12633509659E+03  0.00000000000E+00 0. -1.
<mgrwt>
<rscale>  0 0.29367013E+02</rscale>
<asrwt>0</asrwt>
<pdfrwt beam="1">  1        2 0.65579417E-01 0.25376917E+02</pdfrwt>
<pdfrwt beam="2">  1        2 0.37794993E+00 0.33984485E+02</pdfrwt>
<totfact> 0.65922898E+01</totfact>
</mgrwt>
</event>
<event>
13    1  0.1675423E-008  0.1350177E+03  0.7546771E-02  0.1376407E+00
         -3   -1    0    0    0  501 -0.00000000000E+00  0.00000000000E+00  0.49354093241E+03  0.49354093241E+03  0.00000000000E+00 0.  1.
          2   -1    0    0  503    0  0.00000000000E+00 -0.00000000000E+00 -0.14747241952E+04  0.14747241952E+04  0.00000000000E+00 0. -1.
         24    2    1    2    0    0  0.32952330640E+02 -0.54480595251E+02 -0.42742469115E+03  0.43933858786E+03  0.79199348637E+02 0.  0.
         25    2    1    2    0    0  0.76696887754E+02  0.22881951844E+03 -0.37326958146E+03  0.46173233444E+03  0.12500313443E+03 0.  0.
         24    2    1    2    0    0 -0.26538639063E+02 -0.42055688268E+02 -0.26950780863E+03  0.28527611782E+03  0.79215050373E+02 0.  0.
        -11    1    3    3    0    0 -0.62464650201E+01  0.13758493821E+02 -0.24379134806E+02  0.28681992458E+02  0.00000000000E+00 0.  1.
         12    1    3    3    0    0  0.39198795660E+02 -0.68239089072E+02 -0.40304555634E+03  0.41065659540E+03  0.00000000000E+00 0. -1.
        -13    1    5    5    0    0 -0.43142349156E+02 -0.36825563047E+02 -0.10072567900E+03  0.11559864530E+03  0.00000000000E+00 0.  1.
         14    1    5    5    0    0  0.16603710094E+02 -0.52301252206E+01 -0.16878212963E+03  0.16967747252E+03  0.00000000000E+00 0. -1.
          5    1    4    4  502    0  0.25773541951E+02  0.21788364633E+03 -0.30432817107E+03  0.37520032584E+03  0.47000000000E+01 0.  1.
         -5    1    4    4    0  502  0.50923345803E+02  0.10935872110E+02 -0.68941410385E+02  0.86532008601E+02  0.47000000000E+01 0.  1.
          1    1    1    2  503    0  0.34500166927E+01 -0.31507309599E+02 -0.33555349747E+03  0.33704712257E+03  0.00000000000E+00 0. -1.
         -4    1    1    2    0  501 -0.86560596023E+02 -0.10077592532E+03  0.42457231596E+03  0.44487096488E+03  0.00000000000E+00 0.  1.
<mgrwt>
<rscale>  0 0.65417660E+02</rscale>
<asrwt>0</asrwt>
<pdfrwt beam="2">  1        2 0.21687121E+00 0.31695633E+02</pdfrwt>
<pdfrwt beam="1">  1       -3 0.72579548E-01 0.13501766E+03</pdfrwt>
<totfact> 0.20354193E+01</totfact>
</mgrwt>
</event>
<event>
13    1  0.1675423E-008  0.1852736E+03  0.7546771E-02  0.1193881E+00
          2   -1    0    0  503    0  0.00000000000E+00  0.00000000000E+00  0.37021678985E+04  0.37021678985E+04  0.00000000000E+00 0. -1.
          2   -1    0    0  502    0 -0.00000000000E+00 -0.00000000000E+00 -0.23677239447E+04  0.23677239447E+04  0.00000000000E+00 0. -1.
         24    2    1    2    0    0 -0.30262320270E+03  0.69712852601E+02  0.12490759505E+04  0.12895787192E+04  0.79886532603E+02 0.  0.
         25    2    1    2    0    0  0.42620304278E+03  0.21190059781E+03  0.11181308390E+04  0.12216348702E+04  0.12499714339E+03 0.  0.
         24    2    1    2    0    0  0.95371194324E+02  0.15143121257E+02 -0.28546357663E+03  0.31166584791E+03  0.79505775548E+02 0.  0.
        -11    1    3    3    0    0 -0.26620831142E+03  0.48839972445E+02  0.11593202867E+04  0.11904939039E+04  0.00000000000E+00 0.  1.
         12    1    3    3    0    0 -0.36414891280E+02  0.20872880155E+02  0.89755663792E+02  0.99084815262E+02  0.00000000000E+00 0. -1.
        -13    1    5    5    0    0  0.75427287102E+02 -0.23687259809E+02 -0.15339489834E+03  0.17256986050E+03  0.00000000000E+00 0.  1.
         14    1    5    5    0    0  0.19943907222E+02  0.38830381065E+02 -0.13206867829E+03  0.13909598742E+03  0.00000000000E+00 0. -1.
          5    1    4    4  501    0  0.21319852884E+03  0.39582582095E+02  0.45196540080E+03  0.50131348179E+03  0.47000000000E+01 0.  1.
         -5    1    4    4    0  501  0.21300451394E+03  0.17231801571E+03  0.66616543824E+03  0.72032138841E+03  0.47000000000E+01 0.  1.
          1    1    1    2  502    0 -0.16131457250E+03 -0.13161911244E+03 -0.19855671854E+04  0.19964526115E+04  0.00000000000E+00 0. -1.
          1    1    1    2  503    0 -0.57636461901E+02 -0.16513745923E+03  0.12382679263E+04  0.12505597944E+04  0.00000000000E+00 0. -1.
<mgrwt>
<rscale>  0 0.15549340E+03</rscale>
<asrwt>0</asrwt>
<pdfrwt beam="1">  1        2 0.54443646E+00 0.18527357E+03</pdfrwt>
<pdfrwt beam="2">  1        2 0.34819470E+00 0.13049998E+03</pdfrwt>
<totfact> 0.93982453E-01</totfact>
</mgrwt>
</event>
<event>
13    1  0.1675423E-008  0.1005855E+03  0.7546771E-02  0.1298865E+00
          2   -1    0    0  503    0  0.00000000000E+00  0.00000000000E+00  0.11802431335E+04  0.11802431335E+04  0.00000000000E+00 0. -1.
          2   -1    0    0  502    0 -0.00000000000E+00 -0.00000000000E+00 -0.22607372675E+04  0.22607372675E+04  0.00000000000E+00 0. -1.
         24    2    1    2    0    0  0.14686111763E+03  0.80533861649E+01  0.93922906797E+03  0.95403873445E+03  0.80035116107E+02 0.  0.
         25    2    1    2    0    0 -0.20972650825E+01  0.46632895132E+02 -0.97935787933E+03  0.98840690429E+03  0.12500930849E+03 0.  0.
         24    2    1    2    0    0  0.11008724795E+02  0.21547382582E+02 -0.15368475459E+02  0.85850935803E+02  0.80924109032E+02 0.  0.
        -11    1    5    5    0    0  0.11051354656E+02 -0.29432617221E+02  0.31845400697E+01  0.31599884362E+02  0.00000000000E+00 0.  1.
         12    1    5    5    0    0 -0.42629861006E-01  0.50979999803E+02 -0.18553015528E+02  0.54251051441E+02  0.00000000000E+00 0. -1.
        -13    1    3    3    0    0  0.24691141666E+02 -0.12325506953E+02  0.58961370079E+02  0.65100028879E+02  0.00000000000E+00 0.  1.
         14    1    3    3    0    0  0.12216997597E+03  0.20378893118E+02  0.88026769789E+03  0.88893870557E+03  0.00000000000E+00 0. -1.
          5    1    4    4  501    0 -0.56585999572E+01  0.80651788776E+02 -0.86920768608E+03  0.87297240639E+03  0.47000000000E+01 0.  1.
         -5    1    4    4    0  501  0.35613348748E+01 -0.34018893644E+02 -0.11015019326E+03  0.11543449790E+03  0.47000000000E+01 0.  1.
          1    1    1    2  502    0 -0.71325239092E+02 -0.70796805185E+02 -0.12074168421E+04  0.12115918900E+04  0.00000000000E+00 0. -1.
          1    1    1    2  503    0 -0.84447338253E+02 -0.54368586938E+01  0.18241999494E+03  0.20109193649E+03  0.00000000000E+00 0. -1.
<mgrwt>
<rscale>  0 0.91666853E+02</rscale>
<asrwt>0</asrwt>
<pdfrwt beam="1">  1        2 0.17356517E+00 0.83538966E+02</pdfrwt>
<pdfrwt beam="2">  1        2 0.33246136E+00 0.10058554E+03</pdfrwt>
<totfact> 0.25165613E+01</totfact>
</mgrwt>
</event>
<event>
13    1  0.1675423E-008  0.8884422E+02  0.7546771E-02  0.1329062E+00
          2   -1    0    0  503    0  0.00000000000E+00  0.00000000000E+00  0.21985700343E+04  0.21985700343E+04  0.00000000000E+00 0. -1.
          2   -1    0    0  502    0 -0.00000000000E+00 -0.00000000000E+00 -0.12683880197E+04  0.12683880197E+04  0.00000000000E+00 0. -1.
         24    2    1    2    0    0  0.84191560412E+02 -0.18133232099E+02  0.13483593779E+03  0.18002316463E+03  0.82526218469E+02 0.  0.
         25    2    1    2    0    0 -0.20412442418E+03  0.15142300052E+03 -0.18939811596E+03  0.34072185377E+03  0.12499611864E+03 0.  0.
         24    2    1    2    0    0  0.84941568165E+02 -0.10486460235E+03 -0.32704501199E+03  0.36277370562E+03  0.80216374859E+02 0.  0.
        -11    1    3    3    0    0  0.10031462400E+03 -0.18561209466E+02  0.10691166008E+03  0.14777565885E+03  0.00000000000E+00 0.  1.
         12    1    3    3    0    0 -0.16123063591E+02  0.42797736708E+00  0.27924277704E+02  0.32247505787E+02  0.00000000000E+00 0. -1.
        -13    1    5    5    0    0 -0.12836146210E+02  0.10059597712E+01 -0.26430741006E+02  0.29400045488E+02  0.00000000000E+00 0.  1.
         14    1    5    5    0    0  0.97777714375E+02 -0.10587056212E+03 -0.30061427099E+03  0.33337366014E+03  0.00000000000E+00 0. -1.
          5    1    4    4  501    0 -0.43468669121E+02  0.65996832858E+02 -0.12438919058E+03  0.14744445692E+03  0.47000000000E+01 0. -1.
         -5    1    4    4    0  501 -0.16065575506E+03  0.85426167663E+02 -0.65008925377E+02  0.19327739685E+03  0.47000000000E+01 0. -1.
          1    1    1    2  502    0  0.87033726582E+02  0.21372877105E+02 -0.63199671564E+03  0.63831929159E+03  0.00000000000E+00 0. -1.
          1    1    1    2  503    0 -0.52042430980E+02 -0.49798043180E+02  0.19437859204E+04  0.19451200384E+04  0.00000000000E+00 0. -1.
<mgrwt>
<rscale>  0 0.79996323E+02</rscale>
<asrwt>0</asrwt>
<pdfrwt beam="1">  1        2 0.32331912E+00 0.72029575E+02</pdfrwt>
<pdfrwt beam="2">  1        2 0.18652765E+00 0.88844224E+02</pdfrwt>
<totfact> 0.25127175E+01</totfact>
</mgrwt>
</event>
<event>
13    1  0.1675423E-008  0.7234228E+02  0.7546771E-02  0.1383193E+00
          2   -1    0    0  502    0  0.00000000000E+00  0.00000000000E+00  0.10085782555E+04  0.10085782555E+04  0.00000000000E+00 0. -1.
          2   -1    0    0  503    0 -0.00000000000E+00 -0.00000000000E+00 -0.13636574173E+04  0.13636574173E+04  0.00000000000E+00 0. -1.
         24    2    1    2    0    0  0.37948792234E+02  0.14644085166E+01  0.46672397318E+03  0.47509659546E+03  0.80269873269E+02 0.  0.
         25    2    1    2    0    0  0.10533489617E+02 -0.17260876849E+02 -0.22102423487E+03  0.25472490998E+03  0.12499670033E+03 0.  0.
         24    2    1    2    0    0 -0.10612155576E+03  0.14933251014E+02 -0.30618929873E+01  0.13292808970E+03  0.78585719187E+02 0.  0.
        -11    1    5    5    0    0 -0.33960024651E+02  0.34412031120E+02  0.23302838725E+02  0.53670228738E+02  0.00000000000E+00 0.  1.
         12    1    5    5    0    0 -0.72161531105E+02 -0.19478780106E+02 -0.26364731712E+02  0.79257860961E+02  0.00000000000E+00 0. -1.
        -13    1    3    3    0    0  0.31639113129E+02  0.37589712242E+02  0.32557634891E+03  0.32926278094E+03  0.00000000000E+00 0.  1.
         14    1    3    3    0    0  0.63096791041E+01 -0.36125303725E+02  0.14114762427E+03  0.14583381452E+03  0.00000000000E+00 0. -1.
          5    1    4    4  501    0 -0.27332144610E+02  0.17208213706E+02 -0.54341454262E+01  0.33087591095E+02  0.47000000000E+01 0.  1.
         -5    1    4    4    0  501  0.37865634227E+02 -0.34469090555E+02 -0.21559008944E+03  0.22163731889E+03  0.47000000000E+01 0.  1.
          1    1    1    2  502    0  0.96789110474E+01  0.55127081949E+02  0.45291539138E+03  0.45636063396E+03  0.00000000000E+00 0. -1.
          1    1    1    2  503    0  0.47960362859E+02 -0.54263864631E+02 -0.10506323985E+04  0.10531254437E+04  0.00000000000E+00 0. -1.
<mgrwt>
<rscale>  0 0.63631913E+02</rscale>
<asrwt>0</asrwt>
<pdfrwt beam="1">  1        2 0.14832033E+00 0.55970318E+02</pdfrwt>
<pdfrwt beam="2">  1        2 0.20053785E+00 0.72342280E+02</pdfrwt>
<totfact> 0.89229779E+01</totfact>
</mgrwt>
</event>
<event>
13    1  0.1675423E-008  0.2040230E+03  0.7546771E-02  0.1268116E+00
          2   -1    0    0  503    0  0.00000000000E+00  0.00000000000E+00  0.10327101807E+04  0.10327101807E+04  0.00000000000E+00 0. -1.
          2   -1    0    0  502    0 -0.00000000000E+00 -0.00000000000E+00 -0.12518994525E+04  0.12518994525E+04  0.00000000000E+00 0. -1.
         24    2    1    2    0    0  0.56302052847E+02 -0.22856265746E+03  0.10342867260E+03  0.27035807076E+03  0.83577428590E+02 0.  0.
         25    2    1    2    0    0 -0.31135346675E+03 -0.20398564630E+03 -0.30111570197E+03  0.49481905456E+03  0.12499642245E+03 0.  0.
         24    2    1    2    0    0  0.61375059080E+01  0.49772808923E+02  0.79422855177E+02  0.12324847750E+03  0.79794710325E+02 0.  0.
        -13    1    5    5    0    0 -0.29321754284E+02  0.67361933219E+01  0.54321238555E+02  0.62096203853E+02  0.00000000000E+00 0.  1.
         14    1    5    5    0    0  0.35459260192E+02  0.43036615601E+02  0.25101616622E+02  0.61152273652E+02  0.00000000000E+00 0. -1.
        -13    1    3    3    0    0  0.51275095721E+02 -0.55581224031E+02  0.43392345566E+02  0.87185454978E+02  0.00000000000E+00 0.  1.
         14    1    3    3    0    0  0.50269571263E+01 -0.17298143343E+03  0.60036327032E+02  0.18317261578E+03  0.00000000000E+00 0. -1.
          5    1    4    4  501    0 -0.48580977686E+02 -0.87652806045E+02 -0.45409390497E+02  0.11012369657E+03  0.47000000000E+01 0. -1.
         -5    1    4    4    0  501 -0.26277248906E+03 -0.11633284025E+03 -0.25570631148E+03  0.38469535799E+03  0.47000000000E+01 0. -1.
          1    1    1    2  502    0 -0.21869745220E+02  0.50570267460E+02 -0.67640527031E+03  0.67864550939E+03  0.00000000000E+00 0. -1.
          1    1    1    2  503    0  0.27078365321E+03  0.33220522737E+03  0.57548017270E+03  0.71753852099E+03  0.00000000000E+00 0. -1.
<mgrwt>
<rscale>  0 0.10602348E+03</rscale>
<asrwt>0</asrwt>
<pdfrwt beam="1">  1        2 0.15186915E+00 0.20402302E+03</pdfrwt>
<pdfrwt beam="2">  1        2 0.18410286E+00 0.55096622E+02</pdfrwt>
<totfact> 0.94089904E+01</totfact>
</mgrwt>
</event>
<event>
13    1  0.1675423E-008  0.1793528E+03  0.7546771E-02  0.1228600E+00
          2   -1    0    0  503    0  0.00000000000E+00  0.00000000000E+00  0.13417708728E+04  0.13417708728E+04  0.00000000000E+00 0. -1.
          2   -1    0    0  502    0 -0.00000000000E+00 -0.00000000000E+00 -0.14437342489E+04  0.14437342489E+04  0.00000000000E+00 0. -1.
         24    2    1    2    0    0  0.85908401667E+02 -0.49521483798E+02  0.28744994754E+03  0.31507914440E+03  0.82551584234E+02 0.  0.
         25    2    1    2    0    0 -0.97243044527E+02  0.52303902269E+03 -0.52141652135E+03  0.75533075912E+03  0.12499335174E+03 0.  0.
         24    2    1    2    0    0  0.22800200454E+02 -0.19867469413E+03 -0.34372439147E+02  0.21766982662E+03  0.78785821190E+02 0.  0.
        -13    1    5    5    0    0  0.63081971797E+01 -0.18595810452E+03 -0.48771913245E+02  0.19235100600E+03  0.00000000000E+00 0.  1.
         14    1    5    5    0    0  0.16492003274E+02 -0.12716589609E+02  0.14399474098E+02  0.25318820620E+02  0.00000000000E+00 0. -1.
        -13    1    3    3    0    0  0.36435554492E+01 -0.12200627125E+01  0.13622337489E+03  0.13627755471E+03  0.00000000000E+00 0.  1.
         14    1    3    3    0    0  0.82264846218E+02 -0.48301421085E+02  0.15122657265E+03  0.17880158970E+03  0.00000000000E+00 0. -1.
          5    1    4    4  501    0 -0.22805777820E+02  0.74977662723E+02 -0.24843028001E+02  0.82346945600E+02  0.47000000000E+01 0.  1.
         -5    1    4    4    0  501 -0.74437266707E+02  0.44806135997E+03 -0.49657349335E+03  0.67298381352E+03  0.47000000000E+01 0.  1.
          1    1    1    2  502    0  0.46675170554E+02 -0.80574239632E+02 -0.64979894564E+03  0.65643693482E+03  0.00000000000E+00 0. -1.
          1    1    1    2  503    0 -0.58140728148E+02 -0.19426860513E+03  0.81617458255E+03  0.84098845677E+03  0.00000000000E+00 0. -1.
<mgrwt>
<rscale>  0 0.12923158E+03</rscale>
<asrwt>0</asrwt>
<pdfrwt beam="1">  1        2 0.19731925E+00 0.17935282E+03</pdfrwt>
<pdfrwt beam="2">  1        2 0.21231386E+00 0.93117021E+02</pdfrwt>
<totfact> 0.49470250E+01</totfact>
</mgrwt>
</event>
<event>
13    1  0.1675423E-008  0.1923849E+03  0.7546771E-02  0.1279177E+00
          4   -1    0    0  503    0 -0.00000000000E+00  0.00000000000E+00  0.46186571010E+03  0.46186571010E+03  0.00000000000E+00 0. -1.
          2   -1    0    0  502    0  0.00000000000E+00 -0.00000000000E+00 -0.50592454754E+04  0.50592454754E+04  0.00000000000E+00 0. -1.
         24    2    1    2    0    0  0.15302874949E+03  0.45312969101E+01 -0.35246837430E+04  0.35288869177E+04  0.78797581826E+02 0.  0.
         25    2    1    2    0    0  0.65804601979E+02 -0.14579893058E+03  0.11419848353E+03  0.23292308254E+03  0.12499717974E+03 0.  0.
         24    2    1    2    0    0  0.97180139819E+02 -0.17020349925E+02 -0.12805100068E+03  0.17881989860E+03  0.76457998083E+02 0.  0.
        -11    1    5    5    0    0  0.66216827715E+02 -0.46716245904E+02 -0.73366800540E+02  0.10931497302E+03  0.00000000000E+00 0.  1.
         12    1    5    5    0    0  0.30963312104E+02  0.29695895979E+02 -0.54684200143E+02  0.69504925579E+02  0.00000000000E+00 0. -1.
        -13    1    3    3    0    0  0.10828041212E+03  0.33899140152E+02 -0.27606194542E+04  0.27629501570E+04  0.00000000000E+00 0.  1.
         14    1    3    3    0    0  0.44748337366E+02 -0.29367843241E+02 -0.76406428882E+03  0.76593676069E+03  0.00000000000E+00 0. -1.
          5    1    4    4  501    0 -0.29756685005E+02 -0.38381489407E+02 -0.73433227884E+00  0.48797830643E+02  0.47000000000E+01 0. -1.
         -5    1    4    4    0  501  0.95561286983E+02 -0.10741744117E+03  0.11493281581E+03  0.18412525190E+03  0.47000000000E+01 0. -1.
          1    1    1    2  502    0 -0.26472077312E+03  0.16964804810E+03 -0.12980434055E+04  0.13355801101E+04  0.00000000000E+00 0. -1.
          3    1    1    2  503    0 -0.51292718169E+02 -0.11360064510E+02  0.23919990030E+03  0.24490117661E+03  0.00000000000E+00 0. -1.
<mgrwt>
<rscale>  0 0.10053391E+03</rscale>
<asrwt>0</asrwt>
<pdfrwt beam="2">  1        2 0.74400667E+00 0.19238494E+03</pdfrwt>
<pdfrwt beam="1">  1        4 0.67921430E-01 0.52535645E+02</pdfrwt>
<totfact> 0.83933571E-02</totfact>
</mgrwt>
</event>
<event>
13    1  0.1675423E-008  0.1271918E+03  0.7546771E-02  0.1348639E+00
          2   -1    0    0  502    0  0.00000000000E+00  0.00000000000E+00  0.23175208596E+04  0.23175208596E+04  0.00000000000E+00 0. -1.
          2   -1    0    0  503    0 -0.00000000000E+00 -0.00000000000E+00 -0.11756074899E+04  0.11756074899E+04  0.00000000000E+00 0. -1.
         24    2    1    2    0    0  0.13139440828E+03  0.44183775557E+02 -0.73688626129E+01  0.15980866737E+03  0.79169523684E+02 0.  0.
         25    2    1    2    0    0  0.49436526795E+02  0.49486884941E+02 -0.57680625314E+03  0.59432581295E+03  0.12499918523E+03 0.  0.
         24    2    1    2    0    0  0.60369665900E+02 -0.66817638335E+01  0.96612753386E+02  0.14016664683E+03  0.81385024646E+02 0.  0.
        -11    1    5    5    0    0  0.16926946440E+02  0.24281333176E+02 -0.23250943725E+00  0.29599978332E+02  0.00000000000E+00 0.  1.
         12    1    5    5    0    0  0.43442719460E+02 -0.30963097010E+02  0.96845262824E+02  0.11056666849E+03  0.00000000000E+00 0. -1.
        -13    1    3    3    0    0  0.36190696358E+02 -0.22750593995E+02 -0.76674404760E+01  0.43429778649E+02  0.00000000000E+00 0.  1.
         14    1    3    3    0    0  0.95203711917E+02  0.66934369553E+02  0.29857786305E+00  0.11637888872E+03  0.00000000000E+00 0. -1.
          5    1    4    4  501    0 -0.35107779923E+02 -0.10197977988E+02 -0.10505497023E+03  0.11133369542E+03  0.47000000000E+01 0.  1.
         -5    1    4    4    0  501  0.84544306718E+02  0.59684862929E+02 -0.47175128292E+03  0.48299211753E+03  0.47000000000E+01 0.  1.
          1    1    1    2  502    0 -0.21104416157E+03 -0.57109946821E+02  0.21075558902E+04  0.21188659737E+04  0.00000000000E+00 0. -1.
          1    1    1    2  503    0 -0.30156439402E+02 -0.29878949844E+02 -0.47808015816E+03  0.47996124855E+03  0.00000000000E+00 0. -1.
<mgrwt>
<rscale>  0 0.73481493E+02</rscale>
<asrwt>0</asrwt>
<pdfrwt beam="1">  1        2 0.34081189E+00 0.12719176E+03</pdfrwt>
<pdfrwt beam="2">  1        2 0.17288345E+00 0.42451884E+02</pdfrwt>
<totfact> 0.24066251E+01</totfact>
</mgrwt>
</event>
<event>
13    1  0.1675423E-008  0.8774571E+02  0.7546771E-02  0.1344850E+00
          2   -1    0    0  503    0  0.00000000000E+00  0.00000000000E+00  0.28491063268E+04  0.28491063268E+04  0.00000000000E+00 0. -1.
          2   -1    0    0  502    0 -0.00000000000E+00 -0.00000000000E+00 -0.27309245713E+03  0.27309245713E+03  0.00000000000E+00 0. -1.
         24    2    1    2    0    0 -0.46023448321E+02  0.16508555364E+02  0.60631914683E+03  0.61321783543E+03  0.77604868934E+02 0.  0.
         25    2    1    2    0    0  0.18588193078E+03 -0.75599113131E+01 -0.79480668621E+02  0.23780275323E+03  0.12499491313E+03 0.  0.
         24    2    1    2    0    0 -0.61374265442E+02 -0.11297472803E+03  0.22120306526E+03  0.26829914115E+03  0.80768455669E+02 0.  0.
        -11    1    5    5    0    0 -0.44532237820E+02 -0.10885572545E+03  0.22168719665E+03  0.25095398449E+03  0.00000000000E+00 0.  1.
         12    1    5    5    0    0 -0.16842027622E+02 -0.41190025720E+01 -0.48413139138E+00  0.17345156667E+02  0.00000000000E+00 0. -1.
        -11    1    3    3    0    0  0.11757726429E+02 -0.19936523758E+02  0.17450461833E+03  0.17603286889E+03  0.00000000000E+00 0.  1.
         12    1    3    3    0    0 -0.57781174750E+02  0.36445079122E+02  0.43181452850E+03  0.43718496654E+03  0.00000000000E+00 0. -1.
          5    1    4    4  501    0 -0.36474056730E+01 -0.26718043957E+02 -0.30648112348E+02  0.41092021507E+02  0.47000000000E+01 0.  1.
         -5    1    4    4    0  501  0.18952933645E+03  0.19158132644E+02 -0.48832556273E+02  0.19671073172E+03  0.47000000000E+01 0.  1.
          1    1    1    2  502    0 -0.80864316932E+00  0.63563035138E+02 -0.74759806147E+02  0.98132267653E+02  0.00000000000E+00 0. -1.
          1    1    1    2  503    0 -0.77675573844E+02  0.40463048837E+02  0.19027321323E+04  0.19047467864E+04  0.00000000000E+00 0. -1.
<mgrwt>
<rscale>  0 0.74684906E+02</rscale>
<asrwt>0</asrwt>
<pdfrwt beam="1">  1        2 0.41898621E+00 0.87745714E+02</pdfrwt>
<pdfrwt beam="2">  1        2 0.40160657E-01 0.63568179E+02</pdfrwt>
<totfact> 0.68746410E+01</totfact>
</mgrwt>
</event>
<event>
13    1  0.1675423E-008  0.1790981E+03  0.7546771E-02  0.1272258E+00
         -3   -1    0    0    0  501 -0.00000000000E+00  0.00000000000E+00  0.10817702249E+04  0.10817702249E+04  0.00000000000E+00 0.  1.
          2   -1    0    0  503    0  0.00000000000E+00 -0.00000000000E+00 -0.10891944566E+04  0.10891944566E+04  0.00000000000E+00 0. -1.
         24    2    1    2    0    0 -0.14871650537E+03  0.46063250031E+02 -0.35920531409E+03  0.39933394283E+03  0.78744639516E+02 0.  0.
         25    2    1    2    0    0  0.87979966973E+02  0.17609965693E+03  0.32927674733E+03  0.40348854156E+03  0.12501305163E+03 0.  0.
         24    2    1    2    0    0 -0.80539230428E+01 -0.52371679779E+02  0.29243152569E+02  0.10090230771E+03  0.80736950704E+02 0.  0.
        -11    1    3    3    0    0 -0.56045077763E+02  0.14353495506E+02 -0.23020236316E+03  0.23736090996E+03  0.00000000000E+00 0.  1.
         12    1    3    3    0    0 -0.92671427610E+02  0.31709754525E+02 -0.12900295093E+03  0.16197303287E+03  0.00000000000E+00 0. -1.
        -11    1    5    5    0    0 -0.40245428460E+02 -0.41479131749E+02  0.28358411295E+01  0.57864106988E+02  0.00000000000E+00 0.  1.
         12    1    5    5    0    0  0.32191505417E+02 -0.10892548029E+02  0.26407311439E+02  0.43038200718E+02  0.00000000000E+00 0. -1.
          5    1    4    4  502    0  0.25746825522E+01  0.60641085139E+02  0.20388482514E+03  0.21277942128E+03  0.47000000000E+01 0. -1.
         -5    1    4    4    0  502  0.85405284421E+02  0.11545857180E+03  0.12539192219E+03  0.19070912028E+03  0.47000000000E+01 0. -1.
          1    1    1    2  503    0  0.95679420040E+01 -0.18114495727E+03 -0.62257253316E+03  0.64846094724E+03  0.00000000000E+00 0. -1.
         -4    1    1    2    0  501  0.59222519439E+02  0.11353730083E+02  0.61583371565E+03  0.61877894221E+03  0.00000000000E+00 0.  1.
<mgrwt>
<rscale>  0 0.10392209E+03</rscale>
<asrwt>0</asrwt>
<pdfrwt beam="2">  1        2 0.16017566E+00 0.17909811E+03</pdfrwt>
<pdfrwt beam="1">  1       -3 0.15908386E+00 0.60301028E+02</pdfrwt>
<totfact> 0.47011216E+00</totfact>
</mgrwt>
</event>
<event>
13    1  0.1675423E-008  0.5164757E+02  0.7546771E-02  0.1461947E+00
         -1   -1    0    0    0  501 -0.00000000000E+00  0.00000000000E+00  0.15980637637E+04  0.15980637637E+04  0.00000000000E+00 0.  1.
          2   -1    0    0  503    0  0.00000000000E+00 -0.00000000000E+00 -0.18666050164E+03  0.18666050164E+03  0.00000000000E+00 0. -1.
         24    2    1    2    0    0  0.30403912611E+02 -0.21215671232E+01 -0.80157638985E+02  0.11459867946E+03  0.76017835389E+02 0.  0.
         25    2    1    2    0    0 -0.37806665123E+02  0.96984263339E+02  0.51321617466E+03  0.53838115553E+03  0.12501254110E+03 0.  0.
         24    2    1    2    0    0  0.54019280842E+01 -0.10384486100E+03  0.29854786239E+02  0.13590707377E+03  0.82258667961E+02 0.  0.
        -11    1    3    3    0    0  0.54797178568E+01  0.35091275919E+02 -0.24449120657E+02  0.43118261262E+02  0.00000000000E+00 0.  1.
         12    1    3    3    0    0  0.24924194755E+02 -0.37212843042E+02 -0.55708518328E+02  0.71480418198E+02  0.00000000000E+00 0. -1.
        -11    1    5    5    0    0 -0.28701805044E+02 -0.88095904705E+01 -0.18414042217E+01  0.30079781691E+02  0.00000000000E+00 0.  1.
         12    1    5    5    0    0  0.34103733128E+02 -0.95035270531E+02  0.31696190461E+02  0.10582729207E+03  0.00000000000E+00 0. -1.
          5    1    4    4  502    0 -0.80781551632E+02  0.58566030266E+02  0.25725061143E+03  0.27596305200E+03  0.47000000000E+01 0.  1.
         -5    1    4    4    0  502  0.42974886509E+02  0.38418233073E+02  0.25596556323E+03  0.26241810354E+03  0.47000000000E+01 0.  1.
          1    1    1    2  503    0  0.11416111318E+01 -0.42842789587E+02 -0.29754965737E+01  0.42961162408E+02  0.00000000000E+00 0. -1.
         -2    1    1    2    0  501  0.85921329571E+00  0.51824954373E+02  0.95146543671E+03  0.95287619416E+03  0.00000000000E+00 0.  1.
<mgrwt>
<rscale>  0 0.47047968E+02</rscale>
<asrwt>0</asrwt>
<pdfrwt beam="2">  1        2 0.27450075E-01 0.42857997E+02</pdfrwt>
<pdfrwt beam="1">  1       -1 0.23500937E+00 0.51647567E+02</pdfrwt>
<totfact> 0.24685307E+01</totfact>
</mgrwt>
</event>
<event>
13    1  0.1675423E-008  0.7449394E+02  0.7546771E-02  0.1428667E+00
          2   -1    0    0  503    0  0.00000000000E+00  0.00000000000E+00  0.13699447238E+04  0.13699447238E+04  0.00000000000E+00 0. -1.
          2   -1    0    0  502    0 -0.00000000000E+00 -0.00000000000E+00 -0.83283444353E+03  0.83283444353E+03  0.00000000000E+00 0. -1.
         24    2    1    2    0    0 -0.37486088559E+02  0.74818025123E+02  0.48926096056E+03  0.50257703665E+03  0.78768309133E+02 0.  0.
         25    2    1    2    0    0  0.78963991257E+02 -0.23295884611E+03 -0.87972580625E+02  0.28960381190E+03  0.12500422803E+03 0.  0.
         24    2    1    2    0    0 -0.22853708019E+02  0.89182565236E+02  0.90812890684E+02  0.15126226545E+03  0.78469547744E+02 0.  0.
        -11    1    3    3    0    0 -0.58029298943E+02  0.32016666424E+02  0.24893160416E+03  0.25760320265E+03  0.00000000000E+00 0.  1.
         12    1    3    3    0    0  0.20543210384E+02  0.42801358699E+02  0.24032935640E+03  0.24497383400E+03  0.00000000000E+00 0. -1.
        -13    1    5    5    0    0  0.26625621630E+02  0.34924898542E+02  0.52469761444E+02  0.68423301085E+02  0.00000000000E+00 0.  1.
         14    1    5    5    0    0 -0.49479329649E+02  0.54257666694E+02  0.38343129240E+02  0.82838964367E+02  0.00000000000E+00 0. -1.
          5    1    4    4  501    0 -0.13334181764E+02  0.87942264478E+01 -0.14696727942E+01  0.16714926271E+02  0.47000000000E+01 0. -1.
         -5    1    4    4    0  501  0.92298173021E+02 -0.24175307256E+03 -0.86502907831E+02  0.27288888562E+03  0.47000000000E+01 0. -1.
          1    1    1    2  502    0 -0.52910512496E+02  0.52496197354E+02 -0.60431752887E+03  0.60889658298E+03  0.00000000000E+00 0. -1.
          1    1    1    2  503    0  0.34286317817E+02  0.16462058398E+02  0.64932653854E+03  0.65043947036E+03  0.00000000000E+00 0. -1.
<mgrwt>
<rscale>  0 0.53228460E+02</rscale>
<asrwt>0</asrwt>
<pdfrwt beam="1">  1        2 0.20146246E+00 0.38033550E+02</pdfrwt>
<pdfrwt beam="2">  1        2 0.12247565E+00 0.74493939E+02</pdfrwt>
<totfact> 0.11653308E+02</totfact>
</mgrwt>
</event>
<event>
13    1  0.1675423E-008  0.8106030E+02  0.7546771E-02  0.1424825E+00
          2   -1    0    0  502    0  0.00000000000E+00  0.00000000000E+00  0.17197095917E+04  0.17197095917E+04  0.00000000000E+00 0. -1.
          2   -1    0    0  503    0 -0.00000000000E+00 -0.00000000000E+00 -0.12203252769E+04  0.12203252769E+04  0.00000000000E+00 0. -1.
         24    2    1    2    0    0 -0.15806533984E+03 -0.17539276565E+03  0.50827856185E+03  0.56646489949E+03  0.82389999453E+02 0.  0.
         25    2    1    2    0    0  0.26183244606E+03  0.20723603839E+03  0.42205806921E+03  0.55250134192E+03  0.12498685378E+03 0.  0.
         24    2    1    2    0    0 -0.66421133687E+01 -0.26380228425E+02  0.45303236892E+02  0.96541536934E+02  0.80795117173E+02 0.  0.
        -11    1    3    3    0    0 -0.16553928520E+03 -0.14927512536E+03  0.45271198280E+03  0.50461317597E+03  0.00000000000E+00 0.  1.
         12    1    3    3    0    0  0.74739453657E+01 -0.26117640288E+02  0.55566579053E+02  0.61851723511E+02  0.00000000000E+00 0. -1.
        -13    1    5    5    0    0 -0.99084565879E+01  0.25834635834E+02  0.51915525389E+00  0.27674454697E+02  0.00000000000E+00 0.  1.
         14    1    5    5    0    0  0.32663432192E+01 -0.52214864259E+02  0.44784081638E+02  0.68867082237E+02  0.00000000000E+00 0. -1.
          5    1    4    4  501    0  0.11599675944E+03  0.33902370608E+02  0.20910790064E+03  0.24156328993E+03  0.47000000000E+01 0. -1.
         -5    1    4    4    0  501  0.14583568662E+03  0.17333366778E+03  0.21295016858E+03  0.31093805199E+03  0.47000000000E+01 0. -1.
          1    1    1    2  502    0 -0.77065093188E+02  0.24418555524E+02  0.62122180728E+03  0.62645975791E+03  0.00000000000E+00 0. -1.
          1    1    1    2  503    0 -0.20059899666E+02 -0.29881599834E+02 -0.10974773605E+04  0.10980673324E+04  0.00000000000E+00 0. -1.
<mgrwt>
<rscale>  0 0.54012902E+02</rscale>
<asrwt>0</asrwt>
<pdfrwt beam="1">  1        2 0.25289847E+00 0.81060304E+02</pdfrwt>
<pdfrwt beam="2">  1        2 0.17945960E+00 0.35990410E+02</pdfrwt>
<totfact> 0.47096997E+01</totfact>
</mgrwt>
</event>
<event>
13    1  0.1675423E-008  0.8864644E+02  0.7546771E-02  0.1367479E+00
         -1   -1    0    0    0  501 -0.00000000000E+00  0.00000000000E+00  0.29835325736E+04  0.29835325736E+04  0.00000000000E+00 0.  1.
          2   -1    0    0  503    0  0.00000000000E+00 -0.00000000000E+00 -0.53437019565E+03  0.53437019565E+03  0.00000000000E+00 0. -1.
         24    2    1    2    0    0 -0.33304367328E+02 -0.12649872237E+02 -0.40628690785E+03  0.41573804837E+03  0.80621791214E+02 0.  0.
         25    2    1    2    0    0  0.15749365259E+03  0.14130933943E+02  0.29484909174E+03  0.35715750369E+03  0.12498624580E+03 0.  0.
         24    2    1    2    0    0 -0.64644068378E+02 -0.56056584262E+02  0.15662687098E+03  0.19601441711E+03  0.81046152207E+02 0.  0.
        -11    1    5    5    0    0 -0.47227528436E+02 -0.74298306718E+02  0.14135819848E+03  0.16653173301E+03  0.00000000000E+00 0.  1.
         12    1    5    5    0    0 -0.17416539942E+02  0.18241722456E+02  0.15268672499E+02  0.29482684098E+02  0.00000000000E+00 0. -1.
        -13    1    3    3    0    0  0.13479226148E+02  0.24770809084E+02 -0.12476854173E+03  0.12791587676E+03  0.00000000000E+00 0.  1.
         14    1    3    3    0    0 -0.46783593476E+02 -0.37420681321E+02 -0.28151836612E+03  0.28782217161E+03  0.00000000000E+00 0. -1.
          5    1    4    4  502    0  0.16244251332E+03  0.45658616066E+02  0.23783217582E+03  0.29164792680E+03  0.47000000000E+01 0.  1.
         -5    1    4    4    0  502 -0.49488607229E+01 -0.31527682123E+02  0.57016915918E+02  0.65509576883E+02  0.47000000000E+01 0.  1.
          1    1    1    2  503    0  0.28281028002E+02  0.43598230003E+02 -0.62301576957E+02  0.81130195954E+02  0.00000000000E+00 0. -1.
         -2    1    1    2    0  501 -0.87826244890E+02  0.10977292553E+02  0.24662749000E+04  0.24678626041E+04  0.00000000000E+00 0.  1.
<mgrwt>
<rscale>  0 0.67872932E+02</rscale>
<asrwt>0</asrwt>
<pdfrwt beam="2">  1        2 0.78583854E-01 0.51967511E+02</pdfrwt>
<pdfrwt beam="1">  1       -1 0.43875478E+00 0.88646440E+02</pdfrwt>
<totfact> 0.41560385E-01</totfact>
</mgrwt>
</event>
<event>
13    1  0.1675423E-008  0.1019036E+03  0.7546771E-02  0.1344921E+00
          2   -1    0    0  502    0  0.00000000000E+00  0.00000000000E+00  0.51467327387E+03  0.51467327387E+03  0.00000000000E+00 0. -1.
          2   -1    0    0  503    0 -0.00000000000E+00 -0.00000000000E+00 -0.10072094478E+04  0.10072094478E+04  0.00000000000E+00 0. -1.
         24    2    1    2    0    0  0.73608620399E+02 -0.20226973159E+03  0.14055489114E+03  0.26991543205E+03  0.82264146025E+02 0.  0.
         25    2    1    2    0    0  0.65193624599E+02  0.13171893413E+03 -0.33100830430E+03  0.38313190050E+03  0.12499387733E+03 0.  0.
         24    2    1    2    0    0 -0.15590907564E+03 -0.19845828470E+02 -0.61313248614E+02  0.18623993674E+03  0.78895518278E+02 0.  0.
        -11    1    5    5    0    0 -0.80576054351E+02 -0.47174293592E+02 -0.17799037707E+02  0.95051145464E+02  0.00000000000E+00 0.  1.
         12    1    5    5    0    0 -0.75333021292E+02  0.27328465122E+02 -0.43514210907E+02  0.91188791273E+02  0.00000000000E+00 0. -1.
        -13    1    3    3    0    0  0.41046523129E+02 -0.19134748501E+03  0.11383182930E+03  0.22639868030E+03  0.00000000000E+00 0.  1.
         14    1    3    3    0    0  0.32562097270E+02 -0.10922246585E+02  0.26723061832E+02  0.43516751749E+02  0.00000000000E+00 0. -1.
          5    1    4    4  501    0 -0.21855851637E+02 -0.11582481874E+02 -0.41307617827E+02  0.48376041877E+02  0.47000000000E+01 0. -1.
         -5    1    4    4    0  501  0.87049476236E+02  0.14330141601E+03 -0.28970068647E+03  0.33475585862E+03  0.47000000000E+01 0. -1.
          1    1    1    2  502    0  0.54482483048E+02 -0.49023884912E+01  0.21171931016E+03  0.21867199333E+03  0.00000000000E+00 0. -1.
          1    1    1    2  503    0 -0.37375652403E+02  0.95299014421E+02 -0.45248882236E+03  0.46392345910E+03  0.00000000000E+00 0. -1.
<mgrwt>
<rscale>  0 0.74661849E+02</rscale>
<asrwt>0</asrwt>
<pdfrwt beam="1">  1        2 0.75687247E-01 0.54702599E+02</pdfrwt>
<pdfrwt beam="2">  1        2 0.14811903E+00 0.10190360E+03</pdfrwt>
<totfact> 0.29270324E+02</totfact>
</mgrwt>
</event>
<event>
13    1  0.1675423E-008  0.1191684E+03  0.7546771E-02  0.1252178E+00
         -3   -1    0    0    0  501 -0.00000000000E+00  0.00000000000E+00  0.11717338014E+04  0.11717338014E+04  0.00000000000E+00 0.  1.
          2   -1    0    0  503    0  0.00000000000E+00 -0.00000000000E+00 -0.10932995633E+04  0.10932995633E+04  0.00000000000E+00 0. -1.
         24    2    1    2    0    0 -0.23723845131E+02 -0.16645610475E+01 -0.88993894498E+02  0.12426354925E+03  0.83402187164E+02 0.  0.
         25    2    1    2    0    0  0.26516822195E+03 -0.47128947296E+02  0.62407666901E+03  0.69110948437E+03  0.12500122791E+03 0.  0.
         24    2    1    2    0    0 -0.21228315895E+02 -0.26633135481E+02 -0.89284562033E+02  0.12356770566E+03  0.78340791185E+02 0.  0.
        -13    1    3    3    0    0 -0.32321606241E+02 -0.32958631917E+02 -0.76777975045E+02  0.89586913664E+02  0.00000000000E+00 0.  1.
         14    1    3    3    0    0  0.85977611102E+01  0.31294070869E+02 -0.12215919452E+02  0.34676635588E+02  0.00000000000E+00 0. -1.
        -13    1    5    5    0    0  0.22141599266E+02  0.45011099504E+01 -0.56663969551E+02  0.61002588913E+02  0.00000000000E+00 0.  1.
         14    1    5    5    0    0 -0.43369915161E+02 -0.31134245431E+02 -0.32620592482E+02  0.62565116747E+02  0.00000000000E+00 0. -1.
          5    1    4    4  502    0  0.13565904894E+03 -0.11647101810E+02  0.17161236707E+03  0.21911624100E+03  0.47000000000E+01 0.  1.
         -5    1    4    4    0  502  0.12950917301E+03 -0.35481845486E+02  0.45246430195E+03  0.47199324337E+03  0.47000000000E+01 0.  1.
          1    1    1    2  503    0 -0.13727308010E+03 -0.29398720585E+02 -0.83140946389E+03  0.84317843896E+03  0.00000000000E+00 0. -1.
         -4    1    1    2    0  501 -0.82942980823E+02  0.10482536441E+03  0.46404548950E+03  0.48291418639E+03  0.00000000000E+00 0.  1.
<mgrwt>
<rscale>  0 0.11465845E+03</rscale>
<asrwt>0</asrwt>
<pdfrwt beam="2">  1        2 0.16077935E+00 0.11916839E+03</pdfrwt>
<pdfrwt beam="1">  1       -3 0.17231379E+00 0.11031918E+03</pdfrwt>
<totfact> 0.38713138E+00</totfact>
</mgrwt>
</event>
<event>
13    1  0.1675423E-008  0.6646816E+02  0.7546771E-02  0.1407636E+00
          2   -1    0    0  503    0  0.00000000000E+00  0.00000000000E+00  0.13455391584E+04  0.13455391584E+04  0.00000000000E+00 0. -1.
         -1   -1    0    0    0  501 -0.00000000000E+00 -0.00000000000E+00 -0.11335300550E+04  0.11335300550E+04  0.00000000000E+00 0.  1.
         24    2    1    2    0    0 -0.19987041202E+02  0.66028741827E+01  0.88846090479E+03  0.89235187737E+03  0.80535792936E+02 0.  0.
         25    2    1    2    0    0 -0.79914430506E+01  0.15795040848E+03  0.30133631342E+02  0.20382871682E+03  0.12500366139E+03 0.  0.
         24    2    1    2    0    0  0.46794701563E+02 -0.83808142707E+02 -0.49369996791E+03  0.50915084624E+03  0.79255138876E+02 0.  0.
        -11    1    3    3    0    0  0.13317649770E+02  0.19619482107E+02  0.89400951926E+02  0.92492237938E+02  0.00000000000E+00 0.  1.
         12    1    3    3    0    0 -0.33304690972E+02 -0.13016607924E+02  0.79905995287E+03  0.79985963943E+03  0.00000000000E+00 0. -1.
        -11    1    5    5    0    0  0.54035709084E+02 -0.20877013286E+02 -0.29371390086E+03  0.29937194775E+03  0.00000000000E+00 0.  1.
         12    1    5    5    0    0 -0.72410075210E+01 -0.62931129421E+02 -0.19998606705E+03  0.20977889850E+03  0.00000000000E+00 0. -1.
          5    1    4    4  502    0 -0.63701179684E+02  0.92604210373E+02  0.34648616007E+02  0.11771149758E+03  0.47000000000E+01 0.  1.
         -5    1    4    4    0  502  0.55709736633E+02  0.65346198107E+02 -0.45149846655E+01  0.86117219238E+02  0.47000000000E+01 0.  1.
          1    1    1    2  503    0  0.32340017643E+02 -0.38305049798E+02  0.32647274873E+03  0.33029927224E+03  0.00000000000E+00 0. -1.
         -2    1    1    2    0  501 -0.51156234953E+02 -0.42440090157E+02 -0.53935821351E+03  0.54343850076E+03  0.00000000000E+00 0.  1.
<mgrwt>
<rscale>  0 0.57724688E+02</rscale>
<asrwt>0</asrwt>
<pdfrwt beam="1">  1        2 0.19787341E+00 0.50131363E+02</pdfrwt>
<pdfrwt beam="2">  1       -1 0.16669560E+00 0.66468162E+02</pdfrwt>
<totfact> 0.73097392E+00</totfact>
</mgrwt>
</event>
<event>
13    1  0.1675423E-008  0.1152998E+03  0.7546771E-02  0.1334424E+00
          2   -1    0    0  503    0  0.00000000000E+00  0.00000000000E+00  0.70295243955E+03  0.70295243955E+03  0.00000000000E+00 0. -1.
         -1   -1    0    0    0  501 -0.00000000000E+00 -0.00000000000E+00 -0.60837664575E+03  0.60837664575E+03  0.00000000000E+00 0.  1.
         24    2    1    2    0    0  0.46910335480E+02  0.67168971541E+02  0.73404442265E+02  0.13805434529E+03  0.83417862575E+02 0.  0.
         25    2    1    2    0    0 -0.36959891803E+02  0.49056626294E+02 -0.29879501103E+03  0.32966008130E+03  0.12499889759E+03 0.  0.
         24    2    1    2    0    0  0.16373808011E+02  0.17979103981E+02  0.13450949281E+02  0.83540718583E+02  0.78783081027E+02 0.  0.
        -11    1    3    3    0    0  0.13553747548E+01  0.50708120812E+02  0.74755390163E+00  0.50731739511E+02  0.00000000000E+00 0.  1.
         12    1    3    3    0    0  0.45554960725E+02  0.16460850729E+02  0.72656888363E+02  0.87322605779E+02  0.00000000000E+00 0. -1.
        -13    1    5    5    0    0 -0.20439372091E+02  0.29665603131E+02 -0.11193839090E+02  0.37724235900E+02  0.00000000000E+00 0.  1.
         14    1    5    5    0    0  0.36813180103E+02 -0.11686499150E+02  0.24644788371E+02  0.45816482684E+02  0.00000000000E+00 0. -1.
          5    1    4    4  502    0  0.61988424308E+00 -0.41102996679E+02 -0.94853776843E+02  0.10348511764E+03  0.47000000000E+01 0.  1.
         -5    1    4    4    0  502 -0.37579776046E+02  0.90159622973E+02 -0.20394123419E+03  0.22617496366E+03  0.47000000000E+01 0.  1.
          1    1    1    2  503    0  0.19331385090E+02 -0.16102734473E+03  0.51761806011E+03  0.54243152965E+03  0.00000000000E+00 0. -1.
         -2    1    1    2    0  501 -0.45655636779E+02  0.26822642909E+02 -0.21110264682E+03  0.21764241048E+03  0.00000000000E+00 0.  1.
<mgrwt>
<rscale>  0 0.78136625E+02</rscale>
<asrwt>0</asrwt>
<pdfrwt beam="1">  1        2 0.10337536E+00 0.11529984E+03</pdfrwt>
<pdfrwt beam="2">  1       -1 0.89467153E-01 0.52951783E+02</pdfrwt>
<totfact> 0.71104837E+01</totfact>
</mgrwt>
</event>
<event>
13    1  0.1675423E-008  0.2019203E+03  0.7546771E-02  0.1236846E+00
          2   -1    0    0  502    0  0.00000000000E+00  0.00000000000E+00  0.25345031157E+04  0.25345031157E+04  0.00000000000E+00 0. -1.
          2   -1    0    0  503    0 -0.00000000000E+00 -0.00000000000E+00 -0.65533146105E+03  0.65533146105E+03  0.00000000000E+00 0. -1.
         24    2    1    2    0    0 -0.84731042946E+02  0.36958713542E+03  0.12919831607E+04  0.13488838977E+04  0.80580901181E+02 0.  0.
         25    2    1    2    0    0  0.20477742769E+03 -0.13932332198E+03  0.18932464304E+03  0.33587976725E+03  0.12500645842E+03 0.  0.
         24    2    1    2    0    0  0.31244884676E+02  0.17450673626E+01  0.19543258103E+02  0.85224593600E+02  0.76824503503E+02 0.  0.
        -13    1    3    3    0    0 -0.91534113768E+02  0.36961916826E+03  0.12721328167E+04  0.13279001193E+04  0.00000000000E+00 0.  1.
         14    1    3    3    0    0  0.68030708224E+01 -0.32032845104E-01  0.19850344041E+02  0.20983778432E+02  0.00000000000E+00 0. -1.
        -13    1    5    5    0    0  0.29905618186E+02 -0.21990136023E+02 -0.17634380858E+02  0.41096027419E+02  0.00000000000E+00 0.  1.
         14    1    5    5    0    0  0.13392664899E+01  0.23735203386E+02  0.37177638960E+02  0.44128566181E+02  0.00000000000E+00 0. -1.
          5    1    4    4  501    0  0.22190849639E+03 -0.12605691425E+03  0.17494836145E+03  0.30945556317E+03  0.47000000000E+01 0. -1.
         -5    1    4    4    0  501 -0.17131068705E+02 -0.13266407732E+02  0.14376281592E+02  0.26424204084E+02  0.47000000000E+01 0. -1.
          1    1    1    2  502    0 -0.78360581204E+02 -0.17953684325E+03  0.88440941110E+03  0.90584428309E+03  0.00000000000E+00 0. -1.
          1    1    1    2  503    0 -0.72930688216E+02 -0.52472037545E+02 -0.50608881833E+03  0.51400203506E+03  0.00000000000E+00 0. -1.
<mgrwt>
<rscale>  0 0.12386970E+03</rscale>
<asrwt>0</asrwt>
<pdfrwt beam="1">  1        2 0.37272104E+00 0.20192026E+03</pdfrwt>
<pdfrwt beam="2">  1        2 0.96372275E-01 0.75988922E+02</pdfrwt>
<totfact> 0.35435376E+01</totfact>
</mgrwt>
</event>
<event>
13    1  0.1675423E-008  0.7802371E+02  0.7546771E-02  0.1360270E+00
          2   -1    0    0  502    0  0.00000000000E+00  0.00000000000E+00  0.22789972540E+04  0.22789972540E+04  0.00000000000E+00 0. -1.
          2   -1    0    0  503    0 -0.00000000000E+00 -0.00000000000E+00 -0.17130840376E+04  0.17130840376E+04  0.00000000000E+00 0. -1.
         24    2    1    2    0    0  0.55199027105E+02 -0.25016147490E+01  0.63583517581E+03  0.64349362729E+03  0.82124825121E+02 0.  0.
         25    2    1    2    0    0 -0.12860657929E+03 -0.17136857228E+02  0.27682310892E+02  0.18227976834E+03  0.12500511788E+03 0.  0.
         24    2    1    2    0    0  0.21179345845E+03 -0.39541092435E+01 -0.11338378967E+04  0.11565529313E+04  0.84582521591E+02 0.  0.
        -11    1    5    5    0    0  0.36593348295E+02  0.78074134773E+01 -0.41071076235E+03  0.41241163800E+03  0.00000000000E+00 0.  1.
         12    1    5    5    0    0  0.17520011015E+03 -0.11761522721E+02 -0.72312713434E+03  0.74414129333E+03  0.00000000000E+00 0. -1.
        -11    1    3    3    0    0  0.52008905197E+02 -0.32174987549E+02  0.53045846868E+03  0.53397223059E+03  0.00000000000E+00 0.  1.
         12    1    3    3    0    0  0.31901219085E+01  0.29673372800E+02  0.10537670713E+03  0.10952139670E+03  0.00000000000E+00 0. -1.
          5    1    4    4  501    0 -0.13296780591E+03 -0.52986678313E+02  0.16377895008E+02  0.14414697684E+03  0.47000000000E+01 0.  1.
         -5    1    4    4    0  501  0.43612266149E+01  0.35849821084E+02  0.11304415884E+02  0.38132791503E+02  0.47000000000E+01 0.  1.
          1    1    1    2  502    0 -0.61338521044E+02  0.13034218016E+02  0.15192372169E+04  0.15205308370E+04  0.00000000000E+00 0. -1.
          1    1    1    2  503    0 -0.77047385216E+02  0.10558363205E+02 -0.48300359051E+03  0.48922412763E+03  0.00000000000E+00 0. -1.
<mgrwt>
<rscale>  0 0.69947967E+02</rscale>
<asrwt>0</asrwt>
<pdfrwt beam="1">  1        2 0.33514666E+00 0.62708094E+02</pdfrwt>
<pdfrwt beam="2">  1        2 0.25192412E+00 0.78023709E+02</pdfrwt>
<totfact> 0.14256653E+01</totfact>
</mgrwt>
</event>
<event>
13    1  0.1675423E-008  0.7608056E+02  0.7546771E-02  0.1451003E+00
          2   -1    0    0  502    0  0.00000000000E+00  0.00000000000E+00  0.36706043975E+04  0.36706043975E+04  0.00000000000E+00 0. -1.
          4   -1    0    0  503    0 -0.00000000000E+00 -0.00000000000E+00 -0.17437494773E+04  0.17437494773E+04  0.00000000000E+00 0. -1.
         24    2    1    2    0    0  0.21887784639E+03 -0.17853601493E+03  0.30207081191E+04  0.30349321207E+04  0.79704554374E+02 0.  0.
         25    2    1    2    0    0 -0.38875790819E+02  0.52384734129E+02 -0.91274627412E+03  0.92358246946E+03  0.12507329649E+03 0.  0.
         24    2    1    2    0    0 -0.94389744009E+02  0.17897006523E+03 -0.19555665363E+03  0.29346996322E+03  0.83321704932E+02 0.  0.
        -11    1    5    5    0    0 -0.47455162285E+02  0.16147311039E+03 -0.14277647812E+03  0.22070496259E+03  0.00000000000E+00 0.  1.
         12    1    5    5    0    0 -0.46934581724E+02  0.17496954835E+02 -0.52780175509E+02  0.72765000631E+02  0.00000000000E+00 0. -1.
        -13    1    3    3    0    0  0.87035004661E+02 -0.35452045479E+02  0.12620199582E+04  0.12655142491E+04  0.00000000000E+00 0.  1.
         14    1    3    3    0    0  0.13184284173E+03 -0.14308396945E+03  0.17586881609E+04  0.17694178717E+04  0.00000000000E+00 0. -1.
          5    1    4    4  501    0  0.23609491565E+02 -0.29392695187E+02 -0.23556286408E+03  0.23860698137E+03  0.47000000000E+01 0. -1.
         -5    1    4    4    0  501 -0.62485282384E+02  0.81777429317E+02 -0.67718341003E+03  0.68497548809E+03  0.47000000000E+01 0. -1.
          1    1    1    2  502    0 -0.13559702458E+02 -0.28447879771E+02  0.58546388211E+03  0.58631143998E+03  0.00000000000E+00 0. -1.
          3    1    1    2  503    0 -0.72052609101E+02 -0.24370904660E+02 -0.57101415335E+03  0.57605788147E+03  0.00000000000E+00 0. -1.
<mgrwt>
<rscale>  0 0.48965509E+02</rscale>
<asrwt>0</asrwt>
<pdfrwt beam="1">  1        2 0.53979477E+00 0.31514241E+02</pdfrwt>
<pdfrwt beam="2">  1        4 0.25643375E+00 0.76080557E+02</pdfrwt>
<totfact> 0.55760344E-02</totfact>
</mgrwt>
</event>
<event>
13    1  0.1675423E-008  0.3407792E+02  0.7546771E-02  0.1564220E+00
          2   -1    0    0  502    0  0.00000000000E+00  0.00000000000E+00  0.20216986496E+04  0.20216986496E+04  0.00000000000E+00 0. -1.
          2   -1    0    0  503    0 -0.00000000000E+00 -0.00000000000E+00 -0.17561208899E+04  0.17561208899E+04  0.00000000000E+00 0. -1.
         24    2    1    2    0    0 -0.27932265488E+03  0.88074593430E+03  0.77823779633E+03  0.12107061646E+04  0.80129913649E+02 0.  0.
         25    2    1    2    0    0 -0.19094512195E+03 -0.14482496115E+03 -0.49209524523E+03  0.56144301335E+03  0.12500487146E+03 0.  0.
         24    2    1    2    0    0  0.52387606800E+03 -0.75142999909E+03  0.44044079576E+01  0.91914068710E+03  0.75544858951E+02 0.  0.
        -11    1    3    3    0    0 -0.14661089108E+03  0.56644227849E+03  0.52058920812E+03  0.78317605419E+03  0.00000000000E+00 0.  1.
         12    1    3    3    0    0 -0.13271176379E+03  0.31430365581E+03  0.25764858821E+03  0.42753011042E+03  0.00000000000E+00 0. -1.
        -11    1    5    5    0    0  0.30209418176E+03 -0.37577768361E+03  0.20763220990E+02  0.48259804547E+03  0.00000000000E+00 0.  1.
         12    1    5    5    0    0  0.22178188625E+03 -0.37565231548E+03 -0.16358813032E+02  0.43654264163E+03  0.00000000000E+00 0. -1.
          5    1    4    4  501    0 -0.24126071232E+02 -0.55852503397E+02 -0.23179769995E+03  0.23969529230E+03  0.47000000000E+01 0. -1.
         -5    1    4    4    0  501 -0.16681905071E+03 -0.88972457749E+02 -0.26029754529E+03  0.32174772105E+03  0.47000000000E+01 0. -1.
          1    1    1    2  502    0 -0.32733226365E+02 -0.94568876580E+01  0.52975607530E+03  0.53085063450E+03  0.00000000000E+00 0. -1.
          1    1    1    2  503    0 -0.20875064819E+02  0.24965913591E+02 -0.55472527462E+03  0.55567903999E+03  0.00000000000E+00 0. -1.
<mgrwt>
<rscale>  0 0.33301762E+02</rscale>
<asrwt>0</asrwt>
<pdfrwt beam="1">  1        2 0.29730862E+00 0.34077920E+02</pdfrwt>
<pdfrwt beam="2">  1        2 0.25825307E+00 0.32543282E+02</pdfrwt>
<totfact> 0.21047736E+01</totfact>
</mgrwt>
</event>
<event>
13    1  0.1675423E-008  0.9573196E+02  0.7546771E-02  0.1350287E+00
         -3   -1    0    0    0  501 -0.00000000000E+00  0.00000000000E+00  0.20050002855E+03  0.20050002855E+03  0.00000000000E+00 0.  1.
          2   -1    0    0  503    0  0.00000000000E+00 -0.00000000000E+00 -0.29401098595E+04  0.29401098595E+04  0.00000000000E+00 0. -1.
         24    2    1    2    0    0 -0.52734945494E+01 -0.33161317231E+02 -0.72911431114E+03  0.73416043856E+03  0.79097333289E+02 0.  0.
         25    2    1    2    0    0  0.15323457256E+03  0.55771106948E+01 -0.32313726813E+03  0.37888520810E+03  0.12499747385E+03 0.  0.
         24    2    1    2    0    0 -0.16244162191E+02 -0.30351576583E+02 -0.72995755379E+01  0.90653818858E+02  0.83544838645E+02 0.  0.
        -13    1    5    5    0    0 -0.10457723631E+02 -0.55619908670E+02 -0.22154988624E+02  0.60776490068E+02  0.00000000000E+00 0.  1.
         14    1    5    5    0    0 -0.57864385601E+01  0.25268332087E+02  0.14855413086E+02  0.29877328790E+02  0.00000000000E+00 0. -1.
        -13    1    3    3    0    0 -0.33349253147E+02  0.82582886205E+01 -0.23131038531E+03  0.23384795567E+03  0.00000000000E+00 0.  1.
         14    1    3    3    0    0  0.28075758597E+02 -0.41419605852E+02 -0.49780392583E+03  0.50031248290E+03  0.00000000000E+00 0. -1.
          5    1    4    4  502    0  0.22347816922E+02 -0.38760580770E+02 -0.15391517081E+03  0.16035516003E+03  0.47000000000E+01 0.  1.
         -5    1    4    4    0  502  0.13088675564E+03  0.44337691465E+02 -0.16922209732E+03  0.21853004807E+03  0.47000000000E+01 0.  1.
          1    1    1    2  503    0 -0.55080214567E+02  0.76888809681E+01 -0.17916501401E+04  0.17925130888E+04  0.00000000000E+00 0. -1.
         -4    1    1    2    0  501 -0.76636701254E+02  0.50246902151E+02  0.11159146398E+03  0.14439733373E+03  0.00000000000E+00 0.  1.
<mgrwt>
<rscale>  0 0.72966190E+02</rscale>
<asrwt>0</asrwt>
<pdfrwt beam="2">  1        2 0.43236908E+00 0.55614287E+02</pdfrwt>
<pdfrwt beam="1">  1       -3 0.29485299E-01 0.95731964E+02</pdfrwt>
<totfact> 0.22259399E+01</totfact>
</mgrwt>
</event>
<event>
13    1  0.1675423E-008  0.1306534E+03  0.7546771E-02  0.1435440E+00
          2   -1    0    0  503    0  0.00000000000E+00  0.00000000000E+00  0.17822789739E+04  0.17822789739E+04  0.00000000000E+00 0. -1.
          2   -1    0    0  502    0 -0.00000000000E+00 -0.00000000000E+00 -0.82756897697E+03  0.82756897697E+03  0.00000000000E+00 0. -1.
         24    2    1    2    0    0 -0.61510206673E+03 -0.21905008319E+03  0.25516573188E+03  0.70560137024E+03  0.80188849091E+02 0.  0.
         25    2    1    2    0    0  0.33172591214E+03  0.36082301397E+03  0.72701599412E+03  0.88567094353E+03  0.12500174525E+03 0.  0.
         24    2    1    2    0    0  0.38550895905E+03 -0.18474608065E+03 -0.33085529374E+03  0.54912440112E+03  0.96561434781E+02 0.  0.
        -11    1    5    5    0    0  0.26035637571E+03 -0.17257484324E+03 -0.24254653978E+03  0.39546977489E+03  0.00000000000E+00 0.  1.
         12    1    5    5    0    0  0.12515258334E+03 -0.12171237416E+02 -0.88308753957E+02  0.15365462623E+03  0.00000000000E+00 0. -1.
        -13    1    3    3    0    0 -0.57533132363E+03 -0.18236056364E+03  0.23886207324E+03  0.64908905179E+03  0.00000000000E+00 0.  1.
         14    1    3    3    0    0 -0.39770743101E+02 -0.36689519553E+02  0.16303658641E+02  0.56512318453E+02  0.00000000000E+00 0. -1.
          5    1    4    4  501    0  0.21558817335E+03  0.19071577954E+03  0.32661373261E+03  0.43537270170E+03  0.47000000000E+01 0.  1.
         -5    1    4    4    0  501  0.11613773879E+03  0.17010723443E+03  0.40040226151E+03  0.45029824183E+03  0.47000000000E+01 0.  1.
          1    1    1    2  502    0 -0.12079887086E+03  0.51695156824E+02 -0.30535704567E+02  0.13489694471E+03  0.00000000000E+00 0. -1.
          1    1    1    2  503    0  0.18666066393E+02 -0.87220069445E+01  0.33391926924E+03  0.33455429128E+03  0.00000000000E+00 0. -1.
<mgrwt>
<rscale>  0 0.51883417E+02</rscale>
<asrwt>0</asrwt>
<pdfrwt beam="1">  1        2 0.26209985E+00 0.20603287E+02</pdfrwt>
<pdfrwt beam="2">  1        2 0.12170132E+00 0.13065338E+03</pdfrwt>
<totfact> 0.78868484E+01</totfact>
</mgrwt>
</event>
<event>
13    1  0.1675423E-008  0.3493496E+02  0.7546771E-02  0.1577362E+00
         -1   -1    0    0    0  501 -0.00000000000E+00  0.00000000000E+00  0.93184554966E+03  0.93184554966E+03  0.00000000000E+00 0.  1.
          2   -1    0    0  503    0  0.00000000000E+00 -0.00000000000E+00 -0.18499289361E+03  0.18499289361E+03  0.00000000000E+00 0. -1.
         24    2    1    2    0    0 -0.44178652889E+02  0.23241954544E+02 -0.48090811047E+02  0.10650562792E+03  0.80862728433E+02 0.  0.
         25    2    1    2    0    0  0.33120706822E+02 -0.20110929873E+02  0.39286906518E+02  0.13663480630E+03  0.12499671415E+03 0.  0.
         24    2    1    2    0    0  0.40515504237E+01 -0.98070010912E+01  0.49004207825E+03  0.49661127853E+03  0.79805583597E+02 0.  0.
        -11    1    3    3    0    0  0.22983009098E+02 -0.23119093710E+01 -0.13499867886E+02  0.26754626984E+02  0.00000000000E+00 0.  1.
         12    1    3    3    0    0 -0.67161661986E+02  0.25553863915E+02 -0.34590943162E+02  0.79751000938E+02  0.00000000000E+00 0. -1.
        -13    1    5    5    0    0  0.37031464692E+02 -0.65468540448E+01  0.37529167630E+03  0.37717109245E+03  0.00000000000E+00 0.  1.
         14    1    5    5    0    0 -0.32979914268E+02 -0.32601470464E+01  0.11475040195E+03  0.11944018608E+03  0.00000000000E+00 0. -1.
          5    1    4    4  502    0  0.62608067598E+02 -0.48510767347E+02  0.50346852456E+02  0.93967868068E+02  0.47000000000E+01 0.  1.
         -5    1    4    4    0  502 -0.29487360776E+02  0.28399837474E+02 -0.11059945938E+02  0.42666938234E+02  0.47000000000E+01 0.  1.
          1    1    1    2  503    0 -0.28114120759E+02  0.80432867000E+01 -0.50859656433E+02  0.58666880771E+02  0.00000000000E+00 0. -1.
         -2    1    1    2    0  501  0.35120516402E+02 -0.13673102797E+01  0.31647413875E+03  0.31841984974E+03  0.00000000000E+00 0.  1.
<mgrwt>
<rscale>  0 0.31962014E+02</rscale>
<asrwt>0</asrwt>
<pdfrwt beam="2">  1        2 0.27204838E-01 0.29242063E+02</pdfrwt>
<pdfrwt beam="1">  1       -1 0.13703611E+00 0.34934961E+02</pdfrwt>
<totfact> 0.11380966E+02</totfact>
</mgrwt>
</event>
<event>
13    1  0.1675423E-008  0.9178584E+02  0.7546771E-02  0.1370455E+00
          2   -1    0    0  503    0  0.00000000000E+00  0.00000000000E+00  0.37887601137E+03  0.37887601137E+03  0.00000000000E+00 0. -1.
          2   -1    0    0  502    0 -0.00000000000E+00 -0.00000000000E+00 -0.12129761094E+04  0.12129761094E+04  0.00000000000E+00 0. -1.
         24    2    1    2    0    0  0.49531836400E+02  0.75325991486E+02 -0.12582902594E+03  0.17433709152E+03  0.80206420558E+02 0.  0.
         25    2    1    2    0    0 -0.34954160338E+02 -0.32871922231E+02 -0.34157430988E+03  0.36687530593E+03  0.12498849681E+03 0.  0.
         24    2    1    2    0    0 -0.16450197397E+02  0.77278188438E+01 -0.21012833961E+03  0.22605566378E+03  0.81344427228E+02 0.  0.
        -13    1    5    5    0    0  0.32458655618E+02 -0.37735953890E+01 -0.94243374352E+02  0.99747771684E+02  0.00000000000E+00 0.  1.
         14    1    5    5    0    0 -0.48908853016E+02  0.11501414233E+02 -0.11588496526E+03  0.12630789209E+03  0.00000000000E+00 0. -1.
        -13    1    3    3    0    0  0.24269490773E+02 -0.11804410061E+02 -0.14206810811E+02  0.30498946747E+02  0.00000000000E+00 0.  1.
         14    1    3    3    0    0  0.25262345627E+02  0.87130401547E+02 -0.11162221513E+03  0.14383814477E+03  0.00000000000E+00 0. -1.
          5    1    4    4  501    0 -0.28104706086E+02  0.46049246213E+02 -0.15215695061E+03  0.16150614601E+03  0.47000000000E+01 0.  1.
         -5    1    4    4    0  501 -0.68494542513E+01 -0.78921168444E+02 -0.18941735927E+03  0.20536915991E+03  0.47000000000E+01 0.  1.
          1    1    1    2  502    0 -0.34232247079E+02  0.35013154961E+02 -0.48290590413E+03  0.48538219993E+03  0.00000000000E+00 0. -1.
          1    1    1    2  503    0  0.36104768414E+02 -0.85195043061E+02  0.32633748157E+03  0.33920185958E+03  0.00000000000E+00 0. -1.
<mgrwt>
<rscale>  0 0.67040866E+02</rscale>
<asrwt>0</asrwt>
<pdfrwt beam="1">  1        2 0.55717062E-01 0.91785837E+02</pdfrwt>
<pdfrwt beam="2">  1        2 0.17837883E+00 0.48967007E+02</pdfrwt>
<totfact> 0.32476875E+02</totfact>
</mgrwt>
</event>
<event>
13    1  0.1675423E-008  0.6509592E+02  0.7546771E-02  0.1402525E+00
          2   -1    0    0  502    0  0.00000000000E+00  0.00000000000E+00  0.13974025143E+04  0.13974025143E+04  0.00000000000E+00 0. -1.
          4   -1    0    0  503    0 -0.00000000000E+00 -0.00000000000E+00 -0.19799760634E+04  0.19799760634E+04  0.00000000000E+00 0. -1.
         24    2    1    2    0    0 -0.38721920651E+03 -0.30616004374E+02  0.47347764397E+03  0.61651531820E+03  0.70950719664E+02 0.  0.
         25    2    1    2    0    0  0.27803066511E+03  0.23838533018E+03  0.71328905872E+01  0.38704663058E+03  0.12500239889E+03 0.  0.
         24    2    1    2    0    0  0.48895210516E+01 -0.21708653419E+03 -0.39742395120E+02  0.23502808485E+03  0.80673861656E+02 0.  0.
        -11    1    5    5    0    0 -0.25723986816E+02 -0.13946805137E+03  0.17758108718E+01  0.14183164088E+03  0.00000000000E+00 0.  1.
         12    1    5    5    0    0  0.30613507868E+02 -0.77618482821E+02 -0.41518205992E+02  0.93196443968E+02  0.00000000000E+00 0. -1.
        -13    1    3    3    0    0 -0.96405178216E+02 -0.28225881083E+02  0.87358097974E+02  0.13312436303E+03  0.00000000000E+00 0.  1.
         14    1    3    3    0    0 -0.29081402830E+03 -0.23901232915E+01  0.38611954600E+03  0.48339095517E+03  0.00000000000E+00 0. -1.
          5    1    4    4  501    0  0.34806052055E+02  0.20951151741E+02  0.42349620208E+02  0.58872679153E+02  0.47000000000E+01 0.  1.
         -5    1    4    4    0  501  0.24322461305E+03  0.21743417844E+03 -0.35216729621E+02  0.32817395142E+03  0.47000000000E+01 0.  1.
          1    1    1    2  502    0  0.43076357907E+02  0.31366248649E+02  0.55572894909E+03  0.55827777944E+03  0.00000000000E+00 0. -1.
          3    1    1    2  503    0  0.61222662444E+02 -0.22049040261E+02 -0.15791706376E+04  0.15805107646E+04  0.00000000000E+00 0. -1.
<mgrwt>
<rscale>  0 0.58895766E+02</rscale>
<asrwt>0</asrwt>
<pdfrwt beam="1">  1        2 0.20550037E+00 0.53286154E+02</pdfrwt>
<pdfrwt beam="2">  1        4 0.29117295E+00 0.65095921E+02</pdfrwt>
<totfact> 0.44665939E-01</totfact>
</mgrwt>
</event>
<event>
13    1  0.1675423E-008  0.1920182E+03  0.7546771E-02  0.1227769E+00
          2   -1    0    0  503    0  0.00000000000E+00  0.00000000000E+00  0.83097083903E+03  0.83097083903E+03  0.00000000000E+00 0. -1.
          2   -1    0    0  502    0 -0.00000000000E+00 -0.00000000000E+00 -0.32124922355E+04  0.32124922355E+04  0.00000000000E+00 0. -1.
         24    2    1    2    0    0  0.11785263626E+02 -0.30617792591E+01  0.49348697551E+03  0.50010955830E+03  0.80199179400E+02 0.  0.
         25    2    1    2    0    0  0.14204767208E+03  0.75024289426E+02 -0.58114905530E+03  0.61576316099E+03  0.12499544314E+03 0.  0.
         24    2    1    2    0    0 -0.17406401924E+03 -0.31542338636E+03 -0.38652895996E+02  0.37190086854E+03  0.83821323051E+02 0.  0.
        -11    1    5    5    0    0 -0.61176308691E+02 -0.69370781724E+02  0.20647543095E+02  0.94769019928E+02  0.00000000000E+00 0.  1.
         12    1    5    5    0    0 -0.11288771054E+03 -0.24605260464E+03 -0.59300439092E+02  0.27713184862E+03  0.00000000000E+00 0. -1.
        -13    1    3    3    0    0  0.36048295584E+01  0.38149354891E+02  0.20096924407E+03  0.20458984613E+03  0.00000000000E+00 0.  1.
         14    1    3    3    0    0  0.81804340673E+01 -0.41211134150E+02  0.29251773143E+03  0.29551971217E+03  0.00000000000E+00 0. -1.
          5    1    4    4  501    0  0.14230533394E+03  0.62447104707E+02 -0.58190068512E+03  0.60231299696E+03  0.47000000000E+01 0.  1.
         -5    1    4    4    0  501 -0.25766186439E+00  0.12577184718E+02  0.75162982233E+00  0.13450164031E+02  0.47000000000E+01 0.  1.
          1    1    1    2  502    0 -0.50110166316E+02  0.18467273375E+03 -0.23872700018E+04  0.23949265351E+04  0.00000000000E+00 0. -1.
          1    1    1    2  503    0  0.70341249851E+02  0.58788142440E+02  0.13206358113E+03  0.16076295153E+03  0.00000000000E+00 0. -1.
<mgrwt>
<rscale>  0 0.12978897E+03</rscale>
<asrwt>0</asrwt>
<pdfrwt beam="1">  1        2 0.12220160E+00 0.87726985E+02</pdfrwt>
<pdfrwt beam="2">  1        2 0.47242532E+00 0.19201818E+03</pdfrwt>
<totfact> 0.11633808E+01</totfact>
</mgrwt>
</event>
<event>
13    1  0.1675423E-008  0.1019770E+03  0.7546771E-02  0.1308278E+00
          2   -1    0    0  503    0  0.00000000000E+00  0.00000000000E+00  0.84438853352E+03  0.84438853352E+03  0.00000000000E+00 0. -1.
          2   -1    0    0  502    0 -0.00000000000E+00 -0.00000000000E+00 -0.20763800456E+04  0.20763800456E+04  0.00000000000E+00 0. -1.
         24    2    1    2    0    0 -0.10417657168E+03  0.20327164731E+03  0.10131707109E+03  0.26361793281E+03  0.84006814710E+02 0.  0.
         25    2    1    2    0    0  0.40423759185E+02 -0.14299287800E+03  0.85502836422E+02  0.21217474805E+03  0.12500538072E+03 0.  0.
         24    2    1    2    0    0 -0.10855879260E+03 -0.76918342920E+02  0.25556192130E+03  0.29935927093E+03  0.81256596951E+02 0.  0.
        -11    1    3    3    0    0 -0.47361682009E+01  0.90987131139E+02  0.55956043829E+02  0.10692131763E+03  0.00000000000E+00 0.  1.
         12    1    3    3    0    0 -0.99440403475E+02  0.11228451617E+03  0.45361027257E+02  0.15669661518E+03  0.00000000000E+00 0. -1.
        -11    1    5    5    0    0 -0.26439668514E+02 -0.41938009092E+02  0.16465759460E+03  0.17195922812E+03  0.00000000000E+00 0.  1.
         12    1    5    5    0    0 -0.82119124087E+02 -0.34980333828E+02  0.90904326699E+02  0.12740004281E+03  0.00000000000E+00 0. -1.
          5    1    4    4  501    0 -0.10264608275E+02 -0.12935531006E+03  0.91912689338E+02  0.15908548295E+03  0.47000000000E+01 0.  1.
         -5    1    4    4    0  501  0.50688367459E+02 -0.13637567940E+02 -0.64098529154E+01  0.53089265105E+02  0.47000000000E+01 0.  1.
          1    1    1    2  502    0  0.97693949454E+02  0.28708746185E+02 -0.19025361833E+04  0.19052590976E+04  0.00000000000E+00 0. -1.
          1    1    1    2  503    0  0.74617655639E+02 -0.12069172580E+02  0.22816284244E+03  0.24035752980E+03  0.00000000000E+00 0. -1.
<mgrwt>
<rscale>  0 0.87796251E+02</rscale>
<asrwt>0</asrwt>
<pdfrwt beam="1">  1        2 0.12417479E+00 0.75587429E+02</pdfrwt>
<pdfrwt beam="2">  1        2 0.30535000E+00 0.10197703E+03</pdfrwt>
<totfact> 0.48182447E+01</totfact>
</mgrwt>
</event>
<event>
13    1  0.1675423E-008  0.8277799E+02  0.7546771E-02  0.1347634E+00
         -1   -1    0    0    0  501 -0.00000000000E+00  0.00000000000E+00  0.10965919452E+04  0.10965919452E+04  0.00000000000E+00 0.  1.
          2   -1    0    0  503    0  0.00000000000E+00 -0.00000000000E+00 -0.26750382411E+04  0.26750382411E+04  0.00000000000E+00 0. -1.
         24    2    1    2    0    0  0.22219498824E+02  0.11545849219E+02 -0.25325118363E+03  0.26779758333E+03  0.83380878293E+02 0.  0.
         25    2    1    2    0    0  0.65353938108E+02 -0.26597081552E+01 -0.95845322200E+02  0.17055240686E+03  0.12499434558E+03 0.  0.
         24    2    1    2    0    0 -0.18063960619E+02  0.23017862819E+02 -0.15276777541E+03  0.17879328559E+03  0.88164148528E+02 0.  0.
        -11    1    5    5    0    0  0.21544640082E+02 -0.22876473102E+02 -0.41170972952E+02  0.51793373627E+02  0.00000000000E+00 0.  1.
         12    1    5    5    0    0 -0.39608600701E+02  0.45894335922E+02 -0.11159680246E+03  0.12699991196E+03  0.00000000000E+00 0. -1.
        -11    1    3    3    0    0 -0.28744608775E+02  0.19825853853E+02 -0.88274800447E+02  0.94930276564E+02  0.00000000000E+00 0.  1.
         12    1    3    3    0    0  0.50964107599E+02 -0.82800046332E+01 -0.16497638318E+03  0.17286730677E+03  0.00000000000E+00 0. -1.
          5    1    4    4  502    0  0.11308708276E+02 -0.56737932395E+02 -0.67137745078E+02  0.88750474193E+02  0.47000000000E+01 0.  1.
         -5    1    4    4    0  502  0.54045229832E+02  0.54078224240E+02 -0.28707577122E+02  0.81801932672E+02  0.47000000000E+01 0.  1.
          1    1    1    2  503    0 -0.45585254299E+02  0.47440464057E+02 -0.21133691154E+04  0.21143929699E+04  0.00000000000E+00 0. -1.
         -2    1    1    2    0  501 -0.23924222014E+02 -0.79344467941E+02  0.10367871008E+04  0.10400939407E+04  0.00000000000E+00 0.  1.
<mgrwt>
<rscale>  0 0.73798006E+02</rscale>
<asrwt>0</asrwt>
<pdfrwt beam="2">  1        2 0.39338797E+00 0.65792196E+02</pdfrwt>
<pdfrwt beam="1">  1       -1 0.16126353E+00 0.82777990E+02</pdfrwt>
<totfact> 0.17707006E+00</totfact>
</mgrwt>
</event>
<event>
13    1  0.1675423E-008  0.4500667E+02  0.7546771E-02  0.1524880E+00
          2   -1    0    0  502    0  0.00000000000E+00  0.00000000000E+00  0.23067944170E+04  0.23067944170E+04  0.00000000000E+00 0. -1.
          2   -1    0    0  503    0 -0.00000000000E+00 -0.00000000000E+00 -0.36663390800E+04  0.36663390800E+04  0.00000000000E+00 0. -1.
         24    2    1    2    0    0  0.25279366653E+03  0.12364617091E+04 -0.29543593406E+03  0.13007014822E+04  0.10862669493E+03 0.  0.
         25    2    1    2    0    0  0.37778805719E+03 -0.23581818417E+03 -0.82654466825E+03  0.94717307120E+03  0.12500682407E+03 0.  0.
         24    2    1    2    0    0 -0.61722914191E+03 -0.10003646707E+04 -0.77576761310E+03  0.14106462693E+04  0.80038862012E+02 0.  0.
        -11    1    5    5    0    0 -0.51987014881E+03 -0.84676741122E+03 -0.68914851858E+03  0.12092169785E+04  0.00000000000E+00 0.  1.
         12    1    5    5    0    0 -0.97358993098E+02 -0.15359725948E+03 -0.86619094514E+02  0.20142929080E+03  0.00000000000E+00 0. -1.
        -13    1    3    3    0    0  0.12947470778E+03  0.76416586054E+03 -0.22826422905E+03  0.80797136127E+03  0.00000000000E+00 0.  1.
         14    1    3    3    0    0  0.12331895875E+03  0.47229584856E+03 -0.67171705013E+02  0.49273012097E+03  0.00000000000E+00 0. -1.
          5    1    4    4  501    0  0.33617064490E+03 -0.16219389231E+03 -0.72047141172E+03  0.81143003783E+03  0.47000000000E+01 0. -1.
         -5    1    4    4    0  501  0.41617412290E+02 -0.73624291863E+02 -0.10607325653E+03  0.13574303337E+03  0.47000000000E+01 0. -1.
          1    1    1    2  502    0  0.31499954065E+02 -0.42414640475E+01  0.14256602087E+04  0.14260144697E+04  0.00000000000E+00 0. -1.
          1    1    1    2  503    0 -0.44852535880E+02  0.39626098229E+01 -0.88745665632E+03  0.88859820453E+03  0.00000000000E+00 0. -1.
<mgrwt>
<rscale>  0 0.37821980E+02</rscale>
<asrwt>0</asrwt>
<pdfrwt beam="1">  1        2 0.33923448E+00 0.31784228E+02</pdfrwt>
<pdfrwt beam="2">  1        2 0.53916751E+00 0.45006667E+02</pdfrwt>
<totfact> 0.16638669E+00</totfact>
</mgrwt>
</event>
<event>
13    1  0.1675423E-008  0.1333366E+03  0.7546771E-02  0.1362479E+00
          2   -1    0    0  503    0  0.00000000000E+00  0.00000000000E+00  0.38391461766E+04  0.38391461766E+04  0.00000000000E+00 0. -1.
          2   -1    0    0  502    0 -0.00000000000E+00 -0.00000000000E+00 -0.64003436373E+03  0.64003436373E+03  0.00000000000E+00 0. -1.
         24    2    1    2    0    0 -0.95716040083E+02 -0.19808765298E+03  0.23583465123E+03  0.33244346691E+03  0.80625041879E+02 0.  0.
         25    2    1    2    0    0  0.17754523184E+03  0.13026800177E+03 -0.42167119182E+02  0.25670090338E+03  0.12500090489E+03 0.  0.
         24    2    1    2    0    0 -0.26500920017E+02 -0.17576132982E+02  0.16364212937E+03  0.18602853684E+03  0.82563011111E+02 0.  0.
        -11    1    3    3    0    0 -0.44960143118E+02 -0.22366101765E+02  0.65257045492E+02  0.82341599230E+02  0.00000000000E+00 0.  1.
         12    1    3    3    0    0 -0.50755896966E+02 -0.17572155121E+03  0.17057760574E+03  0.25010186768E+03  0.00000000000E+00 0. -1.
        -13    1    5    5    0    0 -0.62862914310E+00 -0.19305539965E+01 -0.97809999811E+01  0.99895031890E+01  0.00000000000E+00 0.  1.
         14    1    5    5    0    0 -0.25872290874E+02 -0.15645578985E+02  0.17342312935E+03  0.17603903365E+03  0.00000000000E+00 0. -1.
          5    1    4    4  501    0  0.57062263999E+02 -0.10679146957E+02 -0.40976323260E+02  0.71213027041E+02  0.47000000000E+01 0.  1.
         -5    1    4    4    0  501  0.12048296784E+03  0.14094714873E+03 -0.11907959226E+01  0.18548787634E+03  0.47000000000E+01 0.  1.
          1    1    1    2  502    0  0.32772787989E+02 -0.14948689213E+02 -0.42898559769E+03  0.43049525197E+03  0.00000000000E+00 0. -1.
          1    1    1    2  503    0 -0.88101059724E+02  0.10034447340E+03  0.32707877491E+04  0.32735123812E+04  0.00000000000E+00 0. -1.
<mgrwt>
<rscale>  0 0.69303161E+02</rscale>
<asrwt>0</asrwt>
<pdfrwt beam="1">  1        2 0.56458031E+00 0.13333656E+03</pdfrwt>
<pdfrwt beam="2">  1        2 0.94122702E-01 0.36021090E+02</pdfrwt>
<totfact> 0.71599561E+00</totfact>
</mgrwt>
</event>
<event>
13    1  0.1675423E-008  0.1901192E+03  0.7546771E-02  0.1264750E+00
          2   -1    0    0  503    0  0.00000000000E+00  0.00000000000E+00  0.28140409258E+04  0.28140409258E+04  0.00000000000E+00 0. -1.
         -1   -1    0    0    0  501 -0.00000000000E+00 -0.00000000000E+00 -0.54464581175E+03  0.54464581175E+03  0.00000000000E+00 0.  1.
         24    2    1    2    0    0  0.10028035108E+01  0.21975738414E+02  0.13070153055E+03  0.15528178690E+03  0.80904910606E+02 0.  0.
         25    2    1    2    0    0 -0.14775471809E+03 -0.15452808842E+03  0.14137573761E+04  0.14352864349E+04  0.12500737895E+03 0.  0.
         24    2    1    2    0    0 -0.74889286995E+02  0.12708931585E+03 -0.34065135547E+02  0.17141914637E+03  0.80398947584E+02 0.  0.
        -11    1    3    3    0    0 -0.24062798692E+02  0.43337634902E+01  0.12053247836E+03  0.12298730880E+03  0.00000000000E+00 0.  1.
         12    1    3    3    0    0  0.25065602203E+02  0.17641974924E+02  0.10169052192E+02  0.32294478096E+02  0.00000000000E+00 0. -1.
        -13    1    5    5    0    0 -0.53020641417E+02  0.17821918858E+02 -0.44264297653E+01  0.56110627234E+02  0.00000000000E+00 0.  1.
         14    1    5    5    0    0 -0.21868645577E+02  0.10926739700E+03 -0.29638705781E+02  0.11530851914E+03  0.00000000000E+00 0. -1.
          5    1    4    4  502    0 -0.85995142731E+01 -0.53131760429E+02  0.65500490892E+03  0.65722937878E+03  0.47000000000E+01 0. -1.
         -5    1    4    4    0  502 -0.13915520382E+03 -0.10139632799E+03  0.75875246722E+03  0.77805705613E+03  0.47000000000E+01 0. -1.
          1    1    1    2  503    0  0.27981515643E+02 -0.54308672696E+02  0.11524762008E+04  0.11540943595E+04  0.00000000000E+00 0. -1.
         -2    1    1    2    0  501  0.19365968593E+03  0.59771706850E+02 -0.39347485796E+03  0.44260500985E+03  0.00000000000E+00 0.  1.
<mgrwt>
<rscale>  0 0.10777300E+03</rscale>
<asrwt>0</asrwt>
<pdfrwt beam="1">  1        2 0.41382954E+00 0.61093348E+02</pdfrwt>
<pdfrwt beam="2">  1       -1 0.80094973E-01 0.19011922E+03</pdfrwt>
<totfact> 0.74027658E+00</totfact>
</mgrwt>
</event>
<event>
13    1  0.1675423E-008  0.2149322E+03  0.7546771E-02  0.1361110E+00
          2   -1    0    0  503    0  0.00000000000E+00  0.00000000000E+00  0.15146786724E+04  0.15146786724E+04  0.00000000000E+00 0. -1.
          2   -1    0    0  502    0 -0.00000000000E+00 -0.00000000000E+00 -0.17559256436E+04  0.17559256436E+04  0.00000000000E+00 0. -1.
         24    2    1    2    0    0 -0.19469180640E+02  0.36651971099E+03  0.15568769956E+03  0.40675024786E+03  0.80568956807E+02 0.  0.
         25    2    1    2    0    0  0.27352213504E+03 -0.21210479825E+03 -0.74259484361E+03  0.82877927334E+03  0.12500071345E+03 0.  0.
         24    2    1    2    0    0 -0.15010297956E+03 -0.20648263110E+02  0.12566314250E+03  0.21280688177E+03  0.80859682804E+02 0.  0.
        -11    1    5    5    0    0 -0.79750528575E+02  0.28320390807E+02  0.75975785527E+02  0.11372999310E+03  0.00000000000E+00 0.  1.
         12    1    5    5    0    0 -0.70352450982E+02 -0.48968653917E+02  0.49687356977E+02  0.99076888673E+02  0.00000000000E+00 0. -1.
        -11    1    3    3    0    0 -0.83584642289E+01  0.36435133256E+03  0.15054602068E+03  0.39431695602E+03  0.00000000000E+00 0.  1.
         12    1    3    3    0    0 -0.11110716411E+02  0.21683784253E+01  0.51416788778E+01  0.12433291835E+02  0.00000000000E+00 0. -1.
          5    1    4    4  501    0  0.19367653538E+03 -0.86666172162E+02 -0.51335414593E+03  0.55549635003E+03  0.47000000000E+01 0. -1.
         -5    1    4    4    0  501  0.79845599667E+02 -0.12543862608E+03 -0.22924069767E+03  0.27328292330E+03  0.47000000000E+01 0. -1.
          1    1    1    2  502    0 -0.94972545154E+01  0.20512020629E+02 -0.79296162082E+03  0.79328372788E+03  0.00000000000E+00 0. -1.
          1    1    1    2  503    0 -0.94452720332E+02 -0.15427867026E+03  0.10129586511E+04  0.10289841852E+04  0.00000000000E+00 0. -1.
<mgrwt>
<rscale>  0 0.69701700E+02</rscale>
<asrwt>0</asrwt>
<pdfrwt beam="1">  1        2 0.22274686E+00 0.21493218E+03</pdfrwt>
<pdfrwt beam="2">  1        2 0.25822436E+00 0.22604000E+02</pdfrwt>
<totfact> 0.32242430E+01</totfact>
</mgrwt>
</event>
<event>
13    1  0.1675423E-008  0.9187076E+02  0.7546771E-02  0.1363248E+00
          2   -1    0    0  502    0  0.00000000000E+00  0.00000000000E+00  0.25545714489E+04  0.25545714489E+04  0.00000000000E+00 0. -1.
          2   -1    0    0  503    0 -0.00000000000E+00 -0.00000000000E+00 -0.87935565297E+03  0.87935565297E+03  0.00000000000E+00 0. -1.
         24    2    1    2    0    0  0.52168867150E+01 -0.30268769945E+02  0.29602166757E+03  0.30830107715E+03  0.80481750469E+02 0.  0.
         25    2    1    2    0    0  0.52127719800E+02 -0.29280627425E+02 -0.14930281966E+02  0.13936525580E+03  0.12500042756E+03 0.  0.
         24    2    1    2    0    0  0.59584254432E+02  0.59403004515E+01  0.43004679707E+02  0.11006532750E+03  0.81727616481E+02 0.  0.
        -13    1    3    3    0    0 -0.14453931538E+02 -0.78685639631E+01  0.26414326218E+03  0.26465542388E+03  0.00000000000E+00 0.  1.
         14    1    3    3    0    0  0.19670818253E+02 -0.22400205982E+02  0.31878405396E+02  0.43645653270E+02  0.00000000000E+00 0. -1.
        -13    1    5    5    0    0  0.45472281833E+02  0.33097677551E+02 -0.12531563046E+01  0.56256155886E+02  0.00000000000E+00 0.  1.
         14    1    5    5    0    0  0.14111972600E+02 -0.27157377099E+02  0.44257836012E+02  0.53809171616E+02  0.00000000000E+00 0. -1.
          5    1    4    4  501    0 -0.34896484441E+02 -0.18200658039E+02 -0.30665371868E+02  0.50114704541E+02  0.47000000000E+01 0. -1.
         -5    1    4    4    0  501  0.87024204241E+02 -0.11079969387E+02  0.15735089901E+02  0.89250551257E+02  0.47000000000E+01 0. -1.
          1    1    1    2  502    0 -0.10066661436E+03  0.42767770305E+01  0.21115703261E+04  0.21139728712E+04  0.00000000000E+00 0. -1.
          1    1    1    2  503    0 -0.16262246590E+02  0.49332319889E+02 -0.76045059546E+03  0.76222257025E+03  0.00000000000E+00 0. -1.
<mgrwt>
<rscale>  0 0.69080378E+02</rscale>
<asrwt>0</asrwt>
<pdfrwt beam="1">  1        2 0.37567227E+00 0.91870757E+02</pdfrwt>
<pdfrwt beam="2">  1        2 0.12931701E+00 0.51943608E+02</pdfrwt>
<totfact> 0.27513491E+01</totfact>
</mgrwt>
</event>
<event>
13    1  0.1675423E-008  0.2137363E+03  0.7546771E-02  0.1208669E+00
          2   -1    0    0  502    0  0.00000000000E+00  0.00000000000E+00  0.33444258657E+04  0.33444258657E+04  0.00000000000E+00 0. -1.
          2   -1    0    0  503    0 -0.00000000000E+00 -0.00000000000E+00 -0.25260378548E+04  0.25260378548E+04  0.00000000000E+00 0. -1.
         24    2    1    2    0    0 -0.97602459086E+02  0.87660275568E+02  0.58082276022E+03  0.60082543049E+03  0.80159560890E+02 0.  0.
         25    2    1    2    0    0 -0.36785383075E+03 -0.11011859978E+03 -0.60770249861E+03  0.72963861911E+03  0.12501056301E+03 0.  0.
         24    2    1    2    0    0  0.24550406180E+03 -0.26060298875E+03 -0.15295821214E+03  0.39754153908E+03  0.80354828916E+02 0.  0.
        -11    1    5    5    0    0  0.97382735659E+02 -0.13656500461E+03 -0.10699836083E+03  0.19895237347E+03  0.00000000000E+00 0.  1.
         12    1    5    5    0    0  0.14812132614E+03 -0.12403798414E+03 -0.45959851310E+02  0.19858916561E+03  0.00000000000E+00 0. -1.
        -11    1    3    3    0    0 -0.53697975487E+02  0.94392635487E+02  0.43755629920E+03  0.45083140660E+03  0.00000000000E+00 0.  1.
         12    1    3    3    0    0 -0.43904483599E+02 -0.67323599193E+01  0.14326646102E+03  0.14999402389E+03  0.00000000000E+00 0. -1.
          5    1    4    4  501    0 -0.25147050595E+02 -0.30715605567E+02 -0.13234871605E+03  0.13825373492E+03  0.47000000000E+01 0. -1.
         -5    1    4    4    0  501 -0.34270678015E+03 -0.79402994209E+02 -0.47535378255E+03  0.59138488418E+03  0.47000000000E+01 0. -1.
          1    1    1    2  502    0  0.16493516130E+03  0.20393750695E+03  0.25621638195E+04  0.25755538340E+04  0.00000000000E+00 0. -1.
          1    1    1    2  503    0  0.55017066734E+02  0.79123806009E+02 -0.15639378581E+04  0.15669042978E+04  0.00000000000E+00 0. -1.
<mgrwt>
<rscale>  0 0.14352030E+03</rscale>
<asrwt>0</asrwt>
<pdfrwt beam="1">  1        2 0.49182733E+00 0.21373632E+03</pdfrwt>
<pdfrwt beam="2">  1        2 0.37147615E+00 0.96371439E+02</pdfrwt>
<totfact> 0.13114862E+00</totfact>
</mgrwt>
</event>
<event>
13    1  0.1675423E-008  0.2024181E+03  0.7546771E-02  0.1314267E+00
          2   -1    0    0  503    0  0.00000000000E+00  0.00000000000E+00  0.85372157946E+03  0.85372157946E+03  0.00000000000E+00 0. -1.
          2   -1    0    0  502    0 -0.00000000000E+00 -0.00000000000E+00 -0.22664287784E+04  0.22664287784E+04  0.00000000000E+00 0. -1.
         24    2    1    2    0    0 -0.10687895336E+03 -0.54718339224E+02  0.18855867646E+03  0.23706256669E+03  0.78911841549E+02 0.  0.
         25    2    1    2    0    0  0.31074672602E+03  0.24026828605E+03 -0.10009975736E+04  0.10825497249E+04  0.12500155034E+03 0.  0.
         24    2    1    2    0    0 -0.54901180757E+02 -0.13791317317E+03 -0.30901652618E+03  0.35239649599E+03  0.81595918725E+02 0.  0.
        -11    1    3    3    0    0  0.12428747133E+02 -0.78911698694E+00  0.12387672544E+02  0.17565616755E+02  0.00000000000E+00 0.  1.
         12    1    3    3    0    0 -0.11930770050E+03 -0.53929222237E+02  0.17617100392E+03  0.21949694993E+03  0.00000000000E+00 0. -1.
        -11    1    5    5    0    0 -0.22430594892E+02 -0.58596904397E+01 -0.12859874392E+02  0.26511203832E+02  0.00000000000E+00 0.  1.
         12    1    5    5    0    0 -0.32470585865E+02 -0.13205348273E+03 -0.29615665178E+03  0.32588529216E+03  0.00000000000E+00 0. -1.
          5    1    4    4  501    0  0.14213805482E+03  0.46476163160E+02 -0.28557935146E+03  0.32239869161E+03  0.47000000000E+01 0. -1.
         -5    1    4    4    0  501  0.16860867121E+03  0.19379212288E+03 -0.71541822211E+03  0.76015103330E+03  0.47000000000E+01 0. -1.
          1    1    1    2  502    0  0.86436391114E+00  0.36059857304E+02 -0.85657874499E+03  0.85733786036E+03  0.00000000000E+00 0. -1.
          1    1    1    2  503    0 -0.14983095582E+03 -0.83696630957E+02  0.56532696936E+03  0.59080370990E+03  0.00000000000E+00 0. -1.
<mgrwt>
<rscale>  0 0.85447445E+02</rscale>
<asrwt>0</asrwt>
<pdfrwt beam="1">  1        2 0.12554729E+00 0.20241814E+03</pdfrwt>
<pdfrwt beam="2">  1        2 0.33329835E+00 0.36070215E+02</pdfrwt>
<totfact> 0.42178200E+01</totfact>
</mgrwt>
</event>
<event>
13    1  0.1675423E-008  0.6398538E+02  0.7546771E-02  0.1395581E+00
          2   -1    0    0  502    0  0.00000000000E+00  0.00000000000E+00  0.64070805854E+03  0.64070805854E+03  0.00000000000E+00 0. -1.
          2   -1    0    0  503    0 -0.00000000000E+00 -0.00000000000E+00 -0.17033389397E+03  0.17033389397E+03  0.00000000000E+00 0. -1.
         24    2    1    2    0    0 -0.32646517996E+02 -0.16909959874E+02  0.18109269710E+03  0.20212158915E+03  0.81895237806E+02 0.  0.
         25    2    1    2    0    0  0.68635403338E+02  0.83466491237E+02  0.12019463998E+01  0.16523657285E+03  0.12499682629E+03 0.  0.
         24    2    1    2    0    0  0.19416460487E+02  0.37317899711E+01  0.24905995950E+03  0.26345078541E+03  0.83573486905E+02 0.  0.
        -11    1    5    5    0    0 -0.30563687610E+02  0.57235457601E+01  0.14081752310E+03  0.14420982210E+03  0.00000000000E+00 0.  1.
         12    1    5    5    0    0  0.49980148097E+02 -0.19917557890E+01  0.10824243639E+03  0.11924096331E+03  0.00000000000E+00 0. -1.
        -11    1    3    3    0    0  0.22485593059E+02  0.51298560235E+00  0.17157066018E+02  0.28288336179E+02  0.00000000000E+00 0.  1.
         12    1    3    3    0    0 -0.55132111054E+02 -0.17422945476E+02  0.16393563109E+03  0.17383325297E+03  0.00000000000E+00 0. -1.
          5    1    4    4  501    0  0.42301611953E+02  0.87894563029E+01 -0.53464800066E+02  0.68900332089E+02  0.47000000000E+01 0. -1.
         -5    1    4    4    0  501  0.26333791386E+02  0.74677034934E+02  0.54666746466E+02  0.96336240763E+02  0.47000000000E+01 0. -1.
          1    1    1    2  502    0 -0.56909429045E+02 -0.64987463548E+01  0.84352017939E+02  0.10196165823E+03  0.00000000000E+00 0. -1.
          1    1    1    2  503    0  0.15040832150E+01 -0.63789574979E+02 -0.45332456368E+02  0.78271346882E+02  0.00000000000E+00 0. -1.
<mgrwt>
<rscale>  0 0.60539551E+02</rscale>
<asrwt>0</asrwt>
<pdfrwt beam="1">  1        2 0.94221772E-01 0.57279288E+02</pdfrwt>
<pdfrwt beam="2">  1        2 0.25049102E-01 0.63985384E+02</pdfrwt>
<totfact> 0.16290479E+03</totfact>
</mgrwt>
</event>
<event>
13    1  0.1675423E-008  0.1666947E+03  0.7546771E-02  0.1324438E+00
          2   -1    0    0  503    0  0.00000000000E+00  0.00000000000E+00  0.86455077974E+03  0.86455077974E+03  0.00000000000E+00 0. -1.
          2   -1    0    0  502    0 -0.00000000000E+00 -0.00000000000E+00 -0.13017830794E+04  0.13017830794E+04  0.00000000000E+00 0. -1.
         24    2    1    2    0    0 -0.46715845459E+02  0.64795641616E+02  0.64875412601E+02  0.13132102752E+03  0.81581540308E+02 0.  0.
         25    2    1    2    0    0 -0.10994284396E+02 -0.15263466182E+03 -0.44310100069E+03  0.48515963670E+03  0.12499264777E+03 0.  0.
         24    2    1    2    0    0 -0.38358109943E+02 -0.87418592307E+02 -0.13291924719E+03  0.18212527965E+03  0.79929571086E+02 0.  0.
        -13    1    5    5    0    0 -0.51257946289E+02 -0.85264727938E+02 -0.80138421905E+02  0.12774825851E+03  0.00000000000E+00 0.  1.
         14    1    5    5    0    0  0.12899836346E+02 -0.21538643683E+01 -0.52780825286E+02  0.54377021134E+02  0.00000000000E+00 0. -1.
        -13    1    3    3    0    0 -0.54093405431E+02  0.11565718875E+02  0.52310024762E+02  0.76132785676E+02  0.00000000000E+00 0.  1.
         14    1    3    3    0    0  0.73775599719E+01  0.53229922740E+02  0.12565387839E+02  0.55188241842E+02  0.00000000000E+00 0. -1.
          5    1    4    4  501    0 -0.70907514622E+01 -0.13833052010E+03 -0.21042945790E+03  0.25196876453E+03  0.47000000000E+01 0. -1.
         -5    1    4    4    0  501 -0.39035329341E+01 -0.14304141715E+02 -0.23267154279E+03  0.23319087217E+03  0.47000000000E+01 0. -1.
          1    1    1    2  502    0  0.12117590840E+03  0.14412958969E+03 -0.63262777364E+03  0.66005669407E+03  0.00000000000E+00 0. -1.
          1    1    1    2  503    0 -0.25107668606E+02  0.31128022817E+02  0.70654030922E+03  0.70767122125E+03  0.00000000000E+00 0. -1.
<mgrwt>
<rscale>  0 0.81648217E+02</rscale>
<asrwt>0</asrwt>
<pdfrwt beam="1">  1        2 0.12713982E+00 0.39991860E+02</pdfrwt>
<pdfrwt beam="2">  1        2 0.19143869E+00 0.16669471E+03</pdfrwt>
<totfact> 0.11150348E+02</totfact>
</mgrwt>
</event>
<event>
13    1  0.1675423E-008  0.1798435E+03  0.7546771E-02  0.1379251E+00
         -3   -1    0    0    0  501 -0.00000000000E+00  0.00000000000E+00  0.12696288302E+04  0.12696288302E+04  0.00000000000E+00 0.  1.
          2   -1    0    0  503    0  0.00000000000E+00 -0.00000000000E+00 -0.59441906725E+03  0.59441906725E+03  0.00000000000E+00 0. -1.
         24    2    1    2    0    0 -0.42845187842E+02 -0.38124518524E+01  0.85046518603E+03  0.85561337820E+03  0.83264490617E+02 0.  0.
         25    2    1    2    0    0 -0.15057997143E+03  0.35237310396E+02  0.58436097660E+02  0.20727008607E+03  0.12502045924E+03 0.  0.
         24    2    1    2    0    0  0.98177546136E+02  0.14513341767E+03  0.34353964669E+02  0.19607670276E+03  0.81014436897E+02 0.  0.
        -11    1    3    3    0    0 -0.10889478425E+02 -0.30173072779E+02  0.65605236757E+03  0.65683613182E+03  0.00000000000E+00 0.  1.
         12    1    3    3    0    0 -0.31955709418E+02  0.26360620927E+02  0.19441281846E+03  0.19877724638E+03  0.00000000000E+00 0. -1.
        -11    1    5    5    0    0  0.31818600439E+02  0.84575222881E+01 -0.15204580254E+02  0.36264752555E+02  0.00000000000E+00 0.  1.
         12    1    5    5    0    0  0.66358945697E+02  0.13667589538E+03  0.49558544923E+02  0.15981195020E+03  0.00000000000E+00 0. -1.
          5    1    4    4  502    0 -0.11791183347E+03 -0.33237403403E+02  0.41117889733E+02  0.12930853148E+03  0.47000000000E+01 0. -1.
         -5    1    4    4    0  502 -0.32668137961E+02  0.68474713799E+02  0.17318207927E+02  0.77961554587E+02  0.47000000000E+01 0. -1.
          1    1    1    2  503    0  0.10683638252E+03 -0.15640424138E+03 -0.41506556898E+03  0.45624086391E+03  0.00000000000E+00 0. -1.
         -4    1    1    2    0  501 -0.11588769381E+02 -0.20154034841E+02  0.14702008357E+03  0.14884686651E+03  0.00000000000E+00 0.  1.
<mgrwt>
<rscale>  0 0.64661128E+02</rscale>
<asrwt>0</asrwt>
<pdfrwt beam="2">  1        2 0.87414569E-01 0.17984354E+03</pdfrwt>
<pdfrwt beam="1">  1       -3 0.18671012E+00 0.23248327E+02</pdfrwt>
<totfact> 0.67304423E+00</totfact>
</mgrwt>
</event>
<event>
13    1  0.1675423E-008  0.1546557E+03  0.7546771E-02  0.1251229E+00
          2   -1    0    0  502    0  0.00000000000E+00  0.00000000000E+00  0.14734500939E+04  0.14734500939E+04  0.00000000000E+00 0. -1.
          2   -1    0    0  503    0 -0.00000000000E+00 -0.00000000000E+00 -0.53508177571E+03  0.53508177571E+03  0.00000000000E+00 0. -1.
         24    2    1    2    0    0 -0.46488333132E+02 -0.78814351165E+02  0.67200068867E+03  0.68325325413E+03  0.82928985571E+02 0.  0.
         25    2    1    2    0    0  0.66893012933E+02  0.20649363644E+03  0.92640516948E+02  0.26707345974E+03  0.12502667894E+03 0.  0.
         24    2    1    2    0    0  0.71347784503E+02  0.37879251419E+02 -0.59578450270E+02  0.13095954436E+03  0.84115792107E+02 0.  0.
        -11    1    5    5    0    0 -0.16024890607E+01  0.35083874535E+02 -0.44024847252E+02  0.56317256673E+02  0.00000000000E+00 0.  1.
         12    1    5    5    0    0  0.72950273563E+02  0.27953768845E+01 -0.15553603017E+02  0.74642287691E+02  0.00000000000E+00 0. -1.
        -13    1    3    3    0    0 -0.29646935969E+02 -0.15235236617E+02  0.46183242525E+03  0.46303373772E+03  0.00000000000E+00 0.  1.
         14    1    3    3    0    0 -0.16841397163E+02 -0.63579114548E+02  0.21016826341E+03  0.22021951642E+03  0.00000000000E+00 0. -1.
          5    1    4    4  501    0  0.20742987035E+02  0.11511475734E+03 -0.15504840572E+02  0.11808543073E+03  0.47000000000E+01 0.  1.
         -5    1    4    4    0  501  0.46150025897E+02  0.91378879096E+02  0.10814535752E+03  0.14898802901E+03  0.47000000000E+01 0.  1.
          1    1    1    2  502    0 -0.10897436910E+03 -0.81491309568E+02  0.56679093101E+03  0.58289639399E+03  0.00000000000E+00 0. -1.
          1    1    1    2  503    0  0.17221904801E+02 -0.84067227121E+02 -0.33348536820E+03  0.34434921734E+03  0.00000000000E+00 0. -1.
<mgrwt>
<rscale>  0 0.11520195E+03</rscale>
<asrwt>0</asrwt>
<pdfrwt beam="1">  1        2 0.21668384E+00 0.15465569E+03</pdfrwt>
<pdfrwt beam="2">  1        2 0.78688496E-01 0.85813127E+02</pdfrwt>
<totfact> 0.15353825E+02</totfact>
</mgrwt>
</event>
<event>
13    1  0.1675423E-008  0.6237168E+02  0.7546771E-02  0.1492180E+00
          2   -1    0    0  503    0  0.00000000000E+00  0.00000000000E+00  0.11699698597E+04  0.11699698597E+04  0.00000000000E+00 0. -1.
          2   -1    0    0  502    0 -0.00000000000E+00 -0.00000000000E+00 -0.39403023459E+04  0.39403023459E+04  0.00000000000E+00 0. -1.
         24    2    1    2    0    0  0.34019559370E+03  0.59888466210E+03  0.90552313829E+02  0.70240487563E+03  0.10381236583E+03 0.  0.
         25    2    1    2    0    0  0.86058583875E+03 -0.86848083052E+03 -0.11477608352E+04  0.16816201416E+04  0.12499770834E+03 0.  0.
         24    2    1    2    0    0 -0.12574032222E+04  0.21981122141E+03 -0.54379372803E+03  0.13898723854E+04  0.81570783185E+02 0.  0.
        -11    1    3    3    0    0  0.62210643394E+02  0.20508761315E+03  0.20123150001E+02  0.21525806462E+03  0.00000000000E+00 0.  1.
         12    1    3    3    0    0  0.27798495031E+03  0.39379704894E+03  0.70429163828E+02  0.48714681100E+03  0.00000000000E+00 0. -1.
        -11    1    5    5    0    0 -0.27863731101E+03  0.60377954511E+02 -0.15673499804E+03  0.32534613581E+03  0.00000000000E+00 0.  1.
         12    1    5    5    0    0 -0.97876591121E+03  0.15943326690E+03 -0.38705873000E+03  0.10645262496E+04  0.00000000000E+00 0. -1.
          5    1    4    4  501    0  0.32348138778E+03 -0.41403165570E+03 -0.48950865067E+03  0.71812480060E+03  0.47000000000E+01 0. -1.
         -5    1    4    4    0  501  0.53710445098E+03 -0.45444917482E+03 -0.65825218448E+03  0.96349534100E+03  0.47000000000E+01 0. -1.
          1    1    1    2  502    0  0.28548220506E+02  0.55448421631E+02 -0.12495967394E+04  0.12511520849E+04  0.00000000000E+00 0. -1.
          1    1    1    2  503    0  0.28073569255E+02 -0.56634746238E+01  0.80266502641E+02  0.85222718108E+02  0.00000000000E+00 0. -1.
<mgrwt>
<rscale>  0 0.42264300E+02</rscale>
<asrwt>0</asrwt>
<pdfrwt beam="1">  1        2 0.17205439E+00 0.28639138E+02</pdfrwt>
<pdfrwt beam="2">  1        2 0.57945623E+00 0.62371677E+02</pdfrwt>
<totfact> 0.35507525E+00</totfact>
</mgrwt>
</event>
<event>
13    1  0.1675423E-008  0.1056195E+03  0.7546771E-02  0.1343334E+00
          2   -1    0    0  502    0  0.00000000000E+00  0.00000000000E+00  0.10258262303E+04  0.10258262303E+04  0.00000000000E+00 0. -1.
          2   -1    0    0  503    0 -0.00000000000E+00 -0.00000000000E+00 -0.96188334365E+03  0.96188334365E+03  0.00000000000E+00 0. -1.
         24    2    1    2    0    0  0.52734263646E+01  0.64255122881E+02  0.27537877037E+03  0.29608914133E+03  0.87628663142E+02 0.  0.
         25    2    1    2    0    0  0.20804056841E+03 -0.87136027385E+02 -0.21667298157E+03  0.33681555204E+03  0.12499587904E+03 0.  0.
         24    2    1    2    0    0 -0.76625715016E+02  0.96694236400E+01  0.35049577348E+02  0.11655787358E+03  0.79951654555E+02 0.  0.
        -11    1    5    5    0    0 -0.79346955225E+02 -0.11271135337E+01  0.53005869287E+02  0.95429722137E+02  0.00000000000E+00 0.  1.
         12    1    5    5    0    0  0.27212402083E+01  0.10796537174E+02 -0.17956291939E+02  0.21128151443E+02  0.00000000000E+00 0. -1.
        -13    1    3    3    0    0 -0.30089875767E+02  0.44069313428E+02  0.22536137477E+03  0.23159286312E+03  0.00000000000E+00 0.  1.
         14    1    3    3    0    0  0.35363302131E+02  0.20185809454E+02  0.50017395592E+02  0.64496278209E+02  0.00000000000E+00 0. -1.
          5    1    4    4  501    0  0.14923685057E+03 -0.24902959505E+02 -0.19769328943E+03  0.24899100716E+03  0.47000000000E+01 0.  1.
         -5    1    4    4    0  501  0.58803717840E+02 -0.62233067880E+02 -0.18979692145E+02  0.87824544881E+02  0.47000000000E+01 0.  1.
          1    1    1    2  502    0 -0.94597552404E+02  0.46242606794E+02  0.59848423578E+03  0.60767627572E+03  0.00000000000E+00 0. -1.
          1    1    1    2  503    0 -0.42090727356E+02 -0.33031125930E+02 -0.62829671531E+03  0.63057073123E+03  0.00000000000E+00 0. -1.
<mgrwt>
<rscale>  0 0.75173618E+02</rscale>
<asrwt>0</asrwt>
<pdfrwt beam="1">  1        2 0.15085680E+00 0.10561951E+03</pdfrwt>
<pdfrwt beam="2">  1        2 0.14145343E+00 0.53504062E+02</pdfrwt>
<totfact> 0.14023796E+02</totfact>
</mgrwt>
</event>
<event>
13    1  0.1675423E-008  0.8023622E+02  0.7546771E-02  0.1374931E+00
         -3   -1    0    0    0  501 -0.00000000000E+00  0.00000000000E+00  0.41057782626E+03  0.41057782626E+03  0.00000000000E+00 0.  1.
          2   -1    0    0  503    0  0.00000000000E+00 -0.00000000000E+00 -0.28711730811E+04  0.28711730811E+04  0.00000000000E+00 0. -1.
         24    2    1    2    0    0 -0.10670297304E+03 -0.16914948199E+02 -0.10430154848E+04  0.10520826317E+04  0.85585760942E+02 0.  0.
         25    2    1    2    0    0 -0.10268956040E+02 -0.48451757544E+02  0.64274296089E+02  0.14902512378E+03  0.12499711242E+03 0.  0.
         24    2    1    2    0    0  0.20210794450E+02  0.68480438903E+02 -0.38218522216E+03  0.39718735780E+03  0.81204719286E+02 0.  0.
        -13    1    5    5    0    0  0.41927305707E+02  0.44214933935E+02 -0.13817568501E+03  0.15101450021E+03  0.00000000000E+00 0.  1.
         14    1    5    5    0    0 -0.21716511256E+02  0.24265504968E+02 -0.24400953715E+03  0.24617285758E+03  0.00000000000E+00 0. -1.
        -13    1    3    3    0    0 -0.15606417476E+02  0.30667928406E+02 -0.21998703704E+03  0.22266202767E+03  0.00000000000E+00 0.  1.
         14    1    3    3    0    0 -0.91096555565E+02 -0.47582876605E+02 -0.82302844773E+03  0.82942060401E+03  0.00000000000E+00 0. -1.
          5    1    4    4  502    0 -0.62334013635E+02 -0.26065506999E+02  0.66311853366E+01  0.68051469712E+02  0.47000000000E+01 0.  1.
         -5    1    4    4    0  502  0.52065057595E+02 -0.22386250545E+02  0.57643110752E+02  0.80973654067E+02  0.47000000000E+01 0.  1.
          1    1    1    2  503    0  0.31632522685E+02  0.43747759409E+02 -0.13855129139E+04  0.13865642854E+04  0.00000000000E+00 0. -1.
         -4    1    1    2    0  501  0.65128611945E+02 -0.46861492570E+02  0.28584406996E+03  0.29689150865E+03  0.00000000000E+00 0.  1.
<mgrwt>
<rscale>  0 0.65815110E+02</rscale>
<asrwt>0</asrwt>
<pdfrwt beam="2">  1        2 0.42223132E+00 0.53985951E+02</pdfrwt>
<pdfrwt beam="1">  1       -3 0.60379094E-01 0.80236220E+02</pdfrwt>
<totfact> 0.60318528E+00</totfact>
</mgrwt>
</event>
<event>
13    1  0.1675423E-008  0.4599355E+02  0.7546771E-02  0.1488782E+00
         -1   -1    0    0    0  501  0.00000000000E+00  0.00000000000E+00  0.11163451783E+04  0.11163451783E+04  0.00000000000E+00 0.  1.
         -1   -1    0    0    0  502 -0.00000000000E+00 -0.00000000000E+00 -0.19765389171E+04  0.19765389171E+04  0.00000000000E+00 0.  1.
         24    2    1    2    0    0 -0.38888948005E+03 -0.18384063324E+03 -0.43924056774E+02  0.44042064726E+03  0.83717487099E+02 0.  0.
         25    2    1    2    0    0  0.42844572714E+03  0.10554899764E+03 -0.61392637016E+03  0.76631452486E+03  0.12500412405E+03 0.  0.
         24    2    1    2    0    0 -0.57787401618E+02  0.54063905421E+02  0.29181172470E+02  0.11714042662E+03  0.81289907531E+02 0.  0.
        -11    1    5    5    0    0 -0.59840331724E+01 -0.20573131977E+02 -0.87842262641E+00  0.21443741246E+02  0.00000000000E+00 0.  1.
         12    1    5    5    0    0 -0.51803368445E+02  0.74637037397E+02  0.30059595096E+02  0.95696685371E+02  0.00000000000E+00 0. -1.
        -13    1    3    3    0    0 -0.26902322837E+03 -0.91673163553E+02 -0.52294616748E+02  0.28898476303E+03  0.00000000000E+00 0.  1.
         14    1    3    3    0    0 -0.11986625167E+03 -0.92167469687E+02  0.83705599742E+01  0.15143588423E+03  0.00000000000E+00 0. -1.
          5    1    4    4  503    0  0.45919471947E+02  0.48430368425E+02 -0.13525962204E+03  0.15090180199E+03  0.47000000000E+01 0.  1.
         -5    1    4    4    0  503  0.38252625519E+03  0.57118629213E+02 -0.47866674812E+03  0.61541272287E+03  0.47000000000E+01 0.  1.
         -2    1    1    2    0  501  0.45800982014E+02 -0.44312195185E+01  0.76765754560E+03  0.76903541724E+03  0.00000000000E+00 0.  1.
         -2    1    1    2    0  502 -0.27569827488E+02  0.28658949700E+02 -0.99918202991E+03  0.99997307948E+03  0.00000000000E+00 0.  1.
<mgrwt>
<rscale>  0 0.42767218E+02</rscale>
<asrwt>0</asrwt>
<pdfrwt beam="1">  1       -1 0.16416841E+00 0.45993548E+02</pdfrwt>
<pdfrwt beam="2">  1       -1 0.29066748E+00 0.39767207E+02</pdfrwt>
<totfact> 0.16152644E-01</totfact>
</mgrwt>
</event>
<event>
13    1  0.1675423E-008  0.4844184E+02  0.7546771E-02  0.1527595E+00
          2   -1    0    0  502    0  0.00000000000E+00  0.00000000000E+00  0.23042881262E+04  0.23042881262E+04  0.00000000000E+00 0. -1.
          2   -1    0    0  503    0 -0.00000000000E+00 -0.00000000000E+00 -0.25334212473E+04  0.25334212473E+04  0.00000000000E+00 0. -1.
         24    2    1    2    0    0 -0.52844970624E+02  0.37707434542E+02  0.10500014664E+04  0.10548206126E+04  0.77000025238E+02 0.  0.
         25    2    1    2    0    0  0.92215716625E+02 -0.82086328350E+02 -0.14268720676E+03  0.22633437813E+03  0.12500283219E+03 0.  0.
         24    2    1    2    0    0  0.25803478283E+02  0.46409806939E+01  0.48471538228E+03  0.49216821902E+03  0.81198496316E+02 0.  0.
        -11    1    5    5    0    0  0.17343721715E+02 -0.30940714310E+02  0.10786614633E+03  0.11354839501E+03  0.00000000000E+00 0.  1.
         12    1    5    5    0    0  0.84597565685E+01  0.35581695004E+02  0.37684923595E+03  0.37861982401E+03  0.00000000000E+00 0. -1.
        -11    1    3    3    0    0 -0.29482507644E+02 -0.19770901877E+02  0.51765119588E+03  0.51886690722E+03  0.00000000000E+00 0.  1.
         12    1    3    3    0    0 -0.23362462980E+02  0.57478336419E+02  0.53235027051E+03  0.53595370541E+03  0.00000000000E+00 0. -1.
          5    1    4    4  501    0  0.55543934964E+02 -0.36587110981E+02  0.55670711212E+01  0.66909100144E+02  0.47000000000E+01 0.  1.
         -5    1    4    4    0  501  0.36671781661E+02 -0.45499217369E+02 -0.14825427788E+03  0.15942527799E+03  0.47000000000E+01 0.  1.
          1    1    1    2  502    0 -0.20885234244E+02  0.20124656311E+02  0.72106977389E+03  0.72165283455E+03  0.00000000000E+00 0. -1.
          1    1    1    2  503    0 -0.44288990041E+02  0.19613256802E+02 -0.23422325369E+04  0.23427333291E+04  0.00000000000E+00 0. -1.
<mgrwt>
<rscale>  0 0.37483011E+02</rscale>
<asrwt>0</asrwt>
<pdfrwt beam="1">  1        2 0.33886590E+00 0.29003358E+02</pdfrwt>
<pdfrwt beam="2">  1        2 0.37256195E+00 0.48441842E+02</pdfrwt>
<totfact> 0.66287626E+00</totfact>
</mgrwt>
</event>
<event>
13    1  0.1675423E-008  0.2258049E+03  0.7546771E-02  0.1340956E+00
          2   -1    0    0  503    0  0.00000000000E+00  0.00000000000E+00  0.53375622659E+03  0.53375622659E+03  0.00000000000E+00 0. -1.
          2   -1    0    0  502    0 -0.00000000000E+00 -0.00000000000E+00 -0.40834542935E+04  0.40834542935E+04  0.00000000000E+00 0. -1.
         24    2    1    2    0    0  0.13852130178E+02  0.25809955261E+03  0.16669378431E+03  0.31842708475E+03  0.82472601571E+02 0.  0.
         25    2    1    2    0    0 -0.25327640973E+02 -0.28711128938E+03 -0.22928747854E+04  0.23142986279E+04  0.12501590114E+03 0.  0.
         24    2    1    2    0    0 -0.18628808879E+03 -0.59115305999E+02 -0.40429590038E+03  0.45626310712E+03  0.80764945547E+02 0.  0.
        -11    1    5    5    0    0 -0.15001087336E+03 -0.12098448289E+02 -0.26339238269E+03  0.30335652595E+03  0.00000000000E+00 0.  1.
         12    1    5    5    0    0 -0.36277215423E+02 -0.47016857710E+02 -0.14090351769E+03  0.15290658117E+03  0.00000000000E+00 0. -1.
        -11    1    3    3    0    0  0.18260393499E+01 -0.62747844229E+01  0.25908375986E+01  0.70299202502E+01  0.00000000000E+00 0.  1.
         12    1    3    3    0    0  0.12026090828E+02  0.26437433703E+03  0.16410294671E+03  0.31139716450E+03  0.00000000000E+00 0. -1.
          5    1    4    4  501    0  0.15598460893E+01 -0.28660213885E+03 -0.20673577788E+04  0.20871352363E+04  0.47000000000E+01 0.  1.
         -5    1    4    4    0  501 -0.26887487062E+02 -0.50915053605E+00 -0.22551700662E+03  0.22716339157E+03  0.47000000000E+01 0.  1.
          1    1    1    2  502    0 -0.20645102575E+02  0.15044983409E+02 -0.12214551306E+04  0.12217222302E+04  0.00000000000E+00 0. -1.
          1    1    1    2  503    0  0.21840870216E+03  0.73082059366E+02  0.20223396509E+03  0.30649947017E+03  0.00000000000E+00 0. -1.
<mgrwt>
<rscale>  0 0.75949289E+02</rscale>
<asrwt>0</asrwt>
<pdfrwt beam="1">  1        2 0.78493563E-01 0.22580485E+03</pdfrwt>
<pdfrwt beam="2">  1        2 0.60050798E+00 0.25545485E+02</pdfrwt>
<totfact> 0.84656961E+00</totfact>
</mgrwt>
</event>
<event>
13    1  0.1675423E-008  0.3843330E+02  0.7546771E-02  0.1529946E+00
          2   -1    0    0  502    0  0.00000000000E+00  0.00000000000E+00  0.85859327165E+03  0.85859327165E+03  0.00000000000E+00 0. -1.
          2   -1    0    0  503    0 -0.00000000000E+00 -0.00000000000E+00 -0.10662034291E+04  0.10662034291E+04  0.00000000000E+00 0. -1.
         24    2    1    2    0    0 -0.78230728535E+02 -0.15071642677E+03 -0.33383849491E+03  0.38352259936E+03  0.82498214234E+02 0.  0.
         25    2    1    2    0    0  0.27872393482E+02  0.53047770223E+02 -0.94841672610E+01  0.13897088005E+03  0.12502807616E+03 0.  0.
         24    2    1    2    0    0  0.70469670685E+02  0.90598893605E+02 -0.46446527956E+03  0.48506641985E+03  0.79920596466E+02 0.  0.
        -11    1    3    3    0    0 -0.35169424655E+02 -0.49654800574E+01 -0.47026199290E+02  0.58932230931E+02  0.00000000000E+00 0.  1.
         12    1    3    3    0    0 -0.43061303880E+02 -0.14575094671E+03 -0.28681229562E+03  0.32459036843E+03  0.00000000000E+00 0. -1.
        -13    1    5    5    0    0  0.12900593032E+02  0.78526984567E+02 -0.23175846782E+03  0.24504060891E+03  0.00000000000E+00 0.  1.
         14    1    5    5    0    0  0.57569077653E+02  0.12071909038E+02 -0.23270681174E+03  0.24002581094E+03  0.00000000000E+00 0. -1.
          5    1    4    4  501    0  0.17295433807E+02 -0.14692613484E+02  0.45432337650E+02  0.51001884533E+02  0.47000000000E+01 0. -1.
         -5    1    4    4    0  501  0.10576959675E+02  0.67740383707E+02 -0.54916504911E+02  0.87968995518E+02  0.47000000000E+01 0. -1.
          1    1    1    2  502    0  0.70078178743E+01  0.35303946694E+02  0.75585558024E+03  0.75671205643E+03  0.00000000000E+00 0. -1.
          1    1    1    2  503    0 -0.27119153505E+02 -0.28234183753E+02 -0.15567779598E+03  0.16052474508E+03  0.00000000000E+00 0. -1.
<mgrwt>
<rscale>  0 0.37193011E+02</rscale>
<asrwt>0</asrwt>
<pdfrwt beam="1">  1        2 0.12626372E+00 0.35992752E+02</pdfrwt>
<pdfrwt beam="2">  1        2 0.15679462E+00 0.38433296E+02</pdfrwt>
<totfact> 0.16411347E+02</totfact>
</mgrwt>
</event>
<event>
13    1  0.1675423E-008  0.1170206E+03  0.7546771E-02  0.1271156E+00
          2   -1    0    0  503    0  0.00000000000E+00  0.00000000000E+00  0.25999419425E+04  0.25999419425E+04  0.00000000000E+00 0. -1.
          2   -1    0    0  502    0 -0.00000000000E+00 -0.00000000000E+00 -0.93042713516E+03  0.93042713516E+03  0.00000000000E+00 0. -1.
         24    2    1    2    0    0 -0.59535085579E+02 -0.11348041866E+02  0.35836317097E+03  0.37232343265E+03  0.80792151377E+02 0.  0.
         25    2    1    2    0    0  0.17001723949E+02 -0.16046401729E+03 -0.17809547305E+02  0.20489376099E+03  0.12500605527E+03 0.  0.
         24    2    1    2    0    0  0.63188821821E+02 -0.11428350916E+02  0.13449687286E+03  0.16891996238E+03  0.79505411606E+02 0.  0.
        -11    1    5    5    0    0  0.22644423846E+02 -0.40569628005E+02  0.93142884510E+02  0.10408775904E+03  0.00000000000E+00 0.  1.
         12    1    5    5    0    0  0.40544397974E+02  0.29141277089E+02  0.41353988351E+02  0.64832203341E+02  0.00000000000E+00 0. -1.
        -11    1    3    3    0    0 -0.15657012277E+02 -0.35353298075E+02  0.72971907943E+02  0.82582668079E+02  0.00000000000E+00 0.  1.
         12    1    3    3    0    0 -0.43878073302E+02  0.24005256209E+02  0.28539126303E+03  0.28974076458E+03  0.00000000000E+00 0. -1.
          5    1    4    4  501    0  0.38855640517E+02 -0.13223494479E+03 -0.59163001983E+02  0.15006062851E+03  0.47000000000E+01 0. -1.
         -5    1    4    4    0  501 -0.21853916568E+02 -0.28229072499E+02  0.41353454679E+02  0.54833132478E+02  0.47000000000E+01 0. -1.
          1    1    1    2  502    0 -0.60219722477E+02  0.98771737372E+02 -0.78957343888E+03  0.79800281106E+03  0.00000000000E+00 0. -1.
          1    1    1    2  503    0  0.39564262286E+02  0.84468672702E+02  0.19840377497E+04  0.19862291106E+04  0.00000000000E+00 0. -1.
<mgrwt>
<rscale>  0 0.10447554E+03</rscale>
<asrwt>0</asrwt>
<pdfrwt beam="1">  1        2 0.38234440E+00 0.93275332E+02</pdfrwt>
<pdfrwt beam="2">  1        2 0.13682752E+00 0.11702063E+03</pdfrwt>
<totfact> 0.23465867E+01</totfact>
</mgrwt>
</event>
<event>
13    1  0.1675423E-008  0.1798969E+03  0.7546771E-02  0.1290564E+00
         -3   -1    0    0    0  501 -0.00000000000E+00  0.00000000000E+00  0.92146488349E+03  0.92146488349E+03  0.00000000000E+00 0.  1.
          2   -1    0    0  503    0  0.00000000000E+00 -0.00000000000E+00 -0.28415691144E+04  0.28415691144E+04  0.00000000000E+00 0. -1.
         24    2    1    2    0    0 -0.16876725118E+02  0.43621583416E+02 -0.12302245978E+04  0.12338043192E+04  0.81442437222E+02 0.  0.
         25    2    1    2    0    0  0.17902345295E+03 -0.11426909011E+03  0.33015816098E+03  0.41199070492E+03  0.12500043207E+03 0.  0.
         24    2    1    2    0    0 -0.30150931590E+03 -0.20738062868E+03 -0.86356139526E+03  0.94103575485E+03  0.76781610969E+02 0.  0.
        -11    1    5    5    0    0 -0.14351374334E+02 -0.29497631675E+02 -0.11890250807E+03  0.12334455255E+03  0.00000000000E+00 0.  1.
         12    1    5    5    0    0 -0.28715794156E+03 -0.17788299701E+03 -0.74465888720E+03  0.81769120229E+03  0.00000000000E+00 0. -1.
        -13    1    3    3    0    0  0.24804341798E+02  0.42782762663E+02 -0.51611489023E+03  0.51847873637E+03  0.00000000000E+00 0.  1.
         14    1    3    3    0    0 -0.41681066916E+02  0.83882075348E+00 -0.71410970761E+03  0.71532558284E+03  0.00000000000E+00 0. -1.
          5    1    4    4  502    0  0.10847127845E+03  0.33884527614E+01  0.13236220618E+03  0.17122892129E+03  0.47000000000E+01 0.  1.
         -5    1    4    4    0  502  0.70552174495E+02 -0.11765754287E+03  0.19779595480E+03  0.24076178363E+03  0.47000000000E+01 0.  1.
          1    1    1    2  503    0  0.18981471863E+03  0.27744361561E+03 -0.62249376068E+03  0.70746241550E+03  0.00000000000E+00 0. -1.
         -4    1    1    2    0  501 -0.50452130566E+02  0.58451976871E+00  0.46601736193E+03  0.46874080339E+03  0.00000000000E+00 0.  1.
<mgrwt>
<rscale>  0 0.95272195E+02</rscale>
<asrwt>0</asrwt>
<pdfrwt beam="2">  1        2 0.41787780E+00 0.17989690E+03</pdfrwt>
<pdfrwt beam="1">  1       -3 0.13550955E+00 0.50455516E+02</pdfrwt>
<totfact> 0.87974935E-01</totfact>
</mgrwt>
</event>
<event>
13    1  0.1675423E-008  0.1481423E+03  0.7546771E-02  0.1242053E+00
          4   -1    0    0  503    0 -0.00000000000E+00  0.00000000000E+00  0.63872505775E+03  0.63872505775E+03  0.00000000000E+00 0. -1.
          2   -1    0    0  502    0  0.00000000000E+00 -0.00000000000E+00 -0.64103013928E+03  0.64103013928E+03  0.00000000000E+00 0. -1.
         24    2    1    2    0    0 -0.10092860644E+02 -0.91646535260E+02 -0.89122952501E+00  0.12296663585E+03  0.81357519511E+02 0.  0.
         25    2    1    2    0    0  0.17421059853E+03  0.68646779995E+02  0.12673739185E+03  0.25836509370E+03  0.12501376767E+03 0.  0.
         24    2    1    2    0    0 -0.90936374570E+02 -0.23736538585E+02  0.70730148939E+02  0.14293112850E+03  0.81201638168E+02 0.  0.
        -11    1    5    5    0    0 -0.56182318166E+02 -0.51534090487E+02  0.27948616320E+02  0.81199387381E+02  0.00000000000E+00 0.  1.
         12    1    5    5    0    0 -0.34754056403E+02  0.27797551902E+02  0.42781532619E+02  0.61731741118E+02  0.00000000000E+00 0. -1.
        -11    1    3    3    0    0 -0.36801603072E+02 -0.79217422888E+02 -0.17592671597E+02  0.89102526180E+02  0.00000000000E+00 0.  1.
         12    1    3    3    0    0  0.26708742428E+02 -0.12429112372E+02  0.16701442072E+02  0.33864109670E+02  0.00000000000E+00 0. -1.
          5    1    4    4  501    0  0.67575917975E+02  0.92198493515E+02  0.79334767029E+02  0.13922342531E+03  0.47000000000E+01 0.  1.
         -5    1    4    4    0  501  0.10663468055E+03 -0.23551713519E+02  0.47402624825E+02  0.11914166839E+03  0.47000000000E+01 0.  1.
          1    1    1    2  502    0 -0.14463642326E+03 -0.20675383221E+02 -0.45674814534E+03  0.47954773972E+03  0.00000000000E+00 0. -1.
          3    1    1    2  503    0  0.71455059943E+02  0.67411677071E+02  0.25786675253E+03  0.27594459926E+03  0.00000000000E+00 0. -1.
<mgrwt>
<rscale>  0 0.12063496E+03</rscale>
<asrwt>0</asrwt>
<pdfrwt beam="2">  1        2 0.94269138E-01 0.14814231E+03</pdfrwt>
<pdfrwt beam="1">  1        4 0.93930156E-01 0.98235227E+02</pdfrwt>
<totfact> 0.25266122E+01</totfact>
</mgrwt>
</event>
<event>
13    1  0.1675423E-008  0.1190221E+03  0.7546771E-02  0.1368660E+00
          2   -1    0    0  502    0  0.00000000000E+00  0.00000000000E+00  0.35747373957E+04  0.35747373957E+04  0.00000000000E+00 0. -1.
          2   -1    0    0  503    0 -0.00000000000E+00 -0.00000000000E+00 -0.13636064329E+04  0.13636064329E+04  0.00000000000E+00 0. -1.
         24    2    1    2    0    0 -0.16554372755E+02  0.14472144171E+02  0.98093431689E+03  0.98459108522E+03  0.81877840970E+02 0.  0.
         25    2    1    2    0    0  0.13847688531E+02  0.14566997440E+02 -0.12419868315E+03  0.17735257335E+03  0.12499866593E+03 0.  0.
         24    2    1    2    0    0  0.10943496439E+03  0.41761033991E+02  0.87861344463E+02  0.16653864080E+03  0.79344235057E+02 0.  0.
        -13    1    3    3    0    0 -0.45573799788E+02 -0.82293083859E+01  0.63948446229E+03  0.64115916141E+03  0.00000000000E+00 0.  1.
         14    1    3    3    0    0  0.29019427033E+02  0.22701452557E+02  0.34144985459E+03  0.34343192382E+03  0.00000000000E+00 0. -1.
        -13    1    5    5    0    0  0.12122054212E+03  0.42588227396E+02  0.85920917113E+02  0.15456578193E+03  0.00000000000E+00 0.  1.
         14    1    5    5    0    0 -0.11785577728E+02 -0.82719340499E+00  0.19404273502E+01  0.11972858874E+02  0.00000000000E+00 0. -1.
          5    1    4    4  501    0  0.65561586384E+02  0.20829215750E+02 -0.95203728813E+02  0.11755006515E+03  0.47000000000E+01 0.  1.
         -5    1    4    4    0  501 -0.51713897853E+02 -0.62622183099E+01 -0.28994954338E+02  0.59802508195E+02  0.47000000000E+01 0.  1.
          1    1    1    2  502    0 -0.14108030595E+03 -0.87797874372E+02  0.24350519913E+04  0.24407151247E+04  0.00000000000E+00 0. -1.
          1    1    1    2  503    0  0.34352025779E+02  0.16997698771E+02 -0.11685180067E+04  0.11691464046E+04  0.00000000000E+00 0. -1.
<mgrwt>
<rscale>  0 0.67541074E+02</rscale>
<asrwt>0</asrwt>
<pdfrwt beam="1">  1        2 0.52569668E+00 0.11902206E+03</pdfrwt>
<pdfrwt beam="2">  1        2 0.20053036E+00 0.38327320E+02</pdfrwt>
<totfact> 0.41627355E+00</totfact>
</mgrwt>
</event>
<event>
13    1  0.1675423E-008  0.1193315E+03  0.7546771E-02  0.1283805E+00
          2   -1    0    0  503    0  0.00000000000E+00  0.00000000000E+00  0.34927451737E+04  0.34927451737E+04  0.00000000000E+00 0. -1.
          2   -1    0    0  502    0 -0.00000000000E+00 -0.00000000000E+00 -0.16520985655E+04  0.16520985655E+04  0.00000000000E+00 0. -1.
         24    2    1    2    0    0 -0.54406062978E+03  0.27520874538E+03  0.21021188783E+04  0.21902307121E+04  0.80405045604E+02 0.  0.
         25    2    1    2    0    0  0.18121839814E+03 -0.19913208108E+03 -0.62317752621E+03  0.69026973933E+03  0.12501356053E+03 0.  0.
         24    2    1    2    0    0  0.16376263726E+03 -0.55903998276E+02 -0.61443872473E+02  0.20052133921E+03  0.80560533939E+02 0.  0.
        -11    1    5    5    0    0 -0.80612306157E+01  0.22679644181E+01  0.14998698890E+01  0.85074503423E+01  0.00000000000E+00 0.  1.
         12    1    5    5    0    0  0.17182386788E+03 -0.58171962694E+02 -0.62943742362E+02  0.19201388887E+03  0.00000000000E+00 0. -1.
        -13    1    3    3    0    0 -0.24171730697E+02 -0.44989740500E+01  0.79175382372E+02  0.82905093367E+02  0.00000000000E+00 0.  1.
         14    1    3    3    0    0 -0.51988889909E+03  0.27970771943E+03  0.20229434959E+04  0.21073256188E+04  0.00000000000E+00 0. -1.
          5    1    4    4  501    0  0.13121045895E+03 -0.17838953281E+03 -0.58002194397E+03  0.62087563605E+03  0.47000000000E+01 0.  1.
         -5    1    4    4    0  501  0.50007939195E+02 -0.20742548270E+02 -0.43155582242E+02  0.69394103279E+02  0.47000000000E+01 0.  1.
          1    1    1    2  502    0  0.80527270029E+02 -0.92502279970E+01 -0.81547287442E+03  0.81949143793E+03  0.00000000000E+00 0. -1.
          1    1    1    2  503    0  0.11855232435E+03 -0.10922438023E+02  0.12386220030E+04  0.12443305106E+04  0.00000000000E+00 0. -1.
<mgrwt>
<rscale>  0 0.98349557E+02</rscale>
<asrwt>0</asrwt>
<pdfrwt beam="1">  1        2 0.51363900E+00 0.11933154E+03</pdfrwt>
<pdfrwt beam="2">  1        2 0.24295567E+00 0.81056819E+02</pdfrwt>
<totfact> 0.31827862E+00</totfact>
</mgrwt>
</event>
<event>
13    1  0.1675423E-008  0.2419694E+03  0.7546771E-02  0.1256400E+00
          2   -1    0    0  502    0  0.00000000000E+00  0.00000000000E+00  0.18036549564E+04  0.18036549564E+04  0.00000000000E+00 0. -1.
          4   -1    0    0  503    0 -0.00000000000E+00 -0.00000000000E+00 -0.66506507785E+03  0.66506507785E+03  0.00000000000E+00 0. -1.
         24    2    1    2    0    0 -0.38047514097E+02 -0.17041141350E+03  0.37060767785E+03  0.41718851912E+03  0.78794329902E+02 0.  0.
         25    2    1    2    0    0 -0.37444069991E+03  0.23954932628E+03  0.10013783156E+04  0.11027118177E+04  0.12500041745E+03 0.  0.
         24    2    1    2    0    0  0.15732052137E+03 -0.27251352609E+02 -0.26182327564E+03  0.31703657295E+03  0.80426228682E+02 0.  0.
        -11    1    3    3    0    0 -0.15169354247E+02 -0.16766978270E+03  0.33140623745E+03  0.37171677331E+03  0.00000000000E+00 0.  1.
         12    1    3    3    0    0 -0.22878159851E+02 -0.27416307971E+01  0.39201440407E+02  0.45471745816E+02  0.00000000000E+00 0. -1.
        -11    1    5    5    0    0  0.40439583188E+02 -0.14570739302E+01 -0.15798050458E+02  0.43440319418E+02  0.00000000000E+00 0.  1.
         12    1    5    5    0    0  0.11688093818E+03 -0.25794278679E+02 -0.24602522518E+03  0.27359625354E+03  0.00000000000E+00 0. -1.
          5    1    4    4  501    0 -0.18948142341E+03  0.14010617523E+03  0.38387579255E+03  0.45046161241E+03  0.47000000000E+01 0.  1.
         -5    1    4    4    0  501 -0.18495927650E+03  0.99443151050E+02  0.61750252307E+03  0.65225020525E+03  0.47000000000E+01 0.  1.
          1    1    1    2  502    0  0.20617614985E+03 -0.59623539691E+02  0.29240192063E+03  0.36271539041E+03  0.00000000000E+00 0. -1.
          3    1    1    2  503    0  0.48991542783E+02  0.17736979521E+02 -0.26397475987E+03  0.26906773414E+03  0.00000000000E+00 0. -1.
<mgrwt>
<rscale>  0 0.11228288E+03</rscale>
<asrwt>0</asrwt>
<pdfrwt beam="1">  1        2 0.26524337E+00 0.24196937E+03</pdfrwt>
<pdfrwt beam="2">  1        4 0.97803688E-01 0.52103471E+02</pdfrwt>
<totfact> 0.46943109E+00</totfact>
</mgrwt>
</event>
<event>
13    1  0.1675423E-008  0.6901558E+02  0.7546771E-02  0.1405685E+00
          2   -1    0    0  503    0  0.00000000000E+00  0.00000000000E+00  0.12955774367E+04  0.12955774367E+04  0.00000000000E+00 0. -1.
          2   -1    0    0  502    0 -0.00000000000E+00 -0.00000000000E+00 -0.98881329554E+03  0.98881329554E+03  0.00000000000E+00 0. -1.
         24    2    1    2    0    0  0.31451546003E+03  0.28075185954E+03 -0.97959343974E+02  0.44030686709E+03  0.80824024253E+02 0.  0.
         25    2    1    2    0    0  0.92851771940E+01 -0.35263894463E+02 -0.17554798904E+03  0.21856767635E+03  0.12499990368E+03 0.  0.
         24    2    1    2    0    0 -0.29633266599E+03 -0.22663739414E+03  0.91342623700E+03  0.98986487634E+03  0.79419302451E+02 0.  0.
        -11    1    3    3    0    0  0.31065659580E+02  0.65468420493E+02 -0.27221982525E+02  0.77409467248E+02  0.00000000000E+00 0.  1.
         12    1    3    3    0    0  0.28344980045E+03  0.21528343905E+03 -0.70737361449E+02  0.36289739984E+03  0.00000000000E+00 0. -1.
        -13    1    5    5    0    0 -0.33350132621E+02 -0.49865265331E+02  0.20922345554E+03  0.21765392342E+03  0.00000000000E+00 0.  1.
         14    1    5    5    0    0 -0.26298253337E+03 -0.17677212881E+03  0.70420278146E+03  0.77221095291E+03  0.00000000000E+00 0. -1.
          5    1    4    4  501    0 -0.48760673350E+02 -0.23847034118E+02 -0.13794077290E+03  0.14831059008E+03  0.47000000000E+01 0.  1.
         -5    1    4    4    0  501  0.58045850544E+02 -0.11416860345E+02 -0.37607216143E+02  0.70257086273E+02  0.47000000000E+01 0.  1.
          1    1    1    2  502    0 -0.86112151851E+01  0.48262991704E+02 -0.47504111862E+03  0.47756416718E+03  0.00000000000E+00 0. -1.
          1    1    1    2  503    0 -0.18856756051E+02 -0.67113562643E+02  0.14188635575E+03  0.15808714523E+03  0.00000000000E+00 0. -1.
<mgrwt>
<rscale>  0 0.58167880E+02</rscale>
<asrwt>0</asrwt>
<pdfrwt beam="1">  1        2 0.19052610E+00 0.69015584E+02</pdfrwt>
<pdfrwt beam="2">  1        2 0.14541372E+00 0.49025191E+02</pdfrwt>
<totfact> 0.10000859E+02</totfact>
</mgrwt>
</event>
<event>
13    1  0.1675423E-008  0.6866432E+02  0.7546771E-02  0.1375548E+00
          4   -1    0    0  503    0 -0.00000000000E+00  0.00000000000E+00  0.12037906549E+04  0.12037906549E+04  0.00000000000E+00 0. -1.
          2   -1    0    0  502    0  0.00000000000E+00 -0.00000000000E+00 -0.12902840437E+04  0.12902840437E+04  0.00000000000E+00 0. -1.
         24    2    1    2    0    0  0.24755903971E+02  0.28236498153E+02 -0.10577354521E+04  0.10614351249E+04  0.80187799332E+02 0.  0.
         25    2    1    2    0    0 -0.16448575773E+03 -0.86849273743E+02  0.24725025083E+03  0.33370076298E+03  0.12500060733E+03 0.  0.
         24    2    1    2    0    0  0.42199198966E+02 -0.18746867403E+02  0.15034973933E+03  0.17556700549E+03  0.78016100063E+02 0.  0.
        -13    1    3    3    0    0 -0.83759075473E+01  0.48547164343E+02 -0.64191233927E+03  0.64379999558E+03  0.00000000000E+00 0.  1.
         14    1    3    3    0    0  0.33131811518E+02 -0.20310666190E+02 -0.41582311284E+03  0.41763512935E+03  0.00000000000E+00 0. -1.
        -13    1    5    5    0    0 -0.11861645021E+02  0.12800728305E+01 -0.25146657035E+01  0.12192651584E+02  0.00000000000E+00 0.  1.
         14    1    5    5    0    0  0.54060843987E+02 -0.20026940234E+02  0.15286440504E+03  0.16337435391E+03  0.00000000000E+00 0. -1.
          5    1    4    4  501    0 -0.56121856108E+02 -0.46085764678E+01  0.16559019400E+03  0.17496600830E+03  0.47000000000E+01 0.  1.
         -5    1    4    4    0  501 -0.10836390162E+03 -0.82240697275E+02  0.81660056826E+02  0.15873475468E+03  0.47000000000E+01 0.  1.
          1    1    1    2  502    0  0.59371469287E+02  0.20360142258E+02 -0.16759767277E+03  0.17896504317E+03  0.00000000000E+00 0. -1.
          3    1    1    2  503    0  0.38159185502E+02  0.56999500735E+02  0.74123974588E+03  0.74440676206E+03  0.00000000000E+00 0. -1.
<mgrwt>
<rscale>  0 0.65648682E+02</rscale>
<asrwt>0</asrwt>
<pdfrwt beam="2">  1        2 0.18974765E+00 0.62765490E+02</pdfrwt>
<pdfrwt beam="1">  1        4 0.17702804E+00 0.68664316E+02</pdfrwt>
<totfact> 0.22754726E+00</totfact>
</mgrwt>
</event>
<event>
13    1  0.1675423E-008  0.5763617E+02  0.7546771E-02  0.1414819E+00
          2   -1    0    0  502    0  0.00000000000E+00  0.00000000000E+00  0.22116767461E+04  0.22116767461E+04  0.00000000000E+00 0. -1.
          2   -1    0    0  503    0 -0.00000000000E+00 -0.00000000000E+00 -0.10908725866E+04  0.10908725866E+04  0.00000000000E+00 0. -1.
         24    2    1    2    0    0 -0.27142915938E+02 -0.87087803944E+02  0.41170670213E+03  0.42923057614E+03  0.80096538200E+02 0.  0.
         25    2    1    2    0    0  0.14207191667E+02 -0.34637190246E+02 -0.48579765647E+03  0.50301737409E+03  0.12500214542E+03 0.  0.
         24    2    1    2    0    0  0.66985904811E+02  0.13019343745E+03  0.29657600032E+03  0.34066542294E+03  0.81597572411E+02 0.  0.
        -11    1    5    5    0    0 -0.61659050385E+01  0.49695123919E+02  0.15001081195E+03  0.15814824510E+03  0.00000000000E+00 0.  1.
         12    1    5    5    0    0  0.73151809850E+02  0.80498313527E+02  0.14656518838E+03  0.18251717785E+03  0.00000000000E+00 0. -1.
        -11    1    3    3    0    0 -0.55591904151E+02 -0.56082962173E+02  0.28369837877E+03  0.29448349456E+03  0.00000000000E+00 0.  1.
         12    1    3    3    0    0  0.28448988213E+02 -0.31004841771E+02  0.12800832336E+03  0.13474708157E+03  0.00000000000E+00 0. -1.
          5    1    4    4  501    0  0.29037179020E+02  0.25677194485E+02 -0.53377933397E+02  0.66134483107E+02  0.47000000000E+01 0. -1.
         -5    1    4    4    0  501 -0.14829987353E+02 -0.60314384731E+02 -0.43241972308E+03  0.43688289099E+03  0.47000000000E+01 0. -1.
          1    1    1    2  502    0 -0.37649454461E+02  0.43681044587E+02  0.14620869749E+04  0.14632237823E+04  0.00000000000E+00 0. -1.
          1    1    1    2  503    0 -0.16400726079E+02 -0.52149487843E+02 -0.56376786139E+03  0.56641217716E+03  0.00000000000E+00 0. -1.
<mgrwt>
<rscale>  0 0.56132296E+02</rscale>
<asrwt>0</asrwt>
<pdfrwt beam="1">  1        2 0.32524658E+00 0.57636173E+02</pdfrwt>
<pdfrwt beam="2">  1        2 0.16042244E+00 0.54667659E+02</pdfrwt>
<totfact> 0.32474471E+01</totfact>
</mgrwt>
</event>
<event>
13    1  0.1675423E-008  0.1294459E+03  0.7546771E-02  0.1345322E+00
          2   -1    0    0  502    0  0.00000000000E+00  0.00000000000E+00  0.14953304518E+04  0.14953304518E+04  0.00000000000E+00 0. -1.
          2   -1    0    0  503    0 -0.00000000000E+00 -0.00000000000E+00 -0.32622774195E+04  0.32622774195E+04  0.00000000000E+00 0. -1.
         24    2    1    2    0    0 -0.62432386132E+02  0.88953689628E+02  0.56832165269E+01  0.13669105737E+03  0.82713871140E+02 0.  0.
         25    2    1    2    0    0  0.20558871865E+03  0.10438644913E+03 -0.19272723864E+03  0.32547226330E+03  0.12500061467E+03 0.  0.
         24    2    1    2    0    0 -0.21916537208E+02 -0.20477848964E+03 -0.37608171179E+03  0.43644082297E+03  0.81416052382E+02 0.  0.
        -11    1    5    5    0    0 -0.32545498121E+02 -0.44762384055E+02 -0.57700698620E+02  0.79951554678E+02  0.00000000000E+00 0.  1.
         12    1    5    5    0    0  0.10628960914E+02 -0.16001610559E+03 -0.31838101317E+03  0.35648926829E+03  0.00000000000E+00 0. -1.
        -13    1    3    3    0    0 -0.72405412445E+02  0.98610153146E+02  0.21068043153E+01  0.12235581179E+03  0.00000000000E+00 0.  1.
         14    1    3    3    0    0  0.99730263135E+01 -0.96564635185E+01  0.35764122115E+01  0.14335245580E+02  0.00000000000E+00 0. -1.
          5    1    4    4  501    0  0.97412788141E+02  0.23821367168E+02 -0.15615466541E+03  0.18564233988E+03  0.47000000000E+01 0. -1.
         -5    1    4    4    0  501  0.10817593050E+03  0.80565081958E+02 -0.36572573234E+02  0.13982992342E+03  0.47000000000E+01 0. -1.
          1    1    1    2  502    0 -0.12568275771E+03 -0.31246507036E+02  0.13242502523E+04  0.13305680105E+04  0.00000000000E+00 0. -1.
          1    1    1    2  503    0  0.44429624017E+01  0.42684857926E+02 -0.25280714861E+04  0.25284357171E+04  0.00000000000E+00 0. -1.
<mgrwt>
<rscale>  0 0.74533429E+02</rscale>
<asrwt>0</asrwt>
<pdfrwt beam="1">  1        2 0.21990154E+00 0.12944593E+03</pdfrwt>
<pdfrwt beam="2">  1        2 0.47974667E+00 0.42915464E+02</pdfrwt>
<totfact> 0.59460700E+00</totfact>
</mgrwt>
</event>
<event>
13    1  0.1675423E-008  0.9851221E+02  0.7546771E-02  0.1361614E+00
          2   -1    0    0  502    0  0.00000000000E+00  0.00000000000E+00  0.51769635402E+03  0.51769635402E+03  0.00000000000E+00 0. -1.
          2   -1    0    0  503    0 -0.00000000000E+00 -0.00000000000E+00 -0.28391424803E+04  0.28391424803E+04  0.00000000000E+00 0. -1.
         24    2    1    2    0    0  0.50755573218E+02 -0.17045016530E+02  0.86845953125E+00  0.97436594628E+02  0.81403163019E+02 0.  0.
         25    2    1    2    0    0  0.14815697081E+03 -0.10828292046E+02 -0.46272858178E+03  0.50180629909E+03  0.12499632594E+03 0.  0.
         24    2    1    2    0    0 -0.11733091111E+03  0.52207042655E+02  0.73902692103E+01  0.15243443586E+03  0.81789505142E+02 0.  0.
        -11    1    5    5    0    0 -0.47548160265E+02 -0.12711335612E+02  0.25480636724E+02  0.55422634776E+02  0.00000000000E+00 0.  1.
         12    1    5    5    0    0 -0.69782750846E+02  0.64918378267E+02 -0.18090367514E+02  0.97011801082E+02  0.00000000000E+00 0. -1.
        -11    1    3    3    0    0  0.98223324373E+01  0.29658394710E+02  0.13546626271E+02  0.34053042075E+02  0.00000000000E+00 0.  1.
         12    1    3    3    0    0  0.40933240781E+02 -0.46703411240E+02 -0.12678166740E+02  0.63383552552E+02  0.00000000000E+00 0. -1.
          5    1    4    4  501    0  0.11847223485E+03 -0.14574547553E+01 -0.16930096369E+03  0.20669470460E+03  0.47000000000E+01 0.  1.
         -5    1    4    4    0  501  0.29684735959E+02 -0.93708372908E+01 -0.29342761810E+03  0.29511159449E+03  0.47000000000E+01 0.  1.
          1    1    1    2  502    0  0.14491163815E+02 -0.46922441798E+02  0.36636444973E+03  0.36964120360E+03  0.00000000000E+00 0. -1.
          1    1    1    2  503    0 -0.96072796729E+02  0.22588707720E+02 -0.22333407230E+04  0.22355203012E+04  0.00000000000E+00 0. -1.
<mgrwt>
<rscale>  0 0.69554668E+02</rscale>
<asrwt>0</asrwt>
<pdfrwt beam="1">  1        2 0.76131819E-01 0.49109158E+02</pdfrwt>
<pdfrwt beam="2">  1        2 0.41752094E+00 0.98512214E+02</pdfrwt>
<totfact> 0.35319673E+01</totfact>
</mgrwt>
</event>
<event>
13    1  0.1675423E-008  0.1767829E+03  0.7546771E-02  0.1285197E+00
          2   -1    0    0  502    0  0.00000000000E+00  0.00000000000E+00  0.15480550933E+04  0.15480550933E+04  0.00000000000E+00 0. -1.
          2   -1    0    0  503    0 -0.00000000000E+00 -0.00000000000E+00 -0.63366154034E+03  0.63366154034E+03  0.00000000000E+00 0. -1.
         24    2    1    2    0    0 -0.75723382955E+02 -0.19314983272E+03  0.41177957887E+03  0.46798099105E+03  0.80018109202E+02 0.  0.
         25    2    1    2    0    0  0.33561629413E+03  0.15166558200E+03 -0.41855193824E+02  0.39117293708E+03  0.12499465509E+03 0.  0.
         24    2    1    2    0    0 -0.15875510537E+03 -0.12411231173E+03  0.39743883947E+02  0.22015805928E+03  0.79265032339E+02 0.  0.
        -13    1    5    5    0    0 -0.13355637911E+02 -0.24933140354E+02  0.33772589852E+02  0.44052495698E+02  0.00000000000E+00 0.  1.
         14    1    5    5    0    0 -0.14539946745E+03 -0.99179171372E+02  0.59712940946E+01  0.17610556358E+03  0.00000000000E+00 0. -1.
        -13    1    3    3    0    0 -0.75025789474E+01 -0.32548927996E+02  0.14792204915E+03  0.15164647714E+03  0.00000000000E+00 0.  1.
         14    1    3    3    0    0 -0.68220804007E+02 -0.16060090473E+03  0.26385752973E+03  0.31633451391E+03  0.00000000000E+00 0. -1.
          5    1    4    4  501    0  0.18777912473E+03  0.12659556190E+03 -0.72929869022E+02  0.23796699724E+03  0.47000000000E+01 0.  1.
         -5    1    4    4    0  501  0.14783716940E+03  0.25070020099E+02  0.31074675198E+02  0.15320593984E+03  0.47000000000E+01 0.  1.
          1    1    1    2  502    0 -0.53823397247E+02 -0.43678163186E+01  0.77650580102E+03  0.77838120155E+03  0.00000000000E+00 0. -1.
          1    1    1    2  503    0 -0.47314408567E+02  0.16996437877E+03 -0.27178051701E+03  0.32402344473E+03  0.00000000000E+00 0. -1.
<mgrwt>
<rscale>  0 0.97705364E+02</rscale>
<asrwt>0</asrwt>
<pdfrwt beam="1">  1        2 0.22765516E+00 0.54000333E+02</pdfrwt>
<pdfrwt beam="2">  1        2 0.93185521E-01 0.17678295E+03</pdfrwt>
<totfact> 0.12515719E+02</totfact>
</mgrwt>
</event>
<event>
13    1  0.1675423E-008  0.1490165E+03  0.7546771E-02  0.1320579E+00
          2   -1    0    0  502    0  0.00000000000E+00  0.00000000000E+00  0.11000331503E+04  0.11000331503E+04  0.00000000000E+00 0. -1.
          2   -1    0    0  503    0 -0.00000000000E+00 -0.00000000000E+00 -0.35559759464E+04  0.35559759464E+04  0.00000000000E+00 0. -1.
         24    2    1    2    0    0  0.56992936545E+02 -0.32277096210E+02  0.21961012933E+03  0.24297787428E+03  0.80744242686E+02 0.  0.
         25    2    1    2    0    0 -0.24328877713E+03 -0.74786010560E+02 -0.11090860668E+03  0.30448075261E+03  0.12500173288E+03 0.  0.
         24    2    1    2    0    0  0.64295452752E+02  0.66586272876E+02 -0.20073427819E+03  0.23632116754E+03  0.83581139055E+02 0.  0.
        -13    1    5    5    0    0 -0.20569640588E+02  0.12822770120E+02 -0.40350913655E+02  0.47071538963E+02  0.00000000000E+00 0.  1.
         14    1    5    5    0    0  0.84865093341E+02  0.53763502757E+02 -0.16038336454E+03  0.18924962858E+03  0.00000000000E+00 0. -1.
        -13    1    3    3    0    0  0.68138762359E+02 -0.48846707462E+02  0.17181453754E+03  0.19117825994E+03  0.00000000000E+00 0.  1.
         14    1    3    3    0    0 -0.11145825814E+02  0.16569611251E+02  0.47795591795E+02  0.51799614334E+02  0.00000000000E+00 0. -1.
          5    1    4    4  501    0 -0.14052246457E+03 -0.10594586168E+03 -0.66913016039E+02  0.18833621630E+03  0.47000000000E+01 0.  1.
         -5    1    4    4    0  501 -0.10276631256E+03  0.31159851119E+02 -0.43995590638E+02  0.11614453631E+03  0.47000000000E+01 0.  1.
          1    1    1    2  502    0 -0.25290784612E+02  0.38781487244E+02  0.75170732548E+03  0.75313181497E+03  0.00000000000E+00 0. -1.
          1    1    1    2  503    0  0.14729117244E+03  0.16953466493E+01 -0.31156173660E+04  0.31190974873E+04  0.00000000000E+00 0. -1.
<mgrwt>
<rscale>  0 0.83062407E+02</rscale>
<asrwt>0</asrwt>
<pdfrwt beam="1">  1        2 0.16176958E+00 0.46299325E+02</pdfrwt>
<pdfrwt beam="2">  1        2 0.52293764E+00 0.14901650E+03</pdfrwt>
<totfact> 0.55019313E+00</totfact>
</mgrwt>
</event>
<event>
13    1  0.1675423E-008  0.2998305E+03  0.7546771E-02  0.1311219E+00
          2   -1    0    0  503    0  0.00000000000E+00  0.00000000000E+00  0.11747623903E+04  0.11747623903E+04  0.00000000000E+00 0. -1.
         -1   -1    0    0    0  501 -0.00000000000E+00 -0.00000000000E+00 -0.82215516525E+03  0.82215516525E+03  0.00000000000E+00 0.  1.
         24    2    1    2    0    0  0.49197664556E+02  0.24066741139E+01 -0.39405729414E+03  0.40524044312E+03  0.80699835181E+02 0.  0.
         25    2    1    2    0    0  0.99389740913E+02 -0.32145617092E+03 -0.94767148947E+02  0.37123839948E+03  0.12499898523E+03 0.  0.
         24    2    1    2    0    0  0.19211672587E+03  0.14031117201E+03  0.16819658584E+03  0.30272630861E+03  0.82201369124E+02 0.  0.
        -11    1    3    3    0    0  0.65704048889E+02 -0.17509452174E+02 -0.30591445675E+03  0.31338037240E+03  0.00000000000E+00 0.  1.
         12    1    3    3    0    0 -0.16506384334E+02  0.19916126287E+02 -0.88142837385E+02  0.91860070718E+02  0.00000000000E+00 0. -1.
        -11    1    5    5    0    0  0.28541171807E+02  0.49219215587E+02  0.10331627977E+02  0.57826224222E+02  0.00000000000E+00 0.  1.
         12    1    5    5    0    0  0.16357555406E+03  0.91091956424E+02  0.15786495786E+03  0.24490008438E+03  0.00000000000E+00 0. -1.
          5    1    4    4  502    0 -0.31816569617E+01  0.91905259761E+01  0.34751970348E+01  0.11347057027E+02  0.47000000000E+01 0. -1.
         -5    1    4    4    0  502  0.10257139788E+03 -0.33064669689E+03 -0.98242345982E+02  0.35989134245E+03  0.47000000000E+01 0. -1.
          1    1    1    2  503    0 -0.36313592433E+03  0.16763089800E+03  0.74288032383E+03  0.84370551322E+03  0.00000000000E+00 0. -1.
         -2    1    1    2    0  501  0.22431792993E+02  0.11107426790E+02 -0.69645241533E+02  0.74006891131E+02  0.00000000000E+00 0.  1.
<mgrwt>
<rscale>  0 0.86632061E+02</rscale>
<asrwt>0</asrwt>
<pdfrwt beam="1">  1        2 0.17275918E+00 0.29983054E+03</pdfrwt>
<pdfrwt beam="2">  1       -1 0.12090517E+00 0.25031186E+02</pdfrwt>
<totfact> 0.18796344E+01</totfact>
</mgrwt>
</event>
<event>
13    1  0.1675423E-008  0.1125124E+03  0.7546771E-02  0.1291974E+00
          2   -1    0    0  502    0  0.00000000000E+00  0.00000000000E+00  0.64130541398E+03  0.64130541398E+03  0.00000000000E+00 0. -1.
          2   -1    0    0  503    0 -0.00000000000E+00 -0.00000000000E+00 -0.13317218030E+04  0.13317218030E+04  0.00000000000E+00 0. -1.
         24    2    1    2    0    0  0.19895719538E+03 -0.97568325837E+02  0.20770450281E+03  0.31436340576E+03  0.81115020754E+02 0.  0.
         25    2    1    2    0    0 -0.21240463180E+03  0.28763640009E+03 -0.23445583979E+03  0.44547144934E+03  0.12499938038E+03 0.  0.
         24    2    1    2    0    0  0.48077040035E+02 -0.48423714199E+02 -0.17960994924E+03  0.20784776984E+03  0.79276123060E+02 0.  0.
        -11    1    5    5    0    0 -0.17416013592E+02 -0.88292659345E+01 -0.79345729410E+02  0.81713023698E+02  0.00000000000E+00 0.  1.
         12    1    5    5    0    0  0.65493053627E+02 -0.39594448265E+02 -0.10026421983E+03  0.12613474614E+03  0.00000000000E+00 0. -1.
        -13    1    3    3    0    0  0.89272026887E+02 -0.60710784830E+02  0.15067767087E+03  0.18536195585E+03  0.00000000000E+00 0.  1.
         14    1    3    3    0    0  0.10968516849E+03 -0.36857541007E+02  0.57026831945E+02  0.12900144991E+03  0.00000000000E+00 0. -1.
          5    1    4    4  501    0 -0.10928267146E+03  0.22554865498E+03 -0.19852693045E+03  0.31976542990E+03  0.47000000000E+01 0.  1.
         -5    1    4    4    0  501 -0.10312196034E+03  0.62087745114E+02 -0.35928909342E+02  0.12570601944E+03  0.47000000000E+01 0.  1.
          1    1    1    2  502    0 -0.81478806734E+02 -0.77269214227E+02  0.24628568265E+03  0.27067686435E+03  0.00000000000E+00 0. -1.
          1    1    1    2  503    0  0.46849203116E+02 -0.64375145827E+02 -0.73034078550E+03  0.73466772775E+03  0.00000000000E+00 0. -1.
<mgrwt>
<rscale>  0 0.94646723E+02</rscale>
<asrwt>0</asrwt>
<pdfrwt beam="1">  1        2 0.94309620E-01 0.11251244E+03</pdfrwt>
<pdfrwt beam="2">  1        2 0.19584144E+00 0.79617883E+02</pdfrwt>
<totfact> 0.15457191E+02</totfact>
</mgrwt>
</event>
<event>
13    1  0.1675423E-008  0.2672696E+03  0.7546771E-02  0.1341265E+00
          2   -1    0    0  502    0  0.00000000000E+00  0.00000000000E+00  0.15589876939E+04  0.15589876939E+04  0.00000000000E+00 0. -1.
          2   -1    0    0  503    0 -0.00000000000E+00 -0.00000000000E+00 -0.93433178339E+03  0.93433178339E+03  0.00000000000E+00 0. -1.
         24    2    1    2    0    0  0.11579440492E+02  0.30151367802E+02  0.46016795069E+01  0.86886300571E+02  0.80528661669E+02 0.  0.
         25    2    1    2    0    0 -0.16429011604E+03 -0.28916069846E+03 -0.24363937647E+02  0.35611794525E+03  0.12498494993E+03 0.  0.
         24    2    1    2    0    0 -0.27227300076E+02  0.51356628055E+02  0.73588933538E+01  0.10002429201E+03  0.81067111496E+02 0.  0.
        -11    1    5    5    0    0 -0.52879140524E+02  0.17085345644E+02 -0.40613197340E+01  0.55718999060E+02  0.00000000000E+00 0.  1.
         12    1    5    5    0    0  0.25651840448E+02  0.34271282411E+02  0.11420213088E+02  0.44305292951E+02  0.00000000000E+00 0. -1.
        -13    1    3    3    0    0  0.60821838914E+01  0.30021356294E+02  0.40382447877E+02  0.50685470217E+02  0.00000000000E+00 0.  1.
         14    1    3    3    0    0  0.54972566004E+01  0.13001150849E+00 -0.35780768370E+02  0.36200830354E+02  0.00000000000E+00 0. -1.
          5    1    4    4  501    0 -0.76507316032E+02 -0.14926125598E+03 -0.74304649831E+02  0.18350902683E+03  0.47000000000E+01 0.  1.
         -5    1    4    4    0  501 -0.87782800012E+02 -0.13989944248E+03  0.49940712183E+02  0.17260891842E+03  0.47000000000E+01 0.  1.
          1    1    1    2  502    0  0.44336718911E+00  0.21520194500E+02  0.12681225680E+04  0.12683052325E+04  0.00000000000E+00 0. -1.
          1    1    1    2  503    0  0.17949460844E+03  0.18613250810E+03 -0.63106329272E+03  0.68198570693E+03  0.00000000000E+00 0. -1.
<mgrwt>
<rscale>  0 0.75847974E+02</rscale>
<asrwt>0</asrwt>
<pdfrwt beam="1">  1        2 0.22926290E+00 0.21524761E+02</pdfrwt>
<pdfrwt beam="2">  1        2 0.13740173E+00 0.26726964E+03</pdfrwt>
<totfact> 0.82079249E+01</totfact>
</mgrwt>
</event>
<event>
13    1  0.1675423E-008  0.6541282E+02  0.7546771E-02  0.1416767E+00
          2   -1    0    0  502    0  0.00000000000E+00  0.00000000000E+00  0.75313524556E+03  0.75313524556E+03  0.00000000000E+00 0. -1.
          2   -1    0    0  503    0 -0.00000000000E+00 -0.00000000000E+00 -0.99246401288E+03  0.99246401288E+03  0.00000000000E+00 0. -1.
         24    2    1    2    0    0 -0.58100536393E+01  0.71463855924E+02  0.63242985408E+02  0.12494264341E+03  0.80437239591E+02 0.  0.
         25    2    1    2    0    0 -0.12726075086E+03 -0.10659823035E+03 -0.21614188459E+02  0.20892789028E+03  0.12500083509E+03 0.  0.
         24    2    1    2    0    0  0.47185950015E+02 -0.18963257503E+02 -0.37677689299E+03  0.39033504828E+03  0.88399682199E+02 0.  0.
        -13    1    3    3    0    0 -0.32364638977E+02  0.39180588028E+02  0.20824359921E+01  0.50861821379E+02  0.00000000000E+00 0.  1.
         14    1    3    3    0    0  0.26554585338E+02  0.32283267896E+02  0.61160549415E+02  0.74080822035E+02  0.00000000000E+00 0. -1.
        -13    1    5    5    0    0  0.14389196288E+02  0.34701094988E+02 -0.17487114910E+03  0.17886065456E+03  0.00000000000E+00 0.  1.
         14    1    5    5    0    0  0.32796753727E+02 -0.53664352492E+02 -0.20190574389E+03  0.21147439372E+03  0.00000000000E+00 0. -1.
          5    1    4    4  501    0  0.19635035158E+02 -0.21437708832E+02 -0.25600129934E+02  0.39020079680E+02  0.47000000000E+01 0.  1.
         -5    1    4    4    0  501 -0.14689578602E+03 -0.85160521516E+02  0.39859414752E+01  0.16990781060E+03  0.47000000000E+01 0.  1.
          1    1    1    2  502    0  0.47420180356E+02  0.16139109573E+01  0.55530253041E+03  0.55732591766E+03  0.00000000000E+00 0. -1.
          1    1    1    2  503    0  0.38464674128E+02  0.52483720970E+02 -0.45948320169E+03  0.46406775880E+03  0.00000000000E+00 0. -1.
<mgrwt>
<rscale>  0 0.55710714E+02</rscale>
<asrwt>0</asrwt>
<pdfrwt beam="1">  1        2 0.11075518E+00 0.47447637E+02</pdfrwt>
<pdfrwt beam="2">  1        2 0.14595059E+00 0.65412820E+02</pdfrwt>
<totfact> 0.20189762E+02</totfact>
</mgrwt>
</event>
<event>
13    1  0.1675423E-008  0.4379188E+02  0.7546771E-02  0.1557743E+00
          2   -1    0    0  503    0  0.00000000000E+00  0.00000000000E+00  0.10248320208E+04  0.10248320208E+04  0.00000000000E+00 0. -1.
          2   -1    0    0  502    0 -0.00000000000E+00 -0.00000000000E+00 -0.23222885190E+03  0.23222885190E+03  0.00000000000E+00 0. -1.
         24    2    1    2    0    0  0.17862911422E+02 -0.29669172699E+02 -0.61511750489E+02  0.10945455662E+03  0.83649633013E+02 0.  0.
         25    2    1    2    0    0 -0.12046190352E+03  0.83486657846E+02  0.41947579574E+03  0.46157605061E+03  0.12494564838E+03 0.  0.
         24    2    1    2    0    0  0.55288030827E+02 -0.30533927818E+01 -0.28173246064E+02  0.10145899505E+03  0.80212881279E+02 0.  0.
        -11    1    5    5    0    0 -0.14639748008E+02  0.16666488649E+02 -0.17003698665E+02  0.27950310086E+02  0.00000000000E+00 0.  1.
         12    1    5    5    0    0  0.69927778835E+02 -0.19719881430E+02 -0.11169547399E+02  0.73508684967E+02  0.00000000000E+00 0. -1.
        -11    1    3    3    0    0 -0.10133491930E+02  0.54026537404E+01  0.16116083628E+02  0.19788998905E+02  0.00000000000E+00 0.  1.
         12    1    3    3    0    0  0.27996403352E+02 -0.35071826439E+02 -0.77627834117E+02  0.89665557713E+02  0.00000000000E+00 0. -1.
          5    1    4    4  501    0 -0.28264743187E+02  0.25704867103E+02  0.12793654210E+02  0.40563573416E+02  0.47000000000E+01 0. -1.
         -5    1    4    4    0  501 -0.92197160329E+02  0.57781790743E+02  0.40668214153E+03  0.42101247719E+03  0.47000000000E+01 0. -1.
          1    1    1    2  502    0  0.32100850432E+02 -0.29205049093E+02 -0.52764889120E+02  0.68319345832E+02  0.00000000000E+00 0. -1.
          1    1    1    2  503    0  0.15210110836E+02 -0.21559043273E+02  0.51557725887E+03  0.51625192463E+03  0.00000000000E+00 0. -1.
<mgrwt>
<rscale>  0 0.33991547E+02</rscale>
<asrwt>0</asrwt>
<pdfrwt beam="1">  1        2 0.15071059E+00 0.26384462E+02</pdfrwt>
<pdfrwt beam="2">  1        2 0.34151302E-01 0.43791883E+02</pdfrwt>
<totfact> 0.69311881E+02</totfact>
</mgrwt>
</event>
<event>
13    1  0.1675423E-008  0.2023454E+03  0.7546771E-02  0.1158631E+00
          2   -1    0    0  502    0  0.00000000000E+00  0.00000000000E+00  0.14229799754E+04  0.14229799754E+04  0.00000000000E+00 0. -1.
          2   -1    0    0  503    0 -0.00000000000E+00 -0.00000000000E+00 -0.36879269585E+03  0.36879269585E+03  0.00000000000E+00 0. -1.
         24    2    1    2    0    0  0.12821478957E+03  0.17579139058E+03  0.37889595124E+03  0.44523434844E+03  0.85614472506E+02 0.  0.
         25    2    1    2    0    0  0.11427472338E+02  0.23431502398E+02  0.75508155275E+02  0.14834249657E+03  0.12499756936E+03 0.  0.
         24    2    1    2    0    0 -0.19341451076E+02 -0.27247963720E+03 -0.11503460144E+03  0.30706696293E+03  0.80236623668E+02 0.  0.
        -11    1    5    5    0    0  0.31519013408E+02 -0.97266973800E+02 -0.42767678611E+02  0.11083044136E+03  0.00000000000E+00 0.  1.
         12    1    5    5    0    0 -0.50860464484E+02 -0.17521266340E+03 -0.72266922824E+02  0.19623652157E+03  0.00000000000E+00 0. -1.
        -11    1    3    3    0    0  0.77764037224E+02  0.96589959938E+02  0.29222049239E+03  0.31744240740E+03  0.00000000000E+00 0.  1.
         12    1    3    3    0    0  0.50450752341E+02  0.79201430644E+02  0.86675458849E+02  0.12779194104E+03  0.00000000000E+00 0. -1.
          5    1    4    4  501    0 -0.12353764498E+02  0.30303053472E+01 -0.32801376232E+02  0.35493922444E+02  0.47000000000E+01 0. -1.
         -5    1    4    4    0  501  0.23781236836E+02  0.20401197051E+02  0.10830953151E+03  0.11284857412E+03  0.47000000000E+01 0. -1.
          1    1    1    2  502    0 -0.15564608464E+03 -0.12929790969E+03  0.64178611625E+03  0.67292872738E+03  0.00000000000E+00 0. -1.
          1    1    1    2  503    0  0.35345273817E+02  0.20255465391E+03  0.73031658182E+02  0.21820013588E+03  0.00000000000E+00 0. -1.
<mgrwt>
<rscale>  0 0.18981243E+03</rscale>
<asrwt>0</asrwt>
<pdfrwt beam="1">  1        2 0.20926176E+00 0.20234538E+03</pdfrwt>
<pdfrwt beam="2">  1        2 0.54234220E-01 0.17805575E+03</pdfrwt>
<totfact> 0.23700377E+02</totfact>
</mgrwt>
</event>
<event>
13    1  0.1675423E-008  0.1773071E+03  0.7546771E-02  0.1285506E+00
          2   -1    0    0  503    0  0.00000000000E+00  0.00000000000E+00  0.10605688627E+04  0.10605688627E+04  0.00000000000E+00 0. -1.
          2   -1    0    0  502    0 -0.00000000000E+00 -0.00000000000E+00 -0.72795940953E+03  0.72795940953E+03  0.00000000000E+00 0. -1.
         24    2    1    2    0    0 -0.14456922914E+02  0.10963446757E+03  0.13140012943E+03  0.18979247330E+03  0.80786569464E+02 0.  0.
         25    2    1    2    0    0 -0.23339122893E+03  0.13299271293E+03 -0.15945857944E+03  0.33646816477E+03  0.12500103967E+03 0.  0.
         24    2    1    2    0    0  0.58291832952E+02 -0.25176129343E+01  0.12966049886E+03  0.16295909571E+03  0.79621264411E+02 0.  0.
        -13    1    5    5    0    0  0.35437382365E+02  0.30772462191E+02  0.10656084659E+03  0.11643868139E+03  0.00000000000E+00 0.  1.
         14    1    5    5    0    0  0.22854450586E+02 -0.33290075126E+02  0.23099652273E+02  0.46520414321E+02  0.00000000000E+00 0. -1.
        -13    1    3    3    0    0 -0.47578702937E+02  0.63488776516E+02  0.86608293214E+02  0.11745447701E+03  0.00000000000E+00 0.  1.
         14    1    3    3    0    0  0.33121780022E+02  0.46145691054E+02  0.44791836218E+02  0.72337996285E+02  0.00000000000E+00 0. -1.
          5    1    4    4  501    0 -0.12150463016E+03  0.15161488309E+02 -0.23990192630E+02  0.12486338623E+03  0.47000000000E+01 0.  1.
         -5    1    4    4    0  501 -0.11188659876E+03  0.11783122462E+03 -0.13546838681E+03  0.21160477854E+03  0.47000000000E+01 0.  1.
          1    1    1    2  502    0 -0.35604423894E+02 -0.40178249400E+02 -0.39817837773E+03  0.40178101898E+03  0.00000000000E+00 0. -1.
          1    1    1    2  503    0  0.22516074278E+03 -0.19993131816E+03  0.62918578204E+03  0.69752751945E+03  0.00000000000E+00 0. -1.
<mgrwt>
<rscale>  0 0.97563033E+02</rscale>
<asrwt>0</asrwt>
<pdfrwt beam="1">  1        2 0.15596601E+00 0.17730709E+03</pdfrwt>
<pdfrwt beam="2">  1        2 0.10705285E+00 0.53683952E+02</pdfrwt>
<totfact> 0.18202805E+02</totfact>
</mgrwt>
</event>
<event>
13    1  0.1675423E-008  0.8415992E+02  0.7546771E-02  0.1411588E+00
          2   -1    0    0  502    0  0.00000000000E+00  0.00000000000E+00  0.23323276218E+03  0.23323276218E+03  0.00000000000E+00 0. -1.
          2   -1    0    0  503    0 -0.00000000000E+00 -0.00000000000E+00 -0.26518413103E+04  0.26518413103E+04  0.00000000000E+00 0. -1.
         24    2    1    2    0    0 -0.17985010624E+02  0.18486095941E+03 -0.38608996069E+03  0.43592197031E+03  0.80408155902E+02 0.  0.
         25    2    1    2    0    0 -0.11594473220E+03 -0.16460832562E+03 -0.77411862542E+02  0.24931108854E+03  0.12499736245E+03 0.  0.
         24    2    1    2    0    0  0.85706175209E+02 -0.21527149998E+02 -0.28060100519E+03  0.30492267179E+03  0.80199407736E+02 0.  0.
        -11    1    3    3    0    0  0.14730935671E+02  0.10746080847E+03 -0.28204019080E+03  0.30217791952E+03  0.00000000000E+00 0.  1.
         12    1    3    3    0    0 -0.32715946295E+02  0.77400150933E+02 -0.10404976990E+03  0.13374405079E+03  0.00000000000E+00 0. -1.
        -13    1    5    5    0    0 -0.14528884225E+02 -0.66280776398E+01 -0.61207677401E+02  0.63256617542E+02  0.00000000000E+00 0.  1.
         14    1    5    5    0    0  0.10023505943E+03 -0.14899072358E+02 -0.21939332779E+03  0.24166605425E+03  0.00000000000E+00 0. -1.
          5    1    4    4  501    0 -0.12767515717E+03 -0.11921078710E+03 -0.95141400524E+02  0.19896264376E+03  0.47000000000E+01 0. -1.
         -5    1    4    4    0  501  0.11730424978E+02 -0.45397538522E+02  0.17729537983E+02  0.50348444773E+02  0.47000000000E+01 0. -1.
          1    1    1    2  502    0 -0.34971829277E+02  0.15835230336E+02  0.10583128281E+03  0.11257905570E+03  0.00000000000E+00 0. -1.
          1    1    1    2  503    0  0.83195396887E+02 -0.14560714125E+02 -0.17803370025E+04  0.17823392861E+04  0.00000000000E+00 0. -1.
<mgrwt>
<rscale>  0 0.56840915E+02</rscale>
<asrwt>0</asrwt>
<pdfrwt beam="1">  1        2 0.34298936E-01 0.38389886E+02</pdfrwt>
<pdfrwt beam="2">  1        2 0.38997666E+00 0.84159917E+02</pdfrwt>
<totfact> 0.10148162E+02</totfact>
</mgrwt>
</event>
<event>
13    1  0.1675423E-008  0.9774035E+02  0.7546771E-02  0.1356371E+00
          2   -1    0    0  503    0  0.00000000000E+00  0.00000000000E+00  0.10542068090E+04  0.10542068090E+04  0.00000000000E+00 0. -1.
          2   -1    0    0  502    0 -0.00000000000E+00 -0.00000000000E+00 -0.10533408616E+04  0.10533408616E+04  0.00000000000E+00 0. -1.
         24    2    1    2    0    0 -0.62802445492E+02 -0.16245858269E+02  0.14284107851E+03  0.17656514975E+03  0.81016068314E+02 0.  0.
         25    2    1    2    0    0  0.15519029425E+03  0.95739352311E+01  0.46757215725E+02  0.20491717547E+03  0.12501649456E+03 0.  0.
         24    2    1    2    0    0  0.59111602094E+01 -0.82218111870E+01 -0.38363925830E+03  0.39508187253E+03  0.93851294603E+02 0.  0.
        -11    1    5    5    0    0  0.33160892040E+02 -0.21167416852E+02 -0.72522660532E+02  0.82506003344E+02  0.00000000000E+00 0.  1.
         12    1    5    5    0    0 -0.27249731831E+02  0.12945605665E+02 -0.31111659777E+03  0.31257586919E+03  0.00000000000E+00 0. -1.
        -13    1    3    3    0    0  0.75596614038E+01  0.17252955360E+02  0.59746180518E+02  0.62645183659E+02  0.00000000000E+00 0.  1.
         14    1    3    3    0    0 -0.70362106896E+02 -0.33498813629E+02  0.83094897989E+02  0.11391996609E+03  0.00000000000E+00 0. -1.
          5    1    4    4  501    0  0.11716568073E+03  0.55432781244E+02  0.61234613333E+02  0.14343067261E+03  0.47000000000E+01 0. -1.
         -5    1    4    4    0  501  0.38024613527E+02 -0.45858846013E+02 -0.14477397609E+02  0.61486502853E+02  0.47000000000E+01 0. -1.
          1    1    1    2  502    0 -0.97097882326E+02 -0.36822077987E+02 -0.56240244568E+03  0.57190941161E+03  0.00000000000E+00 0. -1.
          1    1    1    2  503    0 -0.12011266442E+01  0.51715812212E+02  0.75730935723E+03  0.75907406126E+03  0.00000000000E+00 0. -1.
<mgrwt>
<rscale>  0 0.71106153E+02</rscale>
<asrwt>0</asrwt>
<pdfrwt beam="1">  1        2 0.15503041E+00 0.51729759E+02</pdfrwt>
<pdfrwt beam="2">  1        2 0.15490307E+00 0.97740354E+02</pdfrwt>
<totfact> 0.12091400E+02</totfact>
</mgrwt>
</event>
<event>
13    1  0.1675423E-008  0.1134518E+03  0.7546771E-02  0.1396883E+00
         -1   -1    0    0    0  501  0.00000000000E+00  0.00000000000E+00  0.81167866244E+03  0.81167866244E+03  0.00000000000E+00 0.  1.
         -1   -1    0    0    0  502 -0.00000000000E+00 -0.00000000000E+00 -0.40147239366E+03  0.40147239366E+03  0.00000000000E+00 0.  1.
         24    2    1    2    0    0  0.13464118241E+03  0.58706547401E+02  0.40054266278E+03  0.43407811886E+03  0.80091709027E+02 0.  0.
         25    2    1    2    0    0 -0.23740324212E+02  0.78078751922E+02  0.18168041951E+02  0.15038496003E+03  0.12500265581E+03 0.  0.
         24    2    1    2    0    0  0.48848489726E+01 -0.64157920702E+02  0.14974896738E+03  0.18185908269E+03  0.80671383935E+02 0.  0.
        -11    1    3    3    0    0  0.86258576827E+02  0.71409373942E+02  0.22176613333E+03  0.24843522024E+03  0.00000000000E+00 0.  1.
         12    1    3    3    0    0  0.48382605579E+02 -0.12702826541E+02  0.17877652945E+03  0.18564289861E+03  0.00000000000E+00 0. -1.
        -13    1    5    5    0    0 -0.32011093405E+02 -0.38717931198E+02  0.43158526120E+02  0.66230254975E+02  0.00000000000E+00 0.  1.
         14    1    5    5    0    0  0.36895942378E+02 -0.25439989504E+02  0.10659044126E+03  0.11562882771E+03  0.00000000000E+00 0. -1.
          5    1    4    4  503    0  0.27742935616E+02  0.76694808508E+02  0.43768279400E+02  0.92679643991E+02  0.47000000000E+01 0. -1.
         -5    1    4    4    0  503 -0.51483259828E+02  0.13839434142E+01 -0.25600237449E+02  0.57705316041E+02  0.47000000000E+01 0. -1.
         -2    1    1    2    0  501 -0.83841244818E+02 -0.71305871943E+02  0.12225763923E+03  0.16450170837E+03  0.00000000000E+00 0.  1.
         -2    1    1    2    0  502 -0.31944462349E+02 -0.13215066787E+01 -0.28051104255E+03  0.28232718617E+03  0.00000000000E+00 0.  1.
<mgrwt>
<rscale>  0 0.60226713E+02</rscale>
<asrwt>0</asrwt>
<pdfrwt beam="1">  1       -1 0.11936451E+00 0.11345181E+03</pdfrwt>
<pdfrwt beam="2">  1       -1 0.59040058E-01 0.31971785E+02</pdfrwt>
<totfact> 0.18452119E+01</totfact>
</mgrwt>
</event>
<event>
13    1  0.1675423E-008  0.1059801E+03  0.7546771E-02  0.1282250E+00
          2   -1    0    0  503    0  0.00000000000E+00  0.00000000000E+00  0.18284302194E+04  0.18284302194E+04  0.00000000000E+00 0. -1.
          2   -1    0    0  502    0 -0.00000000000E+00 -0.00000000000E+00 -0.64581984187E+03  0.64581984187E+03  0.00000000000E+00 0. -1.
         24    2    1    2    0    0  0.20174741468E+03  0.44790770935E+02  0.21857096136E+03  0.31106345845E+03  0.79239999633E+02 0.  0.
         25    2    1    2    0    0  0.62068802111E+02 -0.18056973726E+03  0.49476969614E+03  0.54487560266E+03  0.12503761012E+03 0.  0.
         24    2    1    2    0    0 -0.18903647007E+03  0.26896354026E+03 -0.47106642999E+03  0.57996434931E+03  0.79867966058E+02 0.  0.
        -11    1    3    3    0    0  0.11051624405E+03  0.57823786577E+02  0.94373604468E+02  0.15640910368E+03  0.00000000000E+00 0.  1.
         12    1    3    3    0    0  0.91231170633E+02 -0.13033015641E+02  0.12419735689E+03  0.15465435477E+03  0.00000000000E+00 0. -1.
        -13    1    5    5    0    0 -0.14286032480E+03  0.13729144362E+03 -0.25867411753E+03  0.32583786148E+03  0.00000000000E+00 0.  1.
         14    1    5    5    0    0 -0.46176145270E+02  0.13167209664E+03 -0.21239231245E+03  0.25412648783E+03  0.00000000000E+00 0. -1.
          5    1    4    4  501    0 -0.12701348719E+02 -0.14409879511E+03  0.30346754005E+03  0.33621484928E+03  0.47000000000E+01 0.  1.
         -5    1    4    4    0  501  0.74770150830E+02 -0.36470942144E+02  0.19130215609E+03  0.20866075338E+03  0.47000000000E+01 0.  1.
          1    1    1    2  502    0  0.21908424091E+02 -0.89993874937E+02  0.56094397591E+00  0.92623923640E+02  0.00000000000E+00 0. -1.
          1    1    1    2  503    0 -0.96688170811E+02 -0.43190699006E+02  0.93977520609E+03  0.94572272725E+03  0.00000000000E+00 0. -1.
<mgrwt>
<rscale>  0 0.99076310E+02</rscale>
<asrwt>0</asrwt>
<pdfrwt beam="1">  1        2 0.26888680E+00 0.10598013E+03</pdfrwt>
<pdfrwt beam="2">  1        2 0.94973507E-01 0.92622225E+02</pdfrwt>
<totfact> 0.85903701E+01</totfact>
</mgrwt>
</event>
<event>
13    1  0.1675423E-008  0.1538203E+03  0.7546771E-02  0.1321856E+00
          2   -1    0    0  503    0  0.00000000000E+00  0.00000000000E+00  0.32833743257E+03  0.32833743257E+03  0.00000000000E+00 0. -1.
          2   -1    0    0  502    0 -0.00000000000E+00 -0.00000000000E+00 -0.23515090475E+04  0.23515090475E+04  0.00000000000E+00 0. -1.
         24    2    1    2    0    0  0.25363032019E+02 -0.13799192093E+03 -0.47139564014E+02  0.16812355894E+03  0.79739193251E+02 0.  0.
         25    2    1    2    0    0 -0.11207879575E+01  0.33828672650E+01 -0.10941751897E+04  0.11012968708E+04  0.12499100768E+03 0.  0.
         24    2    1    2    0    0 -0.22127042145E+02  0.23437512083E+02 -0.23211132118E+03  0.24886402416E+03  0.83777766362E+02 0.  0.
        -11    1    3    3    0    0  0.52774133084E+02 -0.11093944092E+03 -0.34908561785E+02  0.12771560735E+03  0.00000000000E+00 0.  1.
         12    1    3    3    0    0 -0.27411101065E+02 -0.27052480004E+02 -0.12231002229E+02  0.40407951588E+02  0.00000000000E+00 0. -1.
        -11    1    5    5    0    0 -0.36593711430E+02 -0.15377563206E+02 -0.16731168752E+03  0.17195572089E+03  0.00000000000E+00 0.  1.
         12    1    5    5    0    0  0.14466669285E+02  0.38815075290E+02 -0.64799633659E+02  0.76908303273E+02  0.00000000000E+00 0. -1.
          5    1    4    4  501    0  0.48991818645E+02 -0.35328707027E+02 -0.46634284949E+03  0.47026169215E+03  0.47000000000E+01 0.  1.
         -5    1    4    4    0  501 -0.50112606602E+02  0.38711574292E+02 -0.62783234019E+03  0.63103517867E+03  0.47000000000E+01 0.  1.
          1    1    1    2  502    0 -0.16066664469E+01  0.15551411778E+03 -0.89698977664E+03  0.91037238622E+03  0.00000000000E+00 0. -1.
          1    1    1    2  503    0 -0.50853546883E+00 -0.44342576205E+02  0.24724423659E+03  0.25118963992E+03  0.00000000000E+00 0. -1.
<mgrwt>
<rscale>  0 0.82590768E+02</rscale>
<asrwt>0</asrwt>
<pdfrwt beam="1">  1        2 0.48284917E-01 0.44345492E+02</pdfrwt>
<pdfrwt beam="2">  1        2 0.34581015E+00 0.15382026E+03</pdfrwt>
<totfact> 0.94043333E+01</totfact>
</mgrwt>
</event>
<event>
13    1  0.1675423E-008  0.4836723E+02  0.7546771E-02  0.1582745E+00
          2   -1    0    0  503    0  0.00000000000E+00  0.00000000000E+00  0.13153393842E+04  0.13153393842E+04  0.00000000000E+00 0. -1.
          2   -1    0    0  502    0 -0.00000000000E+00 -0.00000000000E+00 -0.61055582844E+03  0.61055582844E+03  0.00000000000E+00 0. -1.
         24    2    1    2    0    0 -0.20456273657E+02 -0.33052347046E+02  0.17366232919E+03  0.19510415157E+03  0.79975675058E+02 0.  0.
         25    2    1    2    0    0 -0.11645809933E+03 -0.67508933938E+02 -0.31206865545E+03  0.36211988018E+03  0.12499606732E+03 0.  0.
         24    2    1    2    0    0  0.10357355323E+03  0.68791085511E+02 -0.17166768613E+03  0.22751506552E+03  0.82665689385E+02 0.  0.
        -13    1    3    3    0    0  0.26431900016E+02  0.68186273318E+01  0.49694884147E+02  0.56698505514E+02  0.00000000000E+00 0.  1.
         14    1    3    3    0    0 -0.46888173673E+02 -0.39870974378E+02  0.12396744505E+03  0.13840564605E+03  0.00000000000E+00 0. -1.
        -13    1    5    5    0    0  0.56243989808E+02  0.66940903233E+02 -0.59503192759E+02  0.10575963721E+03  0.00000000000E+00 0.  1.
         14    1    5    5    0    0  0.47329563426E+02  0.18501822775E+01 -0.11216449337E+03  0.12175542830E+03  0.00000000000E+00 0. -1.
          5    1    4    4  501    0 -0.11400703766E+03 -0.26908983915E+02 -0.12808910414E+03  0.17363930042E+03  0.47000000000E+01 0.  1.
         -5    1    4    4    0  501 -0.24510616675E+01 -0.40599950023E+02 -0.18397955131E+03  0.18848057975E+03  0.47000000000E+01 0.  1.
          1    1    1    2  502    0 -0.12456570351E+02  0.16193981178E+02 -0.60938936434E+02  0.64272584707E+02  0.00000000000E+00 0. -1.
          1    1    1    2  503    0  0.45797390103E+02  0.15576214295E+02  0.10757965046E+04  0.10768835307E+04  0.00000000000E+00 0. -1.
<mgrwt>
<rscale>  0 0.31435227E+02</rscale>
<asrwt>0</asrwt>
<pdfrwt beam="1">  1        2 0.19343226E+00 0.48367225E+02</pdfrwt>
<pdfrwt beam="2">  1        2 0.89787622E-01 0.20430643E+02</pdfrwt>
<totfact> 0.17818712E+02</totfact>
</mgrwt>
</event>
<event>
13    1  0.1675423E-008  0.1085413E+03  0.7546771E-02  0.1345661E+00
          2   -1    0    0  503    0  0.00000000000E+00  0.00000000000E+00  0.70886630182E+03  0.70886630182E+03  0.00000000000E+00 0. -1.
          2   -1    0    0  502    0 -0.00000000000E+00 -0.00000000000E+00 -0.21085462583E+04  0.21085462583E+04  0.00000000000E+00 0. -1.
         24    2    1    2    0    0  0.18489702338E+03  0.59839419857E+02 -0.22151476804E+03  0.30537887172E+03  0.80123638276E+02 0.  0.
         25    2    1    2    0    0 -0.10500547679E+03 -0.15290400331E+03 -0.10796275393E+03  0.24837317468E+03  0.12500997271E+03 0.  0.
         24    2    1    2    0    0  0.46064483548E+02 -0.30317419567E+01 -0.55037390272E+02  0.96043634739E+02  0.63750586994E+02 0.  0.
        -11    1    3    3    0    0  0.76342325814E+02 -0.93760687453E+01 -0.11465738976E+03  0.13806657235E+03  0.00000000000E+00 0.  1.
         12    1    3    3    0    0  0.10855469757E+03  0.69215488602E+02 -0.10685737829E+03  0.16731229937E+03  0.00000000000E+00 0. -1.
        -13    1    5    5    0    0  0.51969157329E+02  0.13666077613E+02 -0.21037490340E+02  0.57707287153E+02  0.00000000000E+00 0.  1.
         14    1    5    5    0    0 -0.59046737805E+01 -0.16697819569E+02 -0.33999899932E+02  0.38336347586E+02  0.00000000000E+00 0. -1.
          5    1    4    4  501    0  0.67161565612E+01 -0.62468319803E+02 -0.80059411993E+02  0.10187736347E+03  0.47000000000E+01 0. -1.
         -5    1    4    4    0  501 -0.11172163335E+03 -0.90435683512E+02 -0.27903341934E+02  0.14649581121E+03  0.47000000000E+01 0. -1.
          1    1    1    2  502    0 -0.34870450541E+02  0.37259865578E+02 -0.15858754609E+04  0.15866963237E+04  0.00000000000E+00 0. -1.
          1    1    1    2  503    0 -0.91085579597E+02  0.58836459837E+02  0.57071041672E+03  0.58092055530E+03  0.00000000000E+00 0. -1.
<mgrwt>
<rscale>  0 0.74424844E+02</rscale>
<asrwt>0</asrwt>
<pdfrwt beam="1">  1        2 0.10424504E+00 0.10854126E+03</pdfrwt>
<pdfrwt beam="2">  1        2 0.31008033E+00 0.51031813E+02</pdfrwt>
<totfact> 0.61180447E+01</totfact>
</mgrwt>
</event>
<event>
13    1  0.1675423E-008  0.7233297E+02  0.7546771E-02  0.1510703E+00
          2   -1    0    0  502    0  0.00000000000E+00  0.00000000000E+00  0.63594439190E+03  0.63594439190E+03  0.00000000000E+00 0. -1.
          2   -1    0    0  503    0 -0.00000000000E+00 -0.00000000000E+00 -0.12589143265E+04  0.12589143265E+04  0.00000000000E+00 0. -1.
         24    2    1    2    0    0  0.58805167210E+02  0.61173730041E+02 -0.21231882110E+03  0.24238251607E+03  0.80434627913E+02 0.  0.
         25    2    1    2    0    0 -0.98863352676E+02 -0.73665985055E+02  0.23715860227E+03  0.29507539444E+03  0.12499858366E+03 0.  0.
         24    2    1    2    0    0 -0.14932203092E+02 -0.16041719632E+00 -0.53452794069E+02  0.97451546850E+02  0.80103722553E+02 0.  0.
        -11    1    5    5    0    0  0.18670744791E+02 -0.15475556725E+02  0.81879003384E+01  0.25595532403E+02  0.00000000000E+00 0.  1.
         12    1    5    5    0    0 -0.33602947883E+02  0.15315139529E+02 -0.61640694407E+02  0.71856014447E+02  0.00000000000E+00 0. -1.
        -13    1    3    3    0    0  0.48473963264E+02  0.41533851574E+02 -0.21067142758E+03  0.22013004415E+03  0.00000000000E+00 0.  1.
         14    1    3    3    0    0  0.10331203947E+02  0.19639878466E+02 -0.16473935214E+01  0.22252471921E+02  0.00000000000E+00 0. -1.
          5    1    4    4  501    0 -0.29744923701E+02  0.21995108457E+02  0.93148306627E+01  0.38436978970E+02  0.47000000000E+01 0. -1.
         -5    1    4    4    0  501 -0.69118428974E+02 -0.95661093512E+02  0.22784377161E+03  0.25663841547E+03  0.47000000000E+01 0. -1.
          1    1    1    2  502    0 -0.17422860664E+02  0.13018268353E+02  0.33102480689E+03  0.33173853283E+03  0.00000000000E+00 0. -1.
          1    1    1    2  503    0  0.72413249222E+02 -0.36559614258E+00 -0.92538172860E+03  0.92821072820E+03  0.00000000000E+00 0. -1.
<mgrwt>
<rscale>  0 0.39663465E+02</rscale>
<asrwt>0</asrwt>
<pdfrwt beam="1">  1        2 0.93521234E-01 0.21749285E+02</pdfrwt>
<pdfrwt beam="2">  1        2 0.18513446E+00 0.72332975E+02</pdfrwt>
<totfact> 0.17722914E+02</totfact>
</mgrwt>
</event>
<event>
13    1  0.1675423E-008  0.9819814E+02  0.7546771E-02  0.1362100E+00
          2   -1    0    0  503    0  0.00000000000E+00  0.00000000000E+00  0.10729766829E+03  0.10729766829E+03  0.00000000000E+00 0. -1.
          2   -1    0    0  502    0 -0.00000000000E+00 -0.00000000000E+00 -0.14734650244E+04  0.14734650244E+04  0.00000000000E+00 0. -1.
         24    2    1    2    0    0  0.46794644793E+02 -0.33574635421E+02 -0.23611885391E+02  0.93675765179E+02  0.70004520749E+02 0.  0.
         25    2    1    2    0    0  0.51622730504E+02  0.60162145895E+02 -0.26025329765E+03  0.29940158368E+03  0.12500055709E+03 0.  0.
         24    2    1    2    0    0 -0.39946075941E+02  0.26335709347E+02 -0.18186730542E+03  0.20521060340E+03  0.82136571627E+02 0.  0.
        -11    1    3    3    0    0  0.54453189332E+02 -0.46652474407E+02 -0.83872178426E+01  0.72193826743E+02  0.00000000000E+00 0.  1.
         12    1    3    3    0    0 -0.76585445396E+01  0.13077838986E+02 -0.15224667548E+02  0.21481938436E+02  0.00000000000E+00 0. -1.
        -13    1    5    5    0    0 -0.14122677470E+02 -0.21570245026E+02 -0.15305312208E+02  0.29982963016E+02  0.00000000000E+00 0.  1.
         14    1    5    5    0    0 -0.25823398471E+02  0.47905954373E+02 -0.16656199321E+03  0.17522764039E+03  0.00000000000E+00 0. -1.
          5    1    4    4  501    0  0.90559154931E+02  0.35809629316E+02 -0.20774625979E+03  0.22948614021E+03  0.47000000000E+01 0. -1.
         -5    1    4    4    0  501 -0.38936424428E+02  0.24352516580E+02 -0.52507037859E+02  0.69915443471E+02  0.47000000000E+01 0. -1.
          1    1    1    2  502    0 -0.85663735683E+00  0.49058572939E+02 -0.85567814101E+03  0.85708375227E+03  0.00000000000E+00 0. -1.
          1    1    1    2  503    0 -0.57614661998E+02 -0.10198179276E+03 -0.44756726659E+02  0.12539098817E+03  0.00000000000E+00 0. -1.
<mgrwt>
<rscale>  0 0.69413218E+02</rscale>
<asrwt>0</asrwt>
<pdfrwt beam="1">  1        2 0.15779069E-01 0.98198138E+02</pdfrwt>
<pdfrwt beam="2">  1        2 0.21668604E+00 0.49066051E+02</pdfrwt>
<totfact> 0.94741291E+02</totfact>
</mgrwt>
</event>
<event>
13    1  0.1675423E-008  0.7209210E+02  0.7546771E-02  0.1406139E+00
          2   -1    0    0  502    0  0.00000000000E+00  0.00000000000E+00  0.15172666147E+04  0.15172666147E+04  0.00000000000E+00 0. -1.
          2   -1    0    0  503    0 -0.00000000000E+00 -0.00000000000E+00 -0.70929164738E+03  0.70929164738E+03  0.00000000000E+00 0. -1.
         24    2    1    2    0    0  0.11683666946E+02  0.28926011659E+02  0.45204485726E+02  0.97552667048E+02  0.80621678813E+02 0.  0.
         25    2    1    2    0    0 -0.10339425802E+03 -0.45229837859E+02  0.77832550177E+03  0.79633641110E+03  0.12499992848E+03 0.  0.
         24    2    1    2    0    0  0.76119430475E+02 -0.35617917685E+02  0.14379145112E+03  0.18636799326E+03  0.83631595358E+02 0.  0.
        -11    1    5    5    0    0  0.91933628962E+02 -0.23856811222E+02  0.13430501781E+03  0.16449552390E+03  0.00000000000E+00 0.  1.
         12    1    5    5    0    0 -0.15814198487E+02 -0.11761106462E+02  0.94864333149E+01  0.21872469363E+02  0.00000000000E+00 0. -1.
        -13    1    3    3    0    0 -0.31819316839E+02  0.84699515274E+01  0.35668955716E+02  0.48543623731E+02  0.00000000000E+00 0.  1.
         14    1    3    3    0    0  0.43502983785E+02  0.20456060132E+02  0.95355300095E+01  0.49009043317E+02  0.00000000000E+00 0. -1.
          5    1    4    4  501    0 -0.11597620999E+03 -0.20593481149E+02  0.73710402362E+03  0.74647103386E+03  0.47000000000E+01 0.  1.
         -5    1    4    4    0  501  0.12581951967E+02 -0.24636356710E+02  0.41221478147E+02  0.49865377246E+02  0.47000000000E+01 0.  1.
          1    1    1    2  502    0  0.44572649709E+02 -0.14154023417E+02  0.49036785061E+03  0.49259282008E+03  0.00000000000E+00 0. -1.
          1    1    1    2  503    0 -0.28981489110E+02  0.66075767301E+02 -0.64971432188E+03  0.65370837060E+03  0.00000000000E+00 0. -1.
<mgrwt>
<rscale>  0 0.58064259E+02</rscale>
<asrwt>0</asrwt>
<pdfrwt beam="1">  1        2 0.22312744E+00 0.46765986E+02</pdfrwt>
<pdfrwt beam="2">  1        2 0.10430759E+00 0.72092099E+02</pdfrwt>
<totfact> 0.11781914E+02</totfact>
</mgrwt>
</event>
<event>
13    1  0.1675423E-008  0.1290327E+03  0.7546771E-02  0.1286416E+00
          2   -1    0    0  503    0  0.00000000000E+00  0.00000000000E+00  0.21704606490E+04  0.21704606490E+04  0.00000000000E+00 0. -1.
         -3   -1    0    0    0  501 -0.00000000000E+00 -0.00000000000E+00 -0.30440317599E+03  0.30440317599E+03  0.00000000000E+00 0.  1.
         24    2    1    2    0    0 -0.10993841545E+03  0.36601908889E+02  0.66959392994E+00  0.14196300540E+03  0.82017629943E+02 0.  0.
         25    2    1    2    0    0  0.43018734707E+02 -0.12164471213E+03  0.34515971218E+03  0.38911370329E+03  0.12500479851E+03 0.  0.
         24    2    1    2    0    0  0.93412993845E+02  0.11082518930E+02  0.17550229434E+03  0.21501002751E+03  0.81113790242E+02 0.  0.
        -13    1    3    3    0    0 -0.10869830788E+02 -0.22412947725E+02 -0.84123285732E+01  0.26291837499E+02  0.00000000000E+00 0.  1.
         14    1    3    3    0    0 -0.99068584662E+02  0.59014856614E+02  0.90819225031E+01  0.11567116790E+03  0.00000000000E+00 0. -1.
        -13    1    5    5    0    0  0.10563280670E+03  0.15424406396E+02  0.17039195611E+03  0.20107118359E+03  0.00000000000E+00 0.  1.
         14    1    5    5    0    0 -0.12219812855E+02 -0.43418874658E+01  0.51103382268E+01  0.13938843918E+02  0.00000000000E+00 0. -1.
          5    1    4    4  502    0 -0.27840645301E+02 -0.28502018551E+02  0.19283378173E+03  0.19696300152E+03  0.47000000000E+01 0. -1.
         -5    1    4    4    0  502  0.70859380008E+02 -0.93142693578E+02  0.15232593046E+03  0.19215070177E+03  0.47000000000E+01 0. -1.
          1    1    1    2  503    0  0.72041734891E+02 -0.12617735099E+02  0.15133656029E+04  0.15151318975E+04  0.00000000000E+00 0. -1.
         -4    1    1    2    0  501 -0.98535047994E+02  0.86578019410E+02 -0.16863973031E+03  0.21364519130E+03  0.00000000000E+00 0.  1.
<mgrwt>
<rscale>  0 0.97145438E+02</rscale>
<asrwt>0</asrwt>
<pdfrwt beam="1">  1        2 0.31918538E+00 0.73138354E+02</pdfrwt>
<pdfrwt beam="2">  1       -3 0.44765174E-01 0.12903266E+03</pdfrwt>
<totfact> 0.23683659E+01</totfact>
</mgrwt>
</event>
<event>
13    1  0.1675423E-008  0.6144139E+02  0.7546771E-02  0.1462630E+00
          2   -1    0    0  503    0  0.00000000000E+00  0.00000000000E+00  0.16357534191E+04  0.16357534191E+04  0.00000000000E+00 0. -1.
         -1   -1    0    0    0  501 -0.00000000000E+00 -0.00000000000E+00 -0.24787099288E+03  0.24787099288E+03  0.00000000000E+00 0.  1.
         24    2    1    2    0    0  0.58130632819E+02  0.56890547825E+02  0.27736471889E+03  0.30093606914E+03  0.83759330954E+02 0.  0.
         25    2    1    2    0    0 -0.91639271477E+02 -0.16031712514E+03 -0.21581022115E+02  0.22403145193E+03  0.12500005700E+03 0.  0.
         24    2    1    2    0    0  0.33970783187E+00  0.18002780289E+02  0.11735006261E+03  0.13313190617E+03  0.60239951412E+02 0.  0.
        -11    1    5    5    0    0  0.10144421267E+02  0.36002100482E+02  0.48214992726E+02  0.61022504419E+02  0.00000000000E+00 0.  1.
         12    1    5    5    0    0 -0.98047134349E+01 -0.17999320193E+02  0.69135069882E+02  0.72109401749E+02  0.00000000000E+00 0. -1.
        -13    1    3    3    0    0 -0.20075014024E+02  0.28244248836E+01  0.33027806504E+02  0.38753316844E+02  0.00000000000E+00 0.  1.
         14    1    3    3    0    0  0.78205646843E+02  0.54066122942E+02  0.24433691238E+03  0.26218275229E+03  0.00000000000E+00 0. -1.
          5    1    4    4  502    0 -0.11537525320E+03 -0.15560091149E+03 -0.33514468771E+02  0.19664282932E+03  0.47000000000E+01 0.  1.
         -5    1    4    4    0  502  0.23735981721E+02 -0.47162136525E+01  0.11933446655E+02  0.27388622611E+02  0.47000000000E+01 0.  1.
          1    1    1    2  503    0  0.35880756922E+02  0.49677822472E+02  0.11162233151E+04  0.11179042016E+04  0.00000000000E+00 0. -1.
         -2    1    1    2    0  501 -0.27118260951E+01  0.35745974553E+02 -0.10147464833E+03  0.10762078308E+03  0.00000000000E+00 0.  1.
<mgrwt>
<rscale>  0 0.46931795E+02</rscale>
<asrwt>0</asrwt>
<pdfrwt beam="1">  1        2 0.24055197E+00 0.61441387E+02</pdfrwt>
<pdfrwt beam="2">  1       -1 0.36451617E-01 0.35848692E+02</pdfrwt>
<totfact> 0.11736301E+02</totfact>
</mgrwt>
</event>
<event>
13    1  0.1675423E-008  0.6914818E+02  0.7546771E-02  0.1438395E+00
          2   -1    0    0  503    0  0.00000000000E+00  0.00000000000E+00  0.31374824497E+04  0.31374824497E+04  0.00000000000E+00 0. -1.
          2   -1    0    0  502    0 -0.00000000000E+00 -0.00000000000E+00 -0.23724293347E+04  0.23724293347E+04  0.00000000000E+00 0. -1.
         24    2    1    2    0    0  0.44999361342E+02  0.11401999353E+03  0.53922663979E+03  0.55923945389E+03  0.83414005295E+02 0.  0.
         25    2    1    2    0    0  0.57206752502E+02 -0.16803815459E+03 -0.16879726791E+03  0.27500334762E+03  0.12499955846E+03 0.  0.
         24    2    1    2    0    0 -0.84266711936E+02 -0.21886929746E+02  0.33747050312E+03  0.35794143893E+03  0.81583189398E+02 0.  0.
        -11    1    3    3    0    0  0.64053286955E+00  0.10120068256E+03  0.39750362291E+03  0.41018424965E+03  0.00000000000E+00 0.  1.
         12    1    3    3    0    0  0.44358828472E+02  0.12819310969E+02  0.14172301688E+03  0.14905520424E+03  0.00000000000E+00 0. -1.
        -13    1    5    5    0    0 -0.71977201816E+02  0.16087194678E+01  0.31518908360E+03  0.32330707382E+03  0.00000000000E+00 0.  1.
         14    1    5    5    0    0 -0.12289510121E+02 -0.23495649213E+02  0.22281419523E+02  0.34634365115E+02  0.00000000000E+00 0. -1.
          5    1    4    4  501    0  0.38196610878E+01 -0.24329626653E+02  0.19774560942E+02  0.31931861899E+02  0.47000000000E+01 0. -1.
         -5    1    4    4    0  501  0.53387091415E+02 -0.14370852794E+03 -0.18857182885E+03  0.24307148572E+03  0.47000000000E+01 0. -1.
          1    1    1    2  502    0 -0.46720643972E+02  0.50977825397E+02 -0.21295602380E+04  0.21306826053E+04  0.00000000000E+00 0. -1.
          1    1    1    2  503    0  0.28781242063E+02  0.24927265416E+02  0.21867134780E+04  0.21870449386E+04  0.00000000000E+00 0. -1.
<mgrwt>
<rscale>  0 0.51311184E+02</rscale>
<asrwt>0</asrwt>
<pdfrwt beam="1">  1        2 0.46139448E+00 0.38075300E+02</pdfrwt>
<pdfrwt beam="2">  1        2 0.34888666E+00 0.69148178E+02</pdfrwt>
<totfact> 0.28409124E+00</totfact>
</mgrwt>
</event>
<event>
13    1  0.1675423E-008  0.6232269E+02  0.7546771E-02  0.1493275E+00
         -3   -1    0    0    0  501 -0.00000000000E+00  0.00000000000E+00  0.13686714989E+03  0.13686714989E+03  0.00000000000E+00 0.  1.
          2   -1    0    0  503    0  0.00000000000E+00 -0.00000000000E+00 -0.34489814947E+04  0.34489814947E+04  0.00000000000E+00 0. -1.
         24    2    1    2    0    0  0.74151880812E+02  0.18720727639E+03 -0.27562349803E+04  0.27647186348E+04  0.79327152921E+02 0.  0.
         25    2    1    2    0    0 -0.10085781978E+03 -0.18608936359E+03 -0.76742731583E+02  0.25751960247E+03  0.12500139101E+03 0.  0.
         24    2    1    2    0    0 -0.52501726400E+02 -0.19110162124E+02 -0.24288504655E+03  0.26214067100E+03  0.81258574824E+02 0.  0.
        -11    1    3    3    0    0 -0.15593104930E+02  0.47761863240E+02 -0.70962032693E+03  0.71139675912E+03  0.00000000000E+00 0.  1.
         12    1    3    3    0    0  0.89744985742E+02  0.13944541315E+03 -0.20466146534E+04  0.20533218757E+04  0.00000000000E+00 0. -1.
        -13    1    5    5    0    0 -0.61751466571E+02 -0.40813068551E+02 -0.19892666845E+03  0.21225166574E+03  0.00000000000E+00 0.  1.
         14    1    5    5    0    0  0.92497401708E+01  0.21702906427E+02 -0.43958378098E+02  0.49889005258E+02  0.00000000000E+00 0. -1.
          5    1    4    4  502    0  0.14814237152E+02 -0.88938819267E+02 -0.55404256702E+01  0.90456406692E+02  0.47000000000E+01 0. -1.
         -5    1    4    4    0  502 -0.11567205693E+03 -0.97150544325E+02 -0.71202305913E+02  0.16706319578E+03  0.47000000000E+01 0. -1.
          1    1    1    2  503    0  0.25303398256E+02 -0.12994073438E+02 -0.23758301470E+03  0.23927974586E+03  0.00000000000E+00 0. -1.
         -4    1    1    2    0  501  0.53904267110E+02  0.30986322762E+02  0.13314283399E+01  0.62189990452E+02  0.00000000000E+00 0.  1.
<mgrwt>
<rscale>  0 0.42104130E+02</rscale>
<asrwt>0</asrwt>
<pdfrwt beam="2">  1        2 0.50720315E+00 0.28444822E+02</pdfrwt>
<pdfrwt beam="1">  1       -3 0.20127523E-01 0.62322689E+02</pdfrwt>
<totfact> 0.25690254E+01</totfact>
</mgrwt>
</event>
<event>
13    1  0.1675423E-008  0.1388781E+03  0.7546771E-02  0.1370474E+00
          2   -1    0    0  502    0  0.00000000000E+00  0.00000000000E+00  0.11677451117E+04  0.11677451117E+04  0.00000000000E+00 0. -1.
          2   -1    0    0  503    0 -0.00000000000E+00 -0.00000000000E+00 -0.18671814012E+04  0.18671814012E+04  0.00000000000E+00 0. -1.
         24    2    1    2    0    0 -0.87186908801E+02  0.64020166213E+02  0.13906893320E+03  0.19520365103E+03  0.84048548136E+02 0.  0.
         25    2    1    2    0    0  0.24998197452E+03 -0.29353849986E+02 -0.67680278301E+03  0.73283124641E+03  0.12500796986E+03 0.  0.
         24    2    1    2    0    0  0.22201711372E+02  0.58939944037E+00  0.31523632859E+02  0.11473722541E+03  0.10806307457E+03 0.  0.
        -11    1    3    3    0    0  0.86768251410E+01  0.21325482032E+02  0.27747521613E+01  0.23189711684E+02  0.00000000000E+00 0.  1.
         12    1    3    3    0    0 -0.95863733942E+02  0.42694684181E+02  0.13629418104E+03  0.17201393934E+03  0.00000000000E+00 0. -1.
        -11    1    5    5    0    0  0.62475744438E+02  0.70863265319E+01 -0.49420205493E+00  0.62878286415E+02  0.00000000000E+00 0.  1.
         12    1    5    5    0    0 -0.40274033066E+02 -0.64969270915E+01  0.32017834913E+02  0.51858938994E+02  0.00000000000E+00 0. -1.
          5    1    4    4  501    0  0.10472219031E+03 -0.57840608371E+02 -0.41627344632E+03  0.43314887191E+03  0.47000000000E+01 0.  1.
         -5    1    4    4    0  501  0.14525978421E+03  0.28486758385E+02 -0.26052933669E+03  0.29968237451E+03  0.47000000000E+01 0.  1.
          1    1    1    2  502    0 -0.17707089474E+03 -0.66627785529E+02  0.88927120587E+03  0.90917360342E+03  0.00000000000E+00 0. -1.
          1    1    1    2  503    0 -0.79258823569E+01  0.31372069861E+02 -0.10824972784E+04  0.10829807866E+04  0.00000000000E+00 0. -1.
<mgrwt>
<rscale>  0 0.67035721E+02</rscale>
<asrwt>0</asrwt>
<pdfrwt beam="1">  1        2 0.17172722E+00 0.13887810E+03</pdfrwt>
<pdfrwt beam="2">  1        2 0.27458550E+00 0.32357787E+02</pdfrwt>
<totfact> 0.43228227E+01</totfact>
</mgrwt>
</event>
<event>
13    1  0.1675423E-008  0.6037563E+02  0.7546771E-02  0.1453274E+00
          2   -1    0    0  503    0  0.00000000000E+00  0.00000000000E+00  0.78639565830E+03  0.78639565830E+03  0.00000000000E+00 0. -1.
         -1   -1    0    0    0  501 -0.00000000000E+00 -0.00000000000E+00 -0.32625614798E+03  0.32625614798E+03  0.00000000000E+00 0.  1.
         24    2    1    2    0    0 -0.99157180131E+02  0.19878136169E+02  0.23250576244E+03  0.26563578840E+03  0.79222192852E+02 0.  0.
         25    2    1    2    0    0 -0.24875640200E+02  0.80691256117E+02 -0.14717013422E+03  0.21074643501E+03  0.12500054071E+03 0.  0.
         24    2    1    2    0    0  0.74125663276E+02 -0.40392764334E+02 -0.17793242777E+02  0.11810674698E+03  0.80662350743E+02 0.  0.
        -13    1    5    5    0    0  0.78337193240E+02 -0.27072982333E+01 -0.70837951860E+01  0.78703401849E+02  0.00000000000E+00 0.  1.
         14    1    5    5    0    0 -0.42115299643E+01 -0.37685466101E+02 -0.10709447591E+02  0.39403345132E+02  0.00000000000E+00 0. -1.
        -13    1    3    3    0    0  0.67087192443E+01  0.20587354241E+02  0.52744425184E+02  0.57015966681E+02  0.00000000000E+00 0.  1.
         14    1    3    3    0    0 -0.10586589937E+03 -0.70921807194E+00  0.17976133726E+03  0.20861982172E+03  0.00000000000E+00 0. -1.
          5    1    4    4  502    0  0.42288276295E+02  0.40064190579E+01 -0.18622456251E+02  0.46617974886E+02  0.47000000000E+01 0. -1.
         -5    1    4    4    0  502 -0.67163916494E+02  0.76684837059E+02 -0.12854767797E+03  0.16412846013E+03  0.47000000000E+01 0. -1.
          1    1    1    2  503    0  0.56296108161E+02 -0.21648078687E+02  0.44707887816E+03  0.45112904407E+03  0.00000000000E+00 0. -1.
         -2    1    1    2    0  501 -0.63889511063E+01 -0.38528549264E+02 -0.54481753288E+02  0.67033791822E+02  0.00000000000E+00 0.  1.
<mgrwt>
<rscale>  0 0.48558735E+02</rscale>
<asrwt>0</asrwt>
<pdfrwt beam="1">  1        2 0.11564642E+00 0.60375630E+02</pdfrwt>
<pdfrwt beam="2">  1       -1 0.47978845E-01 0.39054677E+02</pdfrwt>
<totfact> 0.20758059E+02</totfact>
</mgrwt>
</event>
<event>
13    1  0.1675423E-008  0.2120181E+03  0.7546771E-02  0.1267621E+00
          2   -1    0    0  502    0  0.00000000000E+00  0.00000000000E+00  0.24536707909E+04  0.24536707909E+04  0.00000000000E+00 0. -1.
          4   -1    0    0  503    0 -0.00000000000E+00 -0.00000000000E+00 -0.11364404415E+04  0.11364404415E+04  0.00000000000E+00 0. -1.
         24    2    1    2    0    0 -0.46755240160E+02 -0.13569731103E+02  0.11347275918E+03  0.14747694744E+03  0.80642376363E+02 0.  0.
         25    2    1    2    0    0  0.30967695272E+03  0.19869756904E+01  0.11099000071E+03  0.35192057219E+03  0.12500218299E+03 0.  0.
         24    2    1    2    0    0 -0.23041031580E+01  0.10849986113E+02  0.93035362825E+02  0.12333602781E+03  0.80207019212E+02 0.  0.
        -11    1    5    5    0    0 -0.14546796030E+02  0.43608397235E+02  0.51219059038E+02  0.68823641235E+02  0.00000000000E+00 0.  1.
         12    1    5    5    0    0  0.12242692872E+02 -0.32758411123E+02  0.41816303787E+02  0.54512386578E+02  0.00000000000E+00 0. -1.
        -13    1    3    3    0    0 -0.64553149576E+02 -0.19812032135E+02  0.58440585988E+02  0.89302451412E+02  0.00000000000E+00 0.  1.
         14    1    3    3    0    0  0.17797909416E+02  0.62423010322E+01  0.55032173197E+02  0.58174496032E+02  0.00000000000E+00 0. -1.
          5    1    4    4  501    0  0.27565342302E+03  0.22642140459E+02  0.53355453164E+02  0.28172037649E+03  0.47000000000E+01 0. -1.
         -5    1    4    4    0  501  0.34023529700E+02 -0.20655164768E+02  0.57634547548E+02  0.70200195697E+02  0.47000000000E+01 0. -1.
          1    1    1    2  502    0 -0.53230873973E+02 -0.21465129230E+01  0.19722600424E+04  0.19729794242E+04  0.00000000000E+00 0. -1.
          3    1    1    2  503    0 -0.20738673543E+03  0.28792822226E+01 -0.97252781585E+03  0.99439826071E+03  0.00000000000E+00 0. -1.
<mgrwt>
<rscale>  0 0.10627833E+03</rscale>
<asrwt>0</asrwt>
<pdfrwt beam="1">  1        2 0.36083394E+00 0.53274135E+02</pdfrwt>
<pdfrwt beam="2">  1        4 0.16712359E+00 0.21201815E+03</pdfrwt>
<totfact> 0.75085539E-01</totfact>
</mgrwt>
</event>
<event>
13    1  0.1675423E-008  0.1106143E+03  0.7546771E-02  0.1338331E+00
         -1   -1    0    0    0  501 -0.00000000000E+00  0.00000000000E+00  0.24141729540E+04  0.24141729540E+04  0.00000000000E+00 0.  1.
          2   -1    0    0  503    0  0.00000000000E+00 -0.00000000000E+00 -0.25683292901E+04  0.25683292901E+04  0.00000000000E+00 0. -1.
         24    2    1    2    0    0  0.62207556111E+01 -0.92921864873E+02 -0.14737709099E+03  0.19177667546E+03  0.79906917922E+02 0.  0.
         25    2    1    2    0    0  0.32920766186E+02 -0.72725125827E+02  0.13593351825E+04  0.13674024458E+04  0.12499835837E+03 0.  0.
         24    2    1    2    0    0  0.17594581567E+02 -0.25379954436E+01 -0.26692178199E+03  0.28039773277E+03  0.84021664583E+02 0.  0.
        -11    1    5    5    0    0  0.37289516627E+01  0.36376324019E+02 -0.67764820811E+02  0.77001382904E+02  0.00000000000E+00 0.  1.
         12    1    5    5    0    0  0.13865629904E+02 -0.38914319462E+02 -0.19915696118E+03  0.20339634986E+03  0.00000000000E+00 0. -1.
        -13    1    3    3    0    0  0.31792970532E+02 -0.89670762053E+02 -0.10125493466E+03  0.13893955641E+03  0.00000000000E+00 0.  1.
         14    1    3    3    0    0 -0.25572214921E+02 -0.32511028206E+01 -0.46122156329E+02  0.52837119054E+02  0.00000000000E+00 0. -1.
          5    1    4    4  502    0 -0.46612241354E+02 -0.41946479003E+02  0.58793497903E+03  0.59128828647E+03  0.47000000000E+01 0. -1.
         -5    1    4    4    0  502  0.79533007539E+02 -0.30778646824E+02  0.77140020348E+03  0.77611415934E+03  0.47000000000E+01 0. -1.
          1    1    1    2  503    0 -0.86177702479E+01  0.14514949099E+03 -0.21178682268E+04  0.21228538496E+04  0.00000000000E+00 0. -1.
         -2    1    1    2    0  501 -0.48118333115E+02  0.23035495156E+02  0.10186755811E+04  0.10200715404E+04  0.00000000000E+00 0.  1.
<mgrwt>
<rscale>  0 0.76818292E+02</rscale>
<asrwt>0</asrwt>
<pdfrwt beam="2">  1        2 0.37769548E+00 0.11061429E+03</pdfrwt>
<pdfrwt beam="1">  1       -1 0.35502544E+00 0.53347990E+02</pdfrwt>
<totfact> 0.12103131E-01</totfact>
</mgrwt>
</event>
<event>
13    1  0.1675423E-008  0.9631511E+02  0.7546771E-02  0.1357575E+00
          2   -1    0    0  503    0  0.00000000000E+00  0.00000000000E+00  0.23555718119E+04  0.23555718119E+04  0.00000000000E+00 0. -1.
          2   -1    0    0  502    0 -0.00000000000E+00 -0.00000000000E+00 -0.73957079133E+03  0.73957079133E+03  0.00000000000E+00 0. -1.
         24    2    1    2    0    0 -0.73392918716E+02 -0.27052288757E+01  0.51285872094E+02  0.12064357677E+03  0.80813322904E+02 0.  0.
         25    2    1    2    0    0 -0.17279273584E+02  0.46995289809E+02  0.64005697422E+02  0.14909507476E+03  0.12500192581E+03 0.  0.
         24    2    1    2    0    0 -0.28198641334E+02  0.24317568783E+02  0.25343528779E+02  0.81873900499E+02  0.68370560970E+02 0.  0.
        -11    1    5    5    0    0 -0.33200810330E+02 -0.11983169176E+02 -0.31759985810E+01  0.35439767452E+02  0.00000000000E+00 0.  1.
         12    1    5    5    0    0  0.50021689956E+01  0.36300737959E+02  0.28519527360E+02  0.46434133047E+02  0.00000000000E+00 0. -1.
        -13    1    3    3    0    0 -0.38934813576E+02 -0.18940662939E+01 -0.18244277586E+02  0.43039062024E+02  0.00000000000E+00 0.  1.
         14    1    3    3    0    0 -0.34458105140E+02 -0.81116258187E+00  0.69530149680E+02  0.77604514747E+02  0.00000000000E+00 0. -1.
          5    1    4    4  501    0  0.53586685000E+02  0.21935545021E+02  0.17892288602E+02  0.60785894220E+02  0.47000000000E+01 0.  1.
         -5    1    4    4    0  501 -0.70865958584E+02  0.25059744788E+02  0.46113408820E+02  0.88309180542E+02  0.47000000000E+01 0.  1.
          1    1    1    2  502    0  0.25452797480E+02 -0.45304076368E+02 -0.63191638214E+03  0.63404938156E+03  0.00000000000E+00 0. -1.
          1    1    1    2  503    0  0.93418036154E+02 -0.23303553349E+02  0.21072823044E+04  0.21094806696E+04  0.00000000000E+00 0. -1.
<mgrwt>
<rscale>  0 0.70745755E+02</rscale>
<asrwt>0</asrwt>
<pdfrwt beam="1">  1        2 0.34640762E+00 0.96315110E+02</pdfrwt>
<pdfrwt beam="2">  1        2 0.10876041E+00 0.51964452E+02</pdfrwt>
<totfact> 0.42016850E+01</totfact>
</mgrwt>
</event>
<event>
13    1  0.1675423E-008  0.1229012E+03  0.7546771E-02  0.1271496E+00
          2   -1    0    0  503    0  0.00000000000E+00  0.00000000000E+00  0.28920327944E+04  0.28920327944E+04  0.00000000000E+00 0. -1.
          2   -1    0    0  502    0 -0.00000000000E+00 -0.00000000000E+00 -0.13984953567E+04  0.13984953567E+04  0.00000000000E+00 0. -1.
         24    2    1    2    0    0  0.88624894947E+02  0.66411055938E+02  0.64835427415E+03  0.66218746164E+03  0.76577863529E+02 0.  0.
         25    2    1    2    0    0 -0.60939454678E+02 -0.19933998535E+03 -0.76384190781E+03  0.80157936556E+03  0.12499988904E+03 0.  0.
         24    2    1    2    0    0 -0.21367757677E+02 -0.10320077028E+02 -0.29308016424E+02  0.88699800283E+02  0.80284554465E+02 0.  0.
        -11    1    3    3    0    0  0.89231633314E+02  0.80214214248E+02  0.60093007364E+03  0.61279161055E+03  0.00000000000E+00 0.  1.
         12    1    3    3    0    0 -0.60673836648E+00 -0.13803158309E+02  0.47424200514E+02  0.49395851093E+02  0.00000000000E+00 0. -1.
        -11    1    5    5    0    0  0.24849202979E+02  0.16540554263E+02 -0.63288271481E+01  0.30514371649E+02  0.00000000000E+00 0.  1.
         12    1    5    5    0    0 -0.46216960656E+02 -0.26860631291E+02 -0.22979189275E+02  0.58185428635E+02  0.00000000000E+00 0. -1.
          5    1    4    4  501    0 -0.36433811254E+02 -0.16357271545E+03 -0.38089092850E+03  0.41615315120E+03  0.47000000000E+01 0.  1.
         -5    1    4    4    0  501 -0.24505643424E+02 -0.35767269904E+02 -0.38295097931E+03  0.38542621436E+03  0.47000000000E+01 0.  1.
          1    1    1    2  502    0 -0.76708441065E+02  0.42423293793E+02 -0.54462933743E+03  0.55163850117E+03  0.00000000000E+00 0. -1.
          1    1    1    2  503    0  0.70390758472E+02  0.10082571265E+03  0.21829624252E+04  0.21864230224E+04  0.00000000000E+00 0. -1.
<mgrwt>
<rscale>  0 0.10430475E+03</rscale>
<asrwt>0</asrwt>
<pdfrwt beam="1">  1        2 0.42529894E+00 0.12290118E+03</pdfrwt>
<pdfrwt beam="2">  1        2 0.20566108E+00 0.88522195E+02</pdfrwt>
<totfact> 0.90528061E+00</totfact>
</mgrwt>
</event>
<event>
13    1  0.1675423E-008  0.1478877E+03  0.7546771E-02  0.1253001E+00
          4   -1    0    0  503    0 -0.00000000000E+00  0.00000000000E+00  0.16606678627E+04  0.16606678627E+04  0.00000000000E+00 0. -1.
          2   -1    0    0  502    0  0.00000000000E+00 -0.00000000000E+00 -0.12766528501E+04  0.12766528501E+04  0.00000000000E+00 0. -1.
         24    2    1    2    0    0 -0.10199244858E+03  0.14373577445E+03 -0.23692966237E+02  0.19523726127E+03  0.80584112044E+02 0.  0.
         25    2    1    2    0    0 -0.54910702725E+02 -0.38757902811E+02 -0.28332619938E+03  0.31688011782E+03  0.12498765343E+03 0.  0.
         24    2    1    2    0    0 -0.12081712785E+03  0.14696530029E+02  0.23397868833E+03  0.27588708732E+03  0.80962287379E+02 0.  0.
        -11    1    5    5    0    0 -0.21044961544E+02 -0.26180742212E+02  0.89610797360E+02  0.95699616888E+02  0.00000000000E+00 0.  1.
         12    1    5    5    0    0 -0.99772166310E+02  0.40877272241E+02  0.14436789097E+03  0.18018747043E+03  0.00000000000E+00 0. -1.
        -11    1    3    3    0    0 -0.46450861505E+02  0.42925148110E+02  0.27871192329E+02  0.69116237142E+02  0.00000000000E+00 0.  1.
         12    1    3    3    0    0 -0.55541587078E+02  0.10081062634E+03 -0.51564158566E+02  0.12612102413E+03  0.00000000000E+00 0. -1.
          5    1    4    4  501    0  0.22720348964E+02  0.30002510937E+02 -0.82947948097E+02  0.91207549102E+02  0.47000000000E+01 0.  1.
         -5    1    4    4    0  501 -0.77631051689E+02 -0.68760413748E+02 -0.20037825128E+03  0.22567256872E+03  0.47000000000E+01 0.  1.
          1    1    1    2  502    0  0.18334609693E+02 -0.86244304490E+02 -0.83065219698E+03  0.83531868788E+03  0.00000000000E+00 0. -1.
          3    1    1    2  503    0  0.25938566947E+03 -0.33430097178E+02  0.12877076869E+04  0.13139975585E+04  0.00000000000E+00 0. -1.
<mgrwt>
<rscale>  0 0.11419064E+03</rscale>
<asrwt>0</asrwt>
<pdfrwt beam="2">  1        2 0.18774306E+00 0.88171639E+02</pdfrwt>
<pdfrwt beam="1">  1        4 0.24421586E+00 0.14788772E+03</pdfrwt>
<totfact> 0.87364355E-01</totfact>
</mgrwt>
</event>
<event>
13    1  0.1675423E-008  0.8388732E+02  0.7546771E-02  0.1318418E+00
          2   -1    0    0  502    0  0.00000000000E+00  0.00000000000E+00  0.11682821052E+04  0.11682821052E+04  0.00000000000E+00 0. -1.
          2   -1    0    0  503    0 -0.00000000000E+00 -0.00000000000E+00 -0.68244447896E+03  0.68244447896E+03  0.00000000000E+00 0. -1.
         24    2    1    2    0    0  0.86099256967E+02  0.44628355045E+01  0.34535120570E+03  0.36480995871E+03  0.79911524481E+02 0.  0.
         25    2    1    2    0    0  0.33894087478E+02  0.66464107275E+02 -0.24877370405E+03  0.28823398151E+03  0.12499674216E+03 0.  0.
         24    2    1    2    0    0 -0.55058895797E+02 -0.98176382505E-01 -0.12298496826E+01  0.96806630827E+02  0.79614820209E+02 0.  0.
        -11    1    5    5    0    0 -0.33144814052E+02  0.39485669355E+02 -0.87327460634E+00  0.51560250111E+02  0.00000000000E+00 0.  1.
         12    1    5    5    0    0 -0.21914081745E+02 -0.39583845738E+02 -0.35657507623E+00  0.45246380716E+02  0.00000000000E+00 0. -1.
        -13    1    3    3    0    0  0.37334460044E+02  0.41199644535E+02  0.14221646505E+03  0.15269838096E+03  0.00000000000E+00 0.  1.
         14    1    3    3    0    0  0.48764796924E+02 -0.36736809031E+02  0.20313474065E+03  0.21211157775E+03  0.00000000000E+00 0. -1.
          5    1    4    4  501    0  0.18486538130E+02 -0.19512526145E+02 -0.16457546547E+03  0.16682225452E+03  0.47000000000E+01 0. -1.
         -5    1    4    4    0  501  0.15407549348E+02  0.85976633420E+02 -0.84198238581E+02  0.12141172699E+03  0.47000000000E+01 0. -1.
          1    1    1    2  502    0  0.18152884054E+02 -0.82112412235E+02  0.73831399881E+03  0.74308783888E+03  0.00000000000E+00 0. -1.
          1    1    1    2  503    0 -0.83087332702E+02  0.11283645838E+02 -0.34782402459E+03  0.35778817420E+03  0.00000000000E+00 0. -1.
<mgrwt>
<rscale>  0 0.83868669E+02</rscale>
<asrwt>0</asrwt>
<pdfrwt beam="1">  1        2 0.17180619E+00 0.83887324E+02</pdfrwt>
<pdfrwt beam="2">  1        2 0.10035948E+00 0.83850018E+02</pdfrwt>
<totfact> 0.17569211E+02</totfact>
</mgrwt>
</event>
<event>
13    1  0.1675423E-008  0.1395466E+03  0.7546771E-02  0.1391632E+00
          2   -1    0    0  503    0  0.00000000000E+00  0.00000000000E+00  0.12047169540E+04  0.12047169540E+04  0.00000000000E+00 0. -1.
          2   -1    0    0  502    0 -0.00000000000E+00 -0.00000000000E+00 -0.19288497810E+04  0.19288497810E+04  0.00000000000E+00 0. -1.
         24    2    1    2    0    0 -0.83623678412E+02 -0.90610718725E+02  0.63176913744E+03  0.64873856757E+03  0.80785296288E+02 0.  0.
         25    2    1    2    0    0 -0.59210415806E+02 -0.94249081913E+02 -0.10321243641E+04  0.10456081404E+04  0.12500766929E+03 0.  0.
         24    2    1    2    0    0  0.15990548743E+03 -0.25736928796E+01  0.43518477113E+02  0.18531183297E+03  0.82886843253E+02 0.  0.
        -11    1    3    3    0    0 -0.73072343481E+02 -0.23680542140E+02  0.27168633683E+03  0.28233632618E+03  0.00000000000E+00 0.  1.
         12    1    3    3    0    0 -0.10551334931E+02 -0.66930176586E+02  0.36008280061E+03  0.36640224139E+03  0.00000000000E+00 0. -1.
        -13    1    5    5    0    0  0.22918318195E+01 -0.19444524400E+02 -0.36763015225E+01  0.19921275439E+02  0.00000000000E+00 0.  1.
         14    1    5    5    0    0  0.15761365561E+03  0.16870831521E+02  0.47194778636E+02  0.16539055753E+03  0.00000000000E+00 0. -1.
          5    1    4    4  501    0 -0.25746267971E+02  0.27786510682E+02 -0.32515770224E+03  0.32739056465E+03  0.47000000000E+01 0. -1.
         -5    1    4    4    0  501 -0.33464147835E+02 -0.12203559260E+03 -0.70696666190E+03  0.71821757573E+03  0.47000000000E+01 0. -1.
          1    1    1    2  502    0 -0.26924885899E+02 -0.31290323550E+01 -0.78982498847E+03  0.79028998016E+03  0.00000000000E+00 0. -1.
          1    1    1    2  503    0  0.98534926891E+01  0.19056252587E+03  0.42252891103E+03  0.46361821388E+03  0.00000000000E+00 0. -1.
<mgrwt>
<rscale>  0 0.61502538E+02</rscale>
<asrwt>0</asrwt>
<pdfrwt beam="1">  1        2 0.17716426E+00 0.13954656E+03</pdfrwt>
<pdfrwt beam="2">  1        2 0.28365438E+00 0.27106094E+02</pdfrwt>
<totfact> 0.39504921E+01</totfact>
</mgrwt>
</event>
<event>
13    1  0.1675423E-008  0.1481073E+03  0.7546771E-02  0.1345984E+00
          2   -1    0    0  503    0  0.00000000000E+00  0.00000000000E+00  0.24360917037E+04  0.24360917037E+04  0.00000000000E+00 0. -1.
          2   -1    0    0  502    0 -0.00000000000E+00 -0.00000000000E+00 -0.29848266509E+04  0.29848266509E+04  0.00000000000E+00 0. -1.
         24    2    1    2    0    0  0.14391529077E+03  0.37292718366E+02  0.91612690522E+03  0.93161944312E+03  0.80770802716E+02 0.  0.
         25    2    1    2    0    0  0.29794330529E+02  0.11700360692E+03 -0.14190937788E+03  0.22436789258E+03  0.12500053410E+03 0.  0.
         24    2    1    2    0    0 -0.81170084953E+02 -0.36692732726E+02  0.20722486714E+03  0.23907692790E+03  0.79250820603E+02 0.  0.
        -11    1    3    3    0    0  0.18416372485E+02  0.71628715861E+01  0.28631326730E+02  0.34788250533E+02  0.00000000000E+00 0.  1.
         12    1    3    3    0    0  0.12549891828E+03  0.30129846779E+02  0.88749557849E+03  0.89683119258E+03  0.00000000000E+00 0. -1.
        -13    1    5    5    0    0  0.12441058610E+02  0.58513404183E+01  0.11250372459E+02  0.17764824922E+02  0.00000000000E+00 0.  1.
         14    1    5    5    0    0 -0.93611143563E+02 -0.42544073145E+02  0.19597449468E+03  0.22131210297E+03  0.00000000000E+00 0. -1.
          5    1    4    4  501    0  0.66001483519E+02  0.28124462730E+02 -0.32935169322E+02  0.79082214238E+02  0.47000000000E+01 0.  1.
         -5    1    4    4    0  501 -0.36207152990E+02  0.88879144191E+02 -0.10897420856E+03  0.14528567834E+03  0.47000000000E+01 0.  1.
          1    1    1    2  502    0 -0.11949270517E+03 -0.91826075408E+02 -0.27756926080E+04  0.27797805649E+04  0.00000000000E+00 0. -1.
          1    1    1    2  503    0  0.26953168821E+02 -0.25777517152E+02  0.12455152664E+04  0.12460735261E+04  0.00000000000E+00 0. -1.
<mgrwt>
<rscale>  0 0.74321825E+02</rscale>
<asrwt>0</asrwt>
<pdfrwt beam="1">  1        2 0.35824878E+00 0.37295492E+02</pdfrwt>
<pdfrwt beam="2">  1        2 0.43894509E+00 0.14810727E+03</pdfrwt>
<totfact> 0.27792013E+00</totfact>
</mgrwt>
</event>
<event>
13    1  0.1675423E-008  0.1145851E+03  0.7546771E-02  0.1410292E+00
         -1   -1    0    0    0  501 -0.00000000000E+00  0.00000000000E+00  0.16354908873E+04  0.16354908873E+04  0.00000000000E+00 0.  1.
          2   -1    0    0  503    0  0.00000000000E+00 -0.00000000000E+00 -0.74644187482E+03  0.74644187482E+03  0.00000000000E+00 0. -1.
         24    2    1    2    0    0  0.24413231472E+03  0.10864584648E+03  0.31653880389E+01  0.27843159453E+03  0.78164097271E+02 0.  0.
         25    2    1    2    0    0 -0.86628111055E+02  0.12095027486E+02  0.43615864709E+03  0.46207273484E+03  0.12500451007E+03 0.  0.
         24    2    1    2    0    0 -0.89227332901E+02 -0.45610869589E+02 -0.85163812077E+02  0.15339507075E+03  0.78963944179E+02 0.  0.
        -13    1    5    5    0    0 -0.23567501427E+02  0.89506749887E+01  0.85550952067E+01  0.26622008945E+02  0.00000000000E+00 0.  1.
         14    1    5    5    0    0 -0.65659831474E+02 -0.54561544578E+02 -0.93718907284E+02  0.12677306180E+03  0.00000000000E+00 0. -1.
        -13    1    3    3    0    0  0.17101262815E+03  0.55786073646E+02 -0.29877106074E+02  0.18234595270E+03  0.00000000000E+00 0.  1.
         14    1    3    3    0    0  0.73119686574E+02  0.52859772829E+02  0.33042494113E+02  0.96085641827E+02  0.00000000000E+00 0. -1.
          5    1    4    4  502    0  0.38822124675E+00 -0.38508730832E+02  0.51765007654E+02  0.64689868476E+02  0.47000000000E+01 0.  1.
         -5    1    4    4    0  502 -0.87016332301E+02  0.50603758317E+02  0.38439363943E+03  0.39738286637E+03  0.47000000000E+01 0.  1.
          1    1    1    2  503    0 -0.55368615644E+02 -0.10051969707E+03 -0.46945880738E+03  0.48328197248E+03  0.00000000000E+00 0. -1.
         -2    1    1    2    0  501 -0.12908255124E+02  0.25389692694E+02  0.10043475968E+04  0.10047513895E+04  0.00000000000E+00 0.  1.
<mgrwt>
<rscale>  0 0.57128647E+02</rscale>
<asrwt>0</asrwt>
<pdfrwt beam="2">  1        2 0.10977086E+00 0.11458505E+03</pdfrwt>
<pdfrwt beam="1">  1       -1 0.24051337E+00 0.28482618E+02</pdfrwt>
<totfact> 0.56038015E+00</totfact>
</mgrwt>
</event>
<event>
13    1  0.1675423E-008  0.1455929E+03  0.7546771E-02  0.1222047E+00
          2   -1    0    0  503    0  0.00000000000E+00  0.00000000000E+00  0.34204911576E+04  0.34204911576E+04  0.00000000000E+00 0. -1.
         -3   -1    0    0    0  501 -0.00000000000E+00 -0.00000000000E+00 -0.46456439332E+03  0.46456439332E+03  0.00000000000E+00 0.  1.
         24    2    1    2    0    0  0.86664953368E+02  0.10123694034E+03  0.25811344545E+03  0.30164583995E+03  0.81289173966E+02 0.  0.
         25    2    1    2    0    0 -0.15549687991E+03  0.38791854531E+02 -0.30494588462E+02  0.20552493478E+03  0.12500596487E+03 0.  0.
         24    2    1    2    0    0 -0.13329034957E+02 -0.33192137583E+02  0.39823281644E+03  0.40787111661E+03  0.80561097952E+02 0.  0.
        -11    1    3    3    0    0  0.83827318466E+02  0.40292724842E+02  0.17919334477E+03  0.20189298603E+03  0.00000000000E+00 0.  1.
         12    1    3    3    0    0  0.28376349020E+01  0.60944215494E+02  0.78920100676E+02  0.99752853917E+02  0.00000000000E+00 0. -1.
        -13    1    5    5    0    0  0.84816625700E+01 -0.50760618419E+02  0.16185551577E+03  0.16984047505E+03  0.00000000000E+00 0.  1.
         14    1    5    5    0    0 -0.21810697527E+02  0.17568480835E+02  0.23637730067E+03  0.23803064156E+03  0.00000000000E+00 0. -1.
          5    1    4    4  502    0 -0.81201609923E+02  0.83157278499E+02 -0.22672010070E+02  0.11851136849E+03  0.47000000000E+01 0.  1.
         -5    1    4    4    0  502 -0.74295269984E+02 -0.44365423968E+02 -0.78225783926E+01  0.87013566291E+02  0.47000000000E+01 0.  1.
          1    1    1    2  503    0  0.46363764997E+02 -0.22445477001E+03  0.26330695741E+04  0.26430257139E+04  0.00000000000E+00 0. -1.
         -4    1    1    2    0  501  0.35797196499E+02  0.11761811272E+03 -0.30299448325E+03  0.32698794565E+03  0.00000000000E+00 0.  1.
<mgrwt>
<rscale>  0 0.13371345E+03</rscale>
<asrwt>0</asrwt>
<pdfrwt beam="1">  1        2 0.50301339E+00 0.14559293E+03</pdfrwt>
<pdfrwt beam="2">  1       -3 0.68318295E-01 0.12280327E+03</pdfrwt>
<totfact> 0.20243801E+00</totfact>
</mgrwt>
</event>
<event>
13    1  0.1675423E-008  0.6759453E+02  0.7546771E-02  0.1455052E+00
          2   -1    0    0  503    0  0.00000000000E+00  0.00000000000E+00  0.76852291218E+03  0.76852291218E+03  0.00000000000E+00 0. -1.
          2   -1    0    0  502    0 -0.00000000000E+00 -0.00000000000E+00 -0.88068445661E+03  0.88068445661E+03  0.00000000000E+00 0. -1.
         24    2    1    2    0    0 -0.41473434273E+02 -0.49365020783E+02 -0.17111471923E+02  0.10382037045E+03  0.79554483358E+02 0.  0.
         25    2    1    2    0    0  0.11079205821E+02  0.76610394443E+02 -0.30485980343E+03  0.33846175410E+03  0.12499983163E+03 0.  0.
         24    2    1    2    0    0 -0.65768157917E+01  0.54694862809E+01 -0.27943207515E+03  0.29065379001E+03  0.79524658069E+02 0.  0.
        -11    1    5    5    0    0  0.64244790971E+01  0.37683713911E+02 -0.20474346071E+03  0.20828159047E+03  0.00000000000E+00 0.  1.
         12    1    5    5    0    0 -0.13001294889E+02 -0.32214227630E+02 -0.74688614442E+02  0.82372199545E+02  0.00000000000E+00 0. -1.
        -13    1    3    3    0    0 -0.57338185693E+02 -0.81979068039E+01 -0.14020093089E+02  0.59593927751E+02  0.00000000000E+00 0.  1.
         14    1    3    3    0    0  0.15864751420E+02 -0.41167113979E+02 -0.30913788342E+01  0.44226442702E+02  0.00000000000E+00 0. -1.
          5    1    4    4  501    0 -0.12354524371E+02 -0.74895256128E+01  0.53959083860E+01  0.16122440685E+02  0.47000000000E+01 0. -1.
         -5    1    4    4    0  501  0.23433730192E+02  0.84099920056E+02 -0.31025571181E+03  0.32233931342E+03  0.47000000000E+01 0. -1.
          1    1    1    2  502    0  0.67547933373E+02 -0.16882938514E+02 -0.20740215406E+03  0.21877707929E+03  0.00000000000E+00 0. -1.
          1    1    1    2  503    0 -0.30576889130E+02 -0.15831921427E+02  0.69664396012E+03  0.69749437493E+03  0.00000000000E+00 0. -1.
<mgrwt>
<rscale>  0 0.48243628E+02</rscale>
<asrwt>0</asrwt>
<pdfrwt beam="1">  1        2 0.11301808E+00 0.34432483E+02</pdfrwt>
<pdfrwt beam="2">  1        2 0.12951242E+00 0.67594535E+02</pdfrwt>
<totfact> 0.23140163E+02</totfact>
</mgrwt>
</event>
<event>
13    1  0.1675423E-008  0.7248839E+02  0.7546771E-02  0.1430478E+00
          2   -1    0    0  502    0  0.00000000000E+00  0.00000000000E+00  0.15544745618E+04  0.15544745618E+04  0.00000000000E+00 0. -1.
          2   -1    0    0  503    0 -0.00000000000E+00 -0.00000000000E+00 -0.69886509711E+03  0.69886509711E+03  0.00000000000E+00 0. -1.
         24    2    1    2    0    0 -0.58019238317E+01 -0.78115810616E+02  0.52662149191E+03  0.53823564779E+03  0.78940956510E+02 0.  0.
         25    2    1    2    0    0  0.84612725006E+02  0.13960440832E+03  0.37899147968E+02  0.20906628582E+03  0.12499464946E+03 0.  0.
         24    2    1    2    0    0 -0.89891813848E+02 -0.28678351180E+02  0.39826685698E+02  0.12971138023E+03  0.79598311816E+02 0.  0.
        -13    1    5    5    0    0 -0.76371663733E+02 -0.53504776995E+02  0.39938518923E+02  0.10144199070E+03  0.00000000000E+00 0.  1.
         14    1    5    5    0    0 -0.13520150114E+02  0.24826425815E+02 -0.11183322514E+00  0.28269389532E+02  0.00000000000E+00 0. -1.
        -13    1    3    3    0    0 -0.33232045919E+02 -0.14846424761E+02  0.10789883014E+03  0.11387248460E+03  0.00000000000E+00 0.  1.
         14    1    3    3    0    0  0.27430122088E+02 -0.63269385855E+02  0.41872266177E+03  0.42436316318E+03  0.00000000000E+00 0. -1.
          5    1    4    4  501    0  0.48735342323E+02  0.19665884457E+02 -0.35758785368E+02  0.63739009513E+02  0.47000000000E+01 0.  1.
         -5    1    4    4    0  501  0.35877382683E+02  0.11993852386E+03  0.73657933335E+02  0.14532727630E+03  0.47000000000E+01 0.  1.
          1    1    1    2  502    0  0.29147527134E+02 -0.66867572587E+02  0.81149586251E+03  0.81476768803E+03  0.00000000000E+00 0. -1.
          1    1    1    2  503    0 -0.18066514461E+02  0.34057326066E+02 -0.56023372343E+03  0.56155865701E+03  0.00000000000E+00 0. -1.
<mgrwt>
<rscale>  0 0.52864104E+02</rscale>
<asrwt>0</asrwt>
<pdfrwt beam="1">  1        2 0.22859920E+00 0.72488390E+02</pdfrwt>
<pdfrwt beam="2">  1        2 0.10277428E+00 0.38552567E+02</pdfrwt>
<totfact> 0.11276819E+02</totfact>
</mgrwt>
</event>
<event>
13    1  0.1675423E-008  0.1404553E+03  0.7546771E-02  0.1238524E+00
          2   -1    0    0  502    0  0.00000000000E+00  0.00000000000E+00  0.26156167931E+04  0.26156167931E+04  0.00000000000E+00 0. -1.
          2   -1    0    0  503    0 -0.00000000000E+00 -0.00000000000E+00 -0.37866627418E+04  0.37866627418E+04  0.00000000000E+00 0. -1.
         24    2    1    2    0    0 -0.38505368187E+02 -0.68544617917E+02  0.37528400453E+03  0.39174675889E+03  0.80289544909E+02 0.  0.
         25    2    1    2    0    0 -0.12932103944E+03 -0.77613314790E+02 -0.39003254152E+03  0.43646100892E+03  0.12500028394E+03 0.  0.
         24    2    1    2    0    0 -0.68608777541E+02  0.11249180492E+03  0.78613512119E+02  0.17580678043E+03  0.85827555191E+02 0.  0.
        -11    1    3    3    0    0  0.95665807272E+01 -0.63195774648E+02  0.22123686382E+03  0.23028455292E+03  0.00000000000E+00 0.  1.
         12    1    3    3    0    0 -0.48071948914E+02 -0.53488432690E+01  0.15404714071E+03  0.16146220597E+03  0.00000000000E+00 0. -1.
        -11    1    5    5    0    0 -0.42119015978E+02  0.10940042888E+03  0.89000995072E+02  0.14718574140E+03  0.00000000000E+00 0.  1.
         12    1    5    5    0    0 -0.26489761562E+02  0.30913760317E+01 -0.10387482953E+02  0.28621039036E+02  0.00000000000E+00 0. -1.
          5    1    4    4  501    0 -0.13857549196E+03 -0.93240029484E+02 -0.38016529470E+03  0.41526450771E+03  0.47000000000E+01 0.  1.
         -5    1    4    4    0  501  0.92544525189E+01  0.15626714695E+02 -0.98672468201E+01  0.21196501206E+02  0.47000000000E+01 0.  1.
          1    1    1    2  502    0  0.19649120496E+03  0.13335161632E+03  0.20740307379E+04  0.20875811240E+04  0.00000000000E+00 0. -1.
          1    1    1    2  503    0  0.39943980206E+02 -0.99685488527E+02 -0.33089416617E+04  0.33106838627E+04  0.00000000000E+00 0. -1.
<mgrwt>
<rscale>  0 0.12281514E+03</rscale>
<asrwt>0</asrwt>
<pdfrwt beam="1">  1        2 0.38464953E+00 0.14045525E+03</pdfrwt>
<pdfrwt beam="2">  1        2 0.55686216E+00 0.10739049E+03</pdfrwt>
<totfact> 0.68299556E-01</totfact>
</mgrwt>
</event>
<event>
13    1  0.1675423E-008  0.2102485E+03  0.7546771E-02  0.1264941E+00
          2   -1    0    0  503    0  0.00000000000E+00  0.00000000000E+00  0.29261950851E+04  0.29261950851E+04  0.00000000000E+00 0. -1.
          2   -1    0    0  502    0 -0.00000000000E+00 -0.00000000000E+00 -0.17253231610E+04  0.17253231610E+04  0.00000000000E+00 0. -1.
         24    2    1    2    0    0  0.59637831544E+02  0.15134530778E+03  0.21092668829E+04  0.21170844212E+04  0.81102342288E+02 0.  0.
         25    2    1    2    0    0 -0.16865039632E+03 -0.47051111372E+02 -0.74069450942E+03  0.77130439915E+03  0.12500142640E+03 0.  0.
         24    2    1    2    0    0 -0.69438908159E+02  0.19359452144E+02 -0.83974733398E+02  0.14352057263E+03  0.91377505793E+02 0.  0.
        -11    1    3    3    0    0  0.52400152422E+02  0.34421906241E+02  0.88867812836E+03  0.89088689486E+03  0.00000000000E+00 0.  1.
         12    1    3    3    0    0  0.72376791216E+01  0.11692340154E+03  0.12205887546E+04  0.12261975263E+04  0.00000000000E+00 0. -1.
        -11    1    5    5    0    0 -0.68707248140E+02  0.37385276848E+02 -0.94469641675E+02  0.12264932968E+03  0.00000000000E+00 0.  1.
         12    1    5    5    0    0 -0.73166001854E+00 -0.18025824704E+02  0.10494908277E+02  0.20871242952E+02  0.00000000000E+00 0. -1.
          5    1    4    4  501    0 -0.13308327092E+03 -0.75723176611E+02 -0.66782627998E+03  0.68517091787E+03  0.47000000000E+01 0.  1.
         -5    1    4    4    0  501 -0.35567125399E+02  0.28672065239E+02 -0.72868229448E+02  0.86133481278E+02  0.47000000000E+01 0.  1.
          1    1    1    2  502    0 -0.30369790556E+00 -0.55141019992E+02 -0.83881756098E+03  0.84062805386E+03  0.00000000000E+00 0. -1.
          1    1    1    2  503    0  0.17875517084E+03 -0.68512628556E+02  0.75509184490E+03  0.77898079926E+03  0.00000000000E+00 0. -1.
<mgrwt>
<rscale>  0 0.10767309E+03</rscale>
<asrwt>0</asrwt>
<pdfrwt beam="1">  1        2 0.43032281E+00 0.21024852E+03</pdfrwt>
<pdfrwt beam="2">  1        2 0.25372400E+00 0.55141856E+02</pdfrwt>
<totfact> 0.58186819E+00</totfact>
</mgrwt>
</event>
<event>
13    1  0.1675423E-008  0.1389071E+03  0.7546771E-02  0.1301199E+00
          2   -1    0    0  503    0  0.00000000000E+00  0.00000000000E+00  0.14514301184E+04  0.14514301184E+04  0.00000000000E+00 0. -1.
          2   -1    0    0  502    0 -0.00000000000E+00 -0.00000000000E+00 -0.19840687911E+04  0.19840687911E+04  0.00000000000E+00 0. -1.
         24    2    1    2    0    0 -0.21448299044E+03  0.19186237583E+03 -0.29172737750E+03  0.41777886027E+03  0.81364543005E+02 0.  0.
         25    2    1    2    0    0  0.86896941822E+02 -0.32575412154E+03  0.87020226727E+02  0.36994982036E+03  0.12499409396E+03 0.  0.
         24    2    1    2    0    0  0.63750349464E+02 -0.23390269610E+02  0.35019026770E+02  0.10913942608E+03  0.77935039104E+02 0.  0.
        -11    1    5    5    0    0  0.54882031343E+02 -0.48560491722E+02  0.12751115714E+02  0.74382455409E+02  0.00000000000E+00 0.  1.
         12    1    5    5    0    0  0.88683181206E+01  0.25170222113E+02  0.22267911056E+02  0.34756970672E+02  0.00000000000E+00 0. -1.
        -13    1    3    3    0    0 -0.99374938643E+01 -0.88103778513E+00  0.31086211611E+01  0.10449571159E+02  0.00000000000E+00 0.  1.
         14    1    3    3    0    0 -0.20454549657E+03  0.19274341361E+03 -0.29483599867E+03  0.40732928911E+03  0.00000000000E+00 0. -1.
          5    1    4    4  501    0  0.19181713537E+02 -0.23258412974E+03  0.10001506930E+03  0.25394570212E+03  0.47000000000E+01 0. -1.
         -5    1    4    4    0  501  0.67715228285E+02 -0.93169991807E+02 -0.12994842570E+02  0.11600411824E+03  0.47000000000E+01 0. -1.
          1    1    1    2  502    0  0.76328910468E+01  0.13867004822E+03 -0.14466571780E+04  0.14533081690E+04  0.00000000000E+00 0. -1.
          1    1    1    2  503    0  0.56202808106E+02  0.18611967111E+02  0.10837066294E+04  0.10853226338E+04  0.00000000000E+00 0. -1.
<mgrwt>
<rscale>  0 0.90685786E+02</rscale>
<asrwt>0</asrwt>
<pdfrwt beam="1">  1        2 0.21344560E+00 0.59204400E+02</pdfrwt>
<pdfrwt beam="2">  1        2 0.29177482E+00 0.13890710E+03</pdfrwt>
<totfact> 0.24758787E+01</totfact>
</mgrwt>
</event>
<event>
13    1  0.1675423E-008  0.9912063E+02  0.7546771E-02  0.1290654E+00
          2   -1    0    0  502    0  0.00000000000E+00  0.00000000000E+00  0.30194201997E+04  0.30194201997E+04  0.00000000000E+00 0. -1.
          4   -1    0    0  503    0 -0.00000000000E+00 -0.00000000000E+00 -0.12688322388E+04  0.12688322388E+04  0.00000000000E+00 0. -1.
         24    2    1    2    0    0  0.52960603623E+02  0.73894234591E+02  0.11011999507E+04  0.11077499676E+04  0.78762147177E+02 0.  0.
         25    2    1    2    0    0 -0.52698651655E+02 -0.45286713405E+02 -0.99852325021E+01  0.14338764462E+03  0.12502910647E+03 0.  0.
         24    2    1    2    0    0  0.57219602044E+02  0.23138450076E+02  0.57881102164E+03  0.58899058667E+03  0.89879039202E+02 0.  0.
        -11    1    3    3    0    0  0.31316212466E+02  0.79427520354E+01  0.68817484926E+03  0.68893280922E+03  0.00000000000E+00 0.  1.
         12    1    3    3    0    0  0.21644391157E+02  0.65951482556E+02  0.41302510148E+03  0.41881715840E+03  0.00000000000E+00 0. -1.
        -11    1    5    5    0    0  0.23265578971E+02 -0.59321900921E+01  0.47930620048E+03  0.47990719089E+03  0.00000000000E+00 0.  1.
         12    1    5    5    0    0  0.33954023073E+02  0.29070640168E+02  0.99504821153E+02  0.10908339578E+03  0.00000000000E+00 0. -1.
          5    1    4    4  501    0  0.21783016191E+02  0.26744790696E+02  0.12981886996E+02  0.37153775229E+02  0.47000000000E+01 0. -1.
         -5    1    4    4    0  501 -0.74481667845E+02 -0.72031504101E+02 -0.22967119498E+02  0.10623386939E+03  0.47000000000E+01 0. -1.
          1    1    1    2  502    0  0.36330570496E+02 -0.83974152807E+02  0.12606043132E+04  0.12639204102E+04  0.00000000000E+00 0. -1.
          3    1    1    2  503    0 -0.93812124508E+02  0.32228181545E+02 -0.11800420922E+04  0.11842038295E+04  0.00000000000E+00 0. -1.
<mgrwt>
<rscale>  0 0.95232185E+02</rscale>
<asrwt>0</asrwt>
<pdfrwt beam="1">  1        2 0.44403238E+00 0.91496277E+02</pdfrwt>
<pdfrwt beam="2">  1        4 0.18659298E+00 0.99120634E+02</pdfrwt>
<totfact> 0.26850652E-01</totfact>
</mgrwt>
</event>
<event>
13    1  0.1675423E-008  0.2051449E+03  0.7546771E-02  0.1321783E+00
         -1   -1    0    0    0  501 -0.00000000000E+00  0.00000000000E+00  0.36650213336E+04  0.36650213336E+04  0.00000000000E+00 0.  1.
          2   -1    0    0  503    0  0.00000000000E+00 -0.00000000000E+00 -0.73268421827E+03  0.73268421827E+03  0.00000000000E+00 0. -1.
         24    2    1    2    0    0 -0.19100759045E+03  0.49240447859E+02  0.58088773205E+02  0.22108118030E+03  0.81203826245E+02 0.  0.
         25    2    1    2    0    0 -0.10615029076E+03 -0.19233179490E+03  0.11217469939E+04  0.11498697105E+04  0.12499851699E+03 0.  0.
         24    2    1    2    0    0  0.23228948625E+03 -0.30345200942E+02  0.55674243728E+03  0.60934378667E+03  0.80364620586E+02 0.  0.
        -11    1    3    3    0    0 -0.12735286173E+03 -0.80465134796E+01  0.31992842529E+02  0.13155622275E+03  0.00000000000E+00 0.  1.
         12    1    3    3    0    0 -0.63654728720E+02  0.57286961338E+02  0.26095930676E+02  0.89524957558E+02  0.00000000000E+00 0. -1.
        -11    1    5    5    0    0  0.23053103990E+02  0.20763325674E+02  0.92622782691E+02  0.97680812702E+02  0.00000000000E+00 0.  1.
         12    1    5    5    0    0  0.20923638226E+03 -0.51108526616E+02  0.46411965459E+03  0.51166297397E+03  0.00000000000E+00 0. -1.
          5    1    4    4  502    0 -0.48926007042E+02 -0.11735104558E+03  0.89858650123E+03  0.90754879332E+03  0.47000000000E+01 0.  1.
         -5    1    4    4    0  502 -0.57224283715E+02 -0.74980749320E+02  0.22316049266E+03  0.24232091718E+03  0.47000000000E+01 0.  1.
          1    1    1    2  503    0  0.97310112473E+02  0.18082523698E+03 -0.59340873631E+03  0.62793387601E+03  0.00000000000E+00 0. -1.
         -2    1    1    2    0  501 -0.32441717511E+02 -0.73886889997E+01  0.17891676473E+04  0.17894769984E+04  0.00000000000E+00 0.  1.
<mgrwt>
<rscale>  0 0.82617662E+02</rscale>
<asrwt>0</asrwt>
<pdfrwt beam="2">  1        2 0.10774768E+00 0.20514487E+03</pdfrwt>
<pdfrwt beam="1">  1       -1 0.53897372E+00 0.33272478E+02</pdfrwt>
<totfact> 0.73475490E-02</totfact>
</mgrwt>
</event>
<event>
13    1  0.1675423E-008  0.2145925E+03  0.7546771E-02  0.1262300E+00
          2   -1    0    0  502    0  0.00000000000E+00  0.00000000000E+00  0.17185008486E+04  0.17185008486E+04  0.00000000000E+00 0. -1.
          2   -1    0    0  503    0 -0.00000000000E+00 -0.00000000000E+00 -0.13688967097E+04  0.13688967097E+04  0.00000000000E+00 0. -1.
         24    2    1    2    0    0 -0.33489472157E+02  0.22810717893E+03  0.23827019317E+03  0.34089710225E+03  0.79269915739E+02 0.  0.
         25    2    1    2    0    0 -0.39482972961E+02 -0.53014741746E+03 -0.31233283207E+02  0.54700648435E+03  0.12500154618E+03 0.  0.
         24    2    1    2    0    0  0.89408009672E+01  0.75152724603E+02 -0.46595254313E+02  0.12205290061E+03  0.83653588604E+02 0.  0.
        -11    1    3    3    0    0  0.12252662325E+02  0.10646773817E+03  0.14773875567E+03  0.18251642921E+03  0.00000000000E+00 0.  1.
         12    1    3    3    0    0 -0.45742134482E+02  0.12163944076E+03  0.90531437507E+02  0.15838067304E+03  0.00000000000E+00 0. -1.
        -13    1    5    5    0    0  0.16218783741E+02 -0.89671194816E+01 -0.31108233504E+02  0.36210224655E+02  0.00000000000E+00 0.  1.
         14    1    5    5    0    0 -0.72779827735E+01  0.84119844084E+02 -0.15487020809E+02  0.85842675958E+02  0.00000000000E+00 0. -1.
          5    1    4    4  501    0 -0.13829428284E+02 -0.59214799836E+00  0.53068366697E+01  0.15551727922E+02  0.47000000000E+01 0. -1.
         -5    1    4    4    0  501 -0.25653544677E+02 -0.52955526946E+03 -0.36540119877E+02  0.53145475643E+03  0.47000000000E+01 0. -1.
          1    1    1    2  502    0  0.53495593720E+02  0.14544049593E+02  0.11206391157E+04  0.11220095078E+04  0.00000000000E+00 0. -1.
          1    1    1    2  503    0  0.10536050431E+02  0.21234346433E+03 -0.93147663245E+03  0.95543156322E+03  0.00000000000E+00 0. -1.
<mgrwt>
<rscale>  0 0.10907088E+03</rscale>
<asrwt>0</asrwt>
<pdfrwt beam="1">  1        2 0.25272072E+00 0.55437424E+02</pdfrwt>
<pdfrwt beam="2">  1        2 0.20130834E+00 0.21459252E+03</pdfrwt>
<totfact> 0.36432484E+01</totfact>
</mgrwt>
</event>
<event>
13    1  0.1675423E-008  0.3906022E+03  0.7546771E-02  0.1226672E+00
          2   -1    0    0  502    0  0.00000000000E+00  0.00000000000E+00  0.25542275331E+04  0.25542275331E+04  0.00000000000E+00 0. -1.
          2   -1    0    0  503    0 -0.00000000000E+00 -0.00000000000E+00 -0.36911125755E+04  0.36911125755E+04  0.00000000000E+00 0. -1.
         24    2    1    2    0    0 -0.12405901712E+03 -0.23149377432E+03  0.74574511802E+03  0.79470039634E+03  0.80205558494E+02 0.  0.
         25    2    1    2    0    0  0.40919623275E+03 -0.43481130122E+02 -0.16418134229E+04  0.16972061422E+04  0.12500083180E+03 0.  0.
         24    2    1    2    0    0  0.14911998136E+02  0.47419519217E+03  0.21796851169E+03  0.52820046581E+03  0.80012574215E+02 0.  0.
        -11    1    5    5    0    0  0.66647555410E+01  0.19685534670E+03  0.47706619534E+02  0.20266318866E+03  0.00000000000E+00 0.  1.
         12    1    5    5    0    0  0.82472425949E+01  0.27733984547E+03  0.17026189216E+03  0.32553727715E+03  0.00000000000E+00 0. -1.
        -13    1    3    3    0    0 -0.27903337159E+02 -0.62813122765E+02  0.31199352573E+03  0.31947463860E+03  0.00000000000E+00 0.  1.
         14    1    3    3    0    0 -0.96155679957E+02 -0.16868065155E+03  0.43375159229E+03  0.47522575773E+03  0.00000000000E+00 0. -1.
          5    1    4    4  501    0  0.22151741159E+03 -0.84002048093E+02 -0.96531364039E+03  0.99397123804E+03  0.47000000000E+01 0.  1.
         -5    1    4    4    0  501  0.18767882115E+03  0.40520917971E+02 -0.67649978249E+03  0.70323490415E+03  0.47000000000E+01 0.  1.
          1    1    1    2  502    0 -0.34129880150E+03 -0.18503799478E+03  0.13557152359E+04  0.14102084003E+04  0.00000000000E+00 0. -1.
          1    1    1    2  503    0  0.41249587738E+02 -0.14182292947E+02 -0.18145004851E+04  0.18150247040E+04  0.00000000000E+00 0. -1.
<mgrwt>
<rscale>  0 0.13052929E+03</rscale>
<asrwt>0</asrwt>
<pdfrwt beam="1">  1        2 0.37562170E+00 0.39060221E+03</pdfrwt>
<pdfrwt beam="2">  1        2 0.54281067E+00 0.43619559E+02</pdfrwt>
<totfact> 0.89233745E-01</totfact>
</mgrwt>
</event>
<event>
13    1  0.1675423E-008  0.1985476E+03  0.7546771E-02  0.1194189E+00
          2   -1    0    0  503    0  0.00000000000E+00  0.00000000000E+00  0.44847684822E+04  0.44847684822E+04  0.00000000000E+00 0. -1.
         -3   -1    0    0    0  501 -0.00000000000E+00 -0.00000000000E+00 -0.66603089418E+03  0.66603089418E+03  0.00000000000E+00 0.  1.
         24    2    1    2    0    0 -0.10469215664E+03 -0.18897785016E+03  0.59137545350E+03  0.63458178705E+03  0.79347602026E+02 0.  0.
         25    2    1    2    0    0 -0.32445261804E+03 -0.34733955502E+02  0.26249079984E+03  0.43703734365E+03  0.12499708288E+03 0.  0.
         24    2    1    2    0    0 -0.24782814738E+02  0.13582163838E+02  0.94484875570E+03  0.94871739525E+03  0.80788995628E+02 0.  0.
        -11    1    3    3    0    0 -0.33985888133E+02 -0.77886649214E+02  0.13440289558E+03  0.15901417880E+03  0.00000000000E+00 0.  1.
         12    1    3    3    0    0 -0.70706268510E+02 -0.11109120094E+03  0.45697255791E+03  0.47556760825E+03  0.00000000000E+00 0. -1.
        -13    1    5    5    0    0 -0.25696831672E+02  0.34865869136E+02  0.26352211714E+03  0.26705778815E+03  0.00000000000E+00 0.  1.
         14    1    5    5    0    0  0.91401693411E+00 -0.21283705298E+02  0.68132663856E+03  0.68165960710E+03  0.00000000000E+00 0. -1.
          5    1    4    4  502    0 -0.11593222154E+02  0.26067053743E+02  0.35196502023E+02  0.45549729367E+02  0.47000000000E+01 0.  1.
         -5    1    4    4    0  502 -0.31285939589E+03 -0.60801009245E+02  0.22729429781E+03  0.39148761428E+03  0.47000000000E+01 0.  1.
          1    1    1    2  503    0  0.41128996165E+03  0.32380214363E+03  0.25415987165E+04  0.25949434091E+04  0.00000000000E+00 0. -1.
         -4    1    1    2    0  501  0.42637627775E+02 -0.11367250181E+03 -0.52157613744E+03  0.53551944140E+03  0.00000000000E+00 0.  1.
<mgrwt>
<rscale>  0 0.15523043E+03</rscale>
<asrwt>0</asrwt>
<pdfrwt beam="1">  1        2 0.65952476E+00 0.19854764E+03</pdfrwt>
<pdfrwt beam="2">  1       -3 0.97945722E-01 0.12136375E+03</pdfrwt>
<totfact> 0.16428541E-01</totfact>
</mgrwt>
</event>
<event>
13    1  0.1675423E-008  0.5182626E+02  0.7546771E-02  0.1444846E+00
         -1   -1    0    0    0  501 -0.00000000000E+00  0.00000000000E+00  0.37789444233E+03  0.37789444233E+03  0.00000000000E+00 0.  1.
          2   -1    0    0  503    0  0.00000000000E+00 -0.00000000000E+00 -0.14577327506E+04  0.14577327506E+04  0.00000000000E+00 0. -1.
         24    2    1    2    0    0  0.12038109225E+03  0.33564821896E+02 -0.43533641664E+03  0.45994350025E+03  0.80075109276E+02 0.  0.
         25    2    1    2    0    0 -0.88456975963E+02  0.17984939930E+02 -0.66672828617E+01  0.15433676624E+03  0.12500916003E+03 0.  0.
         24    2    1    2    0    0 -0.48731690318E+02 -0.14672034179E+02 -0.16856179622E+03  0.19199264734E+03  0.76537907345E+02 0.  0.
        -13    1    3    3    0    0  0.59501907149E+02  0.56291692211E+02 -0.27498710505E+03  0.28692706305E+03  0.00000000000E+00 0.  1.
         14    1    3    3    0    0  0.60879185102E+02 -0.22726870315E+02 -0.16034931159E+03  0.17301643720E+03  0.00000000000E+00 0. -1.
        -13    1    5    5    0    0  0.56006887608E+01 -0.33236682809E+02 -0.74873549431E+02  0.82110250293E+02  0.00000000000E+00 0.  1.
         14    1    5    5    0    0 -0.54332379079E+02  0.18564648630E+02 -0.93688246785E+02  0.10988239705E+03  0.00000000000E+00 0. -1.
          5    1    4    4  502    0  0.22023928493E+02 -0.15079251416E+02  0.22574043559E+02  0.35272010039E+02  0.47000000000E+01 0. -1.
         -5    1    4    4    0  502 -0.11048090446E+03  0.33064191347E+02 -0.29241326421E+02  0.11906475620E+03  0.47000000000E+01 0. -1.
          1    1    1    2  503    0  0.52000666830E+02 -0.36282921467E+01 -0.74630498561E+03  0.74812322875E+03  0.00000000000E+00 0. -1.
         -2    1    1    2    0  501 -0.35193092799E+02 -0.33249435501E+02  0.27703217308E+03  0.28123105032E+03  0.00000000000E+00 0.  1.
<mgrwt>
<rscale>  0 0.50091957E+02</rscale>
<asrwt>0</asrwt>
<pdfrwt beam="2">  1        2 0.21437246E+00 0.51826264E+02</pdfrwt>
<pdfrwt beam="1">  1       -1 0.55572714E-01 0.48415687E+02</pdfrwt>
<totfact> 0.69907976E+01</totfact>
</mgrwt>
</event>
<event>
13    1  0.1675423E-008  0.1713860E+03  0.7546771E-02  0.1300656E+00
         -3   -1    0    0    0  501 -0.00000000000E+00  0.00000000000E+00  0.28009573061E+03  0.28009573061E+03  0.00000000000E+00 0.  1.
          2   -1    0    0  503    0  0.00000000000E+00 -0.00000000000E+00 -0.26740977248E+04  0.26740977248E+04  0.00000000000E+00 0. -1.
         24    2    1    2    0    0 -0.57390223529E+02 -0.37038760106E+02 -0.96439163037E+03  0.97014587288E+03  0.80413247910E+02 0.  0.
         25    2    1    2    0    0 -0.10445983032E+03  0.53432472978E+02  0.35390688193E+01  0.17147835356E+03  0.12500166164E+03 0.  0.
         24    2    1    2    0    0 -0.37082171511E+01  0.37984068074E+02 -0.17900346638E+03  0.19938751015E+03  0.79098659452E+02 0.  0.
        -11    1    3    3    0    0 -0.14121721261E+02  0.16888644591E+02 -0.77579527089E+02  0.80642621180E+02  0.00000000000E+00 0.  1.
         12    1    3    3    0    0 -0.43268502268E+02 -0.53927404696E+02 -0.88681210328E+03  0.88950325170E+03  0.00000000000E+00 0. -1.
        -13    1    5    5    0    0  0.11917703827E+02  0.25121619774E+02 -0.10576294503E+02  0.29748705014E+02  0.00000000000E+00 0.  1.
         14    1    5    5    0    0 -0.15625920978E+02  0.12862448300E+02 -0.16842717188E+03  0.16963880514E+03  0.00000000000E+00 0. -1.
          5    1    4    4  502    0  0.18949299124E+02  0.42835473740E+02  0.63040946030E+01  0.47495108765E+02  0.47000000000E+01 0. -1.
         -5    1    4    4    0  502 -0.12340912944E+03  0.10596999238E+02 -0.27650257836E+01  0.12398324480E+03  0.47000000000E+01 0. -1.
          1    1    1    2  503    0 -0.46292727007E+02 -0.13516194305E+02 -0.13682581366E+04  0.13691077505E+04  0.00000000000E+00 0. -1.
         -4    1    1    2    0  501  0.21185099801E+03 -0.40861586641E+02  0.11411217030E+03  0.24407396836E+03  0.00000000000E+00 0.  1.
<mgrwt>
<rscale>  0 0.90913065E+02</rscale>
<asrwt>0</asrwt>
<pdfrwt beam="2">  1        2 0.39324968E+00 0.48225554E+02</pdfrwt>
<pdfrwt beam="1">  1       -3 0.41190548E-01 0.17138601E+03</pdfrwt>
<totfact> 0.17067142E+01</totfact>
</mgrwt>
</event>
<event>
13    1  0.1675423E-008  0.1386394E+03  0.7546771E-02  0.1285857E+00
          2   -1    0    0  503    0  0.00000000000E+00  0.00000000000E+00  0.23399597744E+04  0.23399597744E+04  0.00000000000E+00 0. -1.
          2   -1    0    0  502    0 -0.00000000000E+00 -0.00000000000E+00 -0.15416821255E+04  0.15416821255E+04  0.00000000000E+00 0. -1.
         24    2    1    2    0    0 -0.10105097480E+03 -0.10409444043E+03  0.27026065373E+03  0.31714651007E+03  0.80586201394E+02 0.  0.
         25    2    1    2    0    0 -0.81285626604E+02  0.12651308832E+03 -0.21023776443E+03  0.28711940554E+03  0.12499888333E+03 0.  0.
         24    2    1    2    0    0  0.18614965144E+02  0.96427971378E+02  0.75552955226E+02  0.14796133243E+03  0.80866780942E+02 0.  0.
        -11    1    3    3    0    0 -0.44340210455E+01  0.12303321195E+02  0.35874157825E+02  0.38183601908E+02  0.00000000000E+00 0.  1.
         12    1    3    3    0    0 -0.96616953757E+02 -0.11639776163E+03  0.23438649590E+03  0.27896290816E+03  0.00000000000E+00 0. -1.
        -13    1    5    5    0    0 -0.59255862910E+01  0.95786496106E+02  0.77472366839E+02  0.12333747619E+03  0.00000000000E+00 0.  1.
         14    1    5    5    0    0  0.24540551435E+02  0.64147527171E+00 -0.19194116131E+01  0.24623856241E+02  0.00000000000E+00 0. -1.
          5    1    4    4  501    0 -0.78663834203E+02  0.15056348609E+03 -0.19234882451E+03  0.25666616926E+03  0.47000000000E+01 0.  1.
         -5    1    4    4    0  501 -0.26217924008E+01 -0.24050397766E+02 -0.17888939925E+02  0.30453236276E+02  0.47000000000E+01 0.  1.
          1    1    1    2  502    0  0.64892044796E+02 -0.21717038922E+02 -0.12298722822E+04  0.12317745077E+04  0.00000000000E+00 0. -1.
          1    1    1    2  503    0  0.98829591466E+02 -0.97129580346E+02  0.18925740866E+04  0.18976401442E+04  0.00000000000E+00 0. -1.
<mgrwt>
<rscale>  0 0.97401423E+02</rscale>
<asrwt>0</asrwt>
<pdfrwt beam="1">  1        2 0.34411173E+00 0.13863942E+03</pdfrwt>
<pdfrwt beam="2">  1        2 0.22671796E+00 0.68429579E+02</pdfrwt>
<totfact> 0.14793257E+01</totfact>
</mgrwt>
</event>
<event>
13    1  0.1675423E-008  0.1341236E+03  0.7546771E-02  0.1247007E+00
         -3   -1    0    0    0  501 -0.00000000000E+00  0.00000000000E+00  0.33627660328E+03  0.33627660328E+03  0.00000000000E+00 0.  1.
          2   -1    0    0  503    0  0.00000000000E+00 -0.00000000000E+00 -0.12340765627E+04  0.12340765627E+04  0.00000000000E+00 0. -1.
         24    2    1    2    0    0  0.20766601041E+02  0.19852447865E+02 -0.16680087265E+03  0.18776321835E+03  0.81284215217E+02 0.  0.
         25    2    1    2    0    0 -0.11581676379E+03 -0.17514757974E+03 -0.50892812779E+02  0.24961037358E+03  0.12500025097E+03 0.  0.
         24    2    1    2    0    0  0.45513169978E+02  0.74320869713E+02  0.24801891173E+02  0.12096751994E+03  0.80143413700E+02 0.  0.
        -11    1    3    3    0    0  0.28277922504E+02 -0.26596130431E+02 -0.67178166116E+02  0.77588021355E+02  0.00000000000E+00 0.  1.
         12    1    3    3    0    0 -0.75113214630E+01  0.46448578296E+02 -0.99622706538E+02  0.11017519700E+03  0.00000000000E+00 0. -1.
        -11    1    5    5    0    0  0.53532666984E+02  0.12316110869E+02  0.19224338547E+02  0.58198008677E+02  0.00000000000E+00 0.  1.
         12    1    5    5    0    0 -0.80194970062E+01  0.62004758844E+02  0.55775526261E+01  0.62769511268E+02  0.00000000000E+00 0. -1.
          5    1    4    4  502    0 -0.13736890180E+03 -0.15352438220E+03 -0.21861245761E+02  0.20721958203E+03  0.47000000000E+01 0.  1.
         -5    1    4    4    0  502  0.21552138007E+02 -0.21623197533E+02 -0.29031567018E+02  0.42390791544E+02  0.47000000000E+01 0.  1.
          1    1    1    2  503    0 -0.74940696312E+02  0.90661443568E+02 -0.82821879583E+03  0.83652972397E+03  0.00000000000E+00 0. -1.
         -4    1    1    2    0  501  0.12447768909E+03 -0.96871814103E+01  0.12331063066E+03  0.17548233016E+03  0.00000000000E+00 0.  1.
<mgrwt>
<rscale>  0 0.11766080E+03</rscale>
<asrwt>0</asrwt>
<pdfrwt beam="2">  1        2 0.18148185E+00 0.10321869E+03</pdfrwt>
<pdfrwt beam="1">  1       -3 0.49452442E-01 0.13412362E+03</pdfrwt>
<totfact> 0.54117220E+01</totfact>
</mgrwt>
</event>
<event>
13    1  0.2868294E-008  0.8178750E+02  0.7546771E-02  0.1392351E+00
          2   -1    0    0  503    0  0.00000000000E+00  0.00000000000E+00  0.12994605582E+04  0.12994605582E+04  0.00000000000E+00 0. -1.
          2   -1    0    0  502    0 -0.00000000000E+00 -0.00000000000E+00 -0.22348445706E+04  0.22348445706E+04  0.00000000000E+00 0. -1.
         24    2    1    2    0    0 -0.52588116554E+02  0.52515084087E+02  0.30367999164E+03  0.32276926362E+03  0.80219175765E+02 0.  0.
         25    2    1    2    0    0  0.10493197644E+03 -0.56143938534E+02 -0.20605201147E+04  0.20677378504E+04  0.12503524757E+03 0.  0.
         24    2    1    2    0    0  0.14546595708E+02  0.44545816731E+00  0.21813184484E+03  0.23249464237E+03  0.79123037830E+02 0.  0.
        -11    1    5    5    0    0  0.26212494954E+02 -0.51926251238E+01  0.18636057653E+02  0.32578534225E+02  0.00000000000E+00 0.  1.
         12    1    5    5    0    0 -0.11665899246E+02  0.56380832911E+01  0.19949578719E+03  0.19991610814E+03  0.00000000000E+00 0. -1.
        -11    1    3    3    0    0  0.14287679110E+02  0.36996344412E+02  0.90530029535E+02  0.98835993048E+02  0.00000000000E+00 0.  1.
         12    1    3    3    0    0 -0.66875795664E+02  0.15518739675E+02  0.21314996210E+03  0.22393327058E+03  0.00000000000E+00 0. -1.
          5    1    4    4  501    0  0.56813387170E+02 -0.53963345357E+02 -0.47217144293E+03  0.47865202927E+03  0.47000000000E+01 0.  1.
         -5    1    4    4    0  501  0.48118589274E+02 -0.21805931768E+01 -0.15883486718E+04  0.15890858211E+04  0.47000000000E+01 0.  1.
          1    1    1    2  502    0  0.11306540634E+02 -0.44571346108E+02 -0.14770931796E+03  0.15470127784E+03  0.00000000000E+00 0. -1.
          1    1    1    2  503    0 -0.78196996233E+02  0.47754742388E+02  0.75103358378E+03  0.75660209464E+03  0.00000000000E+00 0. -1.
<mgrwt>
<rscale>  0 0.61325690E+02</rscale>
<asrwt>0</asrwt>
<pdfrwt beam="1">  1        2 0.19109714E+00 0.81787498E+02</pdfrwt>
<pdfrwt beam="2">  1        2 0.32865361E+00 0.45983070E+02</pdfrwt>
<totfact> 0.24742184E+01</totfact>
</mgrwt>
</event>
<event>
13    1  0.1675423E-008  0.6670692E+02  0.7546771E-02  0.1380297E+00
          2   -1    0    0  503    0  0.00000000000E+00  0.00000000000E+00  0.95460198166E+03  0.95460198166E+03  0.00000000000E+00 0. -1.
          2   -1    0    0  502    0 -0.00000000000E+00 -0.00000000000E+00 -0.16041957653E+04  0.16041957653E+04  0.00000000000E+00 0. -1.
         24    2    1    2    0    0  0.16210968474E+03 -0.30301928292E+03  0.12284059790E+03  0.37280032910E+03  0.76092293842E+02 0.  0.
         25    2    1    2    0    0  0.15146307116E+03  0.42665803236E+03 -0.45613656348E+03  0.65472450050E+03  0.12500187401E+03 0.  0.
         24    2    1    2    0    0 -0.33138968785E+03 -0.17402185779E+03  0.88769792627E+02  0.39836281983E+03  0.10348974800E+03 0.  0.
        -11    1    5    5    0    0 -0.15885179203E+03 -0.88095509407E+02  0.96048614450E+02  0.20547517355E+03  0.00000000000E+00 0.  1.
         12    1    5    5    0    0 -0.17253789582E+03 -0.85926348381E+02 -0.72788218229E+01  0.19288764628E+03  0.00000000000E+00 0. -1.
        -13    1    3    3    0    0  0.75186672325E+02 -0.15861132732E+03  0.23346776824E+02  0.17707529709E+03  0.00000000000E+00 0.  1.
         14    1    3    3    0    0  0.86923012416E+02 -0.14440795559E+03  0.99493821074E+02  0.19572503202E+03  0.00000000000E+00 0. -1.
          5    1    4    4  501    0  0.10736419371E+02  0.17583117683E+03 -0.12473623603E+03  0.21590065313E+03  0.47000000000E+01 0.  1.
         -5    1    4    4    0  501  0.14072665179E+03  0.25082685554E+03 -0.33140032745E+03  0.43882384737E+03  0.47000000000E+01 0.  1.
          1    1    1    2  502    0  0.65894747681E+02  0.11005482792E+02 -0.76486904665E+03  0.76778115172E+03  0.00000000000E+00 0. -1.
          1    1    1    2  503    0 -0.48077815729E+02  0.39377625548E+02  0.35980143595E+03  0.36512894581E+03  0.00000000000E+00 0. -1.
<mgrwt>
<rscale>  0 0.64385870E+02</rscale>
<asrwt>0</asrwt>
<pdfrwt beam="1">  1        2 0.14038265E+00 0.62145585E+02</pdfrwt>
<pdfrwt beam="2">  1        2 0.23591114E+00 0.66706916E+02</pdfrwt>
<totfact> 0.73163233E+01</totfact>
</mgrwt>
</event>
<event>
13    1  0.1675423E-008  0.2989070E+03  0.7546771E-02  0.1190814E+00
          2   -1    0    0  503    0  0.00000000000E+00  0.00000000000E+00  0.26864863582E+04  0.26864863582E+04  0.00000000000E+00 0. -1.
          2   -1    0    0  502    0 -0.00000000000E+00 -0.00000000000E+00 -0.25281003759E+04  0.25281003759E+04  0.00000000000E+00 0. -1.
         24    2    1    2    0    0 -0.94165235304E+03  0.15535010142E+03 -0.37198150554E+03  0.10283272225E+04  0.90795528379E+02 0.  0.
         25    2    1    2    0    0  0.41441631754E+03 -0.15438956597E+03  0.33047327546E+03  0.56605103901E+03  0.12499668253E+03 0.  0.
         24    2    1    2    0    0  0.31915798292E+03  0.57481200788E+02 -0.28266165848E+03  0.43772835597E+03  0.80886302539E+02 0.  0.
        -11    1    5    5    0    0  0.85651341946E+02 -0.19238534500E+02 -0.62574008501E+02  0.10780436043E+03  0.00000000000E+00 0.  1.
         12    1    5    5    0    0  0.23350664097E+03  0.76719735288E+02 -0.22008764998E+03  0.32992399554E+03  0.00000000000E+00 0. -1.
        -13    1    3    3    0    0 -0.32585282025E+03  0.96945502789E+02 -0.14090267795E+03  0.36801094499E+03  0.00000000000E+00 0.  1.
         14    1    3    3    0    0 -0.61579953278E+03  0.58404598632E+02 -0.23107882759E+03  0.66031627746E+03  0.00000000000E+00 0. -1.
          5    1    4    4  501    0  0.40143799814E+03 -0.12168647408E+03  0.32379960167E+03  0.52993238849E+03  0.47000000000E+01 0.  1.
         -5    1    4    4    0  501  0.12978319393E+02 -0.32703091890E+02  0.66736737977E+01  0.36118650521E+02  0.47000000000E+01 0.  1.
          1    1    1    2  502    0 -0.79862686417E+02  0.24934542345E+02 -0.13363858955E+04  0.13390022561E+04  0.00000000000E+00 0. -1.
          1    1    1    2  503    0  0.28794073900E+03 -0.83376278584E+02  0.18189417663E+04  0.18434778606E+04  0.00000000000E+00 0. -1.
<mgrwt>
<rscale>  0 0.15813905E+03</rscale>
<asrwt>0</asrwt>
<pdfrwt beam="1">  1        2 0.39507153E+00 0.29890699E+03</pdfrwt>
<pdfrwt beam="2">  1        2 0.37177946E+00 0.83664688E+02</pdfrwt>
<totfact> 0.29484679E+00</totfact>
</mgrwt>
</event>
<event>
13    1  0.1675423E-008  0.1255019E+03  0.7546771E-02  0.1288584E+00
          2   -1    0    0  502    0  0.00000000000E+00  0.00000000000E+00  0.18451760216E+04  0.18451760216E+04  0.00000000000E+00 0. -1.
          2   -1    0    0  503    0 -0.00000000000E+00 -0.00000000000E+00 -0.58186754859E+03  0.58186754859E+03  0.00000000000E+00 0. -1.
         24    2    1    2    0    0 -0.77453216509E+01  0.15865967314E+02  0.34262440669E+03  0.35241208031E+03  0.80567185397E+02 0.  0.
         25    2    1    2    0    0 -0.10081904775E+03 -0.34931432764E+02 -0.25985054211E+03  0.30745833360E+03  0.12499454901E+03 0.  0.
         24    2    1    2    0    0 -0.30918456188E+02  0.14474372477E+03  0.32522207206E+02  0.17144002185E+03  0.80170383164E+02 0.  0.
        -11    1    3    3    0    0 -0.42254240207E+02 -0.43453006301E+01  0.17920727796E+03  0.18417261177E+03  0.00000000000E+00 0.  1.
         12    1    3    3    0    0  0.34508918556E+02  0.20211267944E+02  0.16341712873E+03  0.16823946854E+03  0.00000000000E+00 0. -1.
        -11    1    5    5    0    0 -0.41191573197E+02  0.66462768785E+02  0.46914601912E+02  0.91186760056E+02  0.00000000000E+00 0.  1.
         12    1    5    5    0    0  0.10273117009E+02  0.78280955987E+02 -0.14392394705E+02  0.80253261795E+02  0.00000000000E+00 0. -1.
          5    1    4    4  501    0 -0.19922052392E+02  0.44825395384E+02 -0.97607215018E+02  0.10934103835E+03  0.47000000000E+01 0.  1.
         -5    1    4    4    0  501 -0.80896995354E+02 -0.79756828148E+02 -0.16224332709E+03  0.19811729526E+03  0.47000000000E+01 0.  1.
          1    1    1    2  502    0  0.10151493458E+03 -0.18882065184E+03  0.13571598410E+04  0.13739873925E+04  0.00000000000E+00 0. -1.
          1    1    1    2  503    0  0.37967891005E+02  0.63142392519E+02 -0.20914743983E+03  0.22174574194E+03  0.00000000000E+00 0. -1.
<mgrwt>
<rscale>  0 0.96160262E+02</rscale>
<asrwt>0</asrwt>
<pdfrwt beam="1">  1        2 0.27134941E+00 0.12550194E+03</pdfrwt>
<pdfrwt beam="2">  1        2 0.85568758E-01 0.73678508E+02</pdfrwt>
<totfact> 0.93603446E+01</totfact>
</mgrwt>
</event>
<event>
13    1  0.1675423E-008  0.9804255E+02  0.7546771E-02  0.1323519E+00
         -3   -1    0    0    0  501 -0.00000000000E+00  0.00000000000E+00  0.89136363110E+03  0.89136363110E+03  0.00000000000E+00 0.  1.
          2   -1    0    0  503    0  0.00000000000E+00 -0.00000000000E+00 -0.29778683341E+04  0.29778683341E+04  0.00000000000E+00 0. -1.
         24    2    1    2    0    0 -0.16013481045E+03  0.11095834224E+02 -0.11551458693E+04  0.11705305676E+04  0.10006775352E+03 0.  0.
         25    2    1    2    0    0  0.21592172693E+03 -0.56188451268E+02  0.38117674593E+03  0.45902107115E+03  0.12500119163E+03 0.  0.
         24    2    1    2    0    0  0.29702815536E+02 -0.35332766263E+01 -0.11602340863E+03  0.14394818147E+03  0.79780362888E+02 0.  0.
        -11    1    3    3    0    0 -0.53522287927E+02 -0.19910585072E+02 -0.17420384712E+03  0.18332497663E+03  0.00000000000E+00 0.  1.
         12    1    3    3    0    0 -0.10661252253E+03  0.31006419296E+02 -0.98094202220E+03  0.98720559101E+03  0.00000000000E+00 0. -1.
        -13    1    5    5    0    0  0.32365771664E+02 -0.38399792480E+02 -0.67060662612E+02  0.83780783643E+02  0.00000000000E+00 0.  1.
         14    1    5    5    0    0 -0.26629561275E+01  0.34866515854E+02 -0.48962746017E+02  0.60167397822E+02  0.00000000000E+00 0. -1.
          5    1    4    4  502    0  0.15871948541E+03 -0.61258804316E+02  0.35896633760E+03  0.39726998085E+03  0.47000000000E+01 0. -1.
         -5    1    4    4    0  502  0.57202241521E+02  0.50703530487E+01  0.22210408322E+02  0.61751090297E+02  0.47000000000E+01 0. -1.
          1    1    1    2  503    0  0.10921297243E+02  0.67676706332E+02 -0.16400273215E+04  0.16414594197E+04  0.00000000000E+00 0. -1.
         -4    1    1    2    0  501 -0.96411029255E+02 -0.19050812662E+02  0.44351515059E+03  0.45427272516E+03  0.00000000000E+00 0.  1.
<mgrwt>
<rscale>  0 0.81981934E+02</rscale>
<asrwt>0</asrwt>
<pdfrwt beam="2">  1        2 0.43792182E+00 0.68552252E+02</pdfrwt>
<pdfrwt beam="1">  1       -3 0.13108289E+00 0.98042548E+02</pdfrwt>
<totfact> 0.93406678E-01</totfact>
</mgrwt>
</event>
<event>
13    1  0.1675423E-008  0.4254098E+03  0.7546771E-02  0.1226658E+00
         -3   -1    0    0    0  501 -0.00000000000E+00  0.00000000000E+00  0.47297862230E+03  0.47297862230E+03  0.00000000000E+00 0.  1.
          2   -1    0    0  503    0  0.00000000000E+00 -0.00000000000E+00 -0.46065147449E+04  0.46065147449E+04  0.00000000000E+00 0. -1.
         24    2    1    2    0    0 -0.56923417399E+03  0.21949533631E+03 -0.15509681111E+04  0.16676436752E+04  0.57685338996E+02 0.  0.
         25    2    1    2    0    0 -0.71657574460E+02 -0.86798200570E+02 -0.26568305970E+03  0.31445613802E+03  0.12500575556E+03 0.  0.
         24    2    1    2    0    0  0.37214901006E+03 -0.42586684050E+03 -0.12910811122E+03  0.58581564814E+03  0.81569710650E+02 0.  0.
        -13    1    5    5    0    0  0.15361238856E+03 -0.23505345910E+03 -0.75718732402E+02  0.29082678864E+03  0.00000000000E+00 0.  1.
         14    1    5    5    0    0  0.21853662150E+03 -0.19081338140E+03 -0.53389378822E+02  0.29498885950E+03  0.00000000000E+00 0. -1.
        -13    1    3    3    0    0 -0.31314329407E+03  0.14401333531E+03 -0.92431923392E+03  0.98649105904E+03  0.00000000000E+00 0.  1.
         14    1    3    3    0    0 -0.25609087992E+03  0.75482000994E+02 -0.62664887720E+03  0.68115261620E+03  0.00000000000E+00 0. -1.
          5    1    4    4  502    0 -0.70491610939E+02 -0.41625032496E+02 -0.54539929993E+02  0.98480477795E+02  0.47000000000E+01 0. -1.
         -5    1    4    4    0  502 -0.11659635201E+01 -0.45173168075E+02 -0.21114312971E+03  0.21597566022E+03  0.47000000000E+01 0. -1.
          1    1    1    2  503    0  0.28330997189E+03  0.33048378256E+03 -0.23266618370E+04  0.23670317646E+04  0.00000000000E+00 0. -1.
         -4    1    1    2    0  501 -0.14567233498E+02 -0.37314077799E+02  0.13888499648E+03  0.14454614122E+03  0.00000000000E+00 0.  1.
<mgrwt>
<rscale>  0 0.13053942E+03</rscale>
<asrwt>0</asrwt>
<pdfrwt beam="2">  1        2 0.67742861E+00 0.42540976E+03</pdfrwt>
<pdfrwt beam="1">  1       -3 0.69555682E-01 0.40056768E+02</pdfrwt>
<totfact> 0.22247791E-01</totfact>
</mgrwt>
</event>
<event>
13    1  0.1675423E-008  0.6084629E+02  0.7546771E-02  0.1425250E+00
          2   -1    0    0  502    0  0.00000000000E+00  0.00000000000E+00  0.97147705543E+03  0.97147705543E+03  0.00000000000E+00 0. -1.
          2   -1    0    0  503    0 -0.00000000000E+00 -0.00000000000E+00 -0.79614141453E+03  0.79614141453E+03  0.00000000000E+00 0. -1.
         24    2    1    2    0    0 -0.17345073575E+03  0.54163522714E+02  0.27565229359E+03  0.33965037217E+03  0.79745491560E+02 0.  0.
         25    2    1    2    0    0  0.28071596071E+03 -0.12385005201E+03 -0.95053584524E+02  0.34467465801E+03  0.12500059984E+03 0.  0.
         24    2    1    2    0    0 -0.45961314625E+02  0.23447339702E+02 -0.10656033954E+03  0.14343763311E+03  0.80975480530E+02 0.  0.
        -11    1    5    5    0    0  0.13880682019E+02 -0.26050855615E+01 -0.63953784768E+02  0.65494628713E+02  0.00000000000E+00 0.  1.
         12    1    5    5    0    0 -0.59841996643E+02  0.26052425263E+02 -0.42606554775E+02  0.77943004395E+02  0.00000000000E+00 0. -1.
        -13    1    3    3    0    0 -0.12437978083E+03  0.67570336427E+02  0.23582487705E+03  0.27504445619E+03  0.00000000000E+00 0.  1.
         14    1    3    3    0    0 -0.49070954923E+02 -0.13406813713E+02  0.39827416543E+02  0.64605915979E+02  0.00000000000E+00 0. -1.
          5    1    4    4  501    0  0.29213413387E+03 -0.12666204142E+03 -0.89066062423E+02  0.33066671799E+03  0.47000000000E+01 0. -1.
         -5    1    4    4    0  501 -0.11418173158E+02  0.28119894093E+01 -0.59875221012E+01  0.14007940020E+02  0.47000000000E+01 0. -1.
          1    1    1    2  502    0 -0.47418543240E+00  0.47789273637E+02  0.51726140780E+03  0.51946453539E+03  0.00000000000E+00 0. -1.
          1    1    1    2  503    0 -0.60829724904E+02 -0.15500840422E+01 -0.41596413643E+03  0.42039127130E+03  0.00000000000E+00 0. -1.
<mgrwt>
<rscale>  0 0.53925347E+02</rscale>
<asrwt>0</asrwt>
<pdfrwt beam="1">  1        2 0.14286427E+00 0.47791626E+02</pdfrwt>
<pdfrwt beam="2">  1        2 0.11707962E+00 0.60846288E+02</pdfrwt>
<totfact> 0.19590612E+02</totfact>
</mgrwt>
</event>
<event>
13    1  0.1675423E-008  0.1403805E+03  0.7546771E-02  0.1256698E+00
          2   -1    0    0  503    0  0.00000000000E+00  0.00000000000E+00  0.19526674101E+04  0.19526674101E+04  0.00000000000E+00 0. -1.
          2   -1    0    0  502    0 -0.00000000000E+00 -0.00000000000E+00 -0.21203343090E+04  0.21203343090E+04  0.00000000000E+00 0. -1.
         24    2    1    2    0    0 -0.77418869571E+02  0.48155779512E+02  0.33900433441E+03  0.36001569651E+03  0.79841734198E+02 0.  0.
         25    2    1    2    0    0 -0.14737389827E+03  0.18361938575E+03 -0.70209289885E+03  0.75099517952E+03  0.12499670531E+03 0.  0.
         24    2    1    2    0    0 -0.24657443272E+02 -0.14553424790E+02 -0.36322619172E+01  0.85650352890E+02  0.80641167785E+02 0.  0.
        -11    1    3    3    0    0 -0.83861192948E+02  0.22054055734E+02  0.30247822463E+03  0.31466197329E+03  0.00000000000E+00 0.  1.
         12    1    3    3    0    0  0.64423233771E+01  0.26101723778E+02  0.36526109775E+02  0.45353723220E+02  0.00000000000E+00 0. -1.
        -11    1    5    5    0    0 -0.20834185801E+02 -0.39843234527E+02  0.21459603233E+02  0.49820289104E+02  0.00000000000E+00 0.  1.
         12    1    5    5    0    0 -0.38232574715E+01  0.25289809737E+02 -0.25091865150E+02  0.35830063786E+02  0.00000000000E+00 0. -1.
          5    1    4    4  501    0 -0.10983305921E+01 -0.14741912234E+02 -0.86519801211E+02  0.87899353285E+02  0.47000000000E+01 0. -1.
         -5    1    4    4    0  501 -0.14627556768E+03  0.19836129798E+03 -0.61557309764E+03  0.66309582624E+03  0.47000000000E+01 0. -1.
          1    1    1    2  502    0  0.11427410580E+03 -0.19638830928E+03 -0.13259189636E+04  0.13452464597E+04  0.00000000000E+00 0. -1.
          1    1    1    2  503    0  0.13517610532E+03 -0.20833431191E+02  0.15249728911E+04  0.15310940304E+04  0.00000000000E+00 0. -1.
<mgrwt>
<rscale>  0 0.11211749E+03</rscale>
<asrwt>0</asrwt>
<pdfrwt beam="1">  1        2 0.28715698E+00 0.89544678E+02</pdfrwt>
<pdfrwt beam="2">  1        2 0.31181387E+00 0.14038054E+03</pdfrwt>
<totfact> 0.11753441E+01</totfact>
</mgrwt>
</event>
<event>
13    1  0.1675423E-008  0.9756496E+02  0.7546771E-02  0.1386859E+00
          2   -1    0    0  503    0  0.00000000000E+00  0.00000000000E+00  0.13218112262E+04  0.13218112262E+04  0.00000000000E+00 0. -1.
          2   -1    0    0  502    0 -0.00000000000E+00 -0.00000000000E+00 -0.18884667760E+04  0.18884667760E+04  0.00000000000E+00 0. -1.
         24    2    1    2    0    0  0.43499005914E+02  0.18860260034E+03  0.31769785388E+03  0.38137088998E+03  0.83956685210E+02 0.  0.
         25    2    1    2    0    0  0.42190970399E+02  0.24164770488E+02 -0.41794068674E+03  0.43893418675E+03  0.12499915419E+03 0.  0.
         24    2    1    2    0    0  0.10303146638E+02 -0.11442079390E+03  0.22524982889E+01  0.14322757590E+03  0.85503168606E+02 0.  0.
        -11    1    5    5    0    0 -0.10526443902E+02  0.11243268226E+01  0.21771181109E+02  0.24208561686E+02  0.00000000000E+00 0.  1.
         12    1    5    5    0    0  0.20829590540E+02 -0.11554512072E+03 -0.19518682820E+02  0.11901901421E+03  0.00000000000E+00 0. -1.
        -11    1    3    3    0    0  0.32156453285E+02  0.24680200523E+02  0.31413488116E+02  0.51283106588E+02  0.00000000000E+00 0.  1.
         12    1    3    3    0    0  0.11342552629E+02  0.16392239981E+03  0.28628436576E+03  0.33008778339E+03  0.00000000000E+00 0. -1.
          5    1    4    4  501    0  0.85793277094E+01  0.32047535202E+02 -0.19088511444E+02  0.38563073602E+02  0.47000000000E+01 0. -1.
         -5    1    4    4    0  501  0.33611642690E+02 -0.78827647137E+01 -0.39885217530E+03  0.40037111315E+03  0.47000000000E+01 0. -1.
          1    1    1    2  502    0 -0.25478981785E+02 -0.31206977390E+02 -0.13547391481E+04  0.13553380440E+04  0.00000000000E+00 0. -1.
          1    1    1    2  503    0 -0.70514141166E+02 -0.67139599536E+02  0.88607393290E+03  0.89140730561E+03  0.00000000000E+00 0. -1.
<mgrwt>
<rscale>  0 0.62694607E+02</rscale>
<asrwt>0</asrwt>
<pdfrwt beam="1">  1        2 0.19438401E+00 0.97564965E+02</pdfrwt>
<pdfrwt beam="2">  1        2 0.27771570E+00 0.40287144E+02</pdfrwt>
<totfact> 0.34981589E+01</totfact>
</mgrwt>
</event>
<event>
13    1  0.1675423E-008  0.1637807E+03  0.7546771E-02  0.1269434E+00
          4   -1    0    0  503    0 -0.00000000000E+00  0.00000000000E+00  0.27953679764E+04  0.27953679764E+04  0.00000000000E+00 0. -1.
          2   -1    0    0  502    0  0.00000000000E+00 -0.00000000000E+00 -0.50702580261E+04  0.50702580261E+04  0.00000000000E+00 0. -1.
         24    2    1    2    0    0 -0.89520040912E+02  0.26861764144E+03  0.23015797420E+03  0.37338076431E+03  0.79191079379E+02 0.  0.
         25    2    1    2    0    0  0.11192901956E+03 -0.34764838616E+03  0.53015941097E+03  0.65580598865E+03  0.12499995156E+03 0.  0.
         24    2    1    2    0    0 -0.19849662852E+03  0.11039635986E+03  0.87533598681E+03  0.90762781891E+03  0.77375060875E+02 0.  0.
        -11    1    5    5    0    0 -0.10644610951E+03  0.26648609301E+02  0.51021195204E+03  0.52187849027E+03  0.00000000000E+00 0.  1.
         12    1    5    5    0    0 -0.92050519008E+02  0.83747750556E+02  0.36512403478E+03  0.38574932864E+03  0.00000000000E+00 0. -1.
        -13    1    3    3    0    0 -0.62414131083E+02  0.22644209659E+03  0.14955173008E+03  0.27845514331E+03  0.00000000000E+00 0.  1.
         14    1    3    3    0    0 -0.27105909829E+02  0.42175544844E+02  0.80606244118E+02  0.94925620996E+02  0.00000000000E+00 0. -1.
          5    1    4    4  501    0  0.79930074157E+02 -0.81724784425E+02  0.11899814731E+03  0.16507697055E+03  0.47000000000E+01 0.  1.
         -5    1    4    4    0  501  0.31998945400E+02 -0.26592360174E+03  0.41116126366E+03  0.49072901809E+03  0.47000000000E+01 0.  1.
          1    1    1    2  502    0  0.16010731457E+03  0.34486501940E+02 -0.49171749133E+04  0.49199017062E+04  0.00000000000E+00 0. -1.
          3    1    1    2  503    0  0.15980335298E+02 -0.65852117070E+02  0.10066314915E+04  0.10089097244E+04  0.00000000000E+00 0. -1.
<mgrwt>
<rscale>  0 0.10534861E+03</rscale>
<asrwt>0</asrwt>
<pdfrwt beam="2">  1        2 0.74562618E+00 0.16378068E+03</pdfrwt>
<pdfrwt beam="1">  1        4 0.41108353E+00 0.67763356E+02</pdfrwt>
<totfact> 0.39352282E-04</totfact>
</mgrwt>
</event>
<event>
13    1  0.1675423E-008  0.7230959E+02  0.7546771E-02  0.1370536E+00
         -1   -1    0    0    0  501 -0.00000000000E+00  0.00000000000E+00  0.11753766716E+03  0.11753766716E+03  0.00000000000E+00 0.  1.
          2   -1    0    0  503    0  0.00000000000E+00 -0.00000000000E+00 -0.34213850971E+04  0.34213850971E+04  0.00000000000E+00 0. -1.
         24    2    1    2    0    0 -0.59907903613E+02 -0.10479872256E+02 -0.15108592096E+04  0.15130634382E+04  0.54466797753E+02 0.  0.
         25    2    1    2    0    0 -0.32515332616E+02  0.17859494847E+02 -0.86987734689E+01  0.13068661390E+03  0.12500845564E+03 0.  0.
         24    2    1    2    0    0  0.12345346942E+03 -0.36888692255E+02 -0.42787061875E+03  0.45402815750E+03  0.80416209075E+02 0.  0.
        -11    1    3    3    0    0 -0.40058418176E+02 -0.31601947720E+02 -0.11002590857E+04  0.11014415172E+04  0.00000000000E+00 0.  1.
         12    1    3    3    0    0 -0.19849485437E+02  0.21122075464E+02 -0.41060012388E+03  0.41162192103E+03  0.00000000000E+00 0. -1.
        -11    1    5    5    0    0  0.36817747968E+02  0.74370842213E+01 -0.43234475411E+02  0.57271953443E+02  0.00000000000E+00 0.  1.
         12    1    5    5    0    0  0.86635721449E+02 -0.44325776477E+02 -0.38463614334E+03  0.39675620405E+03  0.00000000000E+00 0. -1.
          5    1    4    4  502    0  0.10915632893E+01 -0.52228672099E+02 -0.13302119469E+01  0.52467944151E+02  0.47000000000E+01 0.  1.
         -5    1    4    4    0  502 -0.33606895905E+02  0.70088166945E+02 -0.73685615220E+01  0.78218669747E+02  0.47000000000E+01 0.  1.
          1    1    1    2  503    0  0.14805297573E+02  0.71429464335E+02 -0.13745136756E+04  0.13764480410E+04  0.00000000000E+00 0. -1.
         -2    1    1    2    0  501 -0.45835530761E+02 -0.41920394670E+02  0.18094847528E+02  0.64696513635E+02  0.00000000000E+00 0.  1.
<mgrwt>
<rscale>  0 0.67018480E+02</rscale>
<asrwt>0</asrwt>
<pdfrwt beam="2">  1        2 0.50314480E+00 0.72309593E+02</pdfrwt>
<pdfrwt beam="1">  1       -1 0.17284953E-01 0.62114534E+02</pdfrwt>
<totfact> 0.49298330E+01</totfact>
</mgrwt>
</event>
<event>
13    1  0.1675423E-008  0.7139460E+02  0.7546771E-02  0.1374087E+00
          2   -1    0    0  503    0  0.00000000000E+00  0.00000000000E+00  0.23934828354E+04  0.23934828354E+04  0.00000000000E+00 0. -1.
         -3   -1    0    0    0  501 -0.00000000000E+00 -0.00000000000E+00 -0.40173535471E+03  0.40173535471E+03  0.00000000000E+00 0.  1.
         24    2    1    2    0    0  0.10040666187E+03 -0.26480383700E+02  0.71250672628E+03  0.72442324770E+03  0.79627246232E+02 0.  0.
         25    2    1    2    0    0 -0.57776364766E+02 -0.26639382395E+02 -0.81920076327E+02  0.16243130066E+03  0.12500105403E+03 0.  0.
         24    2    1    2    0    0 -0.70425969896E+02  0.46977064285E+02  0.20924360681E+03  0.23896176113E+03  0.78442172882E+02 0.  0.
        -11    1    3    3    0    0  0.29575944684E+02  0.26242445665E+02  0.15480719277E+03  0.15977693636E+03  0.00000000000E+00 0.  1.
         12    1    3    3    0    0  0.70830717184E+02 -0.52722829365E+02  0.55769953351E+03  0.56464631134E+03  0.00000000000E+00 0. -1.
        -13    1    5    5    0    0  0.28517583070E+01 -0.16221228998E+02  0.16619261411E+02  0.23397876944E+02  0.00000000000E+00 0.  1.
         14    1    5    5    0    0 -0.73277728203E+02  0.63198293283E+02  0.19262434540E+03  0.21556388419E+03  0.00000000000E+00 0. -1.
          5    1    4    4  502    0 -0.22372994539E+02 -0.75842446403E+02 -0.51125239702E+02  0.94278882554E+02  0.47000000000E+01 0. -1.
         -5    1    4    4    0  502 -0.35403370227E+02  0.49203064008E+02 -0.30794836625E+02  0.68152418108E+02  0.47000000000E+01 0. -1.
          1    1    1    2  503    0 -0.23191774749E+02  0.56521100884E+02  0.14050188502E+04  0.14063464946E+04  0.00000000000E+00 0. -1.
         -4    1    1    2    0  501  0.50987447543E+02 -0.50378399073E+02 -0.25310162630E+03  0.26305538606E+03  0.00000000000E+00 0.  1.
<mgrwt>
<rscale>  0 0.66043860E+02</rscale>
<asrwt>0</asrwt>
<pdfrwt beam="1">  1        2 0.35198276E+00 0.61094134E+02</pdfrwt>
<pdfrwt beam="2">  1       -3 0.59078730E-01 0.71394602E+02</pdfrwt>
<totfact> 0.10587160E+01</totfact>
</mgrwt>
</event>
<event>
13    1  0.1675423E-008  0.1529013E+03  0.7546771E-02  0.1363831E+00
          2   -1    0    0  502    0  0.00000000000E+00  0.00000000000E+00  0.22993199913E+04  0.22993199913E+04  0.00000000000E+00 0. -1.
          2   -1    0    0  503    0 -0.00000000000E+00 -0.00000000000E+00 -0.41571842339E+04  0.41571842339E+04  0.00000000000E+00 0. -1.
         24    2    1    2    0    0  0.31235023825E+03  0.83637965563E+01 -0.11488795574E+03  0.33916882363E+03  0.64835361639E+02 0.  0.
         25    2    1    2    0    0  0.20210754152E+02  0.23594555672E+03 -0.17285635798E+04  0.17491812884E+04  0.12499739921E+03 0.  0.
         24    2    1    2    0    0 -0.26025553247E+03 -0.77153532353E+02 -0.39833439644E+02  0.28594563699E+03  0.80576638460E+02 0.  0.
        -13    1    3    3    0    0  0.22050020798E+03  0.32182136394E+02 -0.65872292674E+02  0.23236865228E+03  0.00000000000E+00 0.  1.
         14    1    3    3    0    0  0.91850030273E+02 -0.23818339838E+02 -0.49015663065E+02  0.10680017135E+03  0.00000000000E+00 0. -1.
        -13    1    5    5    0    0 -0.78566158795E+02 -0.92475108813E+01 -0.46691297176E+02  0.91859866086E+02  0.00000000000E+00 0.  1.
         14    1    5    5    0    0 -0.18168937368E+03 -0.67906021471E+02  0.68578575327E+01  0.19408577091E+03  0.00000000000E+00 0. -1.
          5    1    4    4  501    0  0.19073278608E+02  0.81037023475E+02 -0.10425202340E+04  0.10458495673E+04  0.47000000000E+01 0. -1.
         -5    1    4    4    0  501  0.11374755446E+01  0.15490853325E+03 -0.68604334580E+03  0.70333172105E+03  0.47000000000E+01 0. -1.
          1    1    1    2  502    0 -0.69321356036E+02 -0.13624080701E+03  0.20508510377E+04  0.20565400523E+04  0.00000000000E+00 0. -1.
          1    1    1    2  503    0 -0.29841038954E+01 -0.30915013915E+02 -0.20254303050E+04  0.20256684239E+04  0.00000000000E+00 0. -1.
<mgrwt>
<rscale>  0 0.68912375E+02</rscale>
<asrwt>0</asrwt>
<pdfrwt beam="1">  1        2 0.33813530E+00 0.15290128E+03</pdfrwt>
<pdfrwt beam="2">  1        2 0.61135062E+00 0.31058702E+02</pdfrwt>
<totfact> 0.73779944E-01</totfact>
</mgrwt>
</event>
<event>
13    1  0.1675423E-008  0.3621702E+03  0.7546771E-02  0.1198510E+00
          2   -1    0    0  502    0  0.00000000000E+00  0.00000000000E+00  0.31859324105E+04  0.31859324105E+04  0.00000000000E+00 0. -1.
          2   -1    0    0  503    0 -0.00000000000E+00 -0.00000000000E+00 -0.20865133707E+04  0.20865133707E+04  0.00000000000E+00 0. -1.
         24    2    1    2    0    0  0.26758244743E+02 -0.10662349800E+03  0.12597939782E+03  0.18590693143E+03  0.81277330748E+02 0.  0.
         25    2    1    2    0    0 -0.28144120296E+03 -0.90782391058E+02 -0.10188089173E+03  0.33683012755E+03  0.12499690187E+03 0.  0.
         24    2    1    2    0    0 -0.16240803421E+02  0.28112513448E+02 -0.90577563834E+02  0.12484392765E+03  0.79546427273E+02 0.  0.
        -11    1    3    3    0    0  0.22510660482E+02 -0.33644774568E+01 -0.25748179799E+00  0.22762158087E+02  0.00000000000E+00 0.  1.
         12    1    3    3    0    0  0.42475842604E+01 -0.10325902054E+03  0.12623687961E+03  0.16314477335E+03  0.00000000000E+00 0. -1.
        -11    1    5    5    0    0 -0.46083771669E+00  0.54837968585E+02 -0.55986702185E+02  0.78370440802E+02  0.00000000000E+00 0.  1.
         12    1    5    5    0    0 -0.15779965705E+02 -0.26725455136E+02 -0.34590861649E+02  0.46473486845E+02  0.00000000000E+00 0. -1.
          5    1    4    4  501    0 -0.63167639614E+02 -0.59509734467E+02 -0.74712270725E+02  0.11461052564E+03  0.47000000000E+01 0. -1.
         -5    1    4    4    0  501 -0.21827356335E+03 -0.31272656591E+02 -0.27168621009E+02  0.22221960191E+03  0.47000000000E+01 0. -1.
          1    1    1    2  502    0 -0.63449150750E+02  0.14283037543E+01  0.28747921842E+04  0.28754926425E+04  0.00000000000E+00 0. -1.
          1    1    1    2  503    0  0.33437291239E+03  0.16786507185E+03 -0.17088940867E+04  0.17493721520E+04  0.00000000000E+00 0. -1.
<mgrwt>
<rscale>  0 0.15160875E+03</rscale>
<asrwt>0</asrwt>
<pdfrwt beam="1">  1        2 0.46851947E+00 0.63465225E+02</pdfrwt>
<pdfrwt beam="2">  1        2 0.30684020E+00 0.36217019E+03</pdfrwt>
<totfact> 0.28192270E+00</totfact>
</mgrwt>
</event>
<event>
13    1  0.1675423E-008  0.4286899E+02  0.7546771E-02  0.1519319E+00
          2   -1    0    0  503    0  0.00000000000E+00  0.00000000000E+00  0.35525970763E+04  0.35525970763E+04  0.00000000000E+00 0. -1.
          2   -1    0    0  502    0 -0.00000000000E+00 -0.00000000000E+00 -0.16057622884E+03  0.16057622884E+03  0.00000000000E+00 0. -1.
         24    2    1    2    0    0  0.41534505829E+02 -0.26209986990E+02  0.19211520290E+04  0.19235443122E+04  0.82374291209E+02 0.  0.
         25    2    1    2    0    0  0.13235094922E+02 -0.93625410955E+02  0.28977494501E+03  0.32945406607E+03  0.12501830898E+03 0.  0.
         24    2    1    2    0    0 -0.32673533746E+02  0.45918239525E+02  0.42993048263E+03  0.44100332997E+03  0.80421841686E+02 0.  0.
        -11    1    3    3    0    0  0.43070996568E+01 -0.12589379991E+02  0.43861491546E+02  0.45835292479E+02  0.00000000000E+00 0.  1.
         12    1    3    3    0    0  0.37227406172E+02 -0.13620606999E+02  0.18772905375E+04  0.18777090198E+04  0.00000000000E+00 0. -1.
        -13    1    5    5    0    0 -0.30300637568E+02 -0.14416915767E+02  0.96959990930E+02  0.10260222190E+03  0.00000000000E+00 0.  1.
         14    1    5    5    0    0 -0.23728961783E+01  0.60335155291E+02  0.33297049170E+03  0.33840110807E+03  0.00000000000E+00 0. -1.
          5    1    4    4  501    0  0.71333539592E+01 -0.24124330225E+01  0.20341393124E+03  0.20360751949E+03  0.47000000000E+01 0. -1.
         -5    1    4    4    0  501  0.61017409626E+01 -0.91212977933E+02  0.86361013772E+02  0.12584654658E+03  0.47000000000E+01 0. -1.
          1    1    1    2  502    0 -0.15500882399E+02  0.39921456054E+02 -0.13023385058E+03  0.13709433193E+03  0.00000000000E+00 0. -1.
          1    1    1    2  503    0 -0.65951846063E+01  0.33995702367E+02  0.88139724140E+03  0.88207726498E+03  0.00000000000E+00 0. -1.
<mgrwt>
<rscale>  0 0.38529638E+02</rscale>
<asrwt>0</asrwt>
<pdfrwt beam="1">  1        2 0.52244070E+00 0.34629528E+02</pdfrwt>
<pdfrwt beam="2">  1        2 0.23614154E-01 0.42868994E+02</pdfrwt>
<totfact> 0.58377732E+01</totfact>
</mgrwt>
</event>
<event>
13    1  0.1675423E-008  0.9545896E+02  0.7546771E-02  0.1317954E+00
          2   -1    0    0  503    0  0.00000000000E+00  0.00000000000E+00  0.33036832995E+04  0.33036832995E+04  0.00000000000E+00 0. -1.
          2   -1    0    0  502    0 -0.00000000000E+00 -0.00000000000E+00 -0.29723821787E+03  0.29723821787E+03  0.00000000000E+00 0. -1.
         24    2    1    2    0    0 -0.50708392061E+02  0.32302257839E+02  0.84643046896E+03  0.85204605770E+03  0.76962125572E+02 0.  0.
         25    2    1    2    0    0  0.27707006949E+02  0.80386394581E+02  0.87046374165E+02  0.17445239049E+03  0.12500765827E+03 0.  0.
         24    2    1    2    0    0  0.69932093691E+02 -0.20891391790E+01  0.26746708478E+03  0.28710041396E+03  0.77415399147E+02 0.  0.
        -11    1    5    5    0    0  0.64243032958E+01 -0.51647396281E+00  0.17381782627E+03  0.17393727360E+03  0.00000000000E+00 0.  1.
         12    1    5    5    0    0  0.63507790395E+02 -0.15726652162E+01  0.93649258508E+02  0.11316314036E+03  0.00000000000E+00 0. -1.
        -13    1    3    3    0    0  0.18324465601E+02 -0.12598351462E+01  0.25405937746E+03  0.25472247741E+03  0.00000000000E+00 0.  1.
         14    1    3    3    0    0 -0.69032857663E+02  0.33562092985E+02  0.59237109150E+03  0.59732358029E+03  0.00000000000E+00 0. -1.
          5    1    4    4  501    0 -0.29398137836E+01  0.73855433335E+02  0.11189471874E+03  0.13418563865E+03  0.47000000000E+01 0. -1.
         -5    1    4    4    0  501  0.30646820733E+02  0.65309612467E+01 -0.24848344574E+02  0.40266751842E+02  0.47000000000E+01 0. -1.
          1    1    1    2  502    0  0.25167844324E+02 -0.93965550273E+02 -0.23039123524E+03  0.25008611777E+03  0.00000000000E+00 0. -1.
          1    1    1    2  503    0 -0.72098552903E+02 -0.16633962968E+02  0.20358923890E+04  0.20372365375E+04  0.00000000000E+00 0. -1.
<mgrwt>
<rscale>  0 0.84043128E+02</rscale>
<asrwt>0</asrwt>
<pdfrwt beam="1">  1        2 0.48583576E+00 0.73992500E+02</pdfrwt>
<pdfrwt beam="2">  1        2 0.43711504E-01 0.95458964E+02</pdfrwt>
<totfact> 0.37101280E+01</totfact>
</mgrwt>
</event>
<event>
13    1  0.1675423E-008  0.1028879E+03  0.7546771E-02  0.1391121E+00
          2   -1    0    0  503    0  0.00000000000E+00  0.00000000000E+00  0.18732364910E+04  0.18732364910E+04  0.00000000000E+00 0. -1.
          2   -1    0    0  502    0 -0.00000000000E+00 -0.00000000000E+00 -0.99195632073E+03  0.99195632073E+03  0.00000000000E+00 0. -1.
         24    2    1    2    0    0  0.53490917004E+02 -0.18853281776E+03  0.12262289389E+04  0.12443470668E+04  0.79726472235E+02 0.  0.
         25    2    1    2    0    0 -0.86817644648E+02  0.95214988337E+02 -0.32458153031E+03  0.37091716955E+03  0.12499271750E+03 0.  0.
         24    2    1    2    0    0  0.59102482332E+02  0.12760154891E+01 -0.47078000070E+03  0.48654235033E+03  0.10767970082E+03 0.  0.
        -11    1    5    5    0    0  0.17234663323E+02  0.30072647214E+02 -0.40650056711E+02  0.53421202167E+02  0.00000000000E+00 0.  1.
         12    1    5    5    0    0  0.41867819008E+02 -0.28796631725E+02 -0.43012994399E+03  0.43312114816E+03  0.00000000000E+00 0. -1.
        -13    1    3    3    0    0  0.37365196476E+02 -0.94585513281E+02  0.40367660582E+03  0.41629001828E+03  0.00000000000E+00 0.  1.
         14    1    3    3    0    0  0.16125720528E+02 -0.93947304480E+02  0.82255233312E+03  0.82805704852E+03  0.00000000000E+00 0. -1.
          5    1    4    4  501    0  0.32121159474E+02  0.20814564121E+02 -0.82855154141E+02  0.91389723346E+02  0.47000000000E+01 0.  1.
         -5    1    4    4    0  501 -0.11893880412E+03  0.74400424216E+02 -0.24172637616E+03  0.27952744621E+03  0.47000000000E+01 0.  1.
          1    1    1    2  502    0 -0.35399879614E+02 -0.10466762900E+02 -0.14986407946E+03  0.15434360017E+03  0.00000000000E+00 0. -1.
          1    1    1    2  503    0  0.96241249265E+01  0.10250857683E+03  0.60027684180E+03  0.60904262487E+03  0.00000000000E+00 0. -1.
<mgrwt>
<rscale>  0 0.61628632E+02</rscale>
<asrwt>0</asrwt>
<pdfrwt beam="1">  1        2 0.27547595E+00 0.10288787E+03</pdfrwt>
<pdfrwt beam="2">  1        2 0.14587593E+00 0.36914829E+02</pdfrwt>
<totfact> 0.51029019E+01</totfact>
</mgrwt>
</event>
<event>
13    1  0.1675423E-008  0.7819599E+02  0.7546771E-02  0.1507390E+00
          2   -1    0    0  503    0  0.00000000000E+00  0.00000000000E+00  0.18209723666E+04  0.18209723666E+04  0.00000000000E+00 0. -1.
         -1   -1    0    0    0  501 -0.00000000000E+00 -0.00000000000E+00 -0.15862683336E+03  0.15862683336E+03  0.00000000000E+00 0.  1.
         24    2    1    2    0    0 -0.70003760558E+02 -0.14993458322E+02  0.35516657828E+03  0.37131623142E+03  0.81284162696E+02 0.  0.
         25    2    1    2    0    0  0.16527914720E+03  0.23192257441E+02  0.24775432521E+03  0.32384691697E+03  0.12505815715E+03 0.  0.
         24    2    1    2    0    0 -0.19434113505E+02  0.53259467250E+02  0.89060348186E+02  0.13131532014E+03  0.78087848378E+02 0.  0.
        -11    1    5    5    0    0 -0.88191626695E+01  0.58530174144E+02  0.99333057489E+02  0.11563137648E+03  0.00000000000E+00 0.  1.
         12    1    5    5    0    0 -0.10614950835E+02 -0.52707068939E+01 -0.10272709302E+02  0.15683943662E+02  0.00000000000E+00 0. -1.
        -11    1    3    3    0    0  0.14029531604E+02 -0.19641697973E+02  0.76447569882E+02  0.80167668029E+02  0.00000000000E+00 0.  1.
         12    1    3    3    0    0 -0.84033292162E+02  0.46482396504E+01  0.27871900840E+03  0.29114856339E+03  0.00000000000E+00 0. -1.
          5    1    4    4  502    0  0.15828431475E+03  0.61027942710E+02  0.19804910829E+03  0.26081386731E+03  0.47000000000E+01 0. -1.
         -5    1    4    4    0  502  0.69948324451E+01 -0.37835685269E+02  0.49705216917E+02  0.63033049660E+02  0.47000000000E+01 0. -1.
          1    1    1    2  503    0 -0.57228778037E+02 -0.52686364516E+02  0.10591394880E+04  0.10619922039E+04  0.00000000000E+00 0. -1.
         -2    1    1    2    0  501 -0.18612495098E+02 -0.87719018530E+01 -0.88775206488E+02  0.91128527492E+02  0.00000000000E+00 0.  1.
<mgrwt>
<rscale>  0 0.40111840E+02</rscale>
<asrwt>0</asrwt>
<pdfrwt beam="1">  1        2 0.26779004E+00 0.78195991E+02</pdfrwt>
<pdfrwt beam="2">  1       -1 0.23327476E-01 0.20575987E+02</pdfrwt>
<totfact> 0.18689863E+02</totfact>
</mgrwt>
</event>
<event>
13    1  0.1675423E-008  0.1258483E+03  0.7546771E-02  0.1240042E+00
          2   -1    0    0  502    0  0.00000000000E+00  0.00000000000E+00  0.21726961819E+04  0.21726961819E+04  0.00000000000E+00 0. -1.
          2   -1    0    0  503    0 -0.00000000000E+00 -0.00000000000E+00 -0.35134043366E+03  0.35134043366E+03  0.00000000000E+00 0. -1.
         24    2    1    2    0    0 -0.43340690147E+02 -0.54146629818E+02  0.19440069857E+03  0.22164745414E+03  0.80781739142E+02 0.  0.
         25    2    1    2    0    0  0.10808003913E+03  0.16463331766E+02  0.33080894440E+03  0.37015285445E+03  0.12500496715E+03 0.  0.
         24    2    1    2    0    0 -0.52957480623E+02  0.25818241625E+02 -0.21736248606E+02  0.99769953286E+02  0.77527432053E+02 0.  0.
        -11    1    3    3    0    0 -0.62684480476E+02 -0.55376848406E+02  0.17626448546E+03  0.19510281461E+03  0.00000000000E+00 0.  1.
         12    1    3    3    0    0  0.19343790328E+02  0.12302185877E+01  0.18136213105E+02  0.26544639531E+02  0.00000000000E+00 0. -1.
        -13    1    5    5    0    0  0.32402714270E+01  0.21841724992E+02 -0.35470493634E+02  0.41781769089E+02  0.00000000000E+00 0.  1.
         14    1    5    5    0    0 -0.56197752050E+02  0.39765166331E+01  0.13734245029E+02  0.57988184197E+02  0.00000000000E+00 0. -1.
          5    1    4    4  501    0  0.12128473632E+03 -0.21381710617E+02  0.21919902935E+03  0.25147061316E+03  0.47000000000E+01 0.  1.
         -5    1    4    4    0  501 -0.13204697197E+02  0.37845042383E+02  0.11160991505E+03  0.11868224129E+03  0.47000000000E+01 0.  1.
          1    1    1    2  502    0  0.56422956917E+02  0.17020101684E+03  0.15404985773E+04  0.15508990305E+04  0.00000000000E+00 0. -1.
          1    1    1    2  503    0 -0.68204825273E+02 -0.15833596041E+03 -0.22261622342E+03  0.28156732317E+03  0.00000000000E+00 0. -1.
<mgrwt>
<rscale>  0 0.12187086E+03</rscale>
<asrwt>0</asrwt>
<pdfrwt beam="1">  1        2 0.31951414E+00 0.11801916E+03</pdfrwt>
<pdfrwt beam="2">  1        2 0.51667712E-01 0.12584827E+03</pdfrwt>
<totfact> 0.11132233E+02</totfact>
</mgrwt>
</event>
<event>
13    1  0.1675423E-008  0.1784512E+03  0.7546771E-02  0.1226812E+00
          2   -1    0    0  503    0  0.00000000000E+00  0.00000000000E+00  0.25288785161E+04  0.25288785161E+04  0.00000000000E+00 0. -1.
          2   -1    0    0  502    0 -0.00000000000E+00 -0.00000000000E+00 -0.63121300798E+03  0.63121300798E+03  0.00000000000E+00 0. -1.
         24    2    1    2    0    0 -0.88492395960E+02 -0.19205550807E+02  0.15607550703E+03  0.19896824400E+03  0.83839375604E+02 0.  0.
         25    2    1    2    0    0 -0.17385348258E+03  0.13444631842E+03  0.12155397870E+03  0.28053781556E+03  0.12500100112E+03 0.  0.
         24    2    1    2    0    0  0.10101222149E+02 -0.13256136958E+02 -0.38651123753E+02  0.92617974641E+02  0.82501030317E+02 0.  0.
        -11    1    3    3    0    0 -0.64728850824E+02  0.11528377601E+02  0.40932792774E+02  0.77448183603E+02  0.00000000000E+00 0.  1.
         12    1    3    3    0    0 -0.23763545136E+02 -0.30733928408E+02  0.11514271426E+03  0.12152006040E+03  0.00000000000E+00 0. -1.
        -13    1    5    5    0    0  0.43574657379E+02  0.82559655340E+01 -0.21558992472E+02  0.49312289432E+02  0.00000000000E+00 0.  1.
         14    1    5    5    0    0 -0.33473435230E+02 -0.21512102492E+02 -0.17092131280E+02  0.43305685209E+02  0.00000000000E+00 0. -1.
          5    1    4    4  501    0 -0.83809009127E+02  0.12526578883E+03  0.11505606297E+03  0.18967196812E+03  0.47000000000E+01 0. -1.
         -5    1    4    4    0  501 -0.90044473455E+02  0.91805295863E+01  0.64979157218E+01  0.90865847446E+02  0.47000000000E+01 0. -1.
          1    1    1    2  502    0  0.94622026064E+02 -0.22105897873E+02 -0.45583390919E+03  0.46607569267E+03  0.00000000000E+00 0. -1.
          1    1    1    2  503    0  0.15762263033E+03 -0.79878732781E+02  0.21145210554E+04  0.21218917972E+04  0.00000000000E+00 0. -1.
<mgrwt>
<rscale>  0 0.13043472E+03</rscale>
<asrwt>0</asrwt>
<pdfrwt beam="1">  1        2 0.37189390E+00 0.17845120E+03</pdfrwt>
<pdfrwt beam="2">  1        2 0.92825443E-01 0.95338205E+02</pdfrwt>
<totfact> 0.37567522E+01</totfact>
</mgrwt>
</event>
<event>
13    1  0.1675423E-008  0.8690632E+02  0.7546771E-02  0.1323979E+00
          4   -1    0    0  503    0 -0.00000000000E+00  0.00000000000E+00  0.97897172385E+03  0.97897172385E+03  0.00000000000E+00 0. -1.
          2   -1    0    0  502    0  0.00000000000E+00 -0.00000000000E+00 -0.78056436981E+03  0.78056436981E+03  0.00000000000E+00 0. -1.
         24    2    1    2    0    0 -0.39942779379E+02  0.24549875450E+02 -0.44803934654E+02  0.10321445607E+03  0.80297629930E+02 0.  0.
         25    2    1    2    0    0 -0.90807355193E+01 -0.25879806357E+03  0.56522223771E+02  0.29305116462E+03  0.12500130337E+03 0.  0.
         24    2    1    2    0    0 -0.23993010028E+02  0.24087273032E+03  0.32128487846E+03  0.41038540578E+03  0.81221126602E+02 0.  0.
        -11    1    5    5    0    0 -0.38636883445E+02  0.23260949635E+03  0.28160007333E+03  0.36728543104E+03  0.00000000000E+00 0.  1.
         12    1    5    5    0    0  0.14643873417E+02  0.82632339718E+01  0.39684805130E+02  0.43099974740E+02  0.00000000000E+00 0. -1.
        -13    1    3    3    0    0  0.22724662639E+02 -0.44587323338E+01 -0.56744633149E+01  0.23843030848E+02  0.00000000000E+00 0.  1.
         14    1    3    3    0    0 -0.62667442018E+02  0.29008607784E+02 -0.39129471339E+02  0.79371425223E+02  0.00000000000E+00 0. -1.
          5    1    4    4  501    0 -0.51523324531E+02 -0.16085399109E+03 -0.63293380471E+01  0.16908817209E+03  0.47000000000E+01 0. -1.
         -5    1    4    4    0  501  0.42442589012E+02 -0.97944072477E+02  0.62851561818E+02  0.12396299254E+03  0.47000000000E+01 0. -1.
          1    1    1    2  502    0  0.41278501901E+02 -0.76802689312E+02 -0.53656503049E+03  0.54360334781E+03  0.00000000000E+00 0. -1.
          3    1    1    2  503    0  0.31738023025E+02  0.70178147107E+02  0.40196921695E+03  0.40928171937E+03  0.00000000000E+00 0. -1.
<mgrwt>
<rscale>  0 0.81814634E+02</rscale>
<asrwt>0</asrwt>
<pdfrwt beam="2">  1        2 0.11478888E+00 0.86906321E+02</pdfrwt>
<pdfrwt beam="1">  1        4 0.14396643E+00 0.77021260E+02</pdfrwt>
<totfact> 0.73754689E+00</totfact>
</mgrwt>
</event>
<event>
13    1  0.1675423E-008  0.1192929E+03  0.7546771E-02  0.1354546E+00
          2   -1    0    0  503    0  0.00000000000E+00  0.00000000000E+00  0.50550763638E+04  0.50550763638E+04  0.00000000000E+00 0. -1.
         -1   -1    0    0    0  501 -0.00000000000E+00 -0.00000000000E+00 -0.35616792106E+03  0.35616792106E+03  0.00000000000E+00 0.  1.
         24    2    1    2    0    0  0.46766725383E+02 -0.30689815019E+02  0.12536484061E+04  0.12573488642E+04  0.78503814376E+02 0.  0.
         25    2    1    2    0    0 -0.23586869406E+03 -0.15853119307E+02  0.35263134607E+02  0.26972731481E+03  0.12499589380E+03 0.  0.
         24    2    1    2    0    0  0.58640244648E+02  0.57587163346E+02  0.13031666499E+04  0.13082846561E+04  0.81304760560E+02 0.  0.
        -11    1    3    3    0    0  0.46701747994E+02 -0.54524027438E+02  0.10049348927E+04  0.10074959362E+04  0.00000000000E+00 0.  1.
         12    1    3    3    0    0  0.64977389626E-01  0.23834212419E+02  0.24871351335E+03  0.24985292799E+03  0.00000000000E+00 0. -1.
        -13    1    5    5    0    0  0.23991444143E+02  0.67575454041E+02  0.10641393433E+04  0.10665526585E+04  0.00000000000E+00 0.  1.
         14    1    5    5    0    0  0.34648800505E+02 -0.99882906947E+01  0.23902730661E+03  0.24173199754E+03  0.00000000000E+00 0. -1.
          5    1    4    4  502    0 -0.11985277165E+03  0.54205917846E+02  0.22283894650E+02  0.13349767924E+03  0.47000000000E+01 0.  1.
         -5    1    4    4    0  502 -0.11601592241E+03 -0.70059037153E+02  0.12979239957E+02  0.13622963557E+03  0.47000000000E+01 0.  1.
          1    1    1    2  503    0  0.11533895862E+03  0.29255366524E+02  0.23378559144E+04  0.23408821475E+04  0.00000000000E+00 0. -1.
         -2    1    1    2    0  501  0.15122765407E+02 -0.40299595544E+02 -0.23102566231E+03  0.23500130230E+03  0.00000000000E+00 0.  1.
<mgrwt>
<rscale>  0 0.71657532E+02</rscale>
<asrwt>0</asrwt>
<pdfrwt beam="1">  1        2 0.74339354E+00 0.11929291E+03</pdfrwt>
<pdfrwt beam="2">  1       -1 0.52377638E-01 0.43043646E+02</pdfrwt>
<totfact> 0.42937708E-01</totfact>
</mgrwt>
</event>
<event>
13    1  0.1675423E-008  0.1054953E+03  0.7546771E-02  0.1329638E+00
         -1   -1    0    0    0  501 -0.00000000000E+00  0.00000000000E+00  0.14238485760E+04  0.14238485760E+04  0.00000000000E+00 0.  1.
          2   -1    0    0  503    0  0.00000000000E+00 -0.00000000000E+00 -0.30545812967E+04  0.30545812967E+04  0.00000000000E+00 0. -1.
         24    2    1    2    0    0 -0.33107217121E+02  0.69049891076E+03 -0.41601925478E+03  0.81439589394E+03  0.11083238757E+03 0.  0.
         25    2    1    2    0    0 -0.13736974820E+03 -0.76741409652E+03  0.24974794001E+03  0.82812577011E+03  0.12499365711E+03 0.  0.
         24    2    1    2    0    0  0.13300318422E+03  0.13986038656E+03  0.26406249543E+03  0.33765175901E+03  0.83838738832E+02 0.  0.
        -11    1    5    5    0    0  0.12278767492E+03  0.74615101351E+02  0.16773743780E+03  0.22086211649E+03  0.00000000000E+00 0.  1.
         12    1    5    5    0    0  0.10215509302E+02  0.65245285213E+02  0.96325057624E+02  0.11678964252E+03  0.00000000000E+00 0. -1.
        -13    1    3    3    0    0 -0.77316460262E+00  0.11106456905E+03 -0.11786177714E+03  0.16194855600E+03  0.00000000000E+00 0.  1.
         14    1    3    3    0    0 -0.32334052519E+02  0.57943434171E+03 -0.29815747763E+03  0.65244733793E+03  0.00000000000E+00 0. -1.
          5    1    4    4  502    0 -0.22400364042E+02 -0.68841515780E+02  0.62602290305E+02  0.95823104498E+02  0.47000000000E+01 0. -1.
         -5    1    4    4    0  502 -0.11496938416E+03 -0.69857258074E+03  0.18714564971E+03  0.73230266561E+03  0.47000000000E+01 0. -1.
          1    1    1    2  503    0 -0.54104306454E+01 -0.10541308840E+03 -0.21096964931E+04  0.21123353155E+04  0.00000000000E+00 0. -1.
         -2    1    1    2    0  501  0.42884211747E+02  0.42467887602E+02  0.38117259174E+03  0.38592113415E+03  0.00000000000E+00 0.  1.
<mgrwt>
<rscale>  0 0.79793718E+02</rscale>
<asrwt>0</asrwt>
<pdfrwt beam="2">  1        2 0.44920313E+00 0.10549528E+03</pdfrwt>
<pdfrwt beam="1">  1       -1 0.20938950E+00 0.60353766E+02</pdfrwt>
<totfact> 0.51289219E-01</totfact>
</mgrwt>
</event>
<event>
13    1  0.1675423E-008  0.4477538E+02  0.7546771E-02  0.1490203E+00
         -1   -1    0    0    0  501 -0.00000000000E+00  0.00000000000E+00  0.10879427472E+04  0.10879427472E+04  0.00000000000E+00 0.  1.
          2   -1    0    0  503    0  0.00000000000E+00 -0.00000000000E+00 -0.49078102641E+03  0.49078102641E+03  0.00000000000E+00 0. -1.
         24    2    1    2    0    0 -0.25252788489E+02  0.25449982117E+02  0.61193070189E+02  0.10742970081E+03  0.80691659176E+02 0.  0.
         25    2    1    2    0    0 -0.13357272668E+02  0.28821457200E+02  0.46924962524E+03  0.48665124784E+03  0.12500053246E+03 0.  0.
         24    2    1    2    0    0  0.27968848915E+02 -0.90441164409E+02 -0.17534224703E+03  0.21495736889E+03  0.80621995248E+02 0.  0.
        -11    1    3    3    0    0  0.23429144329E+02  0.26317527859E+02  0.42665022567E+02  0.55333906669E+02  0.00000000000E+00 0.  1.
         12    1    3    3    0    0 -0.48681932817E+02 -0.86754574198E+00  0.18528047622E+02  0.52095794141E+02  0.00000000000E+00 0. -1.
        -13    1    5    5    0    0 -0.16784011293E+02  0.50145252020E+01 -0.15004922268E+02  0.23065042604E+02  0.00000000000E+00 0.  1.
         14    1    5    5    0    0  0.44752860207E+02 -0.95455689611E+02 -0.16033732476E+03  0.19189232629E+03  0.00000000000E+00 0. -1.
          5    1    4    4  502    0 -0.67172828032E+01  0.77023369214E+02  0.33323529536E+03  0.34211923852E+03  0.47000000000E+01 0.  1.
         -5    1    4    4    0  502 -0.66399898643E+01 -0.48201912013E+02  0.13601432988E+03  0.14453200933E+03  0.47000000000E+01 0.  1.
          1    1    1    2  503    0  0.40366682099E+02  0.25399075174E+01 -0.26125726948E+03  0.26436959169E+03  0.00000000000E+00 0. -1.
         -2    1    1    2    0  501 -0.29725469857E+02  0.33629817574E+02  0.50331854190E+03  0.50531586439E+03  0.00000000000E+00 0.  1.
<mgrwt>
<rscale>  0 0.42555939E+02</rscale>
<asrwt>0</asrwt>
<pdfrwt beam="2">  1        2 0.72173680E-01 0.40446510E+02</pdfrwt>
<pdfrwt beam="1">  1       -1 0.15999158E+00 0.44775383E+02</pdfrwt>
<totfact> 0.28433930E+01</totfact>
</mgrwt>
</event>
<event>
13    1  0.1675423E-008  0.8905543E+02  0.7546771E-02  0.1464000E+00
          2   -1    0    0  503    0  0.00000000000E+00  0.00000000000E+00  0.30306436992E+04  0.30306436992E+04  0.00000000000E+00 0. -1.
          2   -1    0    0  502    0 -0.00000000000E+00 -0.00000000000E+00 -0.55005521435E+03  0.55005521435E+03  0.00000000000E+00 0. -1.
         24    2    1    2    0    0 -0.17770424334E+03  0.15169871930E+03  0.93668171090E+03  0.96870535952E+03  0.80163249003E+02 0.  0.
         25    2    1    2    0    0 -0.70483967888E+02 -0.19785762242E+03 -0.10099465733E+03  0.26446616111E+03  0.12500720414E+03 0.  0.
         24    2    1    2    0    0  0.23338600782E+03 -0.65878712615E+02  0.16054346788E+04  0.16256422229E+04  0.80517671260E+02 0.  0.
        -11    1    5    5    0    0  0.65576482138E+01 -0.79199724326E+01  0.24459016115E+03  0.24480620017E+03  0.00000000000E+00 0.  1.
         12    1    5    5    0    0  0.22682835960E+03 -0.57958740182E+02  0.13608445177E+04  0.13808360227E+04  0.00000000000E+00 0. -1.
        -13    1    3    3    0    0 -0.18278141517E+03  0.13259482923E+03  0.88551905740E+03  0.91385690099E+03  0.00000000000E+00 0.  1.
         14    1    3    3    0    0  0.50771718374E+01  0.19103890073E+02  0.51162653497E+02  0.54848458525E+02  0.00000000000E+00 0. -1.
          5    1    4    4  501    0 -0.39418114140E+02 -0.13607602894E+03  0.27468858944E+00  0.14174850556E+03  0.47000000000E+01 0. -1.
         -5    1    4    4    0  501 -0.31065853748E+02 -0.61781593481E+02 -0.10126934592E+03  0.12271765555E+03  0.47000000000E+01 0. -1.
          1    1    1    2  502    0  0.73958763925E+01  0.88695363609E+02 -0.33499840483E+03  0.34662010581E+03  0.00000000000E+00 0. -1.
          1    1    1    2  503    0  0.74063270174E+01  0.23342252125E+02  0.37446515726E+03  0.37526506421E+03  0.00000000000E+00 0. -1.
<mgrwt>
<rscale>  0 0.46699939E+02</rscale>
<asrwt>0</asrwt>
<pdfrwt beam="1">  1        2 0.44568289E+00 0.24489067E+02</pdfrwt>
<pdfrwt beam="2">  1        2 0.80890474E-01 0.89055426E+02</pdfrwt>
<totfact> 0.33079471E+01</totfact>
</mgrwt>
</event>
<event>
13    1  0.1675423E-008  0.1131785E+03  0.7546771E-02  0.1359383E+00
          2   -1    0    0  503    0  0.00000000000E+00  0.00000000000E+00  0.13819243611E+04  0.13819243611E+04  0.00000000000E+00 0. -1.
         -1   -1    0    0    0  501 -0.00000000000E+00 -0.00000000000E+00 -0.11906071401E+04  0.11906071401E+04  0.00000000000E+00 0.  1.
         24    2    1    2    0    0  0.90536506726E+02  0.25622454600E+02  0.69616995864E+03  0.70694644415E+03  0.79166245023E+02 0.  0.
         25    2    1    2    0    0 -0.73571898728E+02 -0.12893542502E+02 -0.66278994549E+03  0.67859709927E+03  0.12499777429E+03 0.  0.
         24    2    1    2    0    0 -0.15510486805E+03  0.44504312709E+02  0.32302364237E+02  0.18382374935E+03  0.81911990255E+02 0.  0.
        -11    1    5    5    0    0 -0.15977044709E+03  0.48474695013E+02  0.17589310045E+02  0.16788619850E+03  0.00000000000E+00 0.  1.
         12    1    5    5    0    0  0.46655790387E+01 -0.39703823034E+01  0.14713054192E+02  0.15937550849E+02  0.00000000000E+00 0. -1.
        -13    1    3    3    0    0 -0.89856598411E+01  0.18849591309E+02  0.76493713089E+02  0.79292731807E+02  0.00000000000E+00 0.  1.
         14    1    3    3    0    0  0.99522166568E+02  0.67728632913E+01  0.61967624555E+03  0.62765371234E+03  0.00000000000E+00 0. -1.
          5    1    4    4  502    0 -0.10374454829E+03  0.11343131392E+02 -0.53021569722E+03  0.54040944987E+03  0.47000000000E+01 0. -1.
         -5    1    4    4    0  502  0.30172649562E+02 -0.24236673894E+02 -0.13257424827E+03  0.13818764941E+03  0.47000000000E+01 0. -1.
          1    1    1    2  503    0  0.43363000352E+02  0.40726171135E+01  0.55627453613E+03  0.55797696687E+03  0.00000000000E+00 0. -1.
         -2    1    1    2    0  501  0.94777259701E+02 -0.61305841920E+02 -0.43063969253E+03  0.44518724150E+03  0.00000000000E+00 0.  1.
<mgrwt>
<rscale>  0 0.70209372E+02</rscale>
<asrwt>0</asrwt>
<pdfrwt beam="1">  1        2 0.20322417E+00 0.43553829E+02</pdfrwt>
<pdfrwt beam="2">  1       -1 0.17508928E+00 0.11317847E+03</pdfrwt>
<totfact> 0.59565614E+00</totfact>
</mgrwt>
</event>
<event>
13    1  0.1675423E-008  0.7185729E+02  0.7546771E-02  0.1359459E+00
         -1   -1    0    0    0  501 -0.00000000000E+00  0.00000000000E+00  0.24820893921E+04  0.24820893921E+04  0.00000000000E+00 0.  1.
          2   -1    0    0  503    0  0.00000000000E+00 -0.00000000000E+00 -0.25283041327E+04  0.25283041327E+04  0.00000000000E+00 0. -1.
         24    2    1    2    0    0 -0.29314400200E+02 -0.15725558121E+03 -0.26914781830E+03  0.32411034234E+03  0.83775378467E+02 0.  0.
         25    2    1    2    0    0 -0.87922026797E+02  0.10819624819E+02  0.19793052388E+03  0.25029825172E+03  0.12500150180E+03 0.  0.
         24    2    1    2    0    0  0.40527314843E+02  0.28974820284E+02 -0.12639408706E+03  0.15756700448E+03  0.79811604411E+02 0.  0.
        -13    1    3    3    0    0 -0.37923696973E+02 -0.16441915200E+03 -0.25821650881E+03  0.30846009428E+03  0.00000000000E+00 0.  1.
         14    1    3    3    0    0  0.86092967723E+01  0.71635707942E+01 -0.10931309489E+02  0.15650248068E+02  0.00000000000E+00 0. -1.
        -13    1    5    5    0    0  0.43670321669E+02  0.45520850760E+02 -0.12578228669E+03  0.14071399537E+03  0.00000000000E+00 0.  1.
         14    1    5    5    0    0 -0.31430068264E+01 -0.16546030476E+02 -0.61180037326E+00  0.16853009112E+02  0.00000000000E+00 0. -1.
          5    1    4    4  502    0 -0.43622304817E+02 -0.47252227628E+02  0.14873428927E+03  0.16211001603E+03  0.47000000000E+01 0. -1.
         -5    1    4    4    0  502 -0.44299721979E+02  0.58071852447E+02  0.49196234619E+02  0.88188235694E+02  0.47000000000E+01 0. -1.
          1    1    1    2  503    0  0.38813045687E+02  0.56509793832E+02 -0.20623595164E+04  0.20634986271E+04  0.00000000000E+00 0. -1.
         -2    1    1    2    0  501  0.37896066467E+02  0.60951342271E+02  0.22137561573E+04  0.22149192992E+04  0.00000000000E+00 0.  1.
<mgrwt>
<rscale>  0 0.70186806E+02</rscale>
<asrwt>0</asrwt>
<pdfrwt beam="2">  1        2 0.37180943E+00 0.68555155E+02</pdfrwt>
<pdfrwt beam="1">  1       -1 0.36501315E+00 0.71857291E+02</pdfrwt>
<totfact> 0.11168764E-01</totfact>
</mgrwt>
</event>
<event>
13    1  0.1675423E-008  0.1618429E+03  0.7546771E-02  0.1243549E+00
          2   -1    0    0  503    0  0.00000000000E+00  0.00000000000E+00  0.99424989293E+03  0.99424989293E+03  0.00000000000E+00 0. -1.
         -1   -1    0    0    0  501 -0.00000000000E+00 -0.00000000000E+00 -0.87196790020E+03  0.87196790020E+03  0.00000000000E+00 0.  1.
         24    2    1    2    0    0 -0.12315673531E+03  0.23821505942E+02  0.22560965122E+03  0.27041800580E+03  0.80567596100E+02 0.  0.
         25    2    1    2    0    0  0.43022957634E+02 -0.28441146344E+03  0.90546190626E+02  0.32642071717E+03  0.12494405364E+03 0.  0.
         24    2    1    2    0    0  0.10342446961E+03  0.21663576214E+02 -0.23488463331E+02  0.13232913851E+03  0.76114134954E+02 0.  0.
        -11    1    3    3    0    0 -0.48725369588E+02 -0.29025538949E+02  0.71002185134E+02  0.90873284559E+02  0.00000000000E+00 0.  1.
         12    1    3    3    0    0 -0.74431365723E+02  0.52847044891E+02  0.15460746608E+03  0.17954472124E+03  0.00000000000E+00 0. -1.
        -13    1    5    5    0    0  0.48986454870E+02  0.44467493404E+02 -0.30577586266E+02  0.72883602492E+02  0.00000000000E+00 0.  1.
         14    1    5    5    0    0  0.54438014744E+02 -0.22803917190E+02  0.70891229349E+01  0.59445536018E+02  0.00000000000E+00 0. -1.
          5    1    4    4  502    0  0.98484577813E+01 -0.12571108990E+03 -0.23218797824E+02  0.12830227128E+03  0.47000000000E+01 0.  1.
         -5    1    4    4    0  502  0.33174499853E+02 -0.15870037354E+03  0.11376498845E+03  0.19811844588E+03  0.47000000000E+01 0.  1.
          1    1    1    2  503    0  0.14589035141E+02  0.87359797927E+02  0.46980080645E+03  0.47807674278E+03  0.00000000000E+00 0. -1.
         -2    1    1    2    0  501 -0.37879727079E+02  0.15156658336E+03 -0.64018619223E+03  0.65897318886E+03  0.00000000000E+00 0.  1.
<mgrwt>
<rscale>  0 0.11972620E+03</rscale>
<asrwt>0</asrwt>
<pdfrwt beam="1">  1        2 0.14621322E+00 0.88569601E+02</pdfrwt>
<pdfrwt beam="2">  1       -1 0.12823057E+00 0.16184293E+03</pdfrwt>
<totfact> 0.19921877E+01</totfact>
</mgrwt>
</event>
<event>
13    1  0.1675423E-008  0.1652719E+03  0.7546771E-02  0.1242491E+00
          2   -1    0    0  503    0  0.00000000000E+00  0.00000000000E+00  0.21104207196E+04  0.21104207196E+04  0.00000000000E+00 0. -1.
          2   -1    0    0  502    0 -0.00000000000E+00 -0.00000000000E+00 -0.65836043574E+03  0.65836043574E+03  0.00000000000E+00 0. -1.
         24    2    1    2    0    0  0.98081222739E+02 -0.27221329180E+03  0.12907440391E+03  0.32735923055E+03  0.82364200927E+02 0.  0.
         25    2    1    2    0    0 -0.16690187002E+03  0.63921609915E+01 -0.28246866558E+03  0.35115716852E+03  0.12500286409E+03 0.  0.
         24    2    1    2    0    0  0.19350130266E+02 -0.55858382095E+02  0.20970256927E+03  0.23247795070E+03  0.81094041779E+02 0.  0.
        -11    1    5    5    0    0  0.42125398824E+02 -0.12229620836E+02  0.14304958305E+03  0.14962384857E+03  0.00000000000E+00 0.  1.
         12    1    5    5    0    0 -0.22775268558E+02 -0.43628761259E+02  0.66652986219E+02  0.82854102124E+02  0.00000000000E+00 0. -1.
        -13    1    3    3    0    0  0.65775352513E+02 -0.22366138719E+03  0.67850329625E+02  0.24280543723E+03  0.00000000000E+00 0.  1.
         14    1    3    3    0    0  0.32305870226E+02 -0.48551904610E+02  0.61224074290E+02  0.84553793321E+02  0.00000000000E+00 0. -1.
          5    1    4    4  501    0 -0.39335043397E+02  0.19441327602E+02 -0.18453088942E+03  0.18973389262E+03  0.47000000000E+01 0.  1.
         -5    1    4    4    0  501 -0.12756682662E+03 -0.13049166611E+02 -0.97937776158E+02  0.16142327590E+03  0.47000000000E+01 0.  1.
          1    1    1    2  502    0  0.87393273940E+02  0.68963703388E+01 -0.20656730673E+03  0.22439963561E+03  0.00000000000E+00 0. -1.
          1    1    1    2  503    0 -0.37922756925E+02  0.31478314257E+03  0.16023192830E+04  0.16333871700E+04  0.00000000000E+00 0. -1.
<mgrwt>
<rscale>  0 0.12036842E+03</rscale>
<asrwt>0</asrwt>
<pdfrwt beam="1">  1        2 0.31035599E+00 0.16527192E+03</pdfrwt>
<pdfrwt beam="2">  1        2 0.96817712E-01 0.87664955E+02</pdfrwt>
<totfact> 0.58679163E+01</totfact>
</mgrwt>
</event>
<event>
13    1  0.1675423E-008  0.3712685E+03  0.7546771E-02  0.1271070E+00
          2   -1    0    0  503    0  0.00000000000E+00  0.00000000000E+00  0.28131880977E+04  0.28131880977E+04  0.00000000000E+00 0. -1.
          2   -1    0    0  502    0 -0.00000000000E+00 -0.00000000000E+00 -0.13145861476E+04  0.13145861476E+04  0.00000000000E+00 0. -1.
         24    2    1    2    0    0  0.24408181047E+03  0.17002196876E+03  0.36983536120E+03  0.48150587099E+03  0.81156080088E+02 0.  0.
         25    2    1    2    0    0  0.29955229698E+03 -0.36589626869E+02 -0.62413133637E+03  0.70443948819E+03  0.12499875223E+03 0.  0.
         24    2    1    2    0    0 -0.27152876820E+03  0.87465032524E+02  0.94126647407E+03  0.98679835265E+03  0.80065034200E+02 0.  0.
        -11    1    3    3    0    0  0.13509608875E+03  0.44858720014E+02  0.16791104512E+03  0.22013036372E+03  0.00000000000E+00 0.  1.
         12    1    3    3    0    0  0.10898572172E+03  0.12516324875E+03  0.20192431608E+03  0.26137550727E+03  0.00000000000E+00 0. -1.
        -13    1    5    5    0    0  0.38867238090E+01 -0.42622898267E+01  0.24523920853E+02  0.25193182223E+02  0.00000000000E+00 0.  1.
         14    1    5    5    0    0 -0.27541549201E+03  0.91727322350E+02  0.91674255322E+03  0.96160517042E+03  0.00000000000E+00 0. -1.
          5    1    4    4  501    0  0.27054606647E+03  0.60253347717E+01 -0.47657347096E+03  0.54806554532E+03  0.47000000000E+01 0.  1.
         -5    1    4    4    0  501  0.29006230508E+02 -0.42614961641E+02 -0.14755786542E+03  0.15637394288E+03  0.47000000000E+01 0.  1.
          1    1    1    2  502    0 -0.71748795750E+01 -0.28535953939E+02 -0.55193025824E+03  0.55271402146E+03  0.00000000000E+00 0. -1.
          1    1    1    2  503    0 -0.26493045967E+03 -0.19236142048E+03  0.13635617095E+04  0.14023165121E+04  0.00000000000E+00 0. -1.
<mgrwt>
<rscale>  0 0.10451915E+03</rscale>
<asrwt>0</asrwt>
<pdfrwt beam="1">  1        2 0.41370413E+00 0.37126845E+03</pdfrwt>
<pdfrwt beam="2">  1        2 0.19332149E+00 0.29424132E+02</pdfrwt>
<totfact> 0.10251226E+01</totfact>
</mgrwt>
</event>
<event>
13    1  0.1675423E-008  0.1269088E+03  0.7546771E-02  0.1245450E+00
          2   -1    0    0  502    0  0.00000000000E+00  0.00000000000E+00  0.20411062466E+04  0.20411062466E+04  0.00000000000E+00 0. -1.
          2   -1    0    0  503    0 -0.00000000000E+00 -0.00000000000E+00 -0.26233814379E+04  0.26233814379E+04  0.00000000000E+00 0. -1.
         24    2    1    2    0    0 -0.61031005647E+02 -0.13126518982E+02  0.23073458949E+03  0.25206354304E+03  0.80003061160E+02 0.  0.
         25    2    1    2    0    0  0.56791564103E+02  0.32512533426E+02 -0.10851453401E+04  0.10942805667E+04  0.12500881111E+03 0.  0.
         24    2    1    2    0    0 -0.14262620901E+02  0.13719171395E+03  0.11277754655E+03  0.19506962749E+03  0.79425410498E+02 0.  0.
        -13    1    3    3    0    0 -0.45736237260E+02  0.18043666914E+02  0.58748863463E+02  0.76608134507E+02  0.00000000000E+00 0.  1.
         14    1    3    3    0    0 -0.15294768388E+02 -0.31170185897E+02  0.17198572602E+03  0.17545540854E+03  0.00000000000E+00 0. -1.
        -13    1    5    5    0    0 -0.13108875736E+02 -0.53178183796E+01  0.21814526714E+02  0.25999911368E+02  0.00000000000E+00 0.  1.
         14    1    5    5    0    0 -0.11537451645E+01  0.14250953233E+03  0.90963019834E+02  0.16906971612E+03  0.00000000000E+00 0. -1.
          5    1    4    4  501    0  0.51260574690E+02  0.64845498306E+02 -0.99139393031E+03  0.99484501316E+03  0.47000000000E+01 0. -1.
         -5    1    4    4    0  501  0.55309894134E+01 -0.32332964880E+02 -0.93751409804E+02  0.99435553511E+02  0.47000000000E+01 0. -1.
          1    1    1    2  502    0 -0.68923041500E+02 -0.88421905951E+02  0.16372231764E+04  0.16410571435E+04  0.00000000000E+00 0. -1.
          1    1    1    2  503    0  0.87425103945E+02 -0.68155822443E+02 -0.14778651636E+04  0.14820168038E+04  0.00000000000E+00 0. -1.
<mgrwt>
<rscale>  0 0.11858474E+03</rscale>
<asrwt>0</asrwt>
<pdfrwt beam="1">  1        2 0.30016268E+00 0.12690876E+03</pdfrwt>
<pdfrwt beam="2">  1        2 0.38579139E+00 0.11080670E+03</pdfrwt>
<totfact> 0.59460597E+00</totfact>
</mgrwt>
</event>
<event>
13    1  0.1675423E-008  0.2595782E+03  0.7546771E-02  0.1212404E+00
          2   -1    0    0  503    0  0.00000000000E+00  0.00000000000E+00  0.23041796499E+04  0.23041796499E+04  0.00000000000E+00 0. -1.
         -1   -1    0    0    0  501 -0.00000000000E+00 -0.00000000000E+00 -0.20308569958E+03  0.20308569958E+03  0.00000000000E+00 0.  1.
         24    2    1    2    0    0  0.19918999268E+02 -0.26673571385E+01  0.37134344580E+02  0.89470242929E+02  0.78880184435E+02 0.  0.
         25    2    1    2    0    0  0.19017305825E+03  0.17565238319E+03  0.16152341186E+04  0.16406178429E+04  0.12500438577E+03 0.  0.
         24    2    1    2    0    0  0.94864610046E+02 -0.10043105849E+03 -0.25459240592E+02  0.16127654657E+03  0.79222848929E+02 0.  0.
        -11    1    3    3    0    0 -0.14657122434E+02 -0.28366686441E+02 -0.98660703241E+00  0.31944851402E+02  0.00000000000E+00 0.  1.
         12    1    3    3    0    0  0.34576121702E+02  0.25699329302E+02  0.38120951612E+02  0.57525391527E+02  0.00000000000E+00 0. -1.
        -13    1    5    5    0    0  0.14685877539E+02 -0.66480607427E+02  0.68002906914E+01  0.68422146389E+02  0.00000000000E+00 0.  1.
         14    1    5    5    0    0  0.80178732507E+02 -0.33950451063E+02 -0.32259531284E+02  0.92854400178E+02  0.00000000000E+00 0. -1.
          5    1    4    4  502    0  0.76331984420E+02  0.12682515391E+03  0.11359318586E+04  0.11455454897E+04  0.47000000000E+01 0. -1.
         -5    1    4    4    0  502  0.11384107383E+03  0.48827229282E+02  0.47930226001E+03  0.49507235316E+03  0.47000000000E+01 0. -1.
          1    1    1    2  503    0 -0.24334145160E+03 -0.11747673248E+03  0.46669970625E+03  0.53928142982E+03  0.00000000000E+00 0. -1.
         -2    1    1    2    0  501 -0.61615215965E+02  0.44922764919E+02  0.74850214869E+01  0.76619287344E+02  0.00000000000E+00 0.  1.
<mgrwt>
<rscale>  0 0.14068961E+03</rscale>
<asrwt>0</asrwt>
<pdfrwt beam="1">  1        2 0.33884993E+00 0.25957823E+03</pdfrwt>
<pdfrwt beam="2">  1       -1 0.29865545E-01 0.76252801E+02</pdfrwt>
<totfact> 0.67811829E+01</totfact>
</mgrwt>
</event>
<event>
13    1  0.1675423E-008  0.1016598E+03  0.7546771E-02  0.1292795E+00
          2   -1    0    0  503    0  0.00000000000E+00  0.00000000000E+00  0.18485120899E+04  0.18485120899E+04  0.00000000000E+00 0. -1.
          2   -1    0    0  502    0 -0.00000000000E+00 -0.00000000000E+00 -0.14993627210E+04  0.14993627210E+04  0.00000000000E+00 0. -1.
         24    2    1    2    0    0  0.89613331847E+01 -0.15502441799E+02  0.44027293479E+03  0.44742379038E+03  0.77634785334E+02 0.  0.
         25    2    1    2    0    0  0.18914218604E+02 -0.54425569751E+02 -0.15571082974E+03  0.20782408039E+03  0.12500038233E+03 0.  0.
         24    2    1    2    0    0  0.43251529785E+02  0.40111847233E+02 -0.11927513943E+02  0.10031074717E+03  0.80251637313E+02 0.  0.
        -13    1    3    3    0    0  0.35110764835E+02 -0.32394790333E+02  0.29600856646E+03  0.29983872276E+03  0.00000000000E+00 0.  1.
         14    1    3    3    0    0 -0.26149431650E+02  0.16892348534E+02  0.14426436833E+03  0.14758506762E+03  0.00000000000E+00 0. -1.
        -13    1    5    5    0    0  0.51109462891E+02  0.59643125321E+02 -0.95104129407E+01  0.79119703926E+02  0.00000000000E+00 0.  1.
         14    1    5    5    0    0 -0.78579331056E+01 -0.19531278088E+02 -0.24171010027E+01  0.21191043242E+02  0.00000000000E+00 0. -1.
          5    1    4    4  501    0 -0.41282402561E+02 -0.38167976820E+02 -0.12709944508E+03  0.13905894489E+03  0.47000000000E+01 0. -1.
         -5    1    4    4    0  501  0.60196621165E+02 -0.16257592931E+02 -0.28611384666E+02  0.68765135498E+02  0.47000000000E+01 0. -1.
          1    1    1    2  502    0 -0.23533096107E+02  0.10276550562E+03 -0.12542655255E+04  0.12586884302E+04  0.00000000000E+00 0. -1.
          1    1    1    2  503    0 -0.47593985466E+02 -0.72949341301E+02  0.13307803033E+04  0.13336277628E+04  0.00000000000E+00 0. -1.
<mgrwt>
<rscale>  0 0.94285014E+02</rscale>
<asrwt>0</asrwt>
<pdfrwt beam="1">  1        2 0.27184001E+00 0.87445186E+02</pdfrwt>
<pdfrwt beam="2">  1        2 0.22049452E+00 0.10165984E+03</pdfrwt>
<totfact> 0.27370354E+01</totfact>
</mgrwt>
</event>
<event>
13    1  0.1675423E-008  0.6235783E+02  0.7546771E-02  0.1461010E+00
          2   -1    0    0  503    0  0.00000000000E+00  0.00000000000E+00  0.26055090022E+04  0.26055090022E+04  0.00000000000E+00 0. -1.
          2   -1    0    0  502    0 -0.00000000000E+00 -0.00000000000E+00 -0.13958321026E+04  0.13958321026E+04  0.00000000000E+00 0. -1.
         24    2    1    2    0    0 -0.25035191311E+03  0.29138030197E+03  0.84848536321E+03  0.93465471833E+03  0.77932471606E+02 0.  0.
         25    2    1    2    0    0  0.93686265965E+02 -0.16176688313E+03  0.18264211225E+03  0.28970407067E+03  0.12499866594E+03 0.  0.
         24    2    1    2    0    0  0.23353363087E+03 -0.12139670413E+03  0.45051761978E+03  0.52559010438E+03  0.63274920500E+02 0.  0.
        -11    1    3    3    0    0 -0.96632717457E+02  0.15517441536E+03  0.33523730463E+03  0.38183901278E+03  0.00000000000E+00 0.  1.
         12    1    3    3    0    0 -0.15371919566E+03  0.13620588661E+03  0.51324805859E+03  0.55281570555E+03  0.00000000000E+00 0. -1.
        -11    1    5    5    0    0  0.18373880427E+03 -0.87385738984E+02  0.39150728674E+03  0.44121896055E+03  0.00000000000E+00 0.  1.
         12    1    5    5    0    0  0.49794826595E+02 -0.34010965143E+02  0.59010333041E+02  0.84371143830E+02  0.00000000000E+00 0. -1.
          5    1    4    4  501    0  0.11570990653E+03 -0.16455179842E+03  0.15533094441E+03  0.25419651674E+03  0.47000000000E+01 0. -1.
         -5    1    4    4    0  501 -0.22023640561E+02  0.27849152979E+01  0.27311167845E+02  0.35507553926E+02  0.47000000000E+01 0. -1.
          1    1    1    2  502    0 -0.58237584809E+02  0.22282197662E+02 -0.12605866932E+04  0.12621279348E+04  0.00000000000E+00 0. -1.
          1    1    1    2  503    0 -0.18630398908E+02 -0.30498912383E+02  0.98861849756E+03  0.98926427669E+03  0.00000000000E+00 0. -1.
<mgrwt>
<rscale>  0 0.47208114E+02</rscale>
<asrwt>0</asrwt>
<pdfrwt beam="1">  1        2 0.38316309E+00 0.35738990E+02</pdfrwt>
<pdfrwt beam="2">  1        2 0.20526943E+00 0.62357834E+02</pdfrwt>
<totfact> 0.15622526E+01</totfact>
</mgrwt>
</event>
<event>
13    1  0.1675423E-008  0.9900646E+02  0.7546771E-02  0.1395164E+00
          2   -1    0    0  503    0  0.00000000000E+00  0.00000000000E+00  0.88472129765E+03  0.88472129765E+03  0.00000000000E+00 0. -1.
          2   -1    0    0  502    0 -0.00000000000E+00 -0.00000000000E+00 -0.25272322158E+04  0.25272322158E+04  0.00000000000E+00 0. -1.
         24    2    1    2    0    0  0.74960248854E+02  0.34617114438E+02  0.78438118174E+01  0.11385646985E+03  0.78002479588E+02 0.  0.
         25    2    1    2    0    0 -0.71505536909E+02  0.54649238826E+02 -0.71563116904E+03  0.73201995083E+03  0.12500262878E+03 0.  0.
         24    2    1    2    0    0 -0.34219927200E+01 -0.14018451083E+02 -0.35168368910E+02  0.84035819288E+02  0.74946499228E+02 0.  0.
        -11    1    5    5    0    0 -0.38634284429E+02 -0.17884080790E+01 -0.13764318900E+02  0.41051952592E+02  0.00000000000E+00 0.  1.
         12    1    5    5    0    0  0.35212291709E+02 -0.12230043004E+02 -0.21404050010E+02  0.42983866696E+02  0.00000000000E+00 0. -1.
        -13    1    3    3    0    0  0.77536472917E+02  0.51563426965E+01  0.22432260529E+02  0.80880769129E+02  0.00000000000E+00 0.  1.
         14    1    3    3    0    0 -0.25762240626E+01  0.29460771742E+02 -0.14588448712E+02  0.32975700718E+02  0.00000000000E+00 0. -1.
          5    1    4    4  501    0 -0.68358302672E+02  0.53955777251E+02 -0.22434532456E+03  0.24070105545E+03  0.47000000000E+01 0. -1.
         -5    1    4    4    0  501 -0.31472342366E+01  0.69346157433E+00 -0.49128584447E+03  0.49131889538E+03  0.47000000000E+01 0. -1.
          1    1    1    2  502    0  0.32263505890E+02  0.18399788979E+02 -0.16874926064E+04  0.16879012953E+04  0.00000000000E+00 0. -1.
          1    1    1    2  503    0 -0.32296225116E+02 -0.93647691159E+02  0.78793741430E+03  0.79413997826E+03  0.00000000000E+00 0. -1.
<mgrwt>
<rscale>  0 0.60640265E+02</rscale>
<asrwt>0</asrwt>
<pdfrwt beam="1">  1        2 0.13010607E+00 0.99006459E+02</pdfrwt>
<pdfrwt beam="2">  1        2 0.37165180E+00 0.37141433E+02</pdfrwt>
<totfact> 0.31163979E+01</totfact>
</mgrwt>
</event>
<event>
13    1  0.1675423E-008  0.2421613E+03  0.7546771E-02  0.1227383E+00
          2   -1    0    0  502    0  0.00000000000E+00  0.00000000000E+00  0.10744846133E+04  0.10744846133E+04  0.00000000000E+00 0. -1.
          2   -1    0    0  503    0 -0.00000000000E+00 -0.00000000000E+00 -0.21123136266E+04  0.21123136266E+04  0.00000000000E+00 0. -1.
         24    2    1    2    0    0 -0.85177209353E+02  0.21201952068E+03  0.26474135349E+03  0.35931570759E+03  0.82537017964E+02 0.  0.
         25    2    1    2    0    0  0.83819925760E+01 -0.11411615868E+03 -0.64473678457E+03  0.66663616884E+03  0.12500201904E+03 0.  0.
         24    2    1    2    0    0 -0.17069866927E+03 -0.43171601642E+02  0.81687719478E+02  0.21007023373E+03  0.80341749458E+02 0.  0.
        -11    1    5    5    0    0 -0.14790660794E+03 -0.58055550880E+02  0.46450292868E+02  0.16554286867E+03  0.00000000000E+00 0.  1.
         12    1    5    5    0    0 -0.22792061325E+02  0.14883949238E+02  0.35237426611E+02  0.44527365053E+02  0.00000000000E+00 0. -1.
        -11    1    3    3    0    0  0.25618072307E+01  0.10259407320E+03  0.10803660708E+03  0.14901011772E+03  0.00000000000E+00 0.  1.
         12    1    3    3    0    0 -0.87739016583E+02  0.10942544747E+03  0.15670474641E+03  0.21030558988E+03  0.00000000000E+00 0. -1.
          5    1    4    4  501    0  0.43778931336E+02 -0.67163176333E+02 -0.16738792811E+03  0.18565639111E+03  0.47000000000E+01 0.  1.
         -5    1    4    4    0  501 -0.35396938760E+02 -0.46952982343E+02 -0.47734885646E+03  0.48097977773E+03  0.47000000000E+01 0.  1.
          1    1    1    2  502    0  0.24694149178E+03 -0.12457036299E+03  0.57307261976E+03  0.63632546956E+03  0.00000000000E+00 0. -1.
          1    1    1    2  503    0  0.55239426758E+00  0.69838602634E+02 -0.13125939214E+04  0.13144506602E+04  0.00000000000E+00 0. -1.
<mgrwt>
<rscale>  0 0.13004898E+03</rscale>
<asrwt>0</asrwt>
<pdfrwt beam="1">  1        2 0.15801245E+00 0.24216133E+03</pdfrwt>
<pdfrwt beam="2">  1        2 0.31063435E+00 0.69840787E+02</pdfrwt>
<totfact> 0.33409841E+01</totfact>
</mgrwt>
</event>
<event>
13    1  0.1675423E-008  0.1979539E+03  0.7546771E-02  0.1184777E+00
          4   -1    0    0  503    0 -0.00000000000E+00  0.00000000000E+00  0.95434361453E+03  0.95434361453E+03  0.00000000000E+00 0. -1.
          2   -1    0    0  502    0  0.00000000000E+00 -0.00000000000E+00 -0.19958449563E+04  0.19958449563E+04  0.00000000000E+00 0. -1.
         24    2    1    2    0    0 -0.18769365191E+03 -0.47395437249E+02 -0.96050166093E+03  0.98309052503E+03  0.80176712986E+02 0.  0.
         25    2    1    2    0    0  0.24443391000E+03 -0.84174060743E+02  0.54163677972E+02  0.29222237759E+03  0.12500802011E+03 0.  0.
         24    2    1    2    0    0  0.10861227996E+02 -0.90356733636E+02 -0.11996615099E+03  0.17054703708E+03  0.80075644763E+02 0.  0.
        -11    1    5    5    0    0  0.27428611496E+02 -0.98765850467E+02 -0.98534867254E+02  0.14218348009E+03  0.00000000000E+00 0.  1.
         12    1    5    5    0    0 -0.16567383500E+02  0.84091168307E+01 -0.21431283739E+02  0.28363556981E+02  0.00000000000E+00 0. -1.
        -11    1    3    3    0    0 -0.46715041276E+02 -0.42609677570E+02 -0.40777946165E+03  0.41265235859E+03  0.00000000000E+00 0.  1.
         12    1    3    3    0    0 -0.14097861063E+03 -0.47857596788E+01 -0.55272219928E+03  0.57043816643E+03  0.00000000000E+00 0. -1.
          5    1    4    4  501    0  0.11228753991E+03 -0.28010940670E+02  0.86994338778E+02  0.14485582279E+03  0.47000000000E+01 0. -1.
         -5    1    4    4    0  501  0.13214637010E+03 -0.56163120072E+02 -0.32830660805E+02  0.14736655480E+03  0.47000000000E+01 0. -1.
          1    1    1    2  502    0 -0.15476946389E+03  0.42765206969E+02 -0.73764058456E+03  0.75491461893E+03  0.00000000000E+00 0. -1.
          3    1    1    2  503    0  0.87167977800E+02  0.17916102466E+03  0.72244337674E+03  0.74941401221E+03  0.00000000000E+00 0. -1.
<mgrwt>
<rscale>  0 0.16352210E+03</rscale>
<asrwt>0</asrwt>
<pdfrwt beam="2">  1        2 0.29350661E+00 0.13507932E+03</pdfrwt>
<pdfrwt beam="1">  1        4 0.14034465E+00 0.19795389E+03</pdfrwt>
<totfact> 0.17630664E+00</totfact>
</mgrwt>
</event>
<event>
13    1  0.1675423E-008  0.6772613E+02  0.7546771E-02  0.1476918E+00
          2   -1    0    0  502    0  0.00000000000E+00  0.00000000000E+00  0.58368726823E+03  0.58368726823E+03  0.00000000000E+00 0. -1.
          4   -1    0    0  503    0 -0.00000000000E+00 -0.00000000000E+00 -0.30440149265E+04  0.30440149265E+04  0.00000000000E+00 0. -1.
         24    2    1    2    0    0 -0.84564602200E+02 -0.17327512470E+02  0.11026393110E+03  0.16102769220E+03  0.79500745394E+02 0.  0.
         25    2    1    2    0    0  0.10931882127E+03  0.79163530643E+02 -0.14561605187E+04  0.14677357751E+04  0.12500951996E+03 0.  0.
         24    2    1    2    0    0  0.54984000277E+02 -0.99674612965E+02 -0.94929680995E+01  0.13979711746E+03  0.80590625086E+02 0.  0.
        -11    1    3    3    0    0 -0.52076522388E+02  0.19179741842E+01  0.89098534859E+01  0.52868027182E+02  0.00000000000E+00 0.  1.
         12    1    3    3    0    0 -0.32488079812E+02 -0.19245486655E+02  0.10135407762E+03  0.10815966501E+03  0.00000000000E+00 0. -1.
        -11    1    5    5    0    0  0.20642932764E+02 -0.86771721931E+02  0.21527810569E+02  0.91754613115E+02  0.00000000000E+00 0.  1.
         12    1    5    5    0    0  0.34341067512E+02 -0.12902891034E+02 -0.31020778668E+02  0.48042504348E+02  0.00000000000E+00 0. -1.
          5    1    4    4  501    0  0.38354516454E+02  0.94416134658E+02 -0.10645866715E+04  0.10694635789E+04  0.47000000000E+01 0. -1.
         -5    1    4    4    0  501  0.70964304811E+02 -0.15252604015E+02 -0.39157384718E+03  0.39827219622E+03  0.47000000000E+01 0. -1.
          1    1    1    2  502    0 -0.66702588016E+02  0.11534103954E+02  0.37391707669E+03  0.37999506713E+03  0.00000000000E+00 0. -1.
          3    1    1    2  503    0 -0.13035631326E+02  0.26304490838E+02 -0.14788551793E+04  0.14791465429E+04  0.00000000000E+00 0. -1.
<mgrwt>
<rscale>  0 0.44589906E+02</rscale>
<asrwt>0</asrwt>
<pdfrwt beam="1">  1        2 0.85836361E-01 0.67726134E+02</pdfrwt>
<pdfrwt beam="2">  1        4 0.44764927E+00 0.29357349E+02</pdfrwt>
<totfact> 0.16522728E-01</totfact>
</mgrwt>
</event>
<event>
13    1  0.1675423E-008  0.1750554E+03  0.7546771E-02  0.1267868E+00
          2   -1    0    0  502    0  0.00000000000E+00  0.00000000000E+00  0.32552233668E+04  0.32552233668E+04  0.00000000000E+00 0. -1.
          2   -1    0    0  503    0 -0.00000000000E+00 -0.00000000000E+00 -0.10574481048E+04  0.10574481048E+04  0.00000000000E+00 0. -1.
         24    2    1    2    0    0  0.56611219830E+02  0.16609286043E+03  0.61904955064E+03  0.64821789042E+03  0.78564742890E+02 0.  0.
         25    2    1    2    0    0  0.13550247936E+03  0.11622534353E+03 -0.22393997737E+03  0.31247932490E+03  0.12499985053E+03 0.  0.
         24    2    1    2    0    0 -0.67806554104E+02 -0.14274647390E+03  0.75421863326E+02  0.19248729137E+03  0.79928813838E+02 0.  0.
        -13    1    5    5    0    0 -0.33604645305E+02 -0.13249683779E+03  0.76736624025E+02  0.15675839268E+03  0.00000000000E+00 0.  1.
         14    1    5    5    0    0 -0.34201908799E+02 -0.10249636116E+02 -0.13147606991E+01  0.35728898692E+02  0.00000000000E+00 0. -1.
        -13    1    3    3    0    0  0.50358234458E+02  0.15518635108E+03  0.61285968782E+03  0.63420481888E+03  0.00000000000E+00 0.  1.
         14    1    3    3    0    0  0.62529853720E+01  0.10906509352E+02  0.61898628152E+01  0.14013071540E+02  0.00000000000E+00 0. -1.
          5    1    4    4  501    0  0.45792517871E+02  0.18496105401E+02 -0.15531533892E+03  0.16304602146E+03  0.47000000000E+01 0. -1.
         -5    1    4    4    0  501  0.89709961489E+02  0.97729238125E+02 -0.68624638446E+02  0.14943330344E+03  0.47000000000E+01 0. -1.
          1    1    1    2  502    0 -0.16213086863E+03 -0.87488046188E+02  0.24384370942E+04  0.24453866850E+04  0.00000000000E+00 0. -1.
          1    1    1    2  503    0  0.37823723549E+02 -0.52083683864E+02 -0.71119326876E+03  0.71410027987E+03  0.00000000000E+00 0. -1.
<mgrwt>
<rscale>  0 0.10615134E+03</rscale>
<asrwt>0</asrwt>
<pdfrwt beam="1">  1        2 0.47870932E+00 0.17505538E+03</pdfrwt>
<pdfrwt beam="2">  1        2 0.15550707E+00 0.64368814E+02</pdfrwt>
<totfact> 0.83301267E+00</totfact>
</mgrwt>
</event>
<event>
13    1  0.1675423E-008  0.2959074E+03  0.7546771E-02  0.1274433E+00
          2   -1    0    0  502    0  0.00000000000E+00  0.00000000000E+00  0.20780543237E+04  0.20780543237E+04  0.00000000000E+00 0. -1.
          2   -1    0    0  503    0 -0.00000000000E+00 -0.00000000000E+00 -0.18324136640E+04  0.18324136640E+04  0.00000000000E+00 0. -1.
         24    2    1    2    0    0 -0.48350261019E+03 -0.11320000140E+03  0.32896214575E+03  0.60097707822E+03  0.79801884876E+02 0.  0.
         25    2    1    2    0    0  0.73576598449E+03  0.37240829553E+02 -0.15300774103E+03  0.76274574469E+03  0.12502495314E+03 0.  0.
         24    2    1    2    0    0  0.11146401396E+02  0.61902014318E+02  0.26295311630E+02  0.10490974924E+03  0.79740268572E+02 0.  0.
        -11    1    5    5    0    0  0.19546938841E+02  0.40500058370E+01 -0.21544710552E+02  0.29371072812E+02  0.00000000000E+00 0.  1.
         12    1    5    5    0    0 -0.84005374456E+01  0.57852008481E+02  0.47840022183E+02  0.75538676432E+02  0.00000000000E+00 0. -1.
        -11    1    3    3    0    0 -0.34170872335E+03 -0.11668512831E+03  0.23912457227E+03  0.43308293876E+03  0.00000000000E+00 0.  1.
         12    1    3    3    0    0 -0.14179388684E+03  0.34851269176E+01  0.89837573479E+02  0.16789413945E+03  0.00000000000E+00 0. -1.
          5    1    4    4  501    0  0.34370693794E+03 -0.43351839151E+02 -0.57153636683E+02  0.35114451346E+03  0.47000000000E+01 0. -1.
         -5    1    4    4    0  501  0.39205904655E+03  0.80592668704E+02 -0.95854104346E+02  0.41160123123E+03  0.47000000000E+01 0. -1.
          1    1    1    2  502    0 -0.29552590191E+03  0.29742658931E+02  0.12245900781E+04  0.12600956487E+04  0.00000000000E+00 0. -1.
          1    1    1    2  503    0  0.32116126213E+02 -0.15685501404E+02 -0.11811991348E+04  0.11817397669E+04  0.00000000000E+00 0. -1.
<mgrwt>
<rscale>  0 0.10284104E+03</rscale>
<asrwt>0</asrwt>
<pdfrwt beam="1">  1        2 0.30559622E+00 0.29590738E+03</pdfrwt>
<pdfrwt beam="2">  1        2 0.26947260E+00 0.35741859E+02</pdfrwt>
<totfact> 0.14342240E+01</totfact>
</mgrwt>
</event>
<event>
13    1  0.4285648E-008  0.1122755E+03  0.7546771E-02  0.1428614E+00
          2   -1    0    0  503    0  0.00000000000E+00  0.00000000000E+00  0.19618597784E+04  0.19618597784E+04  0.00000000000E+00 0. -1.
         -1   -1    0    0    0  501 -0.00000000000E+00 -0.00000000000E+00 -0.20263241793E+04  0.20263241793E+04  0.00000000000E+00 0.  1.
         24    2    1    2    0    0  0.16447024784E+03 -0.48154472614E+02  0.89090401227E+03  0.91076745182E+03  0.80112898748E+02 0.  0.
         25    2    1    2    0    0 -0.36547344019E+02 -0.73933396582E+02 -0.11175255927E+04  0.11275149519E+04  0.12499864400E+03 0.  0.
         24    2    1    2    0    0 -0.98355423706E+02  0.22196230995E+02  0.35272158334E+03  0.37537515262E+03  0.79545759191E+02 0.  0.
        -13    1    3    3    0    0  0.28852146983E+02 -0.13870012859E+02  0.58452627646E+02  0.66644829664E+02  0.00000000000E+00 0.  1.
         14    1    3    3    0    0  0.13561810085E+03 -0.34284459756E+02  0.83245138463E+03  0.84412262215E+03  0.00000000000E+00 0. -1.
        -13    1    5    5    0    0 -0.10370998189E+03 -0.18525846802E+01  0.28960518612E+03  0.30762047435E+03  0.00000000000E+00 0.  1.
         14    1    5    5    0    0  0.53545581813E+01  0.24048815675E+02  0.63116397229E+02  0.67754678273E+02  0.00000000000E+00 0. -1.
          5    1    4    4  502    0 -0.25173912992E+01 -0.17427631009E+02 -0.89942190348E+03  0.89960653068E+03  0.47000000000E+01 0.  1.
         -5    1    4    4    0  502 -0.34029952720E+02 -0.56505765573E+02 -0.21810368917E+03  0.22790842120E+03  0.47000000000E+01 0.  1.
          1    1    1    2  503    0 -0.74541749179E+01  0.11207026929E+03  0.68724065259E+03  0.69635840238E+03  0.00000000000E+00 0. -1.
         -2    1    1    2    0  501 -0.22113305195E+02 -0.12178631085E+02 -0.87780505649E+03  0.87816799903E+03  0.00000000000E+00 0.  1.
<mgrwt>
<rscale>  0 0.53239193E+02</rscale>
<asrwt>0</asrwt>
<pdfrwt beam="1">  1        2 0.28850879E+00 0.11227552E+03</pdfrwt>
<pdfrwt beam="2">  1       -1 0.29798885E+00 0.25245145E+02</pdfrwt>
<totfact> 0.58866072E-01</totfact>
</mgrwt>
</event>
<event>
13    1  0.1675423E-008  0.6441407E+02  0.7546771E-02  0.1400699E+00
          2   -1    0    0  503    0  0.00000000000E+00  0.00000000000E+00  0.23720108408E+04  0.23720108408E+04  0.00000000000E+00 0. -1.
          2   -1    0    0  502    0 -0.00000000000E+00 -0.00000000000E+00 -0.32199687824E+04  0.32199687824E+04  0.00000000000E+00 0. -1.
         24    2    1    2    0    0 -0.12384828783E+03 -0.18200880328E+03  0.32490389938E+03  0.40065069691E+03  0.80578125014E+02 0.  0.
         25    2    1    2    0    0  0.23896258040E+03  0.18237007978E+03 -0.61742641643E+03  0.69799732516E+03  0.12499170131E+03 0.  0.
         24    2    1    2    0    0 -0.49423865504E+02  0.14166827969E+01 -0.38142914657E+03  0.39353878491E+03  0.83305797531E+02 0.  0.
        -11    1    5    5    0    0 -0.30129631342E+02 -0.23885666647E+02 -0.65048518106E+02  0.75562090123E+02  0.00000000000E+00 0.  1.
         12    1    5    5    0    0 -0.19294234162E+02  0.25302349444E+02 -0.31638062846E+03  0.31797669478E+03  0.00000000000E+00 0. -1.
        -13    1    3    3    0    0 -0.25593881495E+02  0.13320675279E+01  0.46851464533E+02  0.53403004623E+02  0.00000000000E+00 0.  1.
         14    1    3    3    0    0 -0.98254406335E+02 -0.18334087081E+03  0.27805243485E+03  0.34724769229E+03  0.00000000000E+00 0. -1.
          5    1    4    4  501    0  0.21475523768E+03  0.97167073204E+02 -0.42221531493E+03  0.48357948094E+03  0.47000000000E+01 0.  1.
         -5    1    4    4    0  501  0.24207342718E+02  0.85203006577E+02 -0.19521110150E+03  0.21441784422E+03  0.47000000000E+01 0.  1.
          1    1    1    2  502    0 -0.40399090276E+02 -0.50203837639E+02 -0.21360334135E+04  0.21370052072E+04  0.00000000000E+00 0. -1.
          1    1    1    2  503    0 -0.25291336790E+02  0.48425878343E+02  0.19620271356E+04  0.19627876090E+04  0.00000000000E+00 0. -1.
<mgrwt>
<rscale>  0 0.59322052E+02</rscale>
<asrwt>0</asrwt>
<pdfrwt beam="1">  1        2 0.34882513E+00 0.54632567E+02</pdfrwt>
<pdfrwt beam="2">  1        2 0.47352482E+00 0.64414068E+02</pdfrwt>
<totfact> 0.24086892E+00</totfact>
</mgrwt>
</event>
<event>
13    1  0.1675423E-008  0.8766254E+02  0.7546771E-02  0.1328930E+00
          2   -1    0    0  503    0  0.00000000000E+00  0.00000000000E+00  0.19001053606E+04  0.19001053606E+04  0.00000000000E+00 0. -1.
          2   -1    0    0  502    0 -0.00000000000E+00 -0.00000000000E+00 -0.15017308554E+04  0.15017308554E+04  0.00000000000E+00 0. -1.
         24    2    1    2    0    0 -0.16248106004E+02 -0.93398732010E+00  0.57207211851E+03  0.57774858179E+03  0.79133063305E+02 0.  0.
         25    2    1    2    0    0 -0.10604166309E+03 -0.25652714703E+03 -0.12209036569E+03  0.32799572402E+03  0.12499650437E+03 0.  0.
         24    2    1    2    0    0  0.54572764395E+02  0.13003281117E+03 -0.22028637546E+02  0.16441307303E+03  0.81606857057E+02 0.  0.
        -11    1    5    5    0    0 -0.11418179967E+02  0.67982746954E+02  0.70106789649E+01  0.69290535694E+02  0.00000000000E+00 0.  1.
         12    1    5    5    0    0  0.65990944362E+02  0.62050064211E+02 -0.29039316511E+02  0.95122537339E+02  0.00000000000E+00 0. -1.
        -13    1    3    3    0    0 -0.38913913376E+02 -0.25488708670E+02  0.37327460745E+03  0.37616206546E+03  0.00000000000E+00 0.  1.
         14    1    3    3    0    0  0.22665807372E+02  0.24554721350E+02  0.19879751106E+03  0.20158651633E+03  0.00000000000E+00 0. -1.
          5    1    4    4  501    0  0.83116640071E+00 -0.17788077327E+02  0.22508054571E+02  0.29082796515E+02  0.47000000000E+01 0. -1.
         -5    1    4    4    0  501 -0.10687282949E+03 -0.23873906970E+03 -0.14459842026E+03  0.29891292750E+03  0.47000000000E+01 0. -1.
          1    1    1    2  502    0 -0.22094020785E+02  0.69665773392E+02 -0.11770162889E+04  0.11792831763E+04  0.00000000000E+00 0. -1.
          1    1    1    2  503    0  0.89811025482E+02  0.57762549791E+02  0.11474376788E+04  0.11523956609E+04  0.00000000000E+00 0. -1.
<mgrwt>
<rscale>  0 0.80042773E+02</rscale>
<asrwt>0</asrwt>
<pdfrwt beam="1">  1        2 0.27942726E+00 0.87662535E+02</pdfrwt>
<pdfrwt beam="2">  1        2 0.22084277E+00 0.73085332E+02</pdfrwt>
<totfact> 0.26456875E+01</totfact>
</mgrwt>
</event>
<event>
13    1  0.1675423E-008  0.1273732E+03  0.7546771E-02  0.1415359E+00
          2   -1    0    0  503    0  0.00000000000E+00  0.00000000000E+00  0.74622751300E+03  0.74622751300E+03  0.00000000000E+00 0. -1.
          2   -1    0    0  502    0 -0.00000000000E+00 -0.00000000000E+00 -0.17377575311E+04  0.17377575311E+04  0.00000000000E+00 0. -1.
         24    2    1    2    0    0 -0.11623138967E+03  0.26881481336E+03  0.82407150844E+02  0.31502228829E+03  0.81712690464E+02 0.  0.
         25    2    1    2    0    0 -0.50073530651E+02 -0.23480478940E+03 -0.62888178260E+03  0.68465904341E+03  0.12500024652E+03 0.  0.
         24    2    1    2    0    0  0.38701162768E+02 -0.67842636884E+02  0.98561300358E+02  0.14913753737E+03  0.80170267218E+02 0.  0.
        -11    1    3    3    0    0  0.12150221017E+02  0.15463667825E+02  0.92316109495E+01  0.21724997908E+02  0.00000000000E+00 0.  1.
         12    1    3    3    0    0 -0.12838161069E+03  0.25335114553E+03  0.73175539894E+02  0.29329729038E+03  0.00000000000E+00 0. -1.
        -13    1    5    5    0    0 -0.23734791621E+02 -0.94765809752E+01  0.15134254813E+02  0.29701710204E+02  0.00000000000E+00 0.  1.
         14    1    5    5    0    0  0.62435954389E+02 -0.58366055909E+02  0.83427045545E+02  0.11943582717E+03  0.00000000000E+00 0. -1.
          5    1    4    4  501    0 -0.58283807825E+02 -0.23642973404E+03 -0.62956735840E+03  0.67503568066E+03  0.47000000000E+01 0. -1.
         -5    1    4    4    0  501  0.82102771741E+01  0.16249446463E+01  0.68557580000E+00  0.96233627468E+01  0.47000000000E+01 0. -1.
          1    1    1    2  502    0  0.10539385335E+02  0.22265185407E+02 -0.93048381689E+03  0.93080983590E+03  0.00000000000E+00 0. -1.
          1    1    1    2  503    0  0.11706437222E+03  0.11567427520E+02  0.38686713016E+03  0.40435633916E+03  0.00000000000E+00 0. -1.
<mgrwt>
<rscale>  0 0.56014896E+02</rscale>
<asrwt>0</asrwt>
<pdfrwt beam="1">  1        2 0.10973934E+00 0.12737323E+03</pdfrwt>
<pdfrwt beam="2">  1        2 0.25555258E+00 0.24633658E+02</pdfrwt>
<totfact> 0.91849520E+01</totfact>
</mgrwt>
</event>
<event>
13    1  0.1675423E-008  0.1622935E+03  0.7546771E-02  0.1233927E+00
          2   -1    0    0  502    0  0.00000000000E+00  0.00000000000E+00  0.18761507787E+04  0.18761507787E+04  0.00000000000E+00 0. -1.
          2   -1    0    0  503    0 -0.00000000000E+00 -0.00000000000E+00 -0.11434303019E+04  0.11434303019E+04  0.00000000000E+00 0. -1.
         24    2    1    2    0    0 -0.46317623686E+02  0.15430158685E+03  0.67478214402E+03  0.69836880357E+03  0.80210609886E+02 0.  0.
         25    2    1    2    0    0  0.12334870879E+03  0.72105341615E+02  0.74030879157E+03  0.76426170791E+03  0.12499906824E+03 0.  0.
         24    2    1    2    0    0 -0.12700140468E+03  0.60418752076E+02 -0.95355143042E+03  0.96699245760E+03  0.77680758378E+02 0.  0.
        -11    1    3    3    0    0 -0.35807840339E+02  0.15342626137E+03  0.52285736322E+03  0.54607842054E+03  0.00000000000E+00 0.  1.
         12    1    3    3    0    0 -0.10509783347E+02  0.87532547950E+00  0.15192478080E+03  0.15229038303E+03  0.00000000000E+00 0. -1.
        -11    1    5    5    0    0 -0.25217734627E+02 -0.35616062856E+01 -0.57186582487E+02  0.62601313050E+02  0.00000000000E+00 0.  1.
         12    1    5    5    0    0 -0.10178367005E+03  0.63980358361E+02 -0.89636484793E+03  0.90439114455E+03  0.00000000000E+00 0. -1.
          5    1    4    4  501    0  0.58156066583E+02  0.15435440988E+02  0.90868162319E+02  0.10908480115E+03  0.47000000000E+01 0. -1.
         -5    1    4    4    0  501  0.65192642203E+02  0.56669900627E+02  0.64944062925E+03  0.65517690676E+03  0.47000000000E+01 0. -1.
          1    1    1    2  502    0  0.29981901802E+02 -0.92680376388E+02  0.36186594300E+03  0.37474728458E+03  0.00000000000E+00 0. -1.
          1    1    1    2  503    0  0.19988417774E+02 -0.19414530415E+03 -0.90684971432E+02  0.21521082690E+03  0.00000000000E+00 0. -1.
<mgrwt>
<rscale>  0 0.12573343E+03</rscale>
<asrwt>0</asrwt>
<pdfrwt beam="1">  1        2 0.27590453E+00 0.97409274E+02</pdfrwt>
<pdfrwt beam="2">  1        2 0.16815151E+00 0.16229353E+03</pdfrwt>
<totfact> 0.39026884E+01</totfact>
</mgrwt>
</event>
<event>
13    1  0.1675423E-008  0.7334063E+02  0.7546771E-02  0.1378449E+00
          2   -1    0    0  503    0  0.00000000000E+00  0.00000000000E+00  0.12554385498E+04  0.12554385498E+04  0.00000000000E+00 0. -1.
         -1   -1    0    0    0  501 -0.00000000000E+00 -0.00000000000E+00 -0.14374402734E+04  0.14374402734E+04  0.00000000000E+00 0.  1.
         24    2    1    2    0    0  0.11429152940E+03  0.72885988958E+02  0.89733857641E+02  0.18241543309E+03  0.82754479910E+02 0.  0.
         25    2    1    2    0    0 -0.25758465286E+03 -0.50964112577E+02 -0.20294811085E+03  0.35462518915E+03  0.12499557960E+03 0.  0.
         24    2    1    2    0    0  0.86289248125E+02  0.83328752255E+02  0.12079577348E+03  0.18823773542E+03  0.80326277455E+02 0.  0.
        -13    1    3    3    0    0  0.10993772080E+03  0.38826481522E+02  0.42665634649E+02  0.12415375348E+03  0.00000000000E+00 0.  1.
         14    1    3    3    0    0  0.43538085952E+01  0.34059507435E+02  0.47068222992E+02  0.58261679616E+02  0.00000000000E+00 0. -1.
        -13    1    5    5    0    0  0.39628846876E+02  0.80877544431E+02  0.10628196517E+03  0.13931072758E+03  0.00000000000E+00 0.  1.
         14    1    5    5    0    0  0.46660401249E+02  0.24512078239E+01  0.14513808314E+02  0.48927007841E+02  0.00000000000E+00 0. -1.
          5    1    4    4  502    0 -0.23164538944E+03 -0.10006517420E+02 -0.12701789503E+03  0.26441511398E+03  0.47000000000E+01 0.  1.
         -5    1    4    4    0  502 -0.25939263416E+02 -0.40957595157E+02 -0.75930215821E+02  0.90210075170E+02  0.47000000000E+01 0.  1.
          1    1    1    2  503    0  0.98786352218E+01 -0.72508272317E+02  0.88673711679E+03  0.88975151098E+03  0.00000000000E+00 0. -1.
         -2    1    1    2    0  501  0.47125240117E+02 -0.32742356319E+02 -0.10763203606E+04  0.10778489546E+04  0.00000000000E+00 0.  1.
<mgrwt>
<rscale>  0 0.64873199E+02</rscale>
<asrwt>0</asrwt>
<pdfrwt beam="1">  1        2 0.18462332E+00 0.73340631E+02</pdfrwt>
<pdfrwt beam="2">  1       -1 0.21138827E+00 0.57383361E+02</pdfrwt>
<totfact> 0.40553195E+00</totfact>
</mgrwt>
</event>
<event>
13    1  0.1675423E-008  0.7305933E+02  0.7546771E-02  0.1406133E+00
          2   -1    0    0  502    0  0.00000000000E+00  0.00000000000E+00  0.47007222796E+04  0.47007222796E+04  0.00000000000E+00 0. -1.
          2   -1    0    0  503    0 -0.00000000000E+00 -0.00000000000E+00 -0.16041621383E+04  0.16041621383E+04  0.00000000000E+00 0. -1.
         24    2    1    2    0    0 -0.14756907627E+03 -0.14679785016E+03  0.25928376739E+04  0.26022417671E+04  0.74355701464E+02 0.  0.
         25    2    1    2    0    0  0.19095967630E+03  0.69125723388E+02 -0.14309534775E+03  0.27810795860E+03  0.12499517786E+03 0.  0.
         24    2    1    2    0    0 -0.51195844684E+02  0.49190812007E+02  0.20379329141E+03  0.22969169769E+03  0.78649983265E+02 0.  0.
        -11    1    3    3    0    0 -0.19189967306E+02  0.71920560564E+01  0.22433463869E+03  0.22526875201E+03  0.00000000000E+00 0.  1.
         12    1    3    3    0    0 -0.12837910897E+03 -0.15398990621E+03  0.23685030352E+04  0.23769730151E+04  0.00000000000E+00 0. -1.
        -13    1    5    5    0    0  0.15212361042E+02  0.21820073684E+01  0.80622997823E+02  0.82074629835E+02  0.00000000000E+00 0.  1.
         14    1    5    5    0    0 -0.66408205726E+02  0.47008804638E+02  0.12317029359E+03  0.14761706786E+03  0.00000000000E+00 0. -1.
          5    1    4    4  501    0  0.16532756700E+03  0.21126242708E+02 -0.57119085523E+02  0.17625039709E+03  0.47000000000E+01 0.  1.
         -5    1    4    4    0  501  0.25632109293E+02  0.47999480680E+02 -0.85976262224E+02  0.10185756152E+03  0.47000000000E+01 0.  1.
          1    1    1    2  502    0 -0.39993559821E+01  0.73095391815E+02  0.18178098725E+04  0.18192832830E+04  0.00000000000E+00 0. -1.
          1    1    1    2  503    0  0.11804600644E+02 -0.44614077051E+02 -0.13747853488E+04  0.13755597114E+04  0.00000000000E+00 0. -1.
<mgrwt>
<rscale>  0 0.58065845E+02</rscale>
<asrwt>0</asrwt>
<pdfrwt beam="1">  1        2 0.69128269E+00 0.73059334E+02</pdfrwt>
<pdfrwt beam="2">  1        2 0.23590620E+00 0.46149371E+02</pdfrwt>
<totfact> 0.56109894E-01</totfact>
</mgrwt>
</event>
<event>
13    1  0.1675423E-008  0.3463257E+02  0.7546771E-02  0.1588525E+00
         -1   -1    0    0    0  501 -0.00000000000E+00  0.00000000000E+00  0.16684062222E+04  0.16684062222E+04  0.00000000000E+00 0.  1.
          2   -1    0    0  503    0  0.00000000000E+00 -0.00000000000E+00 -0.11410846703E+04  0.11410846703E+04  0.00000000000E+00 0. -1.
         24    2    1    2    0    0 -0.52449016871E+03 -0.49896306979E+03  0.14188189596E+03  0.74391378738E+03  0.96037329021E+02 0.  0.
         25    2    1    2    0    0  0.14087924895E+03  0.22863252935E+03  0.68352981400E+03  0.74495432124E+03  0.12499655132E+03 0.  0.
         24    2    1    2    0    0  0.41119015920E+03  0.24261594364E+03 -0.12083930972E+03  0.49919785323E+03  0.81587466936E+02 0.  0.
        -11    1    3    3    0    0 -0.26345730026E+03 -0.31487556119E+03  0.69454527731E+02  0.41638960063E+03  0.00000000000E+00 0.  1.
         12    1    3    3    0    0 -0.26103286845E+03 -0.18408750860E+03  0.72427368232E+02  0.32752418675E+03  0.00000000000E+00 0. -1.
        -13    1    5    5    0    0  0.34204076201E+03  0.17225637568E+03 -0.74252029595E+02  0.39009935367E+03  0.00000000000E+00 0.  1.
         14    1    5    5    0    0  0.69149397195E+02  0.70359567961E+02 -0.46587280122E+02  0.10909849956E+03  0.00000000000E+00 0. -1.
          5    1    4    4  502    0  0.68289037186E+02  0.17273287502E+03  0.56687337294E+03  0.59654635165E+03  0.47000000000E+01 0.  1.
         -5    1    4    4    0  502  0.72590211763E+02  0.55899654330E+02  0.11665644106E+03  0.14840796959E+03  0.47000000000E+01 0.  1.
          1    1    1    2  503    0 -0.91993770869E+00  0.34623117464E+02 -0.49814678306E+03  0.49934940074E+03  0.00000000000E+00 0. -1.
         -2    1    1    2    0  501 -0.26659301731E+02 -0.69085206681E+01  0.32089593469E+03  0.32207552985E+03  0.00000000000E+00 0.  1.
<mgrwt>
<rscale>  0 0.30883289E+02</rscale>
<asrwt>0</asrwt>
<pdfrwt beam="2">  1        2 0.16780657E+00 0.34632572E+02</pdfrwt>
<pdfrwt beam="1">  1       -1 0.24535386E+00 0.27539899E+02</pdfrwt>
<totfact> 0.32626297E+00</totfact>
</mgrwt>
</event>
<event>
13    1  0.1675423E-008  0.9482777E+02  0.7546771E-02  0.1456084E+00
          2   -1    0    0  503    0  0.00000000000E+00  0.00000000000E+00  0.65454649905E+03  0.65454649905E+03  0.00000000000E+00 0. -1.
          2   -1    0    0  502    0 -0.00000000000E+00 -0.00000000000E+00 -0.26531137659E+04  0.26531137659E+04  0.00000000000E+00 0. -1.
         24    2    1    2    0    0  0.38456655499E+01 -0.15521983938E+01  0.22373584623E+02  0.83827165889E+02  0.80679724769E+02 0.  0.
         25    2    1    2    0    0  0.69067729196E+02  0.10188349437E+03 -0.16467333454E+03  0.24061207374E+03  0.12500506102E+03 0.  0.
         24    2    1    2    0    0 -0.28536160172E+02  0.26277308827E+02 -0.22604847878E+04  0.22622555596E+04  0.80646956160E+02 0.  0.
        -13    1    3    3    0    0 -0.15492667143E+02  0.18445729846E+02 -0.21227555171E+02  0.32107269945E+02  0.00000000000E+00 0.  1.
         14    1    3    3    0    0  0.19338332692E+02 -0.19997928240E+02  0.43601139794E+02  0.51719895945E+02  0.00000000000E+00 0. -1.
        -13    1    5    5    0    0  0.17665344166E+02  0.35839019951E+02 -0.12983332470E+04  0.12989479281E+04  0.00000000000E+00 0.  1.
         14    1    5    5    0    0 -0.46201504338E+02 -0.95617111244E+01 -0.96215154081E+03  0.96330763145E+03  0.00000000000E+00 0. -1.
          5    1    4    4  501    0  0.20361576674E+02  0.86725640091E+02 -0.16699979561E+03  0.18933291364E+03  0.47000000000E+01 0.  1.
         -5    1    4    4    0  501  0.48706152523E+02  0.15157854284E+02  0.23264610714E+01  0.51279160106E+02  0.47000000000E+01 0.  1.
          1    1    1    2  502    0 -0.94428361329E+01 -0.22454802199E+02 -0.15203239358E+03  0.15397153631E+03  0.00000000000E+00 0. -1.
          1    1    1    2  503    0 -0.34934398442E+02 -0.10415380261E+03  0.55624966446E+03  0.56699392942E+03  0.00000000000E+00 0. -1.
<mgrwt>
<rscale>  0 0.48062013E+02</rscale>
<asrwt>0</asrwt>
<pdfrwt beam="1">  1        2 0.96256838E-01 0.94827767E+02</pdfrwt>
<pdfrwt beam="2">  1        2 0.39016379E+00 0.24359501E+02</pdfrwt>
<totfact> 0.41584526E+01</totfact>
</mgrwt>
</event>
<event>
13    1  0.1675423E-008  0.6678483E+02  0.7546771E-02  0.1430861E+00
          2   -1    0    0  503    0  0.00000000000E+00  0.00000000000E+00  0.11055586159E+04  0.11055586159E+04  0.00000000000E+00 0. -1.
          2   -1    0    0  502    0 -0.00000000000E+00 -0.00000000000E+00 -0.76065472490E+03  0.76065472490E+03  0.00000000000E+00 0. -1.
         24    2    1    2    0    0  0.34996085747E+03 -0.44383957252E+02  0.49468275704E+03  0.61612359776E+03  0.10224832605E+03 0.  0.
         25    2    1    2    0    0 -0.33488595208E+03  0.13558676339E+03 -0.37437217807E+03  0.53508266675E+03  0.12500624480E+03 0.  0.
         24    2    1    2    0    0  0.36551715149E+02 -0.98078285991E+02 -0.48611507335E+02  0.14085962591E+03  0.80764952190E+02 0.  0.
        -13    1    5    5    0    0  0.60993992181E+02 -0.53750520240E+02 -0.34450641269E+02  0.88296275075E+02  0.00000000000E+00 0.  1.
         14    1    5    5    0    0 -0.24442277033E+02 -0.44327765751E+02 -0.14160866066E+02  0.52563350833E+02  0.00000000000E+00 0. -1.
        -13    1    3    3    0    0  0.18870587548E+03 -0.67010838276E+01  0.18179334019E+03  0.26211377397E+03  0.00000000000E+00 0.  1.
         14    1    3    3    0    0  0.16125498199E+03 -0.37682873425E+02  0.31288941684E+03  0.35400982379E+03  0.00000000000E+00 0. -1.
          5    1    4    4  501    0 -0.80044307187E+02 -0.19876384417E+02 -0.64709415891E+02  0.10493598180E+03  0.47000000000E+01 0. -1.
         -5    1    4    4    0  501 -0.25484164489E+03  0.15546314781E+03 -0.30966276218E+03  0.43014668495E+03  0.47000000000E+01 0. -1.
          1    1    1    2  502    0 -0.57562940810E+02 -0.34424073368E+02 -0.14189914062E+03  0.15695182411E+03  0.00000000000E+00 0. -1.
          1    1    1    2  503    0  0.59363202678E+01  0.41299553219E+02  0.41510395995E+03  0.41719562624E+03  0.00000000000E+00 0. -1.
<mgrwt>
<rscale>  0 0.52787603E+02</rscale>
<asrwt>0</asrwt>
<pdfrwt beam="1">  1        2 0.16258215E+00 0.41724010E+02</pdfrwt>
<pdfrwt beam="2">  1        2 0.11186099E+00 0.66784832E+02</pdfrwt>
<totfact> 0.17549348E+02</totfact>
</mgrwt>
</event>
<event>
13    1  0.1675423E-008  0.3006540E+03  0.7546771E-02  0.1265484E+00
          2   -1    0    0  503    0  0.00000000000E+00  0.00000000000E+00  0.34384672748E+04  0.34384672748E+04  0.00000000000E+00 0. -1.
          2   -1    0    0  502    0 -0.00000000000E+00 -0.00000000000E+00 -0.19850455826E+04  0.19850455826E+04  0.00000000000E+00 0. -1.
         24    2    1    2    0    0  0.17446037024E+03  0.17412238917E+03  0.85254071289E+03  0.89223076770E+03  0.92168587378E+02 0.  0.
         25    2    1    2    0    0  0.21909589215E+03 -0.33669131715E+03 -0.16698082511E+03  0.45261825132E+03  0.12496652540E+03 0.  0.
         24    2    1    2    0    0 -0.46919310147E+03  0.46870418602E+03 -0.86964272256E+02  0.67348909117E+03  0.78733670143E+02 0.  0.
        -11    1    3    3    0    0  0.13638679345E+03  0.13359746853E+03  0.49773804310E+03  0.53309736500E+03  0.00000000000E+00 0.  1.
         12    1    3    3    0    0  0.38073576794E+02  0.40524920648E+02  0.35480266978E+03  0.35913340269E+03  0.00000000000E+00 0. -1.
        -13    1    5    5    0    0 -0.15242634724E+03  0.18494231914E+03 -0.12801554868E+01  0.23966453960E+03  0.00000000000E+00 0.  1.
         14    1    5    5    0    0 -0.31676675423E+03  0.28376186688E+03 -0.85684116769E+02  0.43382455157E+03  0.00000000000E+00 0. -1.
          5    1    4    4  501    0  0.12809291477E+03 -0.11453953436E+03 -0.11535375850E+03  0.20701613306E+03  0.47000000000E+01 0.  1.
         -5    1    4    4    0  501  0.91002977386E+02 -0.22215178279E+03 -0.51627066612E+02  0.24560211827E+03  0.47000000000E+01 0.  1.
          1    1    1    2  502    0  0.10741972647E+03 -0.28466123418E+03 -0.12568489878E+04  0.12931513422E+04  0.00000000000E+00 0. -1.
          1    1    1    2  503    0 -0.31782887389E+02 -0.21474023864E+02  0.21116750644E+04  0.21120234050E+04  0.00000000000E+00 0. -1.
<mgrwt>
<rscale>  0 0.10738849E+03</rscale>
<asrwt>0</asrwt>
<pdfrwt beam="1">  1        2 0.50565695E+00 0.38357341E+02</pdfrwt>
<pdfrwt beam="2">  1        2 0.29191847E+00 0.30065402E+03</pdfrwt>
<totfact> 0.25803748E+00</totfact>
</mgrwt>
</event>
<event>
13    1  0.1675423E-008  0.1429380E+03  0.7546771E-02  0.1361136E+00
          2   -1    0    0  503    0  0.00000000000E+00  0.00000000000E+00  0.47957483224E+03  0.47957483224E+03  0.00000000000E+00 0. -1.
          2   -1    0    0  502    0 -0.00000000000E+00 -0.00000000000E+00 -0.30581808864E+04  0.30581808864E+04  0.00000000000E+00 0. -1.
         24    2    1    2    0    0  0.11209151491E+03 -0.13385004353E+03 -0.63911559847E+03  0.66740132249E+03  0.80470088750E+02 0.  0.
         25    2    1    2    0    0 -0.13818827755E+03 -0.43294996958E+01 -0.19697219516E+04  0.19785206969E+04  0.12499934627E+03 0.  0.
         24    2    1    2    0    0 -0.91975883496E+02  0.61645837747E+02 -0.11914936624E+03  0.18676815790E+03  0.91793250699E+02 0.  0.
        -11    1    3    3    0    0  0.12317812927E+03 -0.12322192464E+03 -0.61109859652E+03  0.63545101220E+03  0.00000000000E+00 0.  1.
         12    1    3    3    0    0 -0.11086614354E+02 -0.10628118898E+02 -0.28017001949E+02  0.31950310286E+02  0.00000000000E+00 0. -1.
        -11    1    5    5    0    0 -0.59365679742E+02  0.37287713353E+02 -0.12723463431E+03  0.14526978236E+03  0.00000000000E+00 0.  1.
         12    1    5    5    0    0 -0.32610203755E+02  0.24358124393E+02  0.80852680709E+01  0.41498375542E+02  0.00000000000E+00 0. -1.
          5    1    4    4  501    0 -0.12280200371E+03  0.43734099174E+02 -0.16053018433E+04  0.16105927796E+04  0.47000000000E+01 0.  1.
         -5    1    4    4    0  501 -0.15386273845E+02 -0.48063598870E+02 -0.36442010832E+03  0.36792791727E+03  0.47000000000E+01 0.  1.
          1    1    1    2  502    0 -0.32721858392E+02  0.91670349663E+01 -0.26073655389E+03  0.26294163816E+03  0.00000000000E+00 0. -1.
          1    1    1    2  503    0  0.15079450453E+03  0.67366670516E+02  0.41011741604E+03  0.44212390326E+03  0.00000000000E+00 0. -1.
<mgrwt>
<rscale>  0 0.69694137E+02</rscale>
<asrwt>0</asrwt>
<pdfrwt beam="1">  1        2 0.70525711E-01 0.14293798E+03</pdfrwt>
<pdfrwt beam="2">  1        2 0.44973248E+00 0.33981680E+02</pdfrwt>
<totfact> 0.34752340E+01</totfact>
</mgrwt>
</event>
<event>
13    1  0.1675423E-008  0.2651318E+03  0.7546771E-02  0.1191306E+00
          2   -1    0    0  503    0  0.00000000000E+00  0.00000000000E+00  0.18437597143E+04  0.18437597143E+04  0.00000000000E+00 0. -1.
          2   -1    0    0  502    0 -0.00000000000E+00 -0.00000000000E+00 -0.29012223616E+04  0.29012223616E+04  0.00000000000E+00 0. -1.
         24    2    1    2    0    0 -0.79927019290E+01 -0.48564302038E+02 -0.67801112964E+01  0.90235596596E+02  0.75326743374E+02 0.  0.
         25    2    1    2    0    0  0.84918653024E+02  0.23826634354E+03 -0.19946988534E+03  0.34553594618E+03  0.12499930739E+03 0.  0.
         24    2    1    2    0    0  0.93902257120E+02  0.36447478859E+02 -0.22233116217E+03  0.25696457524E+03  0.80334268218E+02 0.  0.
        -11    1    5    5    0    0 -0.10686659194E+02 -0.89498695970E+01 -0.34870822212E+02  0.37553682806E+02  0.00000000000E+00 0.  1.
         12    1    5    5    0    0  0.10458891631E+03  0.45397348456E+02 -0.18746033996E+03  0.21941089244E+03  0.00000000000E+00 0. -1.
        -13    1    3    3    0    0  0.12097114522E+02 -0.37573828594E+02  0.28139986275E+02  0.48476711961E+02  0.00000000000E+00 0.  1.
         14    1    3    3    0    0 -0.20089816451E+02 -0.10990473444E+02 -0.34920097572E+02  0.41758884635E+02  0.00000000000E+00 0. -1.
          5    1    4    4  501    0  0.69845271728E+02  0.73777089909E+02 -0.23981937654E+02  0.10449231700E+03  0.47000000000E+01 0. -1.
         -5    1    4    4    0  501  0.15073381295E+02  0.16448925363E+03 -0.17548794769E+03  0.24104362918E+03  0.47000000000E+01 0. -1.
          1    1    1    2  502    0 -0.82388830184E+02 -0.25334669511E+03 -0.23317229766E+04  0.23468925214E+04  0.00000000000E+00 0. -1.
          1    1    1    2  503    0 -0.88439378031E+02  0.27197174744E+02  0.17028414881E+04  0.17053534366E+04  0.00000000000E+00 0. -1.
<mgrwt>
<rscale>  0 0.15771062E+03</rscale>
<asrwt>0</asrwt>
<pdfrwt beam="1">  1        2 0.27114114E+00 0.93812373E+02</pdfrwt>
<pdfrwt beam="2">  1        2 0.42665034E+00 0.26513177E+03</pdfrwt>
<totfact> 0.48564678E+00</totfact>
</mgrwt>
</event>
<event>
13    1  0.1675423E-008  0.6213472E+02  0.7546771E-02  0.1455053E+00
          2   -1    0    0  503    0  0.00000000000E+00  0.00000000000E+00  0.35856109726E+03  0.35856109726E+03  0.00000000000E+00 0. -1.
          2   -1    0    0  502    0 -0.00000000000E+00 -0.00000000000E+00 -0.11416703408E+04  0.11416703408E+04  0.00000000000E+00 0. -1.
         24    2    1    2    0    0  0.37490326529E+02 -0.11493991467E+03  0.85344527869E+02  0.16821977196E+03  0.79984340185E+02 0.  0.
         25    2    1    2    0    0 -0.98168185958E+02  0.46824028195E+02 -0.46984536148E+03  0.49820716592E+03  0.12500493641E+03 0.  0.
         24    2    1    2    0    0 -0.13650837492E+02  0.24125736110E+02 -0.15733066239E+02  0.90313248716E+02  0.84501816627E+02 0.  0.
        -11    1    5    5    0    0  0.28042144475E+02  0.33459096813E+02  0.27910994940E+01  0.43745437050E+02  0.00000000000E+00 0.  1.
         12    1    5    5    0    0 -0.41692981967E+02 -0.93333607023E+01 -0.18524165733E+02  0.46567811666E+02  0.00000000000E+00 0. -1.
        -13    1    3    3    0    0 -0.22941872211E+02 -0.52038398333E+02  0.24823140739E+02  0.62052499690E+02  0.00000000000E+00 0.  1.
         14    1    3    3    0    0  0.60432198740E+02 -0.62901516338E+02  0.60521387130E+02  0.10616727228E+03  0.00000000000E+00 0. -1.
          5    1    4    4  501    0 -0.29705269354E+02  0.77930474103E+02 -0.17540593701E+03  0.19428045336E+03  0.47000000000E+01 0. -1.
         -5    1    4    4    0  501 -0.68462916604E+02 -0.31106445909E+02 -0.29443942447E+03  0.30392671256E+03  0.47000000000E+01 0. -1.
          1    1    1    2  502    0  0.37277835679E+02  0.49496337630E+02 -0.55950891779E+03  0.56292961688E+03  0.00000000000E+00 0. -1.
          1    1    1    2  503    0  0.37050861241E+02 -0.55061872642E+01  0.17663357405E+03  0.18056163462E+03  0.00000000000E+00 0. -1.
<mgrwt>
<rscale>  0 0.48243426E+02</rscale>
<asrwt>0</asrwt>
<pdfrwt beam="1">  1        2 0.52729574E-01 0.37457768E+02</pdfrwt>
<pdfrwt beam="2">  1        2 0.16789270E+00 0.62134724E+02</pdfrwt>
<totfact> 0.36758266E+02</totfact>
</mgrwt>
</event>
<event>
13    1  0.1675423E-008  0.1859854E+03  0.7546771E-02  0.1264197E+00
          2   -1    0    0  502    0  0.00000000000E+00  0.00000000000E+00  0.44091988981E+03  0.44091988981E+03  0.00000000000E+00 0. -1.
          2   -1    0    0  503    0 -0.00000000000E+00 -0.00000000000E+00 -0.21456543107E+04  0.21456543107E+04  0.00000000000E+00 0. -1.
         24    2    1    2    0    0 -0.20082887047E+02  0.11043976142E+03  0.12714013335E+03  0.18757840964E+03  0.80129788463E+02 0.  0.
         25    2    1    2    0    0  0.59599520010E+02 -0.33760477266E+03 -0.65257992431E+03  0.74767330525E+03  0.12500291381E+03 0.  0.
         24    2    1    2    0    0 -0.52850785042E+01  0.26595965066E+02 -0.37714950776E+03  0.38655189984E+03  0.80282891409E+02 0.  0.
        -13    1    5    5    0    0 -0.35745512049E+02  0.37680538725E+02 -0.21389602887E+03  0.22011150765E+03  0.00000000000E+00 0.  1.
         14    1    5    5    0    0  0.30460433545E+02 -0.11084573659E+02 -0.16325347889E+03  0.16644039219E+03  0.00000000000E+00 0. -1.
        -13    1    3    3    0    0  0.49617702660E+01 -0.76632739350E+01  0.33696232532E+02  0.34911044362E+02  0.00000000000E+00 0.  1.
         14    1    3    3    0    0 -0.25044657313E+02  0.11810303536E+03  0.93443900816E+02  0.15266736527E+03  0.00000000000E+00 0. -1.
          5    1    4    4  501    0  0.17308593285E+02 -0.72007466774E+02 -0.26990565033E+03  0.27992108308E+03  0.47000000000E+01 0. -1.
         -5    1    4    4    0  501  0.42290926725E+02 -0.26559730589E+03 -0.38267427397E+03  0.46775222216E+03  0.47000000000E+01 0. -1.
          1    1    1    2  502    0 -0.93386844773E+01  0.14292480814E+03  0.20807213514E+03  0.25260388997E+03  0.00000000000E+00 0. -1.
          1    1    1    2  503    0 -0.24892869982E+02  0.57644238033E+02 -0.10102172573E+04  0.10121666958E+04  0.00000000000E+00 0. -1.
<mgrwt>
<rscale>  0 0.10806443E+03</rscale>
<asrwt>0</asrwt>
<pdfrwt beam="1">  1        2 0.64841161E-01 0.18598543E+03</pdfrwt>
<pdfrwt beam="2">  1        2 0.31553740E+00 0.62789435E+02</pdfrwt>
<totfact> 0.96507153E+01</totfact>
</mgrwt>
</event>
<event>
13    1  0.1675423E-008  0.1011602E+03  0.7546771E-02  0.1379073E+00
          2   -1    0    0  503    0  0.00000000000E+00  0.00000000000E+00  0.17080814277E+04  0.17080814277E+04  0.00000000000E+00 0. -1.
          2   -1    0    0  502    0 -0.00000000000E+00 -0.00000000000E+00 -0.67458873644E+03  0.67458873644E+03  0.00000000000E+00 0. -1.
         24    2    1    2    0    0 -0.10850211324E+03  0.67312337382E+02  0.28307464178E+03  0.32062452271E+03  0.79782030604E+02 0.  0.
         25    2    1    2    0    0  0.12636731241E+03  0.15786275416E+03  0.27280326985E+03  0.36185556769E+03  0.12501392336E+03 0.  0.
         24    2    1    2    0    0  0.42550134718E+02 -0.23032254799E+03 -0.18071517376E+02  0.24887294505E+03  0.82171606794E+02 0.  0.
        -13    1    3    3    0    0 -0.31967853992E+02  0.63822665648E+02  0.16615961834E+03  0.18084328881E+03  0.00000000000E+00 0.  1.
         14    1    3    3    0    0 -0.76534259252E+02  0.34896717337E+01  0.11691502344E+03  0.13978123391E+03  0.00000000000E+00 0. -1.
        -13    1    5    5    0    0  0.12917601577E+02 -0.16016563225E+03  0.23036262574E+02  0.16232856674E+03  0.00000000000E+00 0.  1.
         14    1    5    5    0    0  0.29632533141E+02 -0.70156915734E+02 -0.41107779949E+02  0.86544378316E+02  0.00000000000E+00 0. -1.
          5    1    4    4  501    0  0.66098907217E+02  0.15914736491E+03  0.23147085508E+03  0.28861357564E+03  0.47000000000E+01 0. -1.
         -5    1    4    4    0  501  0.60268405191E+02 -0.12846107541E+01  0.41332414772E+02  0.73241992053E+02  0.47000000000E+01 0. -1.
          1    1    1    2  502    0  0.40152071857E+02 -0.10052286682E+02 -0.47425494225E+03  0.47605775657E+03  0.00000000000E+00 0. -1.
          1    1    1    2  503    0 -0.10056740574E+03  0.15199743127E+02  0.96994123927E+03  0.97525937212E+03  0.00000000000E+00 0. -1.
<mgrwt>
<rscale>  0 0.64708187E+02</rscale>
<asrwt>0</asrwt>
<pdfrwt beam="1">  1        2 0.25118845E+00 0.10116020E+03</pdfrwt>
<pdfrwt beam="2">  1        2 0.99204226E-01 0.41391271E+02</pdfrwt>
<totfact> 0.95839003E+01</totfact>
</mgrwt>
</event>
<event>
13    1  0.1675423E-008  0.9972576E+02  0.7546771E-02  0.1452925E+00
          2   -1    0    0  502    0  0.00000000000E+00  0.00000000000E+00  0.17567959816E+04  0.17567959816E+04  0.00000000000E+00 0. -1.
          2   -1    0    0  503    0 -0.00000000000E+00 -0.00000000000E+00 -0.76871714102E+03  0.76871714102E+03  0.00000000000E+00 0. -1.
         24    2    1    2    0    0 -0.22304278121E+03  0.23117546789E+02  0.10303896038E+04  0.10576075324E+04  0.80922516806E+02 0.  0.
         25    2    1    2    0    0  0.15378199002E+03 -0.11993164039E+03  0.11845418502E+03  0.26016370259E+03  0.12498503661E+03 0.  0.
         24    2    1    2    0    0  0.35940985940E+02  0.30021392179E+02  0.17291876485E+03  0.19554727667E+03  0.78388772909E+02 0.  0.
        -11    1    3    3    0    0 -0.23811605587E+02  0.19927928190E+02  0.26077479831E+03  0.26261685078E+03  0.00000000000E+00 0.  1.
         12    1    3    3    0    0 -0.19923117562E+03  0.31896185990E+01  0.76961480549E+03  0.79499068160E+03  0.00000000000E+00 0. -1.
        -13    1    5    5    0    0 -0.20815397874E+02 -0.86609695085E+01  0.39246116488E+02  0.45260919576E+02  0.00000000000E+00 0.  1.
         14    1    5    5    0    0  0.56756383814E+02  0.38682361688E+02  0.13367264836E+03  0.15028635709E+03  0.00000000000E+00 0. -1.
          5    1    4    4  501    0  0.14742900774E+02 -0.71144306747E+02  0.29290388570E+01  0.72866554566E+02  0.47000000000E+01 0. -1.
         -5    1    4    4    0  501  0.13903908924E+03 -0.48787333643E+02  0.11552514617E+03  0.18729714803E+03  0.47000000000E+01 0. -1.
          1    1    1    2  502    0  0.46756205007E+02  0.86321922135E+02  0.33193800722E+03  0.34615091735E+03  0.00000000000E+00 0. -1.
          1    1    1    2  503    0 -0.13436399756E+02 -0.19529220714E+02 -0.66562172030E+03  0.66604369363E+03  0.00000000000E+00 0. -1.
<mgrwt>
<rscale>  0 0.48620981E+02</rscale>
<asrwt>0</asrwt>
<pdfrwt beam="1">  1        2 0.25835235E+00 0.99725762E+02</pdfrwt>
<pdfrwt beam="2">  1        2 0.11304664E+00 0.23705006E+02</pdfrwt>
<totfact> 0.79981398E+01</totfact>
</mgrwt>
</event>
<event>
13    1  0.1675423E-008  0.7818888E+02  0.7546771E-02  0.1380171E+00
          2   -1    0    0  502    0  0.00000000000E+00  0.00000000000E+00  0.15125936350E+04  0.15125936350E+04  0.00000000000E+00 0. -1.
          2   -1    0    0  503    0 -0.00000000000E+00 -0.00000000000E+00 -0.94808739471E+03  0.94808739471E+03  0.00000000000E+00 0. -1.
         24    2    1    2    0    0 -0.92344880818E+02 -0.81319891109E+02  0.65415426892E+03  0.67080749678E+03  0.83212910601E+02 0.  0.
         25    2    1    2    0    0 -0.30725830314E+02 -0.18888465934E+02 -0.42129002436E+03  0.44093839498E+03  0.12506211553E+03 0.  0.
         24    2    1    2    0    0  0.81367547527E+02  0.13542932181E+03  0.11197928485E+03  0.20907185359E+03  0.78802923370E+02 0.  0.
        -11    1    3    3    0    0 -0.85045542217E+02 -0.21173816598E+02  0.40793553437E+03  0.41724390344E+03  0.00000000000E+00 0.  1.
         12    1    3    3    0    0 -0.72993386013E+01 -0.60146074511E+02  0.24621873455E+03  0.25356359334E+03  0.00000000000E+00 0. -1.
        -13    1    5    5    0    0  0.38357313193E+02  0.10285920580E+03  0.35299251086E+02  0.11531407902E+03  0.00000000000E+00 0.  1.
         14    1    5    5    0    0  0.43010234334E+02  0.32570116011E+02  0.76680033765E+02  0.93757774572E+02  0.00000000000E+00 0. -1.
          5    1    4    4  501    0 -0.11220015106E+02 -0.64908818351E+02 -0.13508120928E+03  0.15035979030E+03  0.47000000000E+01 0. -1.
         -5    1    4    4    0  501 -0.19505815208E+02  0.46020352417E+02 -0.28620881509E+03  0.29057860468E+03  0.47000000000E+01 0. -1.
          1    1    1    2  502    0 -0.36570872066E+02 -0.38463294727E+02  0.67537956434E+03  0.67746174036E+03  0.00000000000E+00 0. -1.
          1    1    1    2  503    0  0.78274035672E+02  0.32423299627E+01 -0.45571685346E+03  0.46240154400E+03  0.00000000000E+00 0. -1.
<mgrwt>
<rscale>  0 0.64418940E+02</rscale>
<asrwt>0</asrwt>
<pdfrwt beam="1">  1        2 0.22244024E+00 0.53074040E+02</pdfrwt>
<pdfrwt beam="2">  1        2 0.13942462E+00 0.78188881E+02</pdfrwt>
<totfact> 0.82368911E+01</totfact>
</mgrwt>
</event>
<event>
13    1  0.1675423E-008  0.6897311E+02  0.7546771E-02  0.1365502E+00
          2   -1    0    0  503    0  0.00000000000E+00  0.00000000000E+00  0.65817158131E+03  0.65817158131E+03  0.00000000000E+00 0. -1.
          2   -1    0    0  502    0 -0.00000000000E+00 -0.00000000000E+00 -0.87886107435E+03  0.87886107435E+03  0.00000000000E+00 0. -1.
         24    2    1    2    0    0  0.69273077090E+02 -0.44368472226E+02  0.38870621848E+03  0.40513720317E+03  0.79223156746E+02 0.  0.
         25    2    1    2    0    0 -0.82702057605E+02  0.62131886150E+02 -0.45399287489E+03  0.48211403380E+03  0.12499763810E+03 0.  0.
         24    2    1    2    0    0 -0.61406548147E+00  0.27571037020E+02  0.77388444178E+02  0.11691806492E+03  0.83188481499E+02 0.  0.
        -11    1    5    5    0    0 -0.29056629532E+02  0.43629874227E+02  0.33503675845E+02  0.62212136597E+02  0.00000000000E+00 0.  1.
         12    1    5    5    0    0  0.28442564051E+02 -0.16058837208E+02  0.43884768333E+02  0.54705928325E+02  0.00000000000E+00 0. -1.
        -13    1    3    3    0    0 -0.11045929899E+02  0.94402631611E+00  0.13025997910E+03  0.13073089118E+03  0.00000000000E+00 0.  1.
         14    1    3    3    0    0  0.80319006989E+02 -0.45312498543E+02  0.25844623938E+03  0.27440631199E+03  0.00000000000E+00 0. -1.
          5    1    4    4  501    0  0.16533761167E+02  0.44131217570E+01 -0.46937117747E+01  0.18356520155E+02  0.47000000000E+01 0. -1.
         -5    1    4    4    0  501 -0.99235818772E+02  0.57718764393E+02 -0.44929916311E+03  0.46375751365E+03  0.47000000000E+01 0. -1.
          1    1    1    2  502    0  0.69072504682E+02 -0.55610219707E+01 -0.37177658545E+03  0.37817954117E+03  0.00000000000E+00 0. -1.
          1    1    1    2  503    0 -0.55029458685E+02 -0.39773428973E+02  0.13898530463E+03  0.15468381260E+03  0.00000000000E+00 0. -1.
<mgrwt>
<rscale>  0 0.68433550E+02</rscale>
<asrwt>0</asrwt>
<pdfrwt beam="1">  1        2 0.96789939E-01 0.67898210E+02</pdfrwt>
<pdfrwt beam="2">  1        2 0.12924427E+00 0.68973110E+02</pdfrwt>
<totfact> 0.27059761E+02</totfact>
</mgrwt>
</event>
<event>
13    1  0.1675423E-008  0.1740463E+03  0.7546771E-02  0.1265600E+00
          2   -1    0    0  502    0  0.00000000000E+00  0.00000000000E+00  0.80679228990E+03  0.80679228990E+03  0.00000000000E+00 0. -1.
          2   -1    0    0  503    0 -0.00000000000E+00 -0.00000000000E+00 -0.19657402992E+04  0.19657402992E+04  0.00000000000E+00 0. -1.
         24    2    1    2    0    0  0.17887339005E+03 -0.68566965498E+02  0.51024420028E+03  0.55065428173E+03  0.78574013784E+02 0.  0.
         25    2    1    2    0    0 -0.14570150875E+03 -0.15757874726E+03 -0.93382810250E+03  0.96629188565E+03  0.12500036805E+03 0.  0.
         24    2    1    2    0    0 -0.15935281613E+03  0.35705180290E+03 -0.11852473366E+03  0.41644226488E+03  0.80602341967E+02 0.  0.
        -11    1    3    3    0    0  0.33038559738E+02 -0.41390556702E+02  0.83673939819E+02  0.99025515997E+02  0.00000000000E+00 0.  1.
         12    1    3    3    0    0  0.14583483031E+03 -0.27176408795E+02  0.42657026046E+03  0.45162876573E+03  0.00000000000E+00 0. -1.
        -11    1    5    5    0    0 -0.11537282060E+03  0.25822723093E+03 -0.12245864859E+03  0.30820173773E+03  0.00000000000E+00 0.  1.
         12    1    5    5    0    0 -0.43979995532E+02  0.98824571969E+02  0.39339149256E+01  0.10824052715E+03  0.00000000000E+00 0. -1.
          5    1    4    4  501    0 -0.99464368859E+02 -0.16360982169E+03 -0.83811629693E+03  0.85972225259E+03  0.47000000000E+01 0.  1.
         -5    1    4    4    0  501 -0.46237139892E+02  0.60310744295E+01 -0.95711805572E+02  0.10656963306E+03  0.47000000000E+01 0.  1.
          1    1    1    2  502    0 -0.31923626023E+02 -0.57977325036E+02  0.89695934870E+02  0.11147129159E+03  0.00000000000E+00 0. -1.
          1    1    1    2  503    0  0.15810456086E+03 -0.72928765104E+02 -0.70653530826E+03  0.72767286521E+03  0.00000000000E+00 0. -1.
<mgrwt>
<rscale>  0 0.10732800E+03</rscale>
<asrwt>0</asrwt>
<pdfrwt beam="1">  1        2 0.11864593E+00 0.66185256E+02</pdfrwt>
<pdfrwt beam="2">  1        2 0.28907945E+00 0.17404632E+03</pdfrwt>
<totfact> 0.54848747E+01</totfact>
</mgrwt>
</event>
<event>
13    1  0.1675423E-008  0.1007060E+03  0.7546771E-02  0.1418403E+00
          2   -1    0    0  502    0  0.00000000000E+00  0.00000000000E+00  0.13485386651E+04  0.13485386651E+04  0.00000000000E+00 0. -1.
          2   -1    0    0  503    0 -0.00000000000E+00 -0.00000000000E+00 -0.51327622045E+03  0.51327622045E+03  0.00000000000E+00 0. -1.
         24    2    1    2    0    0 -0.47990421769E+02 -0.83044318397E+02  0.18920210240E+03  0.22688005824E+03  0.80484072189E+02 0.  0.
         25    2    1    2    0    0 -0.15396272621E+02  0.18815900594E+03  0.24493290155E+03  0.33355121269E+03  0.12499371384E+03 0.  0.
         24    2    1    2    0    0  0.12682363009E+03 -0.68311174469E+02  0.55345804483E+02  0.17440471433E+03  0.81260055384E+02 0.  0.
        -11    1    3    3    0    0 -0.50564428769E+02 -0.36170266844E+02  0.49400125107E+02  0.79406687507E+02  0.00000000000E+00 0.  1.
         12    1    3    3    0    0  0.25740070000E+01 -0.46874051553E+02  0.13980197729E+03  0.14747337074E+03  0.00000000000E+00 0. -1.
        -13    1    5    5    0    0 -0.77214148721E+01  0.44863235030E+01  0.12826404144E+02  0.15628947164E+02  0.00000000000E+00 0.  1.
         14    1    5    5    0    0  0.13454504496E+03 -0.72797497972E+02  0.42519400339E+02  0.15877576717E+03  0.00000000000E+00 0. -1.
          5    1    4    4  501    0  0.18783171376E+02 -0.90240560947E+01  0.67132219086E+01  0.22391928540E+02  0.47000000000E+01 0. -1.
         -5    1    4    4    0  501 -0.34179443997E+02  0.19718306203E+03  0.23821967964E+03  0.31115928415E+03  0.47000000000E+01 0. -1.
          1    1    1    2  502    0  0.15537723509E+02  0.26167388944E+02  0.72952778448E+03  0.73016227061E+03  0.00000000000E+00 0. -1.
          1    1    1    2  503    0 -0.78974659205E+02 -0.62970902015E+02 -0.38374614825E+03  0.39681662968E+03  0.00000000000E+00 0. -1.
<mgrwt>
<rscale>  0 0.55360294E+02</rscale>
<asrwt>0</asrwt>
<pdfrwt beam="1">  1        2 0.19831451E+00 0.30432764E+02</pdfrwt>
<pdfrwt beam="2">  1        2 0.75481797E-01 0.10070601E+03</pdfrwt>
<totfact> 0.20852271E+02</totfact>
</mgrwt>
</event>
<event>
13    1  0.1675423E-008  0.1160359E+03  0.7546771E-02  0.1274687E+00
          2   -1    0    0  503    0  0.00000000000E+00  0.00000000000E+00  0.36242089636E+04  0.36242089636E+04  0.00000000000E+00 0. -1.
          2   -1    0    0  502    0 -0.00000000000E+00 -0.00000000000E+00 -0.10287522457E+04  0.10287522457E+04  0.00000000000E+00 0. -1.
         24    2    1    2    0    0  0.27274108496E+02 -0.52228766752E+02  0.36492579257E+03  0.37803330308E+03  0.79162005327E+02 0.  0.
         25    2    1    2    0    0  0.79396364796E+02 -0.49281535070E+02 -0.50872708209E+02  0.16415038526E+03  0.12499945640E+03 0.  0.
         24    2    1    2    0    0  0.39089883199E+02 -0.72072418549E+02  0.11589446445E+03  0.16305869155E+03  0.80213200390E+02 0.  0.
        -11    1    5    5    0    0  0.65396606536E+01  0.93851217277E+01  0.55236812490E+02  0.56408803615E+02  0.00000000000E+00 0.  1.
         12    1    5    5    0    0  0.32550222545E+02 -0.81457540277E+02  0.60657651957E+02  0.10664988794E+03  0.00000000000E+00 0. -1.
        -11    1    3    3    0    0  0.50184911975E+02 -0.29984220268E+02  0.30043076767E+03  0.30606572009E+03  0.00000000000E+00 0.  1.
         12    1    3    3    0    0 -0.22910803479E+02 -0.22244546484E+02  0.64495024897E+02  0.71967582986E+02  0.00000000000E+00 0. -1.
          5    1    4    4  501    0  0.81335579395E+02 -0.84689886924E+02 -0.25381671704E+02  0.12022550762E+03  0.47000000000E+01 0. -1.
         -5    1    4    4    0  501 -0.19392145985E+01  0.35408351854E+02 -0.25491036504E+02  0.43924877648E+02  0.47000000000E+01 0. -1.
          1    1    1    2  502    0 -0.11019038842E+03  0.41384856396E+02 -0.88567638017E+03  0.89346364136E+03  0.00000000000E+00 0. -1.
          1    1    1    2  503    0 -0.35569968073E+02  0.13219786398E+03  0.30511855492E+04  0.30542551880E+04  0.00000000000E+00 0. -1.
<mgrwt>
<rscale>  0 0.10271578E+03</rscale>
<asrwt>0</asrwt>
<pdfrwt beam="1">  1        2 0.53297190E+00 0.90924721E+02</pdfrwt>
<pdfrwt beam="2">  1        2 0.15128710E+00 0.11603590E+03</pdfrwt>
<totfact> 0.57012151E+00</totfact>
</mgrwt>
</event>
<event>
13    1  0.1675423E-008  0.1679651E+03  0.7546771E-02  0.1370747E+00
          2   -1    0    0  502    0  0.00000000000E+00  0.00000000000E+00  0.96442004666E+03  0.96442004666E+03  0.00000000000E+00 0. -1.
          2   -1    0    0  503    0 -0.00000000000E+00 -0.00000000000E+00 -0.18617764679E+04  0.18617764679E+04  0.00000000000E+00 0. -1.
         24    2    1    2    0    0  0.73260789600E+02 -0.65313810743E+02  0.30940993992E+03  0.33472099206E+03  0.81673707152E+02 0.  0.
         25    2    1    2    0    0 -0.17562399357E+03  0.84202053307E+02 -0.60974394334E+03  0.65218560482E+03  0.12499845518E+03 0.  0.
         24    2    1    2    0    0 -0.57569340851E+02 -0.87464497558E+02  0.25447683759E+02  0.13497633531E+03  0.81281973072E+02 0.  0.
        -11    1    5    5    0    0 -0.73062635801E+02 -0.43897475841E+02  0.24653802546E+02  0.88729629299E+02  0.00000000000E+00 0.  1.
         12    1    5    5    0    0  0.15493294950E+02 -0.43567021717E+02  0.79388121254E+00  0.46246706013E+02  0.00000000000E+00 0. -1.
        -13    1    3    3    0    0  0.87857740229E+02 -0.54522266755E+02  0.21488176257E+03  0.23846557818E+03  0.00000000000E+00 0.  1.
         14    1    3    3    0    0 -0.14596950629E+02 -0.10791543988E+02  0.94528177350E+02  0.96255413886E+02  0.00000000000E+00 0. -1.
          5    1    4    4  501    0 -0.40003068305E+02  0.68542818548E+02 -0.12155398354E+03  0.14524401662E+03  0.47000000000E+01 0.  1.
         -5    1    4    4    0  501 -0.13562092527E+03  0.15659234758E+02 -0.48818995980E+03  0.50694158820E+03  0.47000000000E+01 0.  1.
          1    1    1    2  502    0  0.15896387386E+03  0.95252621367E+02  0.52488969501E+03  0.55664330320E+03  0.00000000000E+00 0. -1.
          1    1    1    2  503    0  0.96867096424E+00 -0.26676366373E+02 -0.11473597966E+04  0.11476702791E+04  0.00000000000E+00 0. -1.
<mgrwt>
<rscale>  0 0.66960065E+02</rscale>
<asrwt>0</asrwt>
<pdfrwt beam="1">  1        2 0.14182648E+00 0.16796505E+03</pdfrwt>
<pdfrwt beam="2">  1        2 0.27379065E+00 0.26693948E+02</pdfrwt>
<totfact> 0.57452374E+01</totfact>
</mgrwt>
</event>
<event>
13    1  0.1675423E-008  0.1796464E+03  0.7546771E-02  0.1259199E+00
          2   -1    0    0  502    0  0.00000000000E+00  0.00000000000E+00  0.17638735294E+04  0.17638735294E+04  0.00000000000E+00 0. -1.
          4   -1    0    0  503    0 -0.00000000000E+00 -0.00000000000E+00 -0.39116442566E+03  0.39116442566E+03  0.00000000000E+00 0. -1.
         24    2    1    2    0    0  0.10807985838E+03  0.10567954033E+01  0.12646011999E+03  0.18489065607E+03  0.80684695888E+02 0.  0.
         25    2    1    2    0    0  0.10525105035E+03  0.70033138775E+02 -0.19384531943E+03  0.26303061914E+03  0.12500669827E+03 0.  0.
         24    2    1    2    0    0 -0.42210928826E+02 -0.79993658240E+02  0.23012274324E+02  0.12282437994E+03  0.79846826280E+02 0.  0.
        -11    1    5    5    0    0  0.25717808101E+01 -0.69824835788E+02  0.30600100477E+02  0.76279013487E+02  0.00000000000E+00 0.  1.
         12    1    5    5    0    0 -0.44782709636E+02 -0.10168822452E+02 -0.75878261535E+01  0.46545366452E+02  0.00000000000E+00 0. -1.
        -11    1    3    3    0    0  0.61269641239E+01  0.19116409136E+02  0.56423091876E+02  0.59887745695E+02  0.00000000000E+00 0.  1.
         12    1    3    3    0    0  0.10195289426E+03 -0.18059613732E+02  0.70037028116E+02  0.12500291038E+03  0.00000000000E+00 0. -1.
          5    1    4    4  501    0  0.85686510789E+02  0.20737744775E+02 -0.34093842696E+02  0.94639908598E+02  0.47000000000E+01 0.  1.
         -5    1    4    4    0  501  0.19564539560E+02  0.49295394000E+02 -0.15975147673E+03  0.16839071054E+03  0.47000000000E+01 0.  1.
          1    1    1    2  502    0 -0.16539911001E+03  0.76931917911E+02  0.14801515326E+04  0.14913497058E+04  0.00000000000E+00 0. -1.
          3    1    1    2  503    0 -0.57208698915E+01 -0.68028193849E+02 -0.63069503693E+02  0.92942594147E+02  0.00000000000E+00 0. -1.
<mgrwt>
<rscale>  0 0.11074365E+03</rscale>
<asrwt>0</asrwt>
<pdfrwt beam="1">  1        2 0.25939316E+00 0.17964639E+03</pdfrwt>
<pdfrwt beam="2">  1        4 0.57524181E-01 0.68268320E+02</pdfrwt>
<totfact> 0.16053954E+01</totfact>
</mgrwt>
</event>
<event>
13    1  0.1675423E-008  0.1385397E+03  0.7546771E-02  0.1350098E+00
          2   -1    0    0  502    0  0.00000000000E+00  0.00000000000E+00  0.22332989796E+04  0.22332989796E+04  0.00000000000E+00 0. -1.
          2   -1    0    0  503    0 -0.00000000000E+00 -0.00000000000E+00 -0.40472521078E+03  0.40472521078E+03  0.00000000000E+00 0. -1.
         24    2    1    2    0    0  0.50673705830E+02  0.47596545377E+02  0.72948430221E+02  0.12839248377E+03  0.79560673851E+02 0.  0.
         25    2    1    2    0    0 -0.16068054233E+03 -0.24720322473E+03  0.11160340898E+04  0.11610709922E+04  0.12500435351E+03 0.  0.
         24    2    1    2    0    0 -0.45561914290E+02  0.12038950230E+02 -0.10188505527E+03  0.13916455502E+03  0.82251957607E+02 0.  0.
        -11    1    3    3    0    0 -0.12658048941E+02  0.39898061026E+02  0.28940517520E+02  0.50888456756E+02  0.00000000000E+00 0.  1.
         12    1    3    3    0    0  0.63331754771E+02  0.76984843503E+01  0.44007912701E+02  0.77504027018E+02  0.00000000000E+00 0. -1.
        -13    1    5    5    0    0 -0.48931000260E+01  0.36755375212E+02 -0.14800086009E+02  0.39924210459E+02  0.00000000000E+00 0.  1.
         14    1    5    5    0    0 -0.40668814264E+02 -0.24716424982E+02 -0.87084969262E+02  0.99240344562E+02  0.00000000000E+00 0. -1.
          5    1    4    4  501    0 -0.53006388109E+00 -0.74640140198E+02  0.41110859607E+03  0.41785619448E+03  0.47000000000E+01 0.  1.
         -5    1    4    4    0  501 -0.16015047845E+03 -0.17256308454E+03  0.70492549370E+03  0.74321479772E+03  0.47000000000E+01 0.  1.
          1    1    1    2  502    0  0.93346792643E+00  0.38480517464E+02  0.92564949590E+03  0.92644946481E+03  0.00000000000E+00 0. -1.
          1    1    1    2  503    0  0.15463528287E+03  0.14908721166E+03 -0.18417319180E+03  0.28294669457E+03  0.00000000000E+00 0. -1.
<mgrwt>
<rscale>  0 0.73024979E+02</rscale>
<asrwt>0</asrwt>
<pdfrwt beam="1">  1        2 0.32842631E+00 0.38491838E+02</pdfrwt>
<pdfrwt beam="2">  1        2 0.59518415E-01 0.13853970E+03</pdfrwt>
<totfact> 0.10253577E+02</totfact>
</mgrwt>
</event>
<event>
13    1  0.1675423E-008  0.7521930E+02  0.7546771E-02  0.1404832E+00
          2   -1    0    0  502    0  0.00000000000E+00  0.00000000000E+00  0.40767279855E+04  0.40767279855E+04  0.00000000000E+00 0. -1.
          4   -1    0    0  503    0 -0.00000000000E+00 -0.00000000000E+00 -0.17777773887E+04  0.17777773887E+04  0.00000000000E+00 0. -1.
         24    2    1    2    0    0  0.37612759292E+03  0.12063532943E+03 -0.17880017743E+02  0.40369249885E+03  0.81382367430E+02 0.  0.
         25    2    1    2    0    0 -0.35276312575E+03  0.11132627161E+03 -0.44432038754E+03  0.59150744878E+03  0.12500037414E+03 0.  0.
         24    2    1    2    0    0 -0.88497315429E+02 -0.31792265481E+03  0.41178035226E+02  0.34192320080E+03  0.79430821348E+02 0.  0.
        -11    1    3    3    0    0  0.90687668925E+02  0.20712345402E+02 -0.38256472961E+02  0.10058236560E+03  0.00000000000E+00 0.  1.
         12    1    3    3    0    0  0.28543992400E+03  0.99922984025E+02  0.20376455219E+02  0.30311013325E+03  0.00000000000E+00 0. -1.
        -13    1    5    5    0    0 -0.79096449734E+02 -0.18862711937E+03 -0.41744383788E+01  0.20458217043E+03  0.00000000000E+00 0.  1.
         14    1    5    5    0    0 -0.94008656942E+01 -0.12929553544E+03  0.45352473604E+02  0.13734103037E+03  0.00000000000E+00 0. -1.
          5    1    4    4  501    0 -0.28022309180E+03  0.13824363098E+03 -0.36695343138E+03  0.48198878979E+03  0.47000000000E+01 0. -1.
         -5    1    4    4    0  501 -0.72540033953E+02 -0.26917359363E+02 -0.77366956154E+02  0.10951865898E+03  0.47000000000E+01 0. -1.
          1    1    1    2  502    0  0.63232501169E+02  0.40716697755E+02  0.36177160726E+04  0.36184977243E+04  0.00000000000E+00 0. -1.
          3    1    1    2  503    0  0.19003470851E+01  0.45244356013E+02 -0.89774310574E+03  0.89888450146E+03  0.00000000000E+00 0. -1.
<mgrwt>
<rscale>  0 0.58363083E+02</rscale>
<asrwt>0</asrwt>
<pdfrwt beam="1">  1        2 0.59951882E+00 0.75219301E+02</pdfrwt>
<pdfrwt beam="2">  1        4 0.26143785E+00 0.45284247E+02</pdfrwt>
<totfact> 0.24439217E-02</totfact>
</mgrwt>
</event>
<event>
13    1  0.1675423E-008  0.4157702E+02  0.7546771E-02  0.1590505E+00
         -1   -1    0    0    0  501 -0.00000000000E+00  0.00000000000E+00  0.21718797884E+03  0.21718797884E+03  0.00000000000E+00 0.  1.
          2   -1    0    0  503    0  0.00000000000E+00 -0.00000000000E+00 -0.23225768777E+04  0.23225768777E+04  0.00000000000E+00 0. -1.
         24    2    1    2    0    0  0.13579423757E+03 -0.29438767528E+03 -0.11475282559E+04  0.11952547839E+04  0.81906788556E+02 0.  0.
         25    2    1    2    0    0  0.36081144478E+02  0.33665344305E+02 -0.10329709553E+03  0.16950432415E+03  0.12500488617E+03 0.  0.
         24    2    1    2    0    0 -0.18557779134E+03  0.21090948153E+03 -0.55209143627E+03  0.62204717764E+03  0.56708122683E+02 0.  0.
        -11    1    3    3    0    0  0.30232178263E+02 -0.89236121084E+02 -0.47494283727E+03  0.48419806751E+03  0.00000000000E+00 0.  1.
         12    1    3    3    0    0  0.10556205930E+03 -0.20515155419E+03 -0.67258541864E+03  0.71105671638E+03  0.00000000000E+00 0. -1.
        -13    1    5    5    0    0 -0.18785093798E+03  0.20622720787E+03 -0.52550881966E+03  0.59495979335E+03  0.00000000000E+00 0.  1.
         14    1    5    5    0    0  0.22731466307E+01  0.46822736569E+01 -0.26582616605E+02  0.27087384292E+02  0.00000000000E+00 0. -1.
          5    1    4    4  502    0  0.48552660220E+02  0.49408465004E+02 -0.12283078268E+03  0.14109588371E+03  0.47000000000E+01 0. -1.
         -5    1    4    4    0  502 -0.12471515742E+02 -0.15743120699E+02  0.19533687146E+02  0.28408440432E+02  0.47000000000E+01 0. -1.
          1    1    1    2  503    0 -0.13389615199E+02  0.18286814498E+02 -0.42395526004E+03  0.42456065750E+03  0.00000000000E+00 0. -1.
         -2    1    1    2    0  501  0.27092024499E+02  0.31526034948E+02  0.12148314893E+03  0.12839791332E+03  0.00000000000E+00 0.  1.
<mgrwt>
<rscale>  0 0.30697418E+02</rscale>
<asrwt>0</asrwt>
<pdfrwt beam="2">  1        2 0.34155543E+00 0.22664717E+02</pdfrwt>
<pdfrwt beam="1">  1       -1 0.31939408E-01 0.41577025E+02</pdfrwt>
<totfact> 0.79563398E+01</totfact>
</mgrwt>
</event>
<event>
13    1  0.1675423E-008  0.1125440E+03  0.7546771E-02  0.1291668E+00
          2   -1    0    0  503    0  0.00000000000E+00  0.00000000000E+00  0.12502158256E+04  0.12502158256E+04  0.00000000000E+00 0. -1.
         -1   -1    0    0    0  501 -0.00000000000E+00 -0.00000000000E+00 -0.10139398366E+04  0.10139398366E+04  0.00000000000E+00 0.  1.
         24    2    1    2    0    0  0.13356839328E+03 -0.58474147326E+02  0.82201558298E+02  0.18714645714E+03  0.83707578178E+02 0.  0.
         25    2    1    2    0    0  0.12486013707E+03 -0.58170460012E+02  0.37442477472E+03  0.41808142090E+03  0.12499722531E+03 0.  0.
         24    2    1    2    0    0 -0.34110516224E+03  0.46322017198E+01 -0.84539644710E+03  0.91513921942E+03  0.80065280512E+02 0.  0.
        -11    1    3    3    0    0  0.81945653257E+02  0.60607967018E+01  0.59479677525E+02  0.10143793858E+03  0.00000000000E+00 0.  1.
         12    1    3    3    0    0  0.51622740021E+02 -0.64534944028E+02  0.22721880773E+02  0.85708518560E+02  0.00000000000E+00 0. -1.
        -13    1    5    5    0    0 -0.24209291438E+03  0.24519397370E+02 -0.66900806918E+03  0.71188621048E+03  0.00000000000E+00 0.  1.
         14    1    5    5    0    0 -0.99012247857E+02 -0.19887195650E+02 -0.17638837792E+03  0.20325300894E+03  0.00000000000E+00 0. -1.
          5    1    4    4  502    0  0.18752597407E+02 -0.24965809127E+02  0.24656030160E+03  0.24857398066E+03  0.47000000000E+01 0.  1.
         -5    1    4    4    0  502  0.10610753966E+03 -0.33204650885E+02  0.12786447312E+03  0.16950744024E+03  0.47000000000E+01 0.  1.
          1    1    1    2  503    0  0.28553554318E+01  0.11249934692E+03  0.65037829433E+03  0.66004256064E+03  0.00000000000E+00 0. -1.
         -2    1    1    2    0  501  0.79821276462E+02 -0.48694130294E+00 -0.25332191189E+02  0.83746004073E+02  0.00000000000E+00 0.  1.
<mgrwt>
<rscale>  0 0.94781730E+02</rscale>
<asrwt>0</asrwt>
<pdfrwt beam="1">  1        2 0.18385527E+00 0.11254404E+03</pdfrwt>
<pdfrwt beam="2">  1       -1 0.14910880E+00 0.79822762E+02</pdfrwt>
<totfact> 0.10221099E+01</totfact>
</mgrwt>
</event>
<event>
13    1  0.1675423E-008  0.1196358E+03  0.7546771E-02  0.1373382E+00
          2   -1    0    0  503    0  0.00000000000E+00  0.00000000000E+00  0.13243301659E+03  0.13243301659E+03  0.00000000000E+00 0. -1.
          2   -1    0    0  502    0 -0.00000000000E+00 -0.00000000000E+00 -0.41788484961E+04  0.41788484961E+04  0.00000000000E+00 0. -1.
         24    2    1    2    0    0 -0.10461750553E+02  0.44121800645E+02 -0.97846953068E+01  0.88238464511E+02  0.75060674392E+02 0.  0.
         25    2    1    2    0    0  0.25632509886E+02 -0.12516524451E+03 -0.16008881710E+04  0.16108357759E+04  0.12500238779E+03 0.  0.
         24    2    1    2    0    0  0.62401261912E+02  0.11718460363E+02 -0.13261874038E+03  0.16958743921E+03  0.84504020250E+02 0.  0.
        -11    1    3    3    0    0 -0.30609757745E+02  0.55127399362E+02  0.55913897208E+00  0.63057910416E+02  0.00000000000E+00 0.  1.
         12    1    3    3    0    0  0.20148007192E+02 -0.11005598717E+02 -0.10343834279E+02  0.25180554095E+02  0.00000000000E+00 0. -1.
        -13    1    5    5    0    0 -0.12806687142E+02 -0.18039453797E+02 -0.46199849403E+02  0.51223619686E+02  0.00000000000E+00 0.  1.
         14    1    5    5    0    0  0.75207949054E+02  0.29757914160E+02 -0.86418890973E+02  0.11836381953E+03  0.00000000000E+00 0. -1.
          5    1    4    4  501    0 -0.21674391035E+01 -0.11447115460E+03 -0.15231474138E+04  0.15274516285E+04  0.47000000000E+01 0.  1.
         -5    1    4    4    0  501  0.27799948989E+02 -0.10694089911E+02 -0.77740757149E+02  0.83384147444E+02  0.47000000000E+01 0.  1.
          1    1    1    2  502    0  0.30002759603E+02 -0.21085792253E+02 -0.23017994631E+04  0.23020915586E+04  0.00000000000E+00 0. -1.
          1    1    1    2  503    0 -0.10757478085E+03  0.90410775757E+02 -0.13244097803E+01  0.14052827441E+03  0.00000000000E+00 0. -1.
<mgrwt>
<rscale>  0 0.66235859E+02</rscale>
<asrwt>0</asrwt>
<pdfrwt beam="1">  1        2 0.19475449E-01 0.11963585E+03</pdfrwt>
<pdfrwt beam="2">  1        2 0.61453638E+00 0.36671191E+02</pdfrwt>
<totfact> 0.30234493E+01</totfact>
</mgrwt>
</event>
<event>
13    1  0.2333532E-008  0.7260410E+02  0.7546771E-02  0.1458896E+00
          2   -1    0    0  502    0  0.00000000000E+00  0.00000000000E+00  0.51388985343E+04  0.51388985343E+04  0.00000000000E+00 0. -1.
          2   -1    0    0  503    0 -0.00000000000E+00 -0.00000000000E+00 -0.15658774582E+04  0.15658774582E+04  0.00000000000E+00 0. -1.
         24    2    1    2    0    0 -0.46871173553E+02 -0.63584246516E+02  0.44247583546E+04  0.44262335516E+04  0.82565691350E+02 0.  0.
         25    2    1    2    0    0 -0.50486376931E+01  0.10732528556E+03 -0.46024165724E+03  0.48886521017E+03  0.12499041960E+03 0.  0.
         24    2    1    2    0    0  0.50197423734E+02 -0.12647272318E+01  0.38671434487E+03  0.39664765570E+03  0.72525839207E+02 0.  0.
        -13    1    3    3    0    0 -0.35927568762E+02 -0.82076828181E+01  0.31613741999E+04  0.31615889974E+04  0.00000000000E+00 0.  1.
         14    1    3    3    0    0 -0.10943604792E+02 -0.55376563698E+02  0.12633841547E+04  0.12646445543E+04  0.00000000000E+00 0. -1.
        -13    1    5    5    0    0  0.68459337625E+02 -0.71390124301E+01  0.29095667285E+03  0.29898734402E+03  0.00000000000E+00 0.  1.
         14    1    5    5    0    0 -0.18261913891E+02  0.58742851984E+01  0.95757672025E+02  0.97660311679E+02  0.00000000000E+00 0. -1.
          5    1    4    4  501    0  0.82062716057E+01  0.62794590505E+02 -0.64989065681E+02  0.90863480830E+02  0.47000000000E+01 0.  1.
         -5    1    4    4    0  501 -0.13254909299E+02  0.44530695059E+02 -0.39525259156E+03  0.39800172934E+03  0.47000000000E+01 0.  1.
          1    1    1    2  502    0 -0.11731795037E+02  0.28878129721E+02  0.30540148419E+03  0.30698802572E+03  0.00000000000E+00 0. -1.
          1    1    1    2  503    0  0.13454182550E+02 -0.71354441538E+02 -0.10836114504E+04  0.10860415492E+04  0.00000000000E+00 0. -1.
<mgrwt>
<rscale>  0 0.47571887E+02</rscale>
<asrwt>0</asrwt>
<pdfrwt beam="1">  1        2 0.75572037E+00 0.31170200E+02</pdfrwt>
<pdfrwt beam="2">  1        2 0.23027610E+00 0.72604104E+02</pdfrwt>
<totfact> 0.28481558E-01</totfact>
</mgrwt>
</event>
<event>
13    1  0.1675423E-008  0.7605376E+02  0.7546771E-02  0.1460344E+00
         -1   -1    0    0    0  501 -0.00000000000E+00  0.00000000000E+00  0.10794580938E+04  0.10794580938E+04  0.00000000000E+00 0.  1.
          2   -1    0    0  503    0  0.00000000000E+00 -0.00000000000E+00 -0.26018946264E+04  0.26018946264E+04  0.00000000000E+00 0. -1.
         24    2    1    2    0    0  0.24198780885E+02  0.12410964638E+03 -0.18876790849E+03  0.24093557350E+03  0.80173823541E+02 0.  0.
         25    2    1    2    0    0 -0.38183483583E+02 -0.71870125237E+02  0.51276104624E+03  0.53401523004E+03  0.12500032821E+03 0.  0.
         24    2    1    2    0    0  0.49198697759E+02 -0.11793843960E+02 -0.82553832512E+02  0.12676101609E+03  0.81814505566E+02 0.  0.
        -11    1    5    5    0    0  0.12444902413E+02 -0.42554200065E+02 -0.57716914847E+02  0.72780339369E+02  0.00000000000E+00 0.  1.
         12    1    5    5    0    0  0.36753795346E+02  0.30760356105E+02 -0.24836917666E+02  0.53980676720E+02  0.00000000000E+00 0. -1.
        -13    1    3    3    0    0  0.16071655644E+02  0.62220390994E+02 -0.15956936076E+03  0.17202341720E+03  0.00000000000E+00 0.  1.
         14    1    3    3    0    0  0.81271252405E+01  0.61889255385E+02 -0.29198547730E+02  0.68912156303E+02  0.00000000000E+00 0. -1.
          5    1    4    4  502    0 -0.46534768966E+02 -0.34285163358E+02  0.76314710097E+02  0.95848746087E+02  0.47000000000E+01 0.  1.
         -5    1    4    4    0  502  0.83512853824E+01 -0.37584961878E+02  0.43644633614E+03  0.43816648395E+03  0.47000000000E+01 0.  1.
          1    1    1    2  503    0 -0.64656925718E+02 -0.40098169790E+02 -0.22706939445E+04  0.22719681712E+04  0.00000000000E+00 0. -1.
         -2    1    1    2    0  501  0.29442930658E+02 -0.34750739325E+00  0.50681810670E+03  0.50767272943E+03  0.00000000000E+00 0.  1.
<mgrwt>
<rscale>  0 0.47322315E+02</rscale>
<asrwt>0</asrwt>
<pdfrwt beam="2">  1        2 0.38263156E+00 0.76053758E+02</pdfrwt>
<pdfrwt beam="1">  1       -1 0.15874384E+00 0.29444981E+02</pdfrwt>
<totfact> 0.21181512E+00</totfact>
</mgrwt>
</event>
<event>
13    1  0.1675423E-008  0.1175645E+03  0.7546771E-02  0.1286983E+00
          2   -1    0    0  503    0  0.00000000000E+00  0.00000000000E+00  0.14054903597E+04  0.14054903597E+04  0.00000000000E+00 0. -1.
          2   -1    0    0  502    0 -0.00000000000E+00 -0.00000000000E+00 -0.37837335564E+04  0.37837335564E+04  0.00000000000E+00 0. -1.
         24    2    1    2    0    0 -0.10406875603E+02  0.64215751600E+01  0.98196767138E+03  0.98536677851E+03  0.80855679147E+02 0.  0.
         25    2    1    2    0    0  0.50675550159E+02  0.61756196256E+02 -0.13727026340E+03  0.20211948605E+03  0.12500928872E+03 0.  0.
         24    2    1    2    0    0  0.24148374940E+02 -0.24921155833E+02  0.15486919016E+03  0.18040035393E+03  0.85764874030E+02 0.  0.
        -13    1    5    5    0    0  0.51898752643E+02  0.15377648163E+01  0.10810199388E+03  0.11992450261E+03  0.00000000000E+00 0.  1.
         14    1    5    5    0    0 -0.27750377703E+02 -0.26458920649E+02  0.46767196283E+02  0.60475851319E+02  0.00000000000E+00 0. -1.
        -13    1    3    3    0    0  0.23145736587E+02 -0.92812782876E+01  0.75371511436E+03  0.75412753620E+03  0.00000000000E+00 0.  1.
         14    1    3    3    0    0 -0.33552612190E+02  0.15702853448E+02  0.22825255703E+03  0.23123924230E+03  0.00000000000E+00 0. -1.
          5    1    4    4  501    0 -0.10819562961E+02 -0.32641043683E+02 -0.23348593354E+02  0.41829983110E+02  0.47000000000E+01 0.  1.
         -5    1    4    4    0  501  0.61495113120E+02  0.94397239939E+02 -0.11392167004E+03  0.16028950294E+03  0.47000000000E+01 0.  1.
          1    1    1    2  502    0 -0.11548069892E+03  0.23326547075E+02 -0.35906353870E+04  0.35925676614E+04  0.00000000000E+00 0. -1.
          1    1    1    2  503    0  0.51063649427E+02 -0.66583162658E+02  0.21282559210E+03  0.22876963630E+03  0.00000000000E+00 0. -1.
<mgrwt>
<rscale>  0 0.96886295E+02</rscale>
<asrwt>0</asrwt>
<pdfrwt beam="1">  1        2 0.20668976E+00 0.79845109E+02</pdfrwt>
<pdfrwt beam="2">  1        2 0.55643141E+00 0.11756455E+03</pdfrwt>
<totfact> 0.27972561E+00</totfact>
</mgrwt>
</event>
<event>
13    1  0.1675423E-008  0.9450203E+02  0.7546771E-02  0.1339589E+00
          2   -1    0    0  502    0  0.00000000000E+00  0.00000000000E+00  0.13126694729E+04  0.13126694729E+04  0.00000000000E+00 0. -1.
          2   -1    0    0  503    0 -0.00000000000E+00 -0.00000000000E+00 -0.39452401954E+04  0.39452401954E+04  0.00000000000E+00 0. -1.
         24    2    1    2    0    0 -0.60260195760E+02  0.44600714575E+02  0.40112825845E+03  0.41662348268E+03  0.83968634944E+02 0.  0.
         25    2    1    2    0    0  0.15670204086E+03 -0.64659122524E+02 -0.22299188712E+03  0.30675991582E+03  0.12505971572E+03 0.  0.
         24    2    1    2    0    0 -0.13282556645E+03 -0.73898366341E+02  0.19104153253E+03  0.25520011325E+03  0.74341314219E+02 0.  0.
        -11    1    5    5    0    0 -0.14304364536E+02 -0.32798701497E+02  0.14455219132E+02  0.38591748144E+02  0.00000000000E+00 0.  1.
         12    1    5    5    0    0 -0.11852120192E+03 -0.41099664844E+02  0.17658631339E+03  0.21660836510E+03  0.00000000000E+00 0. -1.
        -13    1    3    3    0    0  0.47207475460E+01  0.33088682128E+02  0.55787096114E+02  0.65033425522E+02  0.00000000000E+00 0.  1.
         14    1    3    3    0    0 -0.64980943306E+02  0.11512032447E+02  0.34534116234E+03  0.35159005715E+03  0.00000000000E+00 0. -1.
          5    1    4    4  501    0  0.11687050011E+03 -0.29201011115E+02 -0.58935297943E+02  0.13418968735E+03  0.47000000000E+01 0.  1.
         -5    1    4    4    0  501  0.39831540748E+02 -0.35458111409E+02 -0.16405658918E+03  0.17257022847E+03  0.47000000000E+01 0.  1.
          1    1    1    2  502    0  0.80144389499E+02  0.50367397861E+02  0.63501845396E+03  0.64203460561E+03  0.00000000000E+00 0. -1.
          1    1    1    2  503    0 -0.43760668143E+02  0.43589376429E+02 -0.36367670804E+04  0.36372915510E+04  0.00000000000E+00 0. -1.
<mgrwt>
<rscale>  0 0.76400296E+02</rscale>
<asrwt>0</asrwt>
<pdfrwt beam="1">  1        2 0.19303963E+00 0.94502025E+02</pdfrwt>
<pdfrwt beam="2">  1        2 0.58018239E+00 0.61765928E+02</pdfrwt>
<totfact> 0.27650659E+00</totfact>
</mgrwt>
</event>
<event>
13    1  0.1675423E-008  0.1785837E+03  0.7546771E-02  0.1366079E+00
          2   -1    0    0  502    0  0.00000000000E+00  0.00000000000E+00  0.49728806060E+03  0.49728806060E+03  0.00000000000E+00 0. -1.
          4   -1    0    0  503    0 -0.00000000000E+00 -0.00000000000E+00 -0.27107964250E+04  0.27107964250E+04  0.00000000000E+00 0. -1.
         24    2    1    2    0    0  0.54741314959E+02 -0.54803074178E+02  0.17198454999E+03  0.20473074242E+03  0.79599013511E+02 0.  0.
         25    2    1    2    0    0  0.21841687003E+03 -0.48633429733E+02 -0.22078494083E+03  0.33829196375E+03  0.12499729213E+03 0.  0.
         24    2    1    2    0    0 -0.89759481893E+02  0.17790897293E+02  0.22372545689E+02  0.12407812424E+03  0.80756235036E+02 0.  0.
        -13    1    5    5    0    0  0.29940226982E+01  0.27718584254E+02 -0.10486144303E+01  0.27899528261E+02  0.00000000000E+00 0.  1.
         14    1    5    5    0    0 -0.92753504592E+02 -0.99276869608E+01  0.23421160119E+02  0.96178595975E+02  0.00000000000E+00 0. -1.
        -13    1    3    3    0    0  0.43644419738E+02  0.83975046225E+01  0.49995850763E+02  0.66894981514E+02  0.00000000000E+00 0.  1.
         14    1    3    3    0    0  0.11096895221E+02 -0.63200578800E+02  0.12198869923E+03  0.13783576091E+03  0.00000000000E+00 0. -1.
          5    1    4    4  501    0  0.72370789546E+02 -0.57512936370E+02 -0.14860394661E+03  0.17507281907E+03  0.47000000000E+01 0.  1.
         -5    1    4    4    0  501  0.14604608049E+03  0.88795066373E+01 -0.72180994224E+02  0.16321914468E+03  0.47000000000E+01 0.  1.
          1    1    1    2  502    0 -0.23369638146E+02  0.11618077882E+02  0.17268193232E+03  0.17464297716E+03  0.00000000000E+00 0. -1.
          3    1    1    2  503    0 -0.16002906495E+03  0.74027528735E+02 -0.23597624515E+04  0.23663406780E+04  0.00000000000E+00 0. -1.
<mgrwt>
<rscale>  0 0.68269513E+02</rscale>
<asrwt>0</asrwt>
<pdfrwt beam="1">  1        2 0.73130598E-01 0.26098270E+02</pdfrwt>
<pdfrwt beam="2">  1        4 0.39864653E+00 0.17858373E+03</pdfrwt>
<totfact> 0.32491437E-01</totfact>
</mgrwt>
</event>
<event>
13    1  0.1675423E-008  0.9841649E+02  0.7546771E-02  0.1305710E+00
          2   -1    0    0  503    0  0.00000000000E+00  0.00000000000E+00  0.68355902249E+03  0.68355902249E+03  0.00000000000E+00 0. -1.
          2   -1    0    0  502    0 -0.00000000000E+00 -0.00000000000E+00 -0.18319859766E+04  0.18319859766E+04  0.00000000000E+00 0. -1.
         24    2    1    2    0    0  0.17422765377E+03 -0.10658477692E+03  0.15452128371E+02  0.22134865700E+03  0.83909890196E+02 0.  0.
         25    2    1    2    0    0 -0.94863106434E+02 -0.26372646722E+02 -0.10908417050E+04  0.11023860674E+04  0.12499956345E+03 0.  0.
         24    2    1    2    0    0  0.10426184045E+02  0.33979093165E+02  0.94178767450E+02  0.12864463325E+03  0.80103166853E+02 0.  0.
        -11    1    5    5    0    0  0.32454892833E+01  0.56719053310E+02  0.40090970301E+02  0.69533230248E+02  0.00000000000E+00 0.  1.
         12    1    5    5    0    0  0.71806947617E+01 -0.22739960145E+02  0.54087797149E+02  0.59111403004E+02  0.00000000000E+00 0. -1.
        -13    1    3    3    0    0 -0.72342839225E+01  0.22561430046E+01  0.57738264647E+01  0.95269154070E+01  0.00000000000E+00 0.  1.
         14    1    3    3    0    0  0.18146193770E+03 -0.10884091992E+03  0.96783019066E+01  0.21182174159E+03  0.00000000000E+00 0. -1.
          5    1    4    4  501    0 -0.23860303663E+02 -0.31913113792E+02 -0.84771361230E+02  0.93787177203E+02  0.47000000000E+01 0. -1.
         -5    1    4    4    0  501 -0.71002802771E+02  0.55404670706E+01 -0.10060703438E+04  0.10085988902E+04  0.47000000000E+01 0. -1.
          1    1    1    2  502    0  0.17304713162E+02  0.78287603379E+02 -0.60587085662E+03  0.61115292427E+03  0.00000000000E+00 0. -1.
          1    1    1    2  503    0 -0.10709544455E+03  0.20690727098E+02  0.43865471165E+03  0.45201271717E+03  0.00000000000E+00 0. -1.
<mgrwt>
<rscale>  0 0.88830007E+02</rscale>
<asrwt>0</asrwt>
<pdfrwt beam="1">  1        2 0.10052339E+00 0.98416491E+02</pdfrwt>
<pdfrwt beam="2">  1        2 0.26940970E+00 0.80177316E+02</pdfrwt>
<totfact> 0.82263527E+01</totfact>
</mgrwt>
</event>
<event>
13    1  0.1675423E-008  0.1184101E+03  0.7546771E-02  0.1417563E+00
          2   -1    0    0  502    0  0.00000000000E+00  0.00000000000E+00  0.60897366053E+03  0.60897366053E+03  0.00000000000E+00 0. -1.
          2   -1    0    0  503    0 -0.00000000000E+00 -0.00000000000E+00 -0.90685137109E+03  0.90685137109E+03  0.00000000000E+00 0. -1.
         24    2    1    2    0    0  0.57502213228E+02  0.79414451295E+01  0.10915846488E+03  0.14785344946E+03  0.81089462838E+02 0.  0.
         25    2    1    2    0    0 -0.11936944069E+03  0.12270154366E+03 -0.16265426325E+03  0.26718156720E+03  0.12499939324E+03 0.  0.
         24    2    1    2    0    0  0.47627730082E+01 -0.22402354465E+02 -0.10931384094E+03  0.13703003050E+03  0.79392467815E+02 0.  0.
        -11    1    5    5    0    0  0.18143786877E+02  0.26175684458E+01 -0.10700387777E+03  0.10856278609E+03  0.00000000000E+00 0.  1.
         12    1    5    5    0    0 -0.13381013868E+02 -0.25019922911E+02 -0.23099631776E+01  0.28467244414E+02  0.00000000000E+00 0. -1.
        -13    1    3    3    0    0  0.39931068075E+01  0.31541041992E+02  0.11090604430E+02  0.33671705311E+02  0.00000000000E+00 0.  1.
         14    1    3    3    0    0  0.53509106421E+02 -0.23599596862E+02  0.98067860453E+02  0.11418174414E+03  0.00000000000E+00 0. -1.
          5    1    4    4  501    0 -0.61463898856E+01  0.68560911571E+02 -0.10338917682E+02  0.69766467038E+02  0.47000000000E+01 0.  1.
         -5    1    4    4    0  501 -0.11322305080E+03  0.54140632086E+02 -0.15231534557E+03  0.19741510016E+03  0.47000000000E+01 0.  1.
          1    1    1    2  502    0  0.65183114865E+02 -0.83474234546E+02  0.40726042405E+03  0.42080617783E+03  0.00000000000E+00 0. -1.
          1    1    1    2  503    0 -0.80786604136E+01 -0.24766399776E+02 -0.54232849531E+03  0.54295380663E+03  0.00000000000E+00 0. -1.
<mgrwt>
<rscale>  0 0.55539784E+02</rscale>
<asrwt>0</asrwt>
<pdfrwt beam="1">  1        2 0.89554952E-01 0.11841013E+03</pdfrwt>
<pdfrwt beam="2">  1        2 0.13336049E+00 0.26050707E+02</pdfrwt>
<totfact> 0.29251572E+02</totfact>
</mgrwt>
</event>
<event>
13    1  0.1675423E-008  0.1304987E+03  0.7546771E-02  0.1235744E+00
          2   -1    0    0  503    0  0.00000000000E+00  0.00000000000E+00  0.29667645876E+04  0.29667645876E+04  0.00000000000E+00 0. -1.
          2   -1    0    0  502    0 -0.00000000000E+00 -0.00000000000E+00 -0.51407105607E+04  0.51407105607E+04  0.00000000000E+00 0. -1.
         24    2    1    2    0    0  0.27205521803E+02 -0.27466539974E+02  0.15176406733E+03  0.17558555954E+03  0.79393988129E+02 0.  0.
         25    2    1    2    0    0 -0.31820237217E+03 -0.45994761011E+02 -0.61289148965E+03  0.70329916160E+03  0.12500185970E+03 0.  0.
         24    2    1    2    0    0  0.22332767262E+03 -0.24184220173E+03  0.14815460769E+03  0.36959313060E+03  0.79286786494E+02 0.  0.
        -11    1    3    3    0    0  0.36857270541E+02 -0.50542912596E+02  0.11812496915E+03  0.13366582489E+03  0.00000000000E+00 0.  1.
         12    1    3    3    0    0 -0.96517487377E+01  0.23076372622E+02  0.33639098180E+02  0.41919734654E+02  0.00000000000E+00 0. -1.
        -11    1    5    5    0    0  0.52277291180E+01 -0.41161162127E+02  0.10459722685E+02  0.42789907899E+02  0.00000000000E+00 0.  1.
         12    1    5    5    0    0  0.21809994351E+03 -0.20068103960E+03  0.13769488501E+03  0.32680322270E+03  0.00000000000E+00 0. -1.
          5    1    4    4  501    0 -0.19729359482E+03 -0.11978139682E+02 -0.48607967427E+03  0.52475115829E+03  0.47000000000E+01 0. -1.
         -5    1    4    4    0  501 -0.12090877735E+03 -0.34016621329E+02 -0.12681181538E+03  0.17854800331E+03  0.47000000000E+01 0. -1.
          1    1    1    2  502    0  0.59894323344E+02  0.10272706399E+03 -0.43546454132E+04  0.43562686848E+04  0.00000000000E+00 0. -1.
          1    1    1    2  503    0  0.77748543973E+01  0.21257643872E+03  0.24936722546E+04  0.25027286118E+04  0.00000000000E+00 0. -1.
<mgrwt>
<rscale>  0 0.12456943E+03</rscale>
<asrwt>0</asrwt>
<pdfrwt beam="1">  1        2 0.43628891E+00 0.13049867E+03</pdfrwt>
<pdfrwt beam="2">  1        2 0.75598684E+00 0.11890959E+03</pdfrwt>
<totfact> 0.35876665E-02</totfact>
</mgrwt>
</event>
<event>
13    1  0.1675423E-008  0.1273274E+03  0.7546771E-02  0.1298673E+00
          2   -1    0    0  503    0  0.00000000000E+00  0.00000000000E+00  0.29227251844E+04  0.29227251844E+04  0.00000000000E+00 0. -1.
          2   -1    0    0  502    0 -0.00000000000E+00 -0.00000000000E+00 -0.10382172809E+04  0.10382172809E+04  0.00000000000E+00 0. -1.
         24    2    1    2    0    0  0.33357309812E+02  0.45744857816E+02  0.24838354634E+03  0.27462951920E+03  0.10257526304E+03 0.  0.
         25    2    1    2    0    0 -0.14992245693E+03  0.13406509896E+03 -0.46617456586E+03  0.52288865365E+03  0.12507447543E+03 0.  0.
         24    2    1    2    0    0  0.34005309803E+02 -0.14078079592E+03 -0.23383128889E+03  0.28474437938E+03  0.73666113869E+02 0.  0.
        -11    1    3    3    0    0 -0.32452155217E+02  0.68423816714E+01  0.12632946683E+03  0.13061046954E+03  0.00000000000E+00 0.  1.
         12    1    3    3    0    0  0.65809465029E+02  0.38902476144E+02  0.12205407951E+03  0.14401904965E+03  0.00000000000E+00 0. -1.
        -13    1    5    5    0    0 -0.13071641702E+02 -0.87330277095E+02 -0.15587309418E+03  0.17914761122E+03  0.00000000000E+00 0.  1.
         14    1    5    5    0    0  0.47076951505E+02 -0.53450518827E+02 -0.77958194706E+02  0.10559676817E+03  0.00000000000E+00 0. -1.
          5    1    4    4  501    0 -0.94591509481E+02  0.41584337666E+01 -0.20807273135E+03  0.22865082062E+03  0.47000000000E+01 0.  1.
         -5    1    4    4    0  501 -0.55330947451E+02  0.12990666519E+03 -0.25810183451E+03  0.29423783302E+03  0.47000000000E+01 0.  1.
          1    1    1    2  502    0 -0.99569291840E+01  0.65356504990E+02 -0.26535073607E+03  0.27346229414E+03  0.00000000000E+00 0. -1.
          1    1    1    2  503    0  0.92516766501E+02 -0.10438566584E+03  0.26014809479E+04  0.26052176189E+04  0.00000000000E+00 0. -1.
<mgrwt>
<rscale>  0 0.91747972E+02</rscale>
<asrwt>0</asrwt>
<pdfrwt beam="1">  1        2 0.42981252E+00 0.12732737E+03</pdfrwt>
<pdfrwt beam="2">  1        2 0.15267901E+00 0.66110613E+02</pdfrwt>
<totfact> 0.13628113E+01</totfact>
</mgrwt>
</event>
<event>
13    1  0.1675423E-008  0.5870807E+02  0.7546771E-02  0.1444151E+00
          2   -1    0    0  502    0  0.00000000000E+00  0.00000000000E+00  0.43493651584E+03  0.43493651584E+03  0.00000000000E+00 0. -1.
          2   -1    0    0  503    0 -0.00000000000E+00 -0.00000000000E+00 -0.12405532798E+04  0.12405532798E+04  0.00000000000E+00 0. -1.
         24    2    1    2    0    0 -0.51701612909E+02  0.10168235322E+02 -0.26462914208E+02  0.10079498159E+03  0.81748961455E+02 0.  0.
         25    2    1    2    0    0 -0.21566531973E+02  0.76725325847E+02 -0.52297093301E+02  0.15720454373E+03  0.12500556657E+03 0.  0.
         24    2    1    2    0    0 -0.12271255298E+02 -0.45323228011E+02 -0.15197865587E+03  0.17868241631E+03  0.81394811584E+02 0.  0.
        -11    1    3    3    0    0 -0.65363671157E+02  0.30906195801E+02 -0.21894779973E+02  0.75544581778E+02  0.00000000000E+00 0.  1.
         12    1    3    3    0    0  0.13662058248E+02 -0.20737960479E+02 -0.45681342350E+01  0.25250399815E+02  0.00000000000E+00 0. -1.
        -13    1    5    5    0    0 -0.32944809643E+02 -0.21464740325E+02 -0.13916236792E+03  0.14461071954E+03  0.00000000000E+00 0.  1.
         14    1    5    5    0    0  0.20673554346E+02 -0.23858487685E+02 -0.12816287951E+02  0.34071696769E+02  0.00000000000E+00 0. -1.
          5    1    4    4  501    0  0.20478481826E+02  0.37204260317E+02  0.33089051404E+02  0.54041655475E+02  0.47000000000E+01 0.  1.
         -5    1    4    4    0  501 -0.42045013799E+02  0.39521065531E+02 -0.85386144705E+02  0.10316288826E+03  0.47000000000E+01 0.  1.
          1    1    1    2  502    0  0.42605417875E+02 -0.40028976316E+02  0.32887691608E+03  0.33403228363E+03  0.00000000000E+00 0. -1.
          1    1    1    2  503    0  0.42933982304E+02 -0.15413568424E+01 -0.90375501662E+03  0.90477557034E+03  0.00000000000E+00 0. -1.
<mgrwt>
<rscale>  0 0.50221459E+02</rscale>
<asrwt>0</asrwt>
<pdfrwt beam="1">  1        2 0.63961253E-01 0.58708068E+02</pdfrwt>
<pdfrwt beam="2">  1        2 0.18243430E+00 0.42961641E+02</pdfrwt>
<totfact> 0.27497378E+02</totfact>
</mgrwt>
</event>
<event>
13    1  0.1675423E-008  0.1098693E+03  0.7546771E-02  0.1273680E+00
          2   -1    0    0  502    0  0.00000000000E+00  0.00000000000E+00  0.27851526876E+04  0.27851526876E+04  0.00000000000E+00 0. -1.
          2   -1    0    0  503    0 -0.00000000000E+00 -0.00000000000E+00 -0.54358613514E+03  0.54358613514E+03  0.00000000000E+00 0. -1.
         24    2    1    2    0    0 -0.51411199225E+03  0.55826296100E+02  0.13424891505E+04  0.14406395687E+04  0.75746495523E+02 0.  0.
         25    2    1    2    0    0  0.23750635269E+03 -0.39805335803E+02 -0.19363370005E+03  0.33333470332E+03  0.12499712923E+03 0.  0.
         24    2    1    2    0    0  0.85412316425E+02 -0.10228250987E+02  0.76802717927E+02  0.14123796636E+03  0.81545231284E+02 0.  0.
        -11    1    3    3    0    0 -0.25812897519E+03  0.33400802466E+02  0.57211221498E+03  0.62853684694E+03  0.00000000000E+00 0.  1.
         12    1    3    3    0    0 -0.25598301706E+03  0.22425493634E+02  0.77037693556E+03  0.81210272173E+03  0.00000000000E+00 0. -1.
        -13    1    5    5    0    0  0.32459203712E+02  0.35507136904E+02  0.25282267130E+02  0.54346570343E+02  0.00000000000E+00 0.  1.
         14    1    5    5    0    0  0.52953112713E+02 -0.45735387891E+02  0.51520450796E+02  0.86891396017E+02  0.00000000000E+00 0. -1.
          5    1    4    4  501    0 -0.80419619784E+01 -0.11580756701E+01 -0.39984703483E+02  0.41071654511E+02  0.47000000000E+01 0. -1.
         -5    1    4    4    0  501  0.24554831467E+03 -0.38647260133E+02 -0.15364899657E+03  0.29226304881E+03  0.47000000000E+01 0. -1.
          1    1    1    2  502    0  0.10111736486E+03 -0.41677844927E+02  0.12002592442E+04  0.12052319352E+04  0.00000000000E+00 0. -1.
          1    1    1    2  503    0  0.90075958272E+02  0.35885135617E+02 -0.18435086020E+03  0.20829464918E+03  0.00000000000E+00 0. -1.
<mgrwt>
<rscale>  0 0.10321350E+03</rscale>
<asrwt>0</asrwt>
<pdfrwt beam="1">  1        2 0.40958127E+00 0.10986927E+03</pdfrwt>
<pdfrwt beam="2">  1        2 0.79939139E-01 0.96960926E+02</pdfrwt>
<totfact> 0.34866911E+01</totfact>
</mgrwt>
</event>
<event>
13    1  0.1675423E-008  0.1352309E+03  0.7546771E-02  0.1271587E+00
          2   -1    0    0  502    0  0.00000000000E+00  0.00000000000E+00  0.34077702135E+04  0.34077702135E+04  0.00000000000E+00 0. -1.
          2   -1    0    0  503    0 -0.00000000000E+00 -0.00000000000E+00 -0.19558729519E+03  0.19558729519E+03  0.00000000000E+00 0. -1.
         24    2    1    2    0    0 -0.92959825489E+02 -0.67696049163E+02  0.42413915527E+03  0.44668238416E+03  0.80042770198E+02 0.  0.
         25    2    1    2    0    0  0.64912967733E+02  0.24176729409E+02 -0.13967150150E+02  0.14359345885E+03  0.12500317002E+03 0.  0.
         24    2    1    2    0    0 -0.80353651389E+02  0.10636576596E+03  0.82886014773E+02  0.17631003997E+03  0.80279220780E+02 0.  0.
        -11    1    5    5    0    0  0.68325324885E+01 -0.86335658124E+01  0.87776064945E+01  0.14080778907E+02  0.00000000000E+00 0.  1.
         12    1    5    5    0    0 -0.87186183877E+02  0.11499933177E+03  0.74108408278E+02  0.16222926106E+03  0.00000000000E+00 0. -1.
        -13    1    3    3    0    0 -0.23168858897E+02 -0.66012622161E+02  0.22783155514E+03  0.23833102992E+03  0.00000000000E+00 0.  1.
         14    1    3    3    0    0 -0.69790966592E+02 -0.16834270020E+01  0.19630760013E+03  0.20835135424E+03  0.00000000000E+00 0. -1.
          5    1    4    4  501    0  0.78894768886E+01 -0.36223695162E+02  0.31417301483E+02  0.48821478564E+02  0.47000000000E+01 0. -1.
         -5    1    4    4    0  501  0.57023490844E+02  0.60400424571E+02 -0.45384451633E+02  0.94771980281E+02  0.47000000000E+01 0. -1.
          1    1    1    2  502    0  0.14049487280E+03  0.10847994207E+02  0.27478144496E+04  0.27514252194E+04  0.00000000000E+00 0. -1.
          1    1    1    2  503    0 -0.32094363653E+02 -0.73694440415E+02 -0.28689551202E+02  0.85346406337E+02  0.00000000000E+00 0. -1.
<mgrwt>
<rscale>  0 0.10425853E+03</rscale>
<asrwt>0</asrwt>
<pdfrwt beam="1">  1        2 0.50114264E+00 0.13523094E+03</pdfrwt>
<pdfrwt beam="2">  1        2 0.28762840E-01 0.80379840E+02</pdfrwt>
<totfact> 0.45237930E+01</totfact>
</mgrwt>
</event>
<event>
13    1  0.1675423E-008  0.1183876E+03  0.7546771E-02  0.1289767E+00
          2   -1    0    0  503    0  0.00000000000E+00  0.00000000000E+00  0.90606395435E+03  0.90606395435E+03  0.00000000000E+00 0. -1.
          2   -1    0    0  502    0 -0.00000000000E+00 -0.00000000000E+00 -0.25230058898E+04  0.25230058898E+04  0.00000000000E+00 0. -1.
         24    2    1    2    0    0  0.61076695949E+02  0.28551333233E+02  0.57256019990E+03  0.58210836744E+03  0.80494891277E+02 0.  0.
         25    2    1    2    0    0 -0.19489785858E+03  0.89036403325E+02 -0.66663042244E+03  0.71129624603E+03  0.12503428767E+03 0.  0.
         24    2    1    2    0    0 -0.41802242364E+02  0.61835090569E+02 -0.15687409581E+03  0.19208666919E+03  0.81956089787E+02 0.  0.
        -11    1    3    3    0    0  0.79712421367E+01 -0.83051595698E+01  0.35405105203E+03  0.35423814563E+03  0.00000000000E+00 0.  1.
         12    1    3    3    0    0  0.53105453812E+02  0.36856492803E+02  0.21850914787E+03  0.22787022181E+03  0.00000000000E+00 0. -1.
        -13    1    5    5    0    0  0.13900069200E+02  0.35984106043E+01  0.14518320159E+01  0.14431503693E+02  0.00000000000E+00 0.  1.
         14    1    5    5    0    0 -0.55702311565E+02  0.58236679965E+02 -0.15832592782E+03  0.17765516550E+03  0.00000000000E+00 0. -1.
          5    1    4    4  501    0 -0.15287167580E+03  0.30427040115E+02 -0.56802017117E+03  0.58903697582E+03  0.47000000000E+01 0. -1.
         -5    1    4    4    0  501 -0.42026182776E+02  0.58609363210E+02 -0.98610251272E+02  0.12225927020E+03  0.47000000000E+01 0. -1.
          1    1    1    2  502    0  0.10796739219E+03 -0.14214778167E+03 -0.16447058603E+04  0.16543640218E+04  0.00000000000E+00 0. -1.
          1    1    1    2  503    0  0.67656012805E+02 -0.37275045453E+02  0.27870824327E+03  0.28921453966E+03  0.00000000000E+00 0. -1.
<mgrwt>
<rscale>  0 0.95628594E+02</rscale>
<asrwt>0</asrwt>
<pdfrwt beam="1">  1        2 0.13324470E+00 0.77244839E+02</pdfrwt>
<pdfrwt beam="2">  1        2 0.37103027E+00 0.11838756E+03</pdfrwt>
<totfact> 0.26170655E+01</totfact>
</mgrwt>
</event>
<event>
13    1  0.1675423E-008  0.3431306E+02  0.7546771E-02  0.1619433E+00
          2   -1    0    0  502    0  0.00000000000E+00  0.00000000000E+00  0.75212855893E+03  0.75212855893E+03  0.00000000000E+00 0. -1.
          2   -1    0    0  503    0 -0.00000000000E+00 -0.00000000000E+00 -0.12551161052E+04  0.12551161052E+04  0.00000000000E+00 0. -1.
         24    2    1    2    0    0  0.79911713716E+02 -0.23801593332E+02  0.19275387766E+03  0.22516568557E+03  0.81198095868E+02 0.  0.
         25    2    1    2    0    0  0.68487485875E+02  0.20140343471E+03 -0.43375047164E+03  0.49901773662E+03  0.12500140228E+03 0.  0.
         24    2    1    2    0    0 -0.92097475571E+02 -0.18852159651E+03  0.40579976764E+02  0.23414776534E+03  0.95687533888E+02 0.  0.
        -11    1    5    5    0    0 -0.74427192865E+02 -0.14249628315E+03  0.71508043515E+02  0.17594885062E+03  0.00000000000E+00 0.  1.
         12    1    5    5    0    0 -0.17670282706E+02 -0.46025313367E+02 -0.30928066750E+02  0.58198914718E+02  0.00000000000E+00 0. -1.
        -13    1    3    3    0    0  0.20252669092E+02  0.28907039726E+02  0.76708814350E+02  0.84439503493E+02  0.00000000000E+00 0.  1.
         14    1    3    3    0    0  0.59659044624E+02 -0.52708633059E+02  0.11604506331E+03  0.14072618208E+03  0.00000000000E+00 0. -1.
          5    1    4    4  501    0  0.35640595826E+01 -0.19553122520E+01  0.69451044629E+01  0.93193477621E+01  0.47000000000E+01 0.  1.
         -5    1    4    4    0  501  0.64923426293E+02  0.20335874696E+03 -0.44069557611E+03  0.48969838886E+03  0.47000000000E+01 0.  1.
          1    1    1    2  502    0 -0.33821187998E+02  0.56005898264E+01  0.37218585593E+03  0.37376135531E+03  0.00000000000E+00 0. -1.
          1    1    1    2  503    0 -0.22480536021E+02  0.53191653122E+01 -0.67475678499E+03  0.67515212131E+03  0.00000000000E+00 0. -1.
<mgrwt>
<rscale>  0 0.28154480E+02</rscale>
<asrwt>0</asrwt>
<pdfrwt beam="1">  1        2 0.11060714E+00 0.34313059E+02</pdfrwt>
<pdfrwt beam="2">  1        2 0.18457590E+00 0.23101256E+02</pdfrwt>
<totfact> 0.15876275E+02</totfact>
</mgrwt>
</event>
<event>
13    1  0.1675423E-008  0.1347463E+03  0.7546771E-02  0.1228171E+00
          2   -1    0    0  502    0  0.00000000000E+00  0.00000000000E+00  0.72414148083E+03  0.72414148083E+03  0.00000000000E+00 0. -1.
          2   -1    0    0  503    0 -0.00000000000E+00 -0.00000000000E+00 -0.19241770035E+04  0.19241770035E+04  0.00000000000E+00 0. -1.
         24    2    1    2    0    0 -0.65439078164E+02 -0.16985846792E+01  0.90889725028E+02  0.13786052275E+03  0.80370538603E+02 0.  0.
         25    2    1    2    0    0 -0.46195359049E+02  0.15536985498E+02  0.40346232115E+01  0.13422536310E+03  0.12499904319E+03 0.  0.
         24    2    1    2    0    0  0.61471496085E+02  0.24036196512E+01 -0.64340224449E+03  0.65128795476E+03  0.80156282274E+02 0.  0.
        -11    1    5    5    0    0  0.15969675420E+02 -0.60556783287E+01 -0.20559952838E+02  0.26728513496E+02  0.00000000000E+00 0.  1.
         12    1    5    5    0    0  0.45501820665E+02  0.84592979799E+01 -0.62284229165E+03  0.62455944126E+03  0.00000000000E+00 0. -1.
        -13    1    3    3    0    0 -0.48593668375E+02 -0.22730682434E+02  0.12661244685E+02  0.55121099835E+02  0.00000000000E+00 0.  1.
         14    1    3    3    0    0 -0.16845409790E+02  0.21032097755E+02  0.78228480344E+02  0.82739422912E+02  0.00000000000E+00 0. -1.
          5    1    4    4  501    0  0.12643821673E+02 -0.46245806153E+02  0.72611911325E+01  0.48717098743E+02  0.47000000000E+01 0.  1.
         -5    1    4    4    0  501 -0.58839180722E+02  0.61782791651E+02 -0.32265679210E+01  0.85508264354E+02  0.47000000000E+01 0.  1.
          1    1    1    2  502    0 -0.80185840688E+02  0.66674199750E+02  0.52653668690E+03  0.53676447406E+03  0.00000000000E+00 0. -1.
          1    1    1    2  503    0  0.13034878182E+03 -0.82916220221E+02 -0.11780943134E+04  0.11881801697E+04  0.00000000000E+00 0. -1.
<mgrwt>
<rscale>  0 0.12951947E+03</rscale>
<asrwt>0</asrwt>
<pdfrwt beam="1">  1        2 0.10649139E+00 0.12449540E+03</pdfrwt>
<pdfrwt beam="2">  1        2 0.28296721E+00 0.13474629E+03</pdfrwt>
<totfact> 0.65590905E+01</totfact>
</mgrwt>
</event>
<event>
13    1  0.1675423E-008  0.9477554E+02  0.7546771E-02  0.1318933E+00
          2   -1    0    0  502    0  0.00000000000E+00  0.00000000000E+00  0.14066848724E+04  0.14066848724E+04  0.00000000000E+00 0. -1.
          2   -1    0    0  503    0 -0.00000000000E+00 -0.00000000000E+00 -0.10695412979E+04  0.10695412979E+04  0.00000000000E+00 0. -1.
         24    2    1    2    0    0  0.92843971792E+01 -0.99557193604E+01 -0.70106976888E+02  0.10465118616E+03  0.76495530440E+02 0.  0.
         25    2    1    2    0    0 -0.15016983524E+03  0.79565069772E+02  0.35750467177E+03  0.41510987307E+03  0.12500014657E+03 0.  0.
         24    2    1    2    0    0  0.11467936244E+02  0.52281275304E+02 -0.32066253759E+03  0.33495234993E+03  0.80645944697E+02 0.  0.
        -11    1    3    3    0    0 -0.10045808254E+02  0.12176897662E+02  0.10430236432E+02  0.18920489745E+02  0.00000000000E+00 0.  1.
         12    1    3    3    0    0  0.19330205433E+02 -0.22132617023E+02 -0.80537213320E+02  0.85730696415E+02  0.00000000000E+00 0. -1.
        -13    1    5    5    0    0  0.39908639731E+01  0.63838549444E+02 -0.14177470594E+03  0.15553570212E+03  0.00000000000E+00 0.  1.
         14    1    5    5    0    0  0.74770722711E+01 -0.11557274140E+02 -0.17888783166E+03  0.17941664781E+03  0.00000000000E+00 0. -1.
          5    1    4    4  501    0 -0.44916914384E+02  0.38925306887E+02  0.26265905164E+02  0.65151335275E+02  0.47000000000E+01 0. -1.
         -5    1    4    4    0  501 -0.10525292085E+03  0.40639762886E+02  0.33123876661E+03  0.34995853780E+03  0.47000000000E+01 0. -1.
          1    1    1    2  502    0  0.56470615226E+02 -0.47630047886E+02  0.99024459891E+03  0.99299643378E+03  0.00000000000E+00 0. -1.
          1    1    1    2  503    0  0.72946886588E+02 -0.74260577830E+02 -0.61983618167E+03  0.62851632738E+03  0.00000000000E+00 0. -1.
<mgrwt>
<rscale>  0 0.83675360E+02</rscale>
<asrwt>0</asrwt>
<pdfrwt beam="1">  1        2 0.20686542E+00 0.73875245E+02</pdfrwt>
<pdfrwt beam="2">  1        2 0.15728548E+00 0.94775536E+02</pdfrwt>
<totfact> 0.76346536E+01</totfact>
</mgrwt>
</event>
<event>
13    1  0.1675423E-008  0.8745144E+02  0.7546771E-02  0.1439737E+00
          2   -1    0    0  503    0  0.00000000000E+00  0.00000000000E+00  0.24447514808E+04  0.24447514808E+04  0.00000000000E+00 0. -1.
          2   -1    0    0  502    0 -0.00000000000E+00 -0.00000000000E+00 -0.74258412154E+03  0.74258412154E+03  0.00000000000E+00 0. -1.
         24    2    1    2    0    0 -0.10386363109E+03 -0.23600130190E+03  0.14409244520E+03  0.30774748921E+03  0.86380645932E+02 0.  0.
         25    2    1    2    0    0  0.32927663781E+02 -0.92494245781E+02  0.18898816712E+03  0.24694442073E+03  0.12500241227E+03 0.  0.
         24    2    1    2    0    0  0.18170198935E+03  0.29238725635E+03  0.45390120540E+03  0.57523241608E+03  0.79750282999E+02 0.  0.
        -11    1    5    5    0    0  0.12656376719E+03  0.14040317509E+03  0.27949956583E+03  0.33741879918E+03  0.00000000000E+00 0.  1.
         12    1    5    5    0    0  0.55138222155E+02  0.15198408126E+03  0.17440163958E+03  0.23781361691E+03  0.00000000000E+00 0. -1.
        -11    1    3    3    0    0 -0.89887341989E+02 -0.11004719863E+03  0.52899250217E+02  0.15161942768E+03  0.00000000000E+00 0.  1.
         12    1    3    3    0    0 -0.13976289102E+02 -0.12595410326E+03  0.91193194979E+02  0.15612806153E+03  0.00000000000E+00 0. -1.
          5    1    4    4  501    0  0.25583545197E+02 -0.11902051101E+03  0.18048621761E+03  0.21775620444E+03  0.47000000000E+01 0.  1.
         -5    1    4    4    0  501  0.73441185844E+01  0.26526265227E+02  0.85019495131E+01  0.29188216290E+02  0.47000000000E+01 0.  1.
          1    1    1    2  502    0 -0.81227146134E+02  0.32130001652E+02 -0.56762217592E+03  0.57430403174E+03  0.00000000000E+00 0. -1.
          1    1    1    2  503    0 -0.29538875902E+02  0.39782896734E+01  0.14828077175E+04  0.14831072446E+04  0.00000000000E+00 0. -1.
<mgrwt>
<rscale>  0 0.51054284E+02</rscale>
<asrwt>0</asrwt>
<pdfrwt beam="1">  1        2 0.35952227E+00 0.29805570E+02</pdfrwt>
<pdfrwt beam="2">  1        2 0.10920355E+00 0.87451438E+02</pdfrwt>
<totfact> 0.43706909E+01</totfact>
</mgrwt>
</event>
<event>
13    1  0.1675423E-008  0.1180208E+03  0.7546771E-02  0.1270834E+00
          2   -1    0    0  502    0  0.00000000000E+00  0.00000000000E+00  0.11085695033E+04  0.11085695033E+04  0.00000000000E+00 0. -1.
          2   -1    0    0  503    0 -0.00000000000E+00 -0.00000000000E+00 -0.25898544263E+04  0.25898544263E+04  0.00000000000E+00 0. -1.
         24    2    1    2    0    0  0.14079874622E+03  0.76004619715E+01  0.19875249850E+03  0.25674789489E+03  0.80838554602E+02 0.  0.
         25    2    1    2    0    0  0.24987931708E+03  0.15746894439E+03 -0.31176162632E+03  0.44727538300E+03  0.12499526007E+03 0.  0.
         24    2    1    2    0    0 -0.26545990908E+03 -0.28035337968E+03 -0.11012114891E+04  0.11697258693E+04  0.80776758867E+02 0.  0.
        -11    1    3    3    0    0  0.14927067305E+03  0.31708079910E+01  0.19673949076E+03  0.24697816722E+03  0.00000000000E+00 0.  1.
         12    1    3    3    0    0 -0.84719268286E+01  0.44296539805E+01  0.20130077318E+01  0.97697276678E+01  0.00000000000E+00 0. -1.
        -13    1    5    5    0    0 -0.14286446017E+03 -0.92717982713E+02 -0.47369391110E+03  0.50338136607E+03  0.00000000000E+00 0.  1.
         14    1    5    5    0    0 -0.12259544891E+03 -0.18763539697E+03 -0.62751757797E+03  0.66634450320E+03  0.00000000000E+00 0. -1.
          5    1    4    4  501    0  0.11057605430E+03  0.22109385842E+02 -0.55738305733E+02  0.12587588114E+03  0.47000000000E+01 0.  1.
         -5    1    4    4    0  501  0.13930326278E+03  0.13535955854E+03 -0.25602332059E+03  0.32139950186E+03  0.47000000000E+01 0.  1.
          1    1    1    2  502    0 -0.32464717343E+02  0.11338523971E+03  0.77226195562E+03  0.78121616635E+03  0.00000000000E+00 0. -1.
          1    1    1    2  503    0 -0.92753436884E+02  0.18987336149E+01 -0.10393262618E+04  0.10434586162E+04  0.00000000000E+00 0. -1.
<mgrwt>
<rscale>  0 0.10463807E+03</rscale>
<asrwt>0</asrwt>
<pdfrwt beam="1">  1        2 0.16302493E+00 0.11802076E+03</pdfrwt>
<pdfrwt beam="2">  1        2 0.38086094E+00 0.92772869E+02</pdfrwt>
<totfact> 0.18754625E+01</totfact>
</mgrwt>
</event>
<event>
13    1  0.1675423E-008  0.7462410E+02  0.7546771E-02  0.1400420E+00
          2   -1    0    0  502    0  0.00000000000E+00  0.00000000000E+00  0.17738466849E+04  0.17738466849E+04  0.00000000000E+00 0. -1.
          2   -1    0    0  503    0 -0.00000000000E+00 -0.00000000000E+00 -0.30584236701E+04  0.30584236701E+04  0.00000000000E+00 0. -1.
         24    2    1    2    0    0  0.35461699667E+03 -0.26557846457E+03  0.76959624451E+03  0.89082082063E+03  0.70698088633E+02 0.  0.
         25    2    1    2    0    0  0.69867559982E+02  0.33698455633E+03 -0.15718595206E+03  0.39846190726E+03  0.12499760345E+03 0.  0.
         24    2    1    2    0    0 -0.39815931866E+03 -0.81421382667E+02 -0.43897922898E+03  0.60369907161E+03  0.81175864676E+02 0.  0.
        -13    1    3    3    0    0  0.26645441992E+03 -0.18920614197E+03  0.62273025293E+03  0.70327085108E+03  0.00000000000E+00 0.  1.
         14    1    3    3    0    0  0.88162576753E+02 -0.76372322599E+02  0.14686599157E+03  0.18754996955E+03  0.00000000000E+00 0. -1.
        -13    1    5    5    0    0 -0.24748090137E+03 -0.64738074218E+02 -0.32729014675E+03  0.41539939209E+03  0.00000000000E+00 0.  1.
         14    1    5    5    0    0 -0.15067841729E+03 -0.16683308449E+02 -0.11168908223E+03  0.18829967952E+03  0.00000000000E+00 0. -1.
          5    1    4    4  501    0  0.98080561887E+01  0.26956698898E+03 -0.85286065990E+02  0.28294586508E+03  0.47000000000E+01 0.  1.
         -5    1    4    4    0  501  0.60059503794E+02  0.67417567351E+02 -0.71899886071E+02  0.11551604218E+03  0.47000000000E+01 0.  1.
          1    1    1    2  502    0  0.47156587997E+02 -0.31557853399E+01  0.73925172187E+03  0.74076096756E+03  0.00000000000E+00 0. -1.
          1    1    1    2  503    0 -0.73481825998E+02  0.13171076238E+02 -0.21972597705E+04  0.21985275880E+04  0.00000000000E+00 0. -1.
<mgrwt>
<rscale>  0 0.59387617E+02</rscale>
<asrwt>0</asrwt>
<pdfrwt beam="1">  1        2 0.26085981E+00 0.47262065E+02</pdfrwt>
<pdfrwt beam="2">  1        2 0.44976819E+00 0.74624101E+02</pdfrwt>
<totfact> 0.55596725E+00</totfact>
</mgrwt>
</event>
<event>
13    1  0.1675423E-008  0.5133163E+02  0.7546771E-02  0.1512102E+00
          2   -1    0    0  503    0  0.00000000000E+00  0.00000000000E+00  0.20407049663E+04  0.20407049663E+04  0.00000000000E+00 0. -1.
         -1   -1    0    0    0  501 -0.00000000000E+00 -0.00000000000E+00 -0.20337634448E+04  0.20337634448E+04  0.00000000000E+00 0.  1.
         24    2    1    2    0    0  0.90782361118E+02  0.17426442632E+03  0.38951157101E+03  0.44969992067E+03  0.10909274647E+03 0.  0.
         25    2    1    2    0    0 -0.24909782450E+03  0.87520966461E+02 -0.12072463056E+04  0.12420860786E+04  0.12499815431E+03 0.  0.
         24    2    1    2    0    0  0.11072821634E+03 -0.19675548438E+03 -0.41383431217E+03  0.47842919745E+03  0.81622304046E+02 0.  0.
        -11    1    3    3    0    0  0.14123676814E+02  0.13784400878E+03  0.21747678308E+03  0.25786934711E+03  0.00000000000E+00 0.  1.
         12    1    3    3    0    0  0.76658684304E+02  0.36420417540E+02  0.17203478794E+03  0.19183057356E+03  0.00000000000E+00 0. -1.
        -13    1    5    5    0    0  0.64274950695E+02 -0.15953099653E+03 -0.24448279720E+03  0.29892013360E+03  0.00000000000E+00 0.  1.
         14    1    5    5    0    0  0.46453265642E+02 -0.37224487849E+02 -0.16935151497E+03  0.17950906386E+03  0.00000000000E+00 0. -1.
          5    1    4    4  502    0 -0.69981158414E+02  0.71313689015E+01 -0.59382137159E+03  0.59799174769E+03  0.47000000000E+01 0. -1.
         -5    1    4    4    0  502 -0.17911666609E+03  0.80389597560E+02 -0.61342493400E+03  0.64409433091E+03  0.47000000000E+01 0. -1.
          1    1    1    2  503    0  0.22494524004E+02 -0.20387505145E+02  0.15692645352E+04  0.15695581657E+04  0.00000000000E+00 0. -1.
         -2    1    1    2    0  501  0.25092723039E+02 -0.44642403259E+02 -0.33075396695E+03  0.33469504862E+03  0.00000000000E+00 0.  1.
<mgrwt>
<rscale>  0 0.39476123E+02</rscale>
<asrwt>0</asrwt>
<pdfrwt beam="1">  1        2 0.30010367E+00 0.30358755E+02</pdfrwt>
<pdfrwt beam="2">  1       -1 0.29908286E+00 0.51331628E+02</pdfrwt>
<totfact> 0.55851970E-01</totfact>
</mgrwt>
</event>
<event>
13    1  0.1675423E-008  0.9009552E+02  0.7546771E-02  0.1352882E+00
          2   -1    0    0  502    0  0.00000000000E+00  0.00000000000E+00  0.30072598005E+04  0.30072598005E+04  0.00000000000E+00 0. -1.
          2   -1    0    0  503    0 -0.00000000000E+00 -0.00000000000E+00 -0.65005314301E+03  0.65005314301E+03  0.00000000000E+00 0. -1.
         24    2    1    2    0    0  0.63577270781E+01 -0.49431127528E+02  0.32111307571E+03  0.33586044408E+03  0.84880936853E+02 0.  0.
         25    2    1    2    0    0  0.15303953850E+02 -0.10245214549E+03 -0.41227822706E+03  0.44309093404E+03  0.12500234479E+03 0.  0.
         24    2    1    2    0    0  0.82807046595E+02  0.56588678654E+02 -0.18006781576E+02  0.12939432271E+03  0.79745602063E+02 0.  0.
        -11    1    3    3    0    0 -0.31726317350E+02 -0.16421821394E+02  0.22001644834E+03  0.22289789808E+03  0.00000000000E+00 0.  1.
         12    1    3    3    0    0  0.38084044428E+02 -0.33009306134E+02  0.10109662737E+03  0.11296254600E+03  0.00000000000E+00 0. -1.
        -11    1    5    5    0    0  0.97821960880E+02  0.41647634631E+02 -0.10150172694E+02  0.10680209505E+03  0.00000000000E+00 0.  1.
         12    1    5    5    0    0 -0.15014914285E+02  0.14941044023E+02 -0.78566088823E+01  0.22592227659E+02  0.00000000000E+00 0. -1.
          5    1    4    4  501    0 -0.12168377229E+02  0.91316170970E+00  0.36738168833E+01  0.13582716929E+02  0.47000000000E+01 0. -1.
         -5    1    4    4    0  501  0.27472331079E+02 -0.10336530720E+03 -0.41595204394E+03  0.42950821711E+03  0.47000000000E+01 0. -1.
          1    1    1    2  502    0 -0.78818399591E+02  0.43494689950E+02  0.26009497099E+04  0.26025071607E+04  0.00000000000E+00 0. -1.
          1    1    1    2  503    0 -0.25650327932E+02  0.51799904411E+02 -0.13457111947E+03  0.14646008198E+03  0.00000000000E+00 0. -1.
<mgrwt>
<rscale>  0 0.72164933E+02</rscale>
<asrwt>0</asrwt>
<pdfrwt beam="1">  1        2 0.44224408E+00 0.90095517E+02</pdfrwt>
<pdfrwt beam="2">  1        2 0.95596051E-01 0.57802850E+02</pdfrwt>
<totfact> 0.22805042E+01</totfact>
</mgrwt>
</event>
<event>
13    1  0.1675423E-008  0.1468180E+03  0.7546771E-02  0.1256261E+00
          2   -1    0    0  503    0  0.00000000000E+00  0.00000000000E+00  0.35614009758E+04  0.35614009758E+04  0.00000000000E+00 0. -1.
          2   -1    0    0  502    0 -0.00000000000E+00 -0.00000000000E+00 -0.14040678833E+04  0.14040678833E+04  0.00000000000E+00 0. -1.
         24    2    1    2    0    0  0.32539122058E+02 -0.55841874414E+02  0.18785519395E+04  0.18814894129E+04  0.82872865696E+02 0.  0.
         25    2    1    2    0    0 -0.20706672158E+02  0.21554648353E+03 -0.15708617709E+03  0.29527951340E+03  0.12499948467E+03 0.  0.
         24    2    1    2    0    0 -0.13031332913E+02  0.28857294739E+02 -0.14996623224E+02  0.86421589925E+02  0.79001477201E+02 0.  0.
        -11    1    3    3    0    0  0.22790188560E+02 -0.23558578557E+02  0.20550469528E+03  0.20810232844E+03  0.00000000000E+00 0.  1.
         12    1    3    3    0    0  0.97489334985E+01 -0.32283295856E+02  0.16730472442E+04  0.16733870844E+04  0.00000000000E+00 0. -1.
        -13    1    5    5    0    0 -0.97170417177E+01  0.48618206490E+02  0.13685468804E+02  0.51433869759E+02  0.00000000000E+00 0.  1.
         14    1    5    5    0    0 -0.33142911956E+01 -0.19760911750E+02 -0.28682092028E+02  0.34987720166E+02  0.00000000000E+00 0. -1.
          5    1    4    4  501    0 -0.45313373366E+02  0.37353550722E+02 -0.40379729697E+01  0.59050696720E+02  0.47000000000E+01 0.  1.
         -5    1    4    4    0  501  0.24606701209E+02  0.17819293280E+03 -0.15304820412E+03  0.23622881668E+03  0.47000000000E+01 0.  1.
          1    1    1    2  502    0 -0.67770498644E+02 -0.60988665093E+02 -0.11205166900E+04  0.11242197784E+04  0.00000000000E+00 0. -1.
          1    1    1    2  503    0  0.68969381656E+02 -0.12757323876E+03  0.15713806433E+04  0.15780585645E+04  0.00000000000E+00 0. -1.
<mgrwt>
<rscale>  0 0.11236002E+03</rscale>
<asrwt>0</asrwt>
<pdfrwt beam="1">  1        2 0.52373544E+00 0.14681798E+03</pdfrwt>
<pdfrwt beam="2">  1        2 0.20648057E+00 0.85989298E+02</pdfrwt>
<totfact> 0.36757166E+00</totfact>
</mgrwt>
</event>
<event>
13    1  0.1675423E-008  0.3056384E+03  0.7546771E-02  0.1325462E+00
          2   -1    0    0  502    0  0.00000000000E+00  0.00000000000E+00  0.21403345107E+04  0.21403345107E+04  0.00000000000E+00 0. -1.
          2   -1    0    0  503    0 -0.00000000000E+00 -0.00000000000E+00 -0.86295723433E+03  0.86295723433E+03  0.00000000000E+00 0. -1.
         24    2    1    2    0    0 -0.33284215153E+03 -0.49322370143E+03  0.36696633887E+03  0.70630194916E+03  0.10072056408E+03 0.  0.
         25    2    1    2    0    0  0.58462617907E+03  0.46754647841E+03  0.54421118901E+03  0.93390393425E+03  0.12499304554E+03 0.  0.
         24    2    1    2    0    0 -0.25180021750E+03  0.32851739089E+03 -0.19432283400E+02  0.42194533455E+03  0.79581568611E+02 0.  0.
        -11    1    3    3    0    0 -0.12651717628E+03 -0.11174249124E+03  0.12121555651E+03  0.20781287588E+03  0.00000000000E+00 0.  1.
         12    1    3    3    0    0 -0.20632497524E+03 -0.38148121020E+03  0.24575078236E+03  0.49848907328E+03  0.00000000000E+00 0. -1.
        -13    1    5    5    0    0 -0.12799043109E+03  0.22854833658E+03 -0.29493928968E+01  0.26196295830E+03  0.00000000000E+00 0.  1.
         14    1    5    5    0    0 -0.12380978642E+03  0.99969054304E+02 -0.16482890504E+02  0.15998237625E+03  0.00000000000E+00 0. -1.
          5    1    4    4  501    0  0.54638272983E+03  0.46906232297E+03  0.51088958966E+03  0.88294043577E+03  0.47000000000E+01 0.  1.
         -5    1    4    4    0  501  0.38243449239E+02 -0.15158445589E+01  0.33321599351E+02  0.50963498484E+02  0.47000000000E+01 0.  1.
          1    1    1    2  502    0  0.21497746799E+02  0.22429354496E+01  0.57893285904E+03  0.57933620563E+03  0.00000000000E+00 0. -1.
          1    1    1    2  503    0 -0.21481556839E+02 -0.30508310331E+03 -0.19330082718E+03  0.36180432142E+03  0.00000000000E+00 0. -1.
<mgrwt>
<rscale>  0 0.81278542E+02</rscale>
<asrwt>0</asrwt>
<pdfrwt beam="1">  1        2 0.31475507E+00 0.21614437E+02</pdfrwt>
<pdfrwt beam="2">  1        2 0.12690548E+00 0.30563838E+03</pdfrwt>
<totfact> 0.50074972E+01</totfact>
</mgrwt>
</event>
<event>
13    1  0.1675423E-008  0.1636979E+03  0.7546771E-02  0.1214110E+00
          2   -1    0    0  503    0  0.00000000000E+00  0.00000000000E+00  0.17907313877E+04  0.17907313877E+04  0.00000000000E+00 0. -1.
          2   -1    0    0  502    0 -0.00000000000E+00 -0.00000000000E+00 -0.17167778212E+04  0.17167778212E+04  0.00000000000E+00 0. -1.
         24    2    1    2    0    0 -0.18659721845E+03 -0.97382171341E+01  0.52269510576E+03  0.55930878208E+03  0.68576857030E+02 0.  0.
         25    2    1    2    0    0  0.11688485751E+03  0.17737270863E+03  0.29370579128E+03  0.38341962041E+03  0.12499746317E+03 0.  0.
         24    2    1    2    0    0 -0.11377996193E+03 -0.18914212866E+03 -0.11065456894E+04  0.11310396839E+04  0.78017812439E+02 0.  0.
        -11    1    3    3    0    0 -0.10915871644E+02  0.54792770738E+01  0.10786613357E+03  0.10855543055E+03  0.00000000000E+00 0.  1.
         12    1    3    3    0    0 -0.17568134681E+03 -0.15217494208E+02  0.41482897219E+03  0.45075335153E+03  0.00000000000E+00 0. -1.
        -13    1    5    5    0    0 -0.10945480595E+02 -0.26245974125E+02 -0.31943245900E+03  0.32069572894E+03  0.00000000000E+00 0.  1.
         14    1    5    5    0    0 -0.10283448134E+03 -0.16289615453E+03 -0.78711323045E+03  0.81034395492E+03  0.00000000000E+00 0. -1.
          5    1    4    4  501    0  0.41654147687E+02 -0.34330271883E+01  0.19318432856E+02  0.46283318196E+02  0.47000000000E+01 0. -1.
         -5    1    4    4    0  501  0.75230709827E+02  0.18080573582E+03  0.27438735843E+03  0.33713630221E+03  0.47000000000E+01 0. -1.
          1    1    1    2  502    0  0.15319526124E+02 -0.11775249237E+03 -0.51470180944E+03  0.52822181892E+03  0.00000000000E+00 0. -1.
          1    1    1    2  503    0  0.16817279675E+03  0.13926012953E+03  0.87880016838E+03  0.90551930360E+03  0.00000000000E+00 0. -1.
<mgrwt>
<rscale>  0 0.13942125E+03</rscale>
<asrwt>0</asrwt>
<pdfrwt beam="1">  1        2 0.26334285E+00 0.16369794E+03</pdfrwt>
<pdfrwt beam="2">  1        2 0.25246733E+00 0.11874484E+03</pdfrwt>
<totfact> 0.21270811E+01</totfact>
</mgrwt>
</event>
<event>
13    1  0.1675423E-008  0.5858860E+02  0.7546771E-02  0.1528345E+00
          2   -1    0    0  502    0  0.00000000000E+00  0.00000000000E+00  0.19220075446E+04  0.19220075446E+04  0.00000000000E+00 0. -1.
          2   -1    0    0  503    0 -0.00000000000E+00 -0.00000000000E+00 -0.73379189571E+03  0.73379189571E+03  0.00000000000E+00 0. -1.
         24    2    1    2    0    0 -0.12024565184E+03 -0.11149039751E+02  0.32063253650E+02  0.14830136539E+03  0.79886950552E+02 0.  0.
         25    2    1    2    0    0  0.10986316922E+03 -0.91485888533E+02  0.28044271133E+02  0.19196509487E+03  0.12499813100E+03 0.  0.
         24    2    1    2    0    0  0.55938700413E+02  0.63715811622E+02 -0.22804704149E+01  0.11703800616E+03  0.80646459848E+02 0.  0.
        -11    1    3    3    0    0 -0.10095749399E+03  0.20965391060E+02  0.72471922792E+01  0.10336578259E+03  0.00000000000E+00 0.  1.
         12    1    3    3    0    0 -0.19288157852E+02 -0.32114430811E+02  0.24816061370E+02  0.44935582800E+02  0.00000000000E+00 0. -1.
        -11    1    5    5    0    0  0.34287872355E+02 -0.98717333033E+01 -0.16017813128E+02  0.39111119217E+02  0.00000000000E+00 0.  1.
         12    1    5    5    0    0  0.21650828058E+02  0.73587544926E+02  0.13737342713E+02  0.77926886943E+02  0.00000000000E+00 0. -1.
          5    1    4    4  501    0  0.48091605953E+02  0.23330224739E+02  0.30024742713E+02  0.61487211065E+02  0.47000000000E+01 0. -1.
         -5    1    4    4    0  501  0.61771563264E+02 -0.11481611327E+03 -0.19804715801E+01  0.13047788381E+03  0.47000000000E+01 0. -1.
          1    1    1    2  502    0 -0.19589202326E+02 -0.13625043702E+02  0.16627478550E+04  0.16629190624E+04  0.00000000000E+00 0. -1.
          1    1    1    2  503    0 -0.25967015463E+02  0.52544160363E+02 -0.53235926052E+03  0.53557591147E+03  0.00000000000E+00 0. -1.
<mgrwt>
<rscale>  0 0.37390121E+02</rscale>
<asrwt>0</asrwt>
<pdfrwt beam="1">  1        2 0.28264817E+00 0.23861657E+02</pdfrwt>
<pdfrwt beam="2">  1        2 0.10791057E+00 0.58588604E+02</pdfrwt>
<totfact> 0.79702100E+01</totfact>
</mgrwt>
</event>
<event>
13    1  0.1675423E-008  0.1347900E+03  0.7546771E-02  0.1356751E+00
          2   -1    0    0  502    0  0.00000000000E+00  0.00000000000E+00  0.84278487086E+03  0.84278487086E+03  0.00000000000E+00 0. -1.
          2   -1    0    0  503    0 -0.00000000000E+00 -0.00000000000E+00 -0.25562568945E+04  0.25562568945E+04  0.00000000000E+00 0. -1.
         24    2    1    2    0    0  0.11411012543E+03 -0.32371064074E+03  0.64360989757E+02  0.35782771615E+03  0.78029723773E+02 0.  0.
         25    2    1    2    0    0  0.15517098683E+03  0.29723855771E+03 -0.81625653121E+03  0.89124934982E+03  0.12498753323E+03 0.  0.
         24    2    1    2    0    0 -0.31896863256E+03 -0.11104684961E+03  0.34122723275E+02  0.34845539267E+03  0.78641013933E+02 0.  0.
        -11    1    5    5    0    0 -0.29806509821E+03 -0.92289511562E+02  0.50284493147E+02  0.31605171565E+03  0.00000000000E+00 0.  1.
         12    1    5    5    0    0 -0.20903534350E+02 -0.18757338049E+02 -0.16161769872E+02  0.32403677020E+02  0.00000000000E+00 0. -1.
        -13    1    3    3    0    0  0.29070736824E+02 -0.18696915303E+03  0.52498647369E+02  0.19636364200E+03  0.00000000000E+00 0.  1.
         14    1    3    3    0    0  0.85039388601E+02 -0.13674148770E+03  0.11862342387E+02  0.16146407415E+03  0.00000000000E+00 0. -1.
          5    1    4    4  501    0  0.11276391567E+03  0.89475616560E+02 -0.37365883901E+03  0.40045549641E+03  0.47000000000E+01 0. -1.
         -5    1    4    4    0  501  0.42407071158E+02  0.20776294115E+03 -0.44259769220E+03  0.49079385341E+03  0.47000000000E+01 0. -1.
          1    1    1    2  502    0 -0.26495043029E+02  0.26383395284E+02  0.39878329773E+03  0.40053238246E+03  0.00000000000E+00 0. -1.
          1    1    1    2  503    0  0.76182563340E+02  0.11113553735E+03 -0.13944825032E+04  0.14009769243E+04  0.00000000000E+00 0. -1.
<mgrwt>
<rscale>  0 0.70992293E+02</rscale>
<asrwt>0</asrwt>
<pdfrwt beam="1">  1        2 0.12393895E+00 0.37390786E+02</pdfrwt>
<pdfrwt beam="2">  1        2 0.37592013E+00 0.13479005E+03</pdfrwt>
<totfact> 0.27840154E+01</totfact>
</mgrwt>
</event>
<event>
13    1  0.1675423E-008  0.6952417E+02  0.7546771E-02  0.1446766E+00
          2   -1    0    0  503    0  0.00000000000E+00  0.00000000000E+00  0.35526508310E+04  0.35526508310E+04  0.00000000000E+00 0. -1.
          2   -1    0    0  502    0 -0.00000000000E+00 -0.00000000000E+00 -0.17091774853E+04  0.17091774853E+04  0.00000000000E+00 0. -1.
         24    2    1    2    0    0  0.92872822739E+03 -0.72737517241E+02  0.13426783715E+04  0.16356515996E+04  0.68877275912E+02 0.  0.
         25    2    1    2    0    0 -0.53701896448E+03  0.37128132789E+03 -0.19100175815E+03  0.69162825495E+03  0.12501511421E+03 0.  0.
         24    2    1    2    0    0 -0.42846426779E+03 -0.24569776697E+03 -0.24159761141E+03  0.55567989993E+03  0.80384848583E+02 0.  0.
        -11    1    3    3    0    0  0.59932756275E+02 -0.21547192236E+02  0.84980714435E+02  0.10619763930E+03  0.00000000000E+00 0.  1.
         12    1    3    3    0    0  0.86879547111E+03 -0.51190325005E+02  0.12576976571E+04  0.15294539603E+04  0.00000000000E+00 0. -1.
        -13    1    5    5    0    0 -0.31951967304E+03 -0.14281545637E+03 -0.15679264387E+03  0.38350098984E+03  0.00000000000E+00 0.  1.
         14    1    5    5    0    0 -0.10894459475E+03 -0.10288231060E+03 -0.84804967548E+02  0.17217891009E+03  0.00000000000E+00 0. -1.
          5    1    4    4  501    0 -0.34619183850E+03  0.19510447638E+03 -0.16592764716E+03  0.43066067830E+03  0.47000000000E+01 0. -1.
         -5    1    4    4    0  501 -0.19082712598E+03  0.17617685151E+03 -0.25074110987E+02  0.26096757664E+03  0.47000000000E+01 0. -1.
          1    1    1    2  502    0  0.31528529354E+02  0.16491837397E+02 -0.72156867219E+03  0.72244541493E+03  0.00000000000E+00 0. -1.
          1    1    1    2  503    0  0.52264755247E+01 -0.69337881074E+02  0.16549630159E+04  0.16564231469E+04  0.00000000000E+00 0. -1.
<mgrwt>
<rscale>  0 0.49736913E+02</rscale>
<asrwt>0</asrwt>
<pdfrwt beam="1">  1        2 0.52244865E+00 0.69524175E+02</pdfrwt>
<pdfrwt beam="2">  1        2 0.25134963E+00 0.35581299E+02</pdfrwt>
<totfact> 0.32881160E+00</totfact>
</mgrwt>
</event>
<event>
13    1  0.1675423E-008  0.1698898E+03  0.7546771E-02  0.1307480E+00
          2   -1    0    0  502    0  0.00000000000E+00  0.00000000000E+00  0.32016727189E+04  0.32016727189E+04  0.00000000000E+00 0. -1.
          2   -1    0    0  503    0 -0.00000000000E+00 -0.00000000000E+00 -0.34609734157E+04  0.34609734157E+04  0.00000000000E+00 0. -1.
         24    2    1    2    0    0  0.24564979907E+02  0.75934545774E+02  0.14978582469E+04  0.15021647624E+04  0.80933011080E+02 0.  0.
         25    2    1    2    0    0 -0.33730444074E+03  0.11260499225E+02 -0.72607377639E+03  0.81037714782E+03  0.12500763326E+03 0.  0.
         24    2    1    2    0    0  0.47623154421E+03 -0.23987744460E+03 -0.24125296482E+03  0.59071734532E+03  0.80039470889E+02 0.  0.
        -11    1    5    5    0    0  0.34321354338E+03 -0.15174431209E+03 -0.20291596694E+03  0.42661078544E+03  0.00000000000E+00 0.  1.
         12    1    5    5    0    0  0.13301800083E+03 -0.88133132513E+02 -0.38336997882E+02  0.16410655988E+03  0.00000000000E+00 0. -1.
        -13    1    3    3    0    0 -0.10437104529E+02 -0.11674129197E+02  0.11070384225E+03  0.11180589937E+03  0.00000000000E+00 0.  1.
         14    1    3    3    0    0  0.35002084436E+02  0.87608674972E+02  0.13871544046E+04  0.13903588631E+04  0.00000000000E+00 0. -1.
          5    1    4    4  501    0 -0.27442589697E+03 -0.41592954426E+02 -0.55607825279E+03  0.62151802871E+03  0.47000000000E+01 0.  1.
         -5    1    4    4    0  501 -0.62878543770E+02  0.52853453651E+02 -0.16999552359E+03  0.18885911911E+03  0.47000000000E+01 0.  1.
          1    1    1    2  502    0 -0.19463289376E+03  0.11923175935E+03  0.14757734693E+04  0.14933202967E+04  0.00000000000E+00 0. -1.
          1    1    1    2  503    0  0.31140810381E+02  0.33450640253E+02 -0.22656056718E+04  0.22660665823E+04  0.00000000000E+00 0. -1.
<mgrwt>
<rscale>  0 0.88115536E+02</rscale>
<asrwt>0</asrwt>
<pdfrwt beam="1">  1        2 0.47083423E+00 0.16988984E+03</pdfrwt>
<pdfrwt beam="2">  1        2 0.50896668E+00 0.45702247E+02</pdfrwt>
<totfact> 0.59766707E-01</totfact>
</mgrwt>
</event>
<event>
13    1  0.1675423E-008  0.1436652E+03  0.7546771E-02  0.1226845E+00
          2   -1    0    0  502    0  0.00000000000E+00  0.00000000000E+00  0.68103130607E+03  0.68103130607E+03  0.00000000000E+00 0. -1.
          2   -1    0    0  503    0 -0.00000000000E+00 -0.00000000000E+00 -0.18993089474E+04  0.18993089474E+04  0.00000000000E+00 0. -1.
         24    2    1    2    0    0  0.35777837970E+02 -0.15384933700E+02  0.12787348447E+03  0.15609483315E+03  0.80605328800E+02 0.  0.
         25    2    1    2    0    0 -0.13736494749E+03  0.28899894077E+02 -0.66367481145E+03  0.68977981285E+03  0.12501040829E+03 0.  0.
         24    2    1    2    0    0  0.30677224957E+02 -0.19999437629E+03  0.21901984132E+03  0.30875458602E+03  0.80130274062E+02 0.  0.
        -13    1    5    5    0    0  0.52047406042E+02 -0.11590932393E+03  0.15768342124E+03  0.20250423498E+03  0.00000000000E+00 0.  1.
         14    1    5    5    0    0 -0.21370181086E+02 -0.84085052354E+02  0.61336420084E+02  0.10625035105E+03  0.00000000000E+00 0. -1.
        -13    1    3    3    0    0  0.40973597737E+02  0.17787937907E+02  0.10848661969E+03  0.11732260268E+03  0.00000000000E+00 0.  1.
         14    1    3    3    0    0 -0.51957597669E+01 -0.33172871606E+02  0.19386864783E+02  0.38772230479E+02  0.00000000000E+00 0. -1.
          5    1    4    4  501    0 -0.20807567221E+02  0.53766799246E+02 -0.12050675209E+03  0.13367045617E+03  0.47000000000E+01 0.  1.
         -5    1    4    4    0  501 -0.11655738027E+03 -0.24866905170E+02 -0.54316805937E+03  0.55610935668E+03  0.47000000000E+01 0.  1.
          1    1    1    2  502    0  0.13224402057E+03  0.56294080746E+02  0.23753024806E+03  0.27762947114E+03  0.00000000000E+00 0. -1.
          1    1    1    2  503    0 -0.61334136003E+02  0.13018533516E+03 -0.11390264037E+04  0.11480815503E+04  0.00000000000E+00 0. -1.
<mgrwt>
<rscale>  0 0.13041263E+03</rscale>
<asrwt>0</asrwt>
<pdfrwt beam="1">  1        2 0.10015166E+00 0.11838255E+03</pdfrwt>
<pdfrwt beam="2">  1        2 0.27931014E+00 0.14366522E+03</pdfrwt>
<totfact> 0.72123139E+01</totfact>
</mgrwt>
</event>
<event>
13    1  0.1675423E-008  0.2078095E+03  0.7546771E-02  0.1271494E+00
         -1   -1    0    0    0  501 -0.00000000000E+00  0.00000000000E+00  0.20715063434E+04  0.20715063434E+04  0.00000000000E+00 0.  1.
          2   -1    0    0  503    0  0.00000000000E+00 -0.00000000000E+00 -0.45103785018E+03  0.45103785018E+03  0.00000000000E+00 0. -1.
         24    2    1    2    0    0 -0.76573182762E+02 -0.19913351248E+02 -0.11119506468E+03  0.15917869752E+03  0.81936081534E+02 0.  0.
         25    2    1    2    0    0 -0.19567266359E+03 -0.92612256724E+02  0.10488752758E+04  0.10782535576E+04  0.12500627525E+03 0.  0.
         24    2    1    2    0    0  0.48037226697E+02  0.66096470340E+02  0.49295110225E+02  0.12808225920E+03  0.85432655881E+02 0.  0.
        -11    1    5    5    0    0  0.43179916296E+02  0.65601190367E+02 -0.92354792682E-02  0.78536752124E+02  0.00000000000E+00 0.  1.
         12    1    5    5    0    0  0.48573104018E+01  0.49527997264E+00  0.49304345704E+02  0.49545507081E+02  0.00000000000E+00 0. -1.
        -13    1    3    3    0    0  0.55783412014E+01 -0.26640939111E+02 -0.48508821448E+02  0.55623405915E+02  0.00000000000E+00 0.  1.
         14    1    3    3    0    0 -0.82151523963E+02  0.67275878629E+01 -0.62686243236E+02  0.10355529160E+03  0.00000000000E+00 0. -1.
          5    1    4    4  502    0 -0.17678769891E+03 -0.41509384476E+02  0.62495146863E+03  0.65081744570E+03  0.47000000000E+01 0. -1.
         -5    1    4    4    0  502 -0.18884964680E+02 -0.51102872248E+02  0.42392380719E+03  0.42743611188E+03  0.47000000000E+01 0. -1.
          1    1    1    2  503    0  0.13372468479E+02  0.50617545013E+02 -0.24656348953E+03  0.25206053468E+03  0.00000000000E+00 0. -1.
         -2    1    1    2    0  501  0.21083615117E+03 -0.41884073809E+01  0.88005666136E+03  0.90496914456E+03  0.00000000000E+00 0.  1.
<mgrwt>
<rscale>  0 0.10430576E+03</rscale>
<asrwt>0</asrwt>
<pdfrwt beam="2">  1        2 0.66329097E-01 0.52354167E+02</pdfrwt>
<pdfrwt beam="1">  1       -1 0.30463328E+00 0.20780945E+03</pdfrwt>
<totfact> 0.32016603E+00</totfact>
</mgrwt>
</event>
<event>
13    1  0.1675423E-008  0.8493333E+02  0.7546771E-02  0.1427253E+00
          2   -1    0    0  502    0  0.00000000000E+00  0.00000000000E+00  0.11699351328E+04  0.11699351328E+04  0.00000000000E+00 0. -1.
          4   -1    0    0  503    0 -0.00000000000E+00 -0.00000000000E+00 -0.10628882137E+04  0.10628882137E+04  0.00000000000E+00 0. -1.
         24    2    1    2    0    0  0.15259023583E+02  0.20155371784E+03  0.14216584085E+03  0.26403267569E+03  0.92980581575E+02 0.  0.
         25    2    1    2    0    0  0.46784939186E+02 -0.23295266224E+03 -0.13028818816E+03  0.29842430607E+03  0.12500512430E+03 0.  0.
         24    2    1    2    0    0  0.10229790469E+02 -0.40684804899E+02  0.85557109953E+02  0.12170851902E+03  0.75716857938E+02 0.  0.
        -13    1    3    3    0    0 -0.29767556914E+02  0.14939486686E+03  0.11056068578E+03  0.18822486267E+03  0.00000000000E+00 0.  1.
         14    1    3    3    0    0  0.45026580496E+02  0.52158850982E+02  0.31605155069E+02  0.75807813014E+02  0.00000000000E+00 0. -1.
        -13    1    5    5    0    0  0.29829601728E+02  0.68696833473E+01  0.14194333756E+02  0.33741321837E+02  0.00000000000E+00 0.  1.
         14    1    5    5    0    0 -0.19599811259E+02 -0.47554488246E+02  0.71362776197E+02  0.87967197183E+02  0.00000000000E+00 0. -1.
          5    1    4    4  501    0  0.80075465170E+02 -0.88207466344E+02 -0.68403828460E+02  0.13745475979E+03  0.47000000000E+01 0. -1.
         -5    1    4    4    0  501 -0.33290525983E+02 -0.14474519590E+03 -0.61884359696E+02  0.16096954628E+03  0.47000000000E+01 0. -1.
          1    1    1    2  502    0 -0.38726024529E+02  0.75482452336E+02  0.77645401500E+03  0.78107499192E+03  0.00000000000E+00 0. -1.
          3    1    1    2  503    0 -0.33547728709E+02 -0.33987030379E+01 -0.76684185863E+03  0.76758285379E+03  0.00000000000E+00 0. -1.
<mgrwt>
<rscale>  0 0.53515465E+02</rscale>
<asrwt>0</asrwt>
<pdfrwt beam="1">  1        2 0.17204928E+00 0.84933325E+02</pdfrwt>
<pdfrwt beam="2">  1        4 0.15630709E+00 0.33719450E+02</pdfrwt>
<totfact> 0.34604332E+00</totfact>
</mgrwt>
</event>
<event>
13    1  0.1675423E-008  0.1625466E+03  0.7546771E-02  0.1195900E+00
          2   -1    0    0  502    0  0.00000000000E+00  0.00000000000E+00  0.20136450111E+04  0.20136450111E+04  0.00000000000E+00 0. -1.
          2   -1    0    0  503    0 -0.00000000000E+00 -0.00000000000E+00 -0.23939351759E+04  0.23939351759E+04  0.00000000000E+00 0. -1.
         24    2    1    2    0    0  0.30901545486E+02  0.36001964879E+02  0.34649814212E+02  0.98763545883E+02  0.79388798844E+02 0.  0.
         25    2    1    2    0    0  0.14483759682E+03  0.68470326699E+02 -0.98119788125E+02  0.22565518601E+03  0.12500662006E+03 0.  0.
         24    2    1    2    0    0  0.39525262798E+02 -0.24479375379E+03 -0.17484470461E+03  0.31372884883E+03  0.79805335416E+02 0.  0.
        -13    1    3    3    0    0 -0.22181080153E+02  0.19692873098E+02  0.31313742645E+02  0.43131891288E+02  0.00000000000E+00 0.  1.
         14    1    3    3    0    0  0.53082625639E+02  0.16309091781E+02  0.33360715666E+01  0.55631654595E+02  0.00000000000E+00 0. -1.
        -13    1    5    5    0    0  0.43546573776E+02 -0.22074983967E+03 -0.18078838281E+03  0.28863685690E+03  0.00000000000E+00 0.  1.
         14    1    5    5    0    0 -0.40213109782E+01 -0.24043914125E+02  0.59436781995E+01  0.25091991929E+02  0.00000000000E+00 0. -1.
          5    1    4    4  501    0  0.32749421170E+02  0.79544730700E+02 -0.65730072690E+02  0.10836245302E+03  0.47000000000E+01 0.  1.
         -5    1    4    4    0  501  0.11208817565E+03 -0.11074404002E+02 -0.32389715434E+02  0.11729273299E+03  0.47000000000E+01 0.  1.
          1    1    1    2  502    0 -0.60551594053E+02  0.19040396331E+03  0.18048257925E+04  0.18158513998E+04  0.00000000000E+00 0. -1.
          1    1    1    2  503    0 -0.15471281105E+03 -0.50082501099E+02 -0.19468012789E+04  0.19535812065E+04  0.00000000000E+00 0. -1.
<mgrwt>
<rscale>  0 0.15378301E+03</rscale>
<asrwt>0</asrwt>
<pdfrwt beam="1">  1        2 0.29612427E+00 0.14549193E+03</pdfrwt>
<pdfrwt beam="2">  1        2 0.35204929E+00 0.16254658E+03</pdfrwt>
<totfact> 0.75244788E+00</totfact>
</mgrwt>
</event>
<event>
13    1  0.1675423E-008  0.7338795E+02  0.7546771E-02  0.1499918E+00
          2   -1    0    0  502    0  0.00000000000E+00  0.00000000000E+00  0.82701444665E+02  0.82701444665E+02  0.00000000000E+00 0. -1.
          2   -1    0    0  503    0 -0.00000000000E+00 -0.00000000000E+00 -0.12907824847E+04  0.12907824847E+04  0.00000000000E+00 0. -1.
         24    2    1    2    0    0 -0.31559053744E+00 -0.72070086804E+01 -0.12099012682E+03  0.14558130940E+03  0.80642831597E+02 0.  0.
         25    2    1    2    0    0 -0.28802358693E+01  0.34462689941E+01 -0.66250689230E+03  0.67421186110E+03  0.12500431503E+03 0.  0.
         24    2    1    2    0    0 -0.35861334651E+02  0.53719038566E+02 -0.12208764164E+03  0.16321187059E+03  0.86953735006E+02 0.  0.
        -11    1    3    3    0    0 -0.37961018853E+02 -0.89331634867E+01 -0.84779473525E+02  0.93318805679E+02  0.00000000000E+00 0.  1.
         12    1    3    3    0    0  0.37645428315E+02  0.17261548062E+01 -0.36210653296E+02  0.52262503725E+02  0.00000000000E+00 0. -1.
        -13    1    5    5    0    0 -0.22112494999E+02  0.73793249242E+02 -0.63710563126E+02  0.99967204235E+02  0.00000000000E+00 0.  1.
         14    1    5    5    0    0 -0.13748839652E+02 -0.20074210675E+02 -0.58377078514E+02  0.63244666351E+02  0.00000000000E+00 0. -1.
          5    1    4    4  501    0  0.91073255940E+00  0.44759501863E+02 -0.94512559125E+02  0.10468503366E+03  0.47000000000E+01 0. -1.
         -5    1    4    4    0  501 -0.37909684287E+01 -0.41313232869E+02 -0.56799433317E+03  0.56952682744E+03  0.47000000000E+01 0. -1.
          1    1    1    2  502    0  0.12040975448E+02  0.19682177570E+02  0.36592789151E+02  0.43259743659E+02  0.00000000000E+00 0. -1.
          1    1    1    2  503    0  0.27016185609E+02 -0.69640476450E+02 -0.33908916848E+03  0.34721914467E+03  0.00000000000E+00 0. -1.
<mgrwt>
<rscale>  0 0.41149676E+02</rscale>
<asrwt>0</asrwt>
<pdfrwt beam="1">  1        2 0.12161978E-01 0.23073214E+02</pdfrwt>
<pdfrwt beam="2">  1        2 0.18982094E+00 0.73387949E+02</pdfrwt>
<totfact> 0.13894888E+03</totfact>
</mgrwt>
</event>
<event>
13    1  0.1675423E-008  0.1260796E+03  0.7546771E-02  0.1285098E+00
          2   -1    0    0  502    0  0.00000000000E+00  0.00000000000E+00  0.13081130436E+04  0.13081130436E+04  0.00000000000E+00 0. -1.
          4   -1    0    0  503    0 -0.00000000000E+00 -0.00000000000E+00 -0.23452595385E+03  0.23452595385E+03  0.00000000000E+00 0. -1.
         24    2    1    2    0    0 -0.83258879107E+02 -0.83735119785E+02  0.59515657488E+03  0.61200967356E+03  0.80005504030E+02 0.  0.
         25    2    1    2    0    0 -0.83131666656E+02 -0.24409065694E+02 -0.16176166221E+02  0.15295787178E+03  0.12501106230E+03 0.  0.
         24    2    1    2    0    0  0.12589919878E+03 -0.52615290717E+02  0.13680902183E+03  0.20923437648E+03  0.80270410357E+02 0.  0.
        -11    1    3    3    0    0 -0.68814388172E+02 -0.56633743776E+02  0.55137412882E+03  0.55853042073E+03  0.00000000000E+00 0.  1.
         12    1    3    3    0    0 -0.14444490935E+02 -0.27101376010E+02  0.43782446057E+02  0.53479252825E+02  0.00000000000E+00 0. -1.
        -13    1    5    5    0    0  0.15880222454E+02 -0.35281273009E+02  0.68234006340E+02  0.78439972664E+02  0.00000000000E+00 0.  1.
         14    1    5    5    0    0  0.11001897633E+03 -0.17334017708E+02  0.68575015488E+02  0.13079440382E+03  0.00000000000E+00 0. -1.
          5    1    4    4  501    0 -0.27463727694E+01  0.44159124252E+02  0.60010863774E+01  0.44896256590E+02  0.47000000000E+01 0.  1.
         -5    1    4    4    0  501 -0.80385293887E+02 -0.68568189946E+02 -0.22177252598E+02  0.10806161519E+03  0.47000000000E+01 0.  1.
          1    1    1    2  502    0  0.11575041955E+03  0.15182790924E+03  0.42578151769E+03  0.46662594704E+03  0.00000000000E+00 0. -1.
          3    1    1    2  503    0 -0.75259072569E+02  0.89315669606E+01 -0.67983858432E+02  0.10181112856E+03  0.00000000000E+00 0. -1.
<mgrwt>
<rscale>  0 0.97750801E+02</rscale>
<asrwt>0</asrwt>
<pdfrwt beam="1">  1        2 0.19236956E+00 0.12607958E+03</pdfrwt>
<pdfrwt beam="2">  1        4 0.34489111E-01 0.75787208E+02</pdfrwt>
<totfact> 0.77593408E+01</totfact>
</mgrwt>
</event>
<event>
13    1  0.1675423E-008  0.8764425E+02  0.7546771E-02  0.1365751E+00
          2   -1    0    0  502    0  0.00000000000E+00  0.00000000000E+00  0.11289406248E+04  0.11289406248E+04  0.00000000000E+00 0. -1.
          2   -1    0    0  503    0 -0.00000000000E+00 -0.00000000000E+00 -0.29568678836E+03  0.29568678836E+03  0.00000000000E+00 0. -1.
         24    2    1    2    0    0  0.14072387493E+02  0.59944951628E+02  0.38549465425E+03  0.39862403003E+03  0.80644649864E+02 0.  0.
         25    2    1    2    0    0  0.64097804445E+02 -0.11357469785E+03  0.71803369859E+02  0.19439283771E+03  0.12500044362E+03 0.  0.
         24    2    1    2    0    0  0.27893503928E+02 -0.38576268397E+02  0.30403031013E+03  0.31802844958E+03  0.80258888711E+02 0.  0.
        -11    1    5    5    0    0  0.37096378829E+02 -0.48396644602E+02  0.29629624287E+03  0.30250593394E+03  0.00000000000E+00 0.  1.
         12    1    5    5    0    0 -0.92028749015E+01  0.98203762051E+01  0.77340672619E+01  0.15522515636E+02  0.00000000000E+00 0. -1.
        -13    1    3    3    0    0  0.14529880975E+01 -0.14619167022E+02  0.16234116696E+03  0.16300455732E+03  0.00000000000E+00 0.  1.
         14    1    3    3    0    0  0.12619399395E+02  0.74564118650E+02  0.22315348729E+03  0.23561947271E+03  0.00000000000E+00 0. -1.
          5    1    4    4  501    0  0.17699210058E+02  0.26597690610E+02  0.68181536735E+01  0.33004187644E+02  0.47000000000E+01 0. -1.
         -5    1    4    4    0  501  0.46398594387E+02 -0.14017238846E+03  0.64985216185E+02  0.16138865007E+03  0.47000000000E+01 0. -1.
          1    1    1    2  502    0 -0.37120965337E+02  0.38280023156E+02  0.28147811226E+03  0.28648429960E+03  0.00000000000E+00 0. -1.
          1    1    1    2  503    0 -0.68942730528E+02  0.53925991467E+02 -0.20955261008E+03  0.22709779620E+03  0.00000000000E+00 0. -1.
<mgrwt>
<rscale>  0 0.68362573E+02</rscale>
<asrwt>0</asrwt>
<pdfrwt beam="1">  1        2 0.16602068E+00 0.53322849E+02</pdfrwt>
<pdfrwt beam="2">  1        2 0.43483352E-01 0.87644255E+02</pdfrwt>
<totfact> 0.46258798E+02</totfact>
</mgrwt>
</event>
<event>
13    1  0.1675423E-008  0.1337179E+03  0.7546771E-02  0.1409255E+00
          2   -1    0    0  503    0  0.00000000000E+00  0.00000000000E+00  0.26106195286E+04  0.26106195286E+04  0.00000000000E+00 0. -1.
          2   -1    0    0  502    0 -0.00000000000E+00 -0.00000000000E+00 -0.24353587737E+04  0.24353587737E+04  0.00000000000E+00 0. -1.
         24    2    1    2    0    0 -0.53017592633E+02  0.23430799766E+03  0.12125259806E+03  0.28414023575E+03  0.91227069103E+02 0.  0.
         25    2    1    2    0    0  0.50702003777E+02 -0.18908297711E+03 -0.75599263879E+03  0.79086756388E+03  0.12499427294E+03 0.  0.
         24    2    1    2    0    0  0.99066827863E+02  0.50819234425E+02 -0.53136633119E+03  0.54942950539E+03  0.84414290817E+02 0.  0.
        -11    1    3    3    0    0  0.26047283515E+02  0.61032223701E+02  0.35611017969E+02  0.75309613657E+02  0.00000000000E+00 0.  1.
         12    1    3    3    0    0 -0.79064876147E+02  0.17327577396E+03  0.85641580092E+02  0.20883062209E+03  0.00000000000E+00 0. -1.
        -13    1    5    5    0    0  0.12390677171E+02  0.41586455710E+02 -0.94983763839E+02  0.10442642181E+03  0.00000000000E+00 0.  1.
         14    1    5    5    0    0  0.86676150692E+02  0.92327787149E+01 -0.43638256735E+03  0.44500308357E+03  0.00000000000E+00 0. -1.
          5    1    4    4  501    0  0.62312028011E+02 -0.38865445142E+02 -0.16006528093E+03  0.17617121166E+03  0.47000000000E+01 0. -1.
         -5    1    4    4    0  501 -0.11610024234E+02 -0.15021753197E+03 -0.59592735786E+03  0.61469635221E+03  0.47000000000E+01 0. -1.
          1    1    1    2  502    0 -0.20411757627E+02  0.13740221758E+02 -0.10380639915E+04  0.10383555672E+04  0.00000000000E+00 0. -1.
          1    1    1    2  503    0 -0.76339481381E+02 -0.10978447673E+03  0.23794311183E+04  0.23831854301E+04  0.00000000000E+00 0. -1.
<mgrwt>
<rscale>  0 0.57360302E+02</rscale>
<asrwt>0</asrwt>
<pdfrwt beam="1">  1        2 0.38391464E+00 0.13371792E+03</pdfrwt>
<pdfrwt beam="2">  1        2 0.35814099E+00 0.24605559E+02</pdfrwt>
<totfact> 0.47110593E+00</totfact>
</mgrwt>
</event>
<event>
13    1  0.1675423E-008  0.1568943E+03  0.7546771E-02  0.1293974E+00
          2   -1    0    0  503    0  0.00000000000E+00  0.00000000000E+00  0.19398442784E+04  0.19398442784E+04  0.00000000000E+00 0. -1.
          2   -1    0    0  502    0 -0.00000000000E+00 -0.00000000000E+00 -0.77417237680E+03  0.77417237680E+03  0.00000000000E+00 0. -1.
         24    2    1    2    0    0 -0.14377776953E+03 -0.23621038535E+02  0.26784393945E+03  0.31500564333E+03  0.79108652869E+02 0.  0.
         25    2    1    2    0    0  0.36678363907E+03  0.19007640633E+03  0.25206428673E+02  0.43234209372E+03  0.12500017527E+03 0.  0.
         24    2    1    2    0    0 -0.36583513762E+02 -0.24915009643E+02  0.34541751035E+03  0.35763260822E+03  0.81416919722E+02 0.  0.
        -11    1    5    5    0    0 -0.15048897659E+02 -0.19724544609E+02  0.32931198699E+03  0.33024522972E+03  0.00000000000E+00 0.  1.
         12    1    5    5    0    0 -0.21534616103E+02 -0.51904650339E+01  0.16105523368E+02  0.27387378497E+02  0.00000000000E+00 0. -1.
        -13    1    3    3    0    0 -0.87223730993E+02  0.25508177495E+02  0.14560404262E+03  0.17163677809E+03  0.00000000000E+00 0.  1.
         14    1    3    3    0    0 -0.56554038535E+02 -0.49129216030E+02  0.12223989683E+03  0.14336886524E+03  0.00000000000E+00 0. -1.
          5    1    4    4  501    0  0.30313194479E+03  0.17043878034E+03  0.66126234244E+02  0.35402418371E+03  0.47000000000E+01 0. -1.
         -5    1    4    4    0  501  0.63651694285E+02  0.19637625986E+02 -0.40919805571E+02  0.78317910006E+02  0.47000000000E+01 0. -1.
          1    1    1    2  502    0  0.17221357239E+02 -0.53329419135E+02 -0.52788922843E+03  0.53085557319E+03  0.00000000000E+00 0. -1.
          1    1    1    2  503    0 -0.20364371302E+03 -0.88210939014E+02  0.10550932515E+04  0.10781807367E+04  0.00000000000E+00 0. -1.
<mgrwt>
<rscale>  0 0.93768457E+02</rscale>
<asrwt>0</asrwt>
<pdfrwt beam="1">  1        2 0.28527122E+00 0.15689427E+03</pdfrwt>
<pdfrwt beam="2">  1        2 0.11384888E+00 0.56041075E+02</pdfrwt>
<totfact> 0.60218604E+01</totfact>
</mgrwt>
</event>
<event>
13    1  0.1675423E-008  0.1634761E+03  0.7546771E-02  0.1266200E+00
          2   -1    0    0  502    0  0.00000000000E+00  0.00000000000E+00  0.32886956018E+04  0.32886956018E+04  0.00000000000E+00 0. -1.
          2   -1    0    0  503    0 -0.00000000000E+00 -0.00000000000E+00 -0.11673987142E+04  0.11673987142E+04  0.00000000000E+00 0. -1.
         24    2    1    2    0    0 -0.20895467891E+03 -0.83798476217E+02  0.93782096679E+03  0.96791840909E+03  0.81692340167E+02 0.  0.
         25    2    1    2    0    0 -0.19298916956E-01 -0.58196290585E+02 -0.18043279934E+03  0.22708007109E+03  0.12499021961E+03 0.  0.
         24    2    1    2    0    0  0.37997387074E+02  0.73124442019E+02  0.56618093030E+03  0.57715331990E+03  0.75855938387E+02 0.  0.
        -11    1    3    3    0    0 -0.14866027254E+03 -0.61898811511E+02  0.49654252327E+03  0.52200174033E+03  0.00000000000E+00 0.  1.
         12    1    3    3    0    0 -0.60294406370E+02 -0.21899664706E+02  0.44127844352E+03  0.44591666875E+03  0.00000000000E+00 0. -1.
        -13    1    5    5    0    0  0.15156479129E+02 -0.35182109954E+01  0.20990697947E+02  0.26128644597E+02  0.00000000000E+00 0.  1.
         14    1    5    5    0    0  0.22840907945E+02  0.76642653014E+02  0.54519023236E+03  0.55102467530E+03  0.00000000000E+00 0. -1.
          5    1    4    4  501    0  0.14031324173E+02  0.37843037972E+02 -0.56433950247E+02  0.69540307171E+02  0.47000000000E+01 0.  1.
         -5    1    4    4    0  501 -0.14050623090E+02 -0.96039328557E+02 -0.12399884909E+03  0.15753976392E+03  0.47000000000E+01 0.  1.
          1    1    1    2  502    0  0.53900747794E+02 -0.44746408015E+02  0.17330669465E+04  0.17344822203E+04  0.00000000000E+00 0. -1.
          1    1    1    2  503    0  0.11707584296E+03  0.11361673280E+03 -0.93533915660E+03  0.94946029556E+03  0.00000000000E+00 0. -1.
<mgrwt>
<rscale>  0 0.10701456E+03</rscale>
<asrwt>0</asrwt>
<pdfrwt beam="1">  1        2 0.48363170E+00 0.70053777E+02</pdfrwt>
<pdfrwt beam="2">  1        2 0.17167628E+00 0.16347606E+03</pdfrwt>
<totfact> 0.76819254E+00</totfact>
</mgrwt>
</event>
<event>
13    1  0.1675423E-008  0.1250258E+03  0.7546771E-02  0.1299411E+00
          2   -1    0    0  503    0  0.00000000000E+00  0.00000000000E+00  0.28027086158E+04  0.28027086158E+04  0.00000000000E+00 0. -1.
          2   -1    0    0  502    0 -0.00000000000E+00 -0.00000000000E+00 -0.31804904868E+04  0.31804904868E+04  0.00000000000E+00 0. -1.
         24    2    1    2    0    0  0.33501973470E+02 -0.31668979730E+02  0.28726812962E+03  0.30164363159E+03  0.79627857432E+02 0.  0.
         25    2    1    2    0    0 -0.86774121299E+02  0.10194972048E+03 -0.11589399432E+03  0.21675313525E+03  0.12500804009E+03 0.  0.
         24    2    1    2    0    0  0.18158004037E+01  0.18978720631E+02  0.44149200464E+03  0.44969762228E+03  0.83362295731E+02 0.  0.
        -13    1    3    3    0    0  0.68533397571E+01 -0.39430562084E+02  0.56649165076E+02  0.69360402219E+02  0.00000000000E+00 0.  1.
         14    1    3    3    0    0  0.26648633713E+02  0.77615823545E+01  0.23061896454E+03  0.23228322937E+03  0.00000000000E+00 0. -1.
        -13    1    5    5    0    0 -0.29456403558E+02  0.32437522277E+02  0.33607570204E+03  0.33891997590E+03  0.00000000000E+00 0.  1.
         14    1    5    5    0    0  0.31272203961E+02 -0.13458801646E+02  0.10541630260E+03  0.11077764638E+03  0.00000000000E+00 0. -1.
          5    1    4    4  501    0 -0.99787908449E+02  0.35720619361E+02 -0.10301835265E+03  0.14787988471E+03  0.47000000000E+01 0. -1.
         -5    1    4    4    0  501  0.13013787150E+02  0.66229101116E+02 -0.12875641670E+02  0.68873250534E+02  0.47000000000E+01 0. -1.
          1    1    1    2  502    0 -0.46744842557E+01 -0.12560514674E+03 -0.30010049112E+04  0.30036359601E+04  0.00000000000E+00 0. -1.
          1    1    1    2  503    0  0.56130831680E+02  0.36345685361E+02  0.20103569003E+04  0.20114687533E+04  0.00000000000E+00 0. -1.
<mgrwt>
<rscale>  0 0.91436066E+02</rscale>
<asrwt>0</asrwt>
<pdfrwt beam="1">  1        2 0.41216304E+00 0.66870615E+02</pdfrwt>
<pdfrwt beam="2">  1        2 0.46771919E+00 0.12502583E+03</pdfrwt>
<totfact> 0.13531740E+00</totfact>
</mgrwt>
</event>
<event>
13    1  0.1675423E-008  0.1731768E+03  0.7546771E-02  0.1276953E+00
          2   -1    0    0  503    0  0.00000000000E+00  0.00000000000E+00  0.24154186976E+04  0.24154186976E+04  0.00000000000E+00 0. -1.
         -3   -1    0    0    0  501 -0.00000000000E+00 -0.00000000000E+00 -0.37799877252E+03  0.37799877252E+03  0.00000000000E+00 0.  1.
         24    2    1    2    0    0 -0.67045589167E+01 -0.12744649947E+02  0.10198139397E+03  0.12905851892E+03  0.77772227544E+02 0.  0.
         25    2    1    2    0    0  0.59742922383E+02  0.13091188367E+03 -0.11541065559E+03  0.22282193879E+03  0.12499143538E+03 0.  0.
         24    2    1    2    0    0  0.96171724526E+02  0.40314114691E+02  0.30799778024E+03  0.33596331878E+03  0.84465913183E+02 0.  0.
        -11    1    3    3    0    0  0.90419351154E+01  0.26846661538E+02  0.14660930654E+02  0.31897377854E+02  0.00000000000E+00 0.  1.
         12    1    3    3    0    0 -0.15746494032E+02 -0.39591311484E+02  0.87320463315E+02  0.97161141064E+02  0.00000000000E+00 0. -1.
        -11    1    5    5    0    0  0.81815451564E+02  0.60335049066E+02  0.28369069014E+03  0.30135443241E+03  0.00000000000E+00 0.  1.
         12    1    5    5    0    0  0.14356272963E+02 -0.20020934374E+02  0.24307090100E+02  0.34608886369E+02  0.00000000000E+00 0. -1.
          5    1    4    4  502    0  0.28157617535E+02  0.14800666668E+03 -0.10905385974E+03  0.18604746473E+03  0.47000000000E+01 0.  1.
         -5    1    4    4    0  502  0.31585304848E+02 -0.17094783016E+02 -0.63567958582E+01  0.36774474058E+02  0.47000000000E+01 0.  1.
          1    1    1    2  503    0 -0.54822122780E+02  0.23419188234E+02  0.18656928284E+04  0.18666450261E+04  0.00000000000E+00 0. -1.
         -4    1    1    2    0  501 -0.94387965213E+02 -0.18190053665E+03 -0.12284142196E+03  0.23892866751E+03  0.00000000000E+00 0.  1.
<mgrwt>
<rscale>  0 0.10160658E+03</rscale>
<asrwt>0</asrwt>
<pdfrwt beam="1">  1        2 0.35520862E+00 0.59614793E+02</pdfrwt>
<pdfrwt beam="2">  1       -3 0.55588056E-01 0.17317677E+03</pdfrwt>
<totfact> 0.12174500E+01</totfact>
</mgrwt>
</event>
<event>
13    1  0.1675423E-008  0.8320838E+02  0.7546771E-02  0.1431253E+00
          2   -1    0    0  503    0  0.00000000000E+00  0.00000000000E+00  0.24941419246E+04  0.24941419246E+04  0.00000000000E+00 0. -1.
          2   -1    0    0  502    0 -0.00000000000E+00 -0.00000000000E+00 -0.51204134334E+03  0.51204134334E+03  0.00000000000E+00 0. -1.
         24    2    1    2    0    0 -0.23219618710E+02  0.10302036508E+02  0.44218971371E+03  0.45009007502E+03  0.80025308942E+02 0.  0.
         25    2    1    2    0    0  0.85337564926E+01 -0.86968092320E+02 -0.14468574439E+03  0.21022758359E+03  0.12500159276E+03 0.  0.
         24    2    1    2    0    0 -0.67539983370E+02 -0.76299921254E+01  0.66393833606E+03  0.67221448853E+03  0.80239257013E+02 0.  0.
        -11    1    5    5    0    0  0.13590647356E+02 -0.11572245575E+02  0.23335827558E+03  0.23403996955E+03  0.00000000000E+00 0.  1.
         12    1    5    5    0    0 -0.81130630727E+02  0.39422534496E+01  0.43058006048E+03  0.43817451899E+03  0.00000000000E+00 0. -1.
        -13    1    3    3    0    0 -0.63459086558E+01  0.30052603177E+02  0.39525064410E+03  0.39644230497E+03  0.00000000000E+00 0.  1.
         14    1    3    3    0    0 -0.16873710055E+02 -0.19750566669E+02  0.46939069615E+02  0.53647770048E+02  0.00000000000E+00 0. -1.
          5    1    4    4  501    0  0.33211610374E+02 -0.21177119196E+01  0.72669005531E+01  0.34385950781E+02  0.47000000000E+01 0. -1.
         -5    1    4    4    0  501 -0.24677853882E+02 -0.84850380400E+02 -0.15195264494E+03  0.17584163281E+03  0.47000000000E+01 0. -1.
          1    1    1    2  502    0  0.27125226687E+02  0.19469737281E+02 -0.32429509349E+03  0.32600944197E+03  0.00000000000E+00 0. -1.
          1    1    1    2  503    0  0.55100618901E+02  0.64826310656E+02  0.13449533694E+04  0.13476416789E+04  0.00000000000E+00 0. -1.
<mgrwt>
<rscale>  0 0.52709331E+02</rscale>
<asrwt>0</asrwt>
<pdfrwt beam="1">  1        2 0.36678557E+00 0.83208379E+02</pdfrwt>
<pdfrwt beam="2">  1        2 0.75300199E-01 0.33389348E+02</pdfrwt>
<totfact> 0.54850710E+01</totfact>
</mgrwt>
</event>
<event>
13    1  0.1675423E-008  0.9474456E+02  0.7546771E-02  0.1456454E+00
          2   -1    0    0  503    0  0.00000000000E+00  0.00000000000E+00  0.13637626190E+04  0.13637626190E+04  0.00000000000E+00 0. -1.
         -1   -1    0    0    0  501 -0.00000000000E+00 -0.00000000000E+00 -0.15499868772E+04  0.15499868772E+04  0.00000000000E+00 0.  1.
         24    2    1    2    0    0 -0.84535415904E+02 -0.13362196036E+03  0.27068488765E+03  0.32374784726E+03  0.80878275016E+02 0.  0.
         25    2    1    2    0    0  0.56040736977E+02  0.20562551903E+03 -0.56868303125E+03  0.62003888086E+03  0.12500162189E+03 0.  0.
         24    2    1    2    0    0 -0.40654118311E+02 -0.51865283006E+02 -0.21674647008E+02  0.10616077471E+03  0.80358912685E+02 0.  0.
        -13    1    3    3    0    0 -0.35726884318E+02 -0.12240662136E+03  0.19566962916E+03  0.23355169662E+03  0.00000000000E+00 0.  1.
         14    1    3    3    0    0 -0.48808531586E+02 -0.11215338999E+02  0.75015258486E+02  0.90196150640E+02  0.00000000000E+00 0. -1.
        -13    1    5    5    0    0 -0.45811605526E+02 -0.57068075583E+02 -0.42124036482E+02  0.84438752367E+02  0.00000000000E+00 0.  1.
         14    1    5    5    0    0  0.51574872146E+01  0.52027925773E+01  0.20449389474E+02  0.21722022347E+02  0.00000000000E+00 0. -1.
          5    1    4    4  502    0  0.14983464079E+02  0.21729553728E+02 -0.71929231693E+01  0.27757987044E+02  0.47000000000E+01 0. -1.
         -5    1    4    4    0  502  0.41057272898E+02  0.18389596530E+03 -0.56149010808E+03  0.59228089381E+03  0.47000000000E+01 0. -1.
          1    1    1    2  503    0 -0.24157054590E+02 -0.27672651757E+01  0.99587356125E+03  0.99617035242E+03  0.00000000000E+00 0. -1.
         -2    1    1    2    0  501  0.93305851828E+02 -0.17371010483E+02 -0.86242502884E+03  0.86763164094E+03  0.00000000000E+00 0.  1.
<mgrwt>
<rscale>  0 0.47997057E+02</rscale>
<asrwt>0</asrwt>
<pdfrwt beam="1">  1        2 0.20055333E+00 0.24315037E+02</pdfrwt>
<pdfrwt beam="2">  1       -1 0.22793925E+00 0.94744558E+02</pdfrwt>
<totfact> 0.29141037E+00</totfact>
</mgrwt>
</event>
<event>
13    1  0.1675423E-008  0.1634273E+03  0.7546771E-02  0.1290904E+00
          2   -1    0    0  503    0  0.00000000000E+00  0.00000000000E+00  0.13191342508E+04  0.13191342508E+04  0.00000000000E+00 0. -1.
          2   -1    0    0  502    0 -0.00000000000E+00 -0.00000000000E+00 -0.15998014797E+04  0.15998014797E+04  0.00000000000E+00 0. -1.
         24    2    1    2    0    0 -0.12728816023E+03 -0.30142332260E+02  0.57375527196E+02  0.16432771799E+03  0.81245380484E+02 0.  0.
         25    2    1    2    0    0  0.35676532918E+03  0.15388801382E+03 -0.81635326562E+02  0.41623062657E+03  0.12498234697E+03 0.  0.
         24    2    1    2    0    0 -0.94139139506E+02 -0.19369195958E+02 -0.33777359780E+03  0.36041448073E+03  0.81057086121E+02 0.  0.
        -11    1    5    5    0    0 -0.88268718371E+01  0.25206992087E+02 -0.46210786348E+02  0.53373616061E+02  0.00000000000E+00 0.  1.
         12    1    5    5    0    0 -0.85312267668E+02 -0.44576188045E+02 -0.29156281145E+03  0.30704086467E+03  0.00000000000E+00 0. -1.
        -11    1    3    3    0    0 -0.12484716751E+03 -0.49165047902E+02  0.54955372778E+02  0.14499693158E+03  0.00000000000E+00 0.  1.
         12    1    3    3    0    0 -0.24409927200E+01  0.19022715642E+02  0.24201544183E+01  0.19330786410E+02  0.00000000000E+00 0. -1.
          5    1    4    4  501    0  0.61616091711E+02  0.10059271370E+02  0.29980630248E+02  0.69416567823E+02  0.47000000000E+01 0.  1.
         -5    1    4    4    0  501  0.29514923747E+03  0.14382874245E+03 -0.11161595681E+03  0.34681405875E+03  0.47000000000E+01 0.  1.
          1    1    1    2  502    0 -0.80241901305E+02 -0.98938373526E+02 -0.94326960003E+03  0.95183249725E+03  0.00000000000E+00 0. -1.
          1    1    1    2  503    0 -0.55096128139E+02 -0.54381120725E+01  0.10246357684E+04  0.10261304080E+04  0.00000000000E+00 0. -1.
<mgrwt>
<rscale>  0 0.95120790E+02</rscale>
<asrwt>0</asrwt>
<pdfrwt beam="1">  1        2 0.19399033E+00 0.55363855E+02</pdfrwt>
<pdfrwt beam="2">  1        2 0.23526492E+00 0.16342729E+03</pdfrwt>
<totfact> 0.44042377E+01</totfact>
</mgrwt>
</event>
<event>
13    1  0.1675423E-008  0.7920400E+02  0.7546771E-02  0.1465225E+00
          2   -1    0    0  502    0  0.00000000000E+00  0.00000000000E+00  0.10408363720E+04  0.10408363720E+04  0.00000000000E+00 0. -1.
          2   -1    0    0  503    0 -0.00000000000E+00 -0.00000000000E+00 -0.84857325346E+03  0.84857325346E+03  0.00000000000E+00 0. -1.
         24    2    1    2    0    0  0.96296590954E+02 -0.33437897087E+02  0.11294971667E+03  0.17184069179E+03  0.79877772047E+02 0.  0.
         25    2    1    2    0    0  0.29905022121E+02  0.25887968765E+02 -0.11155634618E+03  0.17210913997E+03  0.12494895123E+03 0.  0.
         24    2    1    2    0    0 -0.37096496321E+02 -0.69635962587E+01  0.74226683603E+02  0.11857652813E+03  0.84416531282E+02 0.  0.
        -11    1    3    3    0    0  0.13877507316E+02 -0.43879736306E+02  0.46874615047E+02  0.65690532068E+02  0.00000000000E+00 0.  1.
         12    1    3    3    0    0  0.82419083638E+02  0.10441839219E+02  0.66075101627E+02  0.10615015972E+03  0.00000000000E+00 0. -1.
        -13    1    5    5    0    0 -0.45015533784E+01 -0.23750781011E+02  0.78055696592E+02  0.81713250773E+02  0.00000000000E+00 0.  1.
         14    1    5    5    0    0 -0.32594942943E+02  0.16787184752E+02 -0.38290129894E+01  0.36863277361E+02  0.00000000000E+00 0. -1.
          5    1    4    4  501    0  0.68890377514E+02 -0.17624928434E+02 -0.49626953720E+02  0.86841503625E+02  0.47000000000E+01 0.  1.
         -5    1    4    4    0  501 -0.38985355393E+02  0.43512897198E+02 -0.61929392463E+02  0.85267636349E+02  0.47000000000E+01 0.  1.
          1    1    1    2  502    0 -0.78415470521E+02 -0.10598656383E+02  0.76944902413E+03  0.77350702535E+03  0.00000000000E+00 0. -1.
          1    1    1    2  503    0 -0.10689646232E+02  0.25112180965E+02 -0.65280595973E+03  0.65337624017E+03  0.00000000000E+00 0. -1.
<mgrwt>
<rscale>  0 0.46493968E+02</rscale>
<asrwt>0</asrwt>
<pdfrwt beam="1">  1        2 0.15306417E+00 0.79203999E+02</pdfrwt>
<pdfrwt beam="2">  1        2 0.12479018E+00 0.27292676E+02</pdfrwt>
<totfact> 0.16706949E+02</totfact>
</mgrwt>
</event>
<event>
13    1  0.1675423E-008  0.1663426E+03  0.7546771E-02  0.1370851E+00
          2   -1    0    0  503    0  0.00000000000E+00  0.00000000000E+00  0.25661303569E+04  0.25661303569E+04  0.00000000000E+00 0. -1.
          2   -1    0    0  502    0 -0.00000000000E+00 -0.00000000000E+00 -0.35456245519E+03  0.35456245519E+03  0.00000000000E+00 0. -1.
         24    2    1    2    0    0  0.65892985659E+02 -0.83583829273E+02  0.45585594977E+03  0.47615651312E+03  0.87133437753E+02 0.  0.
         25    2    1    2    0    0  0.69816367436E+02  0.87427644048E+02  0.83016594515E+03  0.84695048859E+03  0.12502685924E+03 0.  0.
         24    2    1    2    0    0  0.13627291461E+03  0.41237332412E+01 -0.22528140027E+03  0.27562293781E+03  0.81418561191E+02 0.  0.
        -11    1    5    5    0    0  0.83742337116E+02  0.40214096083E+02 -0.11075139116E+03  0.14455387644E+03  0.00000000000E+00 0.  1.
         12    1    5    5    0    0  0.52530577496E+02 -0.36090362842E+02 -0.11453000911E+03  0.13106906137E+03  0.00000000000E+00 0. -1.
        -11    1    3    3    0    0  0.59784362622E+02 -0.65714183395E+01  0.21073302136E+03  0.21914780365E+03  0.00000000000E+00 0.  1.
         12    1    3    3    0    0  0.61086230376E+01 -0.77012410934E+02  0.24512292841E+03  0.25700870947E+03  0.00000000000E+00 0. -1.
          5    1    4    4  501    0  0.65348743636E+02  0.56067203385E+02  0.22532190931E+03  0.24125928460E+03  0.47000000000E+01 0. -1.
         -5    1    4    4    0  501  0.44676238001E+01  0.31360440663E+02  0.60484403584E+03  0.60569120399E+03  0.47000000000E+01 0. -1.
          1    1    1    2  502    0 -0.29890769553E+03 -0.74147833056E+01  0.17638634146E+03  0.34714972406E+03  0.00000000000E+00 0. -1.
          1    1    1    2  503    0  0.26925427820E+02 -0.55276471034E+00  0.97444106558E+03  0.97481314851E+03  0.00000000000E+00 0. -1.
<mgrwt>
<rscale>  0 0.66931227E+02</rscale>
<asrwt>0</asrwt>
<pdfrwt beam="1">  1        2 0.37737210E+00 0.26931101E+02</pdfrwt>
<pdfrwt beam="2">  1        2 0.52141539E-01 0.16634259E+03</pdfrwt>
<totfact> 0.87018021E+01</totfact>
</mgrwt>
</event>
<event>
13    1  0.1675423E-008  0.1200633E+03  0.7546771E-02  0.1325648E+00
          2   -1    0    0  503    0  0.00000000000E+00  0.00000000000E+00  0.87926598368E+03  0.87926598368E+03  0.00000000000E+00 0. -1.
          2   -1    0    0  502    0 -0.00000000000E+00 -0.00000000000E+00 -0.25449196013E+04  0.25449196013E+04  0.00000000000E+00 0. -1.
         24    2    1    2    0    0 -0.12305134199E+02 -0.18302587735E+02  0.36020292414E+02  0.92711892547E+02  0.82532614818E+02 0.  0.
         25    2    1    2    0    0  0.36506849985E+02  0.79492590568E+01 -0.13545548677E+04  0.13608220828E+04  0.12498764196E+03 0.  0.
         24    2    1    2    0    0  0.71106941225E+02  0.55438893902E+02 -0.44459186318E+02  0.12610848866E+03  0.76138450311E+02 0.  0.
        -11    1    5    5    0    0  0.62898306668E+01  0.42171374667E+02 -0.42078202252E+02  0.59904606800E+02  0.00000000000E+00 0.  1.
         12    1    5    5    0    0  0.64817110558E+02  0.13267519235E+02 -0.23809840664E+01  0.66203881857E+02  0.00000000000E+00 0. -1.
        -11    1    3    3    0    0 -0.31980165660E+02 -0.39219123126E+02  0.38932879166E+02  0.63848568461E+02  0.00000000000E+00 0.  1.
         12    1    3    3    0    0  0.19675031461E+02  0.20916535390E+02 -0.29125867522E+01  0.28863324086E+02  0.00000000000E+00 0. -1.
          5    1    4    4  501    0  0.54297655042E+02 -0.30534277530E+02 -0.36198951006E+03  0.36734054070E+03  0.47000000000E+01 0. -1.
         -5    1    4    4    0  501 -0.17790805056E+02  0.38483536587E+02 -0.99256535765E+03  0.99348154212E+03  0.47000000000E+01 0. -1.
          1    1    1    2  502    0  0.25686896725E+02  0.48556207954E+02 -0.10652958963E+04  0.10667112396E+04  0.00000000000E+00 0. -1.
          1    1    1    2  503    0 -0.12099555374E+03 -0.93641773178E+02  0.76263604030E+03  0.77783188136E+03  0.00000000000E+00 0. -1.
<mgrwt>
<rscale>  0 0.81211547E+02</rscale>
<asrwt>0</asrwt>
<pdfrwt beam="1">  1        2 0.12930382E+00 0.12006332E+03</pdfrwt>
<pdfrwt beam="2">  1        2 0.37425288E+00 0.54931976E+02</pdfrwt>
<totfact> 0.28868288E+01</totfact>
</mgrwt>
</event>
<event>
13    1  0.1675423E-008  0.1519263E+03  0.7546771E-02  0.1338691E+00
          2   -1    0    0  503    0  0.00000000000E+00  0.00000000000E+00  0.21178102086E+04  0.21178102086E+04  0.00000000000E+00 0. -1.
          2   -1    0    0  502    0 -0.00000000000E+00 -0.00000000000E+00 -0.11176055765E+04  0.11176055765E+04  0.00000000000E+00 0. -1.
         24    2    1    2    0    0  0.11597161893E+03 -0.19276298734E+03  0.66861205923E+03  0.70969303943E+03  0.77557325796E+02 0.  0.
         25    2    1    2    0    0 -0.32487385908E+02 -0.44434279906E+02 -0.14958490495E+03  0.20255989004E+03  0.12500011916E+03 0.  0.
         24    2    1    2    0    0  0.12863383847E+02  0.71943140801E+02  0.64309675478E+03  0.65215432719E+03  0.79940905100E+02 0.  0.
        -11    1    5    5    0    0  0.38607247582E+02  0.68983451048E+02  0.40432423831E+03  0.41197976378E+03  0.00000000000E+00 0.  1.
         12    1    5    5    0    0 -0.25743863735E+02  0.29596897527E+01  0.23877251647E+03  0.24017456341E+03  0.00000000000E+00 0. -1.
        -13    1    3    3    0    0  0.92790911686E+01 -0.55163527028E+02  0.25247697867E+03  0.25859957657E+03  0.00000000000E+00 0.  1.
         14    1    3    3    0    0  0.10669252776E+03 -0.13759946032E+03  0.41613508056E+03  0.45109346286E+03  0.00000000000E+00 0. -1.
          5    1    4    4  501    0 -0.39061507535E+02 -0.66988855718E+02 -0.15888375162E+03  0.17685995785E+03  0.47000000000E+01 0.  1.
         -5    1    4    4    0  501  0.65741216271E+01  0.22554575812E+02  0.92988466726E+01  0.25699932192E+02  0.47000000000E+01 0.  1.
          1    1    1    2  502    0  0.35396253407E+02  0.15695796735E+02 -0.90288009333E+03  0.90370997324E+03  0.00000000000E+00 0. -1.
          1    1    1    2  503    0 -0.13174387028E+03  0.14955832971E+03  0.74096081642E+03  0.76729855520E+03  0.00000000000E+00 0. -1.
<mgrwt>
<rscale>  0 0.76698199E+02</rscale>
<asrwt>0</asrwt>
<pdfrwt beam="1">  1        2 0.31144268E+00 0.15192628E+03</pdfrwt>
<pdfrwt beam="2">  1        2 0.16435376E+00 0.38720186E+02</pdfrwt>
<totfact> 0.31886748E+01</totfact>
</mgrwt>
</event>
<event>
13    1  0.1675423E-008  0.1211679E+03  0.7546771E-02  0.1245479E+00
          2   -1    0    0  502    0  0.00000000000E+00  0.00000000000E+00  0.14262428391E+04  0.14262428391E+04  0.00000000000E+00 0. -1.
          2   -1    0    0  503    0 -0.00000000000E+00 -0.00000000000E+00 -0.90987210745E+03  0.90987210745E+03  0.00000000000E+00 0. -1.
         24    2    1    2    0    0 -0.31387863670E+02 -0.13992323097E+01  0.45945058172E+03  0.46731655561E+03  0.79389988465E+02 0.  0.
         25    2    1    2    0    0 -0.19378774185E+03  0.38675794751E+03 -0.20094593042E+03  0.49309296045E+03  0.12500400727E+03 0.  0.
         24    2    1    2    0    0  0.90157767540E+02 -0.18202638932E+03  0.30269540406E+03  0.37335834286E+03  0.80684044779E+02 0.  0.
        -11    1    3    3    0    0  0.26617087698E+02  0.47176875357E+01  0.15054055149E+03  0.15294830361E+03  0.00000000000E+00 0.  1.
         12    1    3    3    0    0 -0.58004951368E+02 -0.61169198454E+01  0.30891003023E+03  0.31436825201E+03  0.00000000000E+00 0. -1.
        -11    1    5    5    0    0  0.87933423837E+02 -0.90131870403E+02  0.18982744174E+03  0.22779486106E+03  0.00000000000E+00 0.  1.
         12    1    5    5    0    0  0.22243437035E+01 -0.91894518919E+02  0.11286796232E+03  0.14556348179E+03  0.00000000000E+00 0. -1.
          5    1    4    4  501    0 -0.16487718064E+03  0.26661032259E+03 -0.19516290908E+03  0.36929148364E+03  0.47000000000E+01 0. -1.
         -5    1    4    4    0  501 -0.28910561211E+02  0.12014762492E+03 -0.57830213396E+01  0.12380147680E+03  0.47000000000E+01 0. -1.
          1    1    1    2  502    0  0.14667472213E+03 -0.82759900234E+02  0.45650836688E+03  0.48658253589E+03  0.00000000000E+00 0. -1.
          1    1    1    2  503    0 -0.11656884148E+02 -0.12057242565E+03 -0.50133769063E+03  0.51576455172E+03  0.00000000000E+00 0. -1.
<mgrwt>
<rscale>  0 0.11856740E+03</rscale>
<asrwt>0</asrwt>
<pdfrwt beam="1">  1        2 0.20974159E+00 0.11602272E+03</pdfrwt>
<pdfrwt beam="2">  1        2 0.13380472E+00 0.12116789E+03</pdfrwt>
<totfact> 0.88419143E+01</totfact>
</mgrwt>
</event>
<event>
13    1  0.1675423E-008  0.2309410E+03  0.7546771E-02  0.1210283E+00
          2   -1    0    0  502    0  0.00000000000E+00  0.00000000000E+00  0.15776827684E+04  0.15776827684E+04  0.00000000000E+00 0. -1.
          4   -1    0    0  503    0 -0.00000000000E+00 -0.00000000000E+00 -0.18962420356E+04  0.18962420356E+04  0.00000000000E+00 0. -1.
         24    2    1    2    0    0  0.70831703779E+00  0.49389702308E+02  0.18989805442E+03  0.21271222313E+03  0.82130228219E+02 0.  0.
         25    2    1    2    0    0 -0.15164070206E+03 -0.15599437409E+02  0.26339633385E+02  0.19889339856E+03  0.12500625078E+03 0.  0.
         24    2    1    2    0    0  0.11684087373E+03  0.16630611814E+03 -0.56655188011E+03  0.60782443225E+03  0.84616741114E+02 0.  0.
        -11    1    5    5    0    0 -0.10893412877E+02  0.27862161238E+02 -0.53665061132E+02  0.61440257643E+02  0.00000000000E+00 0.  1.
         12    1    5    5    0    0  0.12773428660E+03  0.13844395690E+03 -0.51288681898E+03  0.54638417460E+03  0.00000000000E+00 0. -1.
        -13    1    3    3    0    0  0.39157392807E+02  0.11707414041E+02  0.66095206596E+02  0.77710625335E+02  0.00000000000E+00 0.  1.
         14    1    3    3    0    0 -0.38449075770E+02  0.37682288267E+02  0.12380284783E+03  0.13500159779E+03  0.00000000000E+00 0. -1.
          5    1    4    4  501    0 -0.15203501303E+03  0.17211634327E+01  0.57753733793E+02  0.16271198898E+03  0.47000000000E+01 0. -1.
         -5    1    4    4    0  501  0.39431096851E+00 -0.17320600841E+02 -0.31414100408E+02  0.36181409579E+02  0.47000000000E+01 0. -1.
          1    1    1    2  502    0  0.65034638063E+02  0.58787682264E+02  0.12275141963E+04  0.12306407265E+04  0.00000000000E+00 0. -1.
          3    1    1    2  503    0 -0.30943126769E+02 -0.25888406530E+03 -0.11957592712E+04  0.12238540236E+04  0.00000000000E+00 0. -1.
<mgrwt>
<rscale>  0 0.14228808E+03</rscale>
<asrwt>0</asrwt>
<pdfrwt beam="1">  1        2 0.23201217E+00 0.87666959E+02</pdfrwt>
<pdfrwt beam="2">  1        4 0.27885912E+00 0.23094104E+03</pdfrwt>
<totfact> 0.37846303E-01</totfact>
</mgrwt>
</event>
<event>
13    1  0.3863676E-008  0.1852180E+04  0.7546771E-02  0.1070523E+00
          2   -1    0    0  503    0  0.00000000000E+00  0.00000000000E+00  0.38004702736E+04  0.38004702736E+04  0.00000000000E+00 0. -1.
          2   -1    0    0  502    0 -0.00000000000E+00 -0.00000000000E+00 -0.14645710941E+04  0.14645710941E+04  0.00000000000E+00 0. -1.
         24    2    1    2    0    0  0.22574217764E+03  0.46029338786E+02  0.33601855314E+04  0.33690126044E+04  0.79504039430E+02 0.  0.
         25    2    1    2    0    0 -0.25159790756E+03  0.12715900283E+03 -0.14360816730E+03  0.34017716138E+03  0.12500510515E+03 0.  0.
         24    2    1    2    0    0  0.41663948748E+02  0.34437409515E+02 -0.14718935505E+03  0.17595140333E+03  0.79827127553E+02 0.  0.
        -11    1    3    3    0    0  0.40889631559E+02  0.48541121131E+01  0.28011331413E+03  0.28312363576E+03  0.00000000000E+00 0.  1.
         12    1    3    3    0    0  0.18485254609E+03  0.41175226673E+02  0.30800722172E+04  0.30858889686E+04  0.00000000000E+00 0. -1.
        -13    1    5    5    0    0  0.45160186600E+02  0.57267949518E+02 -0.11814942433E+03  0.13884648705E+03  0.00000000000E+00 0.  1.
         14    1    5    5    0    0 -0.34962378521E+01 -0.22830540003E+02 -0.29039930726E+02  0.37104916285E+02  0.00000000000E+00 0. -1.
          5    1    4    4  501    0 -0.19225195821E+01  0.42831735622E+02 -0.33127177261E+02  0.54385232657E+02  0.47000000000E+01 0.  1.
         -5    1    4    4    0  501 -0.24967538798E+03  0.84327267213E+02 -0.11048099004E+03  0.28579192872E+03  0.47000000000E+01 0.  1.
          1    1    1    2  502    0  0.57596986933E+02  0.14076830507E+02 -0.10135276621E+04  0.10152605044E+04  0.00000000000E+00 0. -1.
          1    1    1    2  503    0 -0.73405205761E+02 -0.22170258164E+03  0.28003883252E+03  0.36463969430E+03  0.00000000000E+00 0. -1.
<mgrwt>
<rscale>  0 0.33139085E+03</rscale>
<asrwt>0</asrwt>
<pdfrwt beam="1">  1        2 0.55889269E+00 0.18521798E+04</pdfrwt>
<pdfrwt beam="2">  1        2 0.21537810E+00 0.59292243E+02</pdfrwt>
<totfact> 0.16572815E+00</totfact>
</mgrwt>
</event>
<event>
13    1  0.1675423E-008  0.1019308E+03  0.7546771E-02  0.1328920E+00
          2   -1    0    0  503    0  0.00000000000E+00  0.00000000000E+00  0.21672215185E+04  0.21672215185E+04  0.00000000000E+00 0. -1.
          2   -1    0    0  502    0 -0.00000000000E+00 -0.00000000000E+00 -0.11442961205E+04  0.11442961205E+04  0.00000000000E+00 0. -1.
         24    2    1    2    0    0  0.10768075047E+03 -0.20908980494E+02  0.10265864352E+04  0.10355539764E+04  0.80374123632E+02 0.  0.
         25    2    1    2    0    0 -0.56252537261E+02  0.23092250066E+00 -0.84875959416E+02  0.16122348797E+03  0.12499873324E+03 0.  0.
         24    2    1    2    0    0 -0.13924663124E+03  0.19562928035E+02  0.28489659951E+03  0.32353701102E+03  0.61137489486E+02 0.  0.
        -11    1    5    5    0    0 -0.96863797400E+02 -0.14312317242E+02  0.16368340131E+03  0.19073461547E+03  0.00000000000E+00 0.  1.
         12    1    5    5    0    0 -0.42382833835E+02  0.33875245276E+02  0.12121319820E+03  0.13280239555E+03  0.00000000000E+00 0. -1.
        -13    1    3    3    0    0 -0.88561589501E+01 -0.17122505450E+01  0.23811470406E+03  0.23828549189E+03  0.00000000000E+00 0.  1.
         14    1    3    3    0    0  0.11653690942E+03 -0.19196729949E+02  0.78847173112E+03  0.79726848456E+03  0.00000000000E+00 0. -1.
          5    1    4    4  501    0 -0.72985982696E+02  0.32798036107E+02 -0.93661915154E+02  0.12327736691E+03  0.47000000000E+01 0. -1.
         -5    1    4    4    0  501  0.16733445435E+02 -0.32567113607E+02  0.87859557377E+01  0.37946121054E+02  0.47000000000E+01 0. -1.
          1    1    1    2  502    0  0.56207625368E+01  0.62608536796E+02 -0.99312558443E+03  0.99511298268E+03  0.00000000000E+00 0. -1.
          1    1    1    2  503    0  0.82197655485E+02 -0.61493406837E+02  0.78944390708E+03  0.79609018087E+03  0.00000000000E+00 0. -1.
<mgrwt>
<rscale>  0 0.80046264E+02</rscale>
<asrwt>0</asrwt>
<pdfrwt beam="1">  1        2 0.31870904E+00 0.10193080E+03</pdfrwt>
<pdfrwt beam="2">  1        2 0.16827884E+00 0.62860336E+02</pdfrwt>
<totfact> 0.29640029E+01</totfact>
</mgrwt>
</event>
<event>
13    1  0.1675423E-008  0.5277050E+02  0.7546771E-02  0.1563129E+00
          2   -1    0    0  502    0  0.00000000000E+00  0.00000000000E+00  0.29689068565E+04  0.29689068565E+04  0.00000000000E+00 0. -1.
          2   -1    0    0  503    0 -0.00000000000E+00 -0.00000000000E+00 -0.11331071135E+04  0.11331071135E+04  0.00000000000E+00 0. -1.
         24    2    1    2    0    0 -0.30776334793E+03  0.64176076674E+03  0.76869991186E+03  0.10517357514E+04  0.93130962224E+02 0.  0.
         25    2    1    2    0    0  0.55070166464E+03 -0.74926137774E+03  0.33688412404E+03  0.99688565448E+03  0.12500063789E+03 0.  0.
         24    2    1    2    0    0 -0.24340003984E+03  0.16292113165E+03 -0.76415370627E+02  0.31347981070E+03  0.81507105915E+02 0.  0.
        -11    1    3    3    0    0 -0.17670489711E+03  0.33245064490E+03  0.34172533684E+03  0.50845280784E+03  0.00000000000E+00 0.  1.
         12    1    3    3    0    0 -0.13105845082E+03  0.30931012184E+03  0.42697457501E+03  0.54328294351E+03  0.00000000000E+00 0. -1.
        -11    1    5    5    0    0 -0.73549960529E+02  0.80719211179E+02 -0.58633190752E+02  0.12394772610E+03  0.00000000000E+00 0.  1.
         12    1    5    5    0    0 -0.16985007931E+03  0.82201920467E+02 -0.17782179875E+02  0.18953208460E+03  0.00000000000E+00 0. -1.
          5    1    4    4  501    0  0.36122199716E+03 -0.40055859228E+03  0.22575055735E+03  0.58473406026E+03  0.47000000000E+01 0. -1.
         -5    1    4    4    0  501  0.18947966748E+03 -0.34870278547E+03  0.11113356669E+03  0.41215159423E+03  0.47000000000E+01 0. -1.
          1    1    1    2  502    0  0.20502126020E+02 -0.48626332702E+02  0.12724848446E+04  0.12735786341E+04  0.00000000000E+00 0. -1.
          1    1    1    2  503    0 -0.20040402886E+02 -0.67941879407E+01 -0.46585376695E+03  0.46633411941E+03  0.00000000000E+00 0. -1.
<mgrwt>
<rscale>  0 0.33416539E+02</rscale>
<asrwt>0</asrwt>
<pdfrwt beam="1">  1        2 0.43660395E+00 0.52770500E+02</pdfrwt>
<pdfrwt beam="2">  1        2 0.16663340E+00 0.21160783E+02</pdfrwt>
<totfact> 0.14067619E+01</totfact>
</mgrwt>
</event>
<event>
13    1  0.1675423E-008  0.1148502E+03  0.7546771E-02  0.1434348E+00
          2   -1    0    0  503    0  0.00000000000E+00  0.00000000000E+00  0.17435571981E+04  0.17435571981E+04  0.00000000000E+00 0. -1.
          2   -1    0    0  502    0 -0.00000000000E+00 -0.00000000000E+00 -0.21531107736E+04  0.21531107736E+04  0.00000000000E+00 0. -1.
         24    2    1    2    0    0  0.25995855825E+02 -0.52721740735E+02  0.33350008531E+02  0.10475998577E+03  0.80044144587E+02 0.  0.
         25    2    1    2    0    0  0.89404633485E+02 -0.44617382559E+02  0.55675809732E+02  0.16943300680E+03  0.12499539467E+03 0.  0.
         24    2    1    2    0    0 -0.14755220417E+03 -0.35691658773E+02 -0.34095093944E+03  0.38638787775E+03  0.10001250675E+03 0.  0.
        -11    1    3    3    0    0  0.39789210213E+01  0.21415797695E+02  0.46816955145E+01  0.22279732410E+02  0.00000000000E+00 0.  1.
         12    1    3    3    0    0  0.22016934804E+02 -0.74137538430E+02  0.28668313017E+02  0.82480253357E+02  0.00000000000E+00 0. -1.
        -13    1    5    5    0    0 -0.13204541328E+03 -0.38925817734E+02 -0.19011838842E+03  0.23472582318E+03  0.00000000000E+00 0.  1.
         14    1    5    5    0    0 -0.15506790893E+02  0.32341589612E+01 -0.15083255103E+03  0.15166205457E+03  0.00000000000E+00 0. -1.
          5    1    4    4  501    0  0.11459681327E+03 -0.42429821990E+02  0.69056240138E+02  0.14044064123E+03  0.47000000000E+01 0. -1.
         -5    1    4    4    0  501 -0.25192179785E+02 -0.21875605697E+01 -0.13380430406E+02  0.28992365571E+02  0.47000000000E+01 0. -1.
          1    1    1    2  502    0  0.18514886402E+02  0.11373073349E+03 -0.16948106676E+04  0.16987232499E+04  0.00000000000E+00 0. -1.
          1    1    1    2  503    0  0.13636828460E+02  0.19300048575E+02  0.15371822133E+04  0.15373638514E+04  0.00000000000E+00 0. -1.
<mgrwt>
<rscale>  0 0.52097031E+02</rscale>
<asrwt>0</asrwt>
<pdfrwt beam="1">  1        2 0.25640547E+00 0.23631652E+02</pdfrwt>
<pdfrwt beam="2">  1        2 0.31663393E+00 0.11485023E+03</pdfrwt>
<totfact> 0.16633588E+01</totfact>
</mgrwt>
</event>
<event>
13    1  0.1675423E-008  0.1964043E+03  0.7546771E-02  0.1203363E+00
          2   -1    0    0  503    0  0.00000000000E+00  0.00000000000E+00  0.60603351066E+03  0.60603351066E+03  0.00000000000E+00 0. -1.
          2   -1    0    0  502    0 -0.00000000000E+00 -0.00000000000E+00 -0.21653885252E+04  0.21653885252E+04  0.00000000000E+00 0. -1.
         24    2    1    2    0    0 -0.14578745709E+03  0.16183402414E+03  0.12023217337E+03  0.26214129604E+03  0.82571481519E+02 0.  0.
         25    2    1    2    0    0  0.57998928098E+02  0.13897797436E+03 -0.47182772707E+03  0.51080828655E+03  0.12499979425E+03 0.  0.
         24    2    1    2    0    0  0.16188332652E+03 -0.14535019282E+02 -0.64176289817E+02  0.19253024622E+03  0.80819684145E+02 0.  0.
        -11    1    3    3    0    0 -0.94715389692E+02  0.66910089876E+02  0.25719675324E+02  0.11878327690E+03  0.00000000000E+00 0.  1.
         12    1    3    3    0    0 -0.51072067402E+02  0.94923934266E+02  0.94512498051E+02  0.14335801914E+03  0.00000000000E+00 0. -1.
        -13    1    5    5    0    0  0.23826486817E+01  0.15784366418E+02 -0.17304637404E+02  0.23543018363E+02  0.00000000000E+00 0.  1.
         14    1    5    5    0    0  0.15950067783E+03 -0.30319385699E+02 -0.46871652413E+02  0.16898722786E+03  0.00000000000E+00 0. -1.
          5    1    4    4  501    0  0.87140199370E+02  0.57680930328E+02 -0.20232785997E+03  0.22776996507E+03  0.47000000000E+01 0.  1.
         -5    1    4    4    0  501 -0.29141271272E+02  0.81297044035E+02 -0.26949986710E+03  0.28303832148E+03  0.47000000000E+01 0.  1.
          1    1    1    2  502    0 -0.11444934137E+03 -0.18283814084E+03 -0.14572891650E+04  0.14731667075E+04  0.00000000000E+00 0. -1.
          1    1    1    2  503    0  0.40354543847E+02 -0.10343883838E+03  0.31370599396E+03  0.33277549961E+03  0.00000000000E+00 0. -1.
<mgrwt>
<rscale>  0 0.14767241E+03</rscale>
<asrwt>0</asrwt>
<pdfrwt beam="1">  1        2 0.89122577E-01 0.11103190E+03</pdfrwt>
<pdfrwt beam="2">  1        2 0.31843948E+00 0.19640428E+03</pdfrwt>
<totfact> 0.59094221E+01</totfact>
</mgrwt>
</event>
<event>
13    1  0.1675423E-008  0.4338563E+02  0.7546771E-02  0.1505303E+00
         -1   -1    0    0    0  501 -0.00000000000E+00  0.00000000000E+00  0.36228359308E+03  0.36228359308E+03  0.00000000000E+00 0.  1.
          2   -1    0    0  503    0  0.00000000000E+00 -0.00000000000E+00 -0.34495901411E+04  0.34495901411E+04  0.00000000000E+00 0. -1.
         24    2    1    2    0    0  0.26603052861E+03 -0.11318579814E+02 -0.16925611108E+04  0.17160450201E+04  0.95640184674E+02 0.  0.
         25    2    1    2    0    0 -0.11393150984E+03  0.42863672792E+02  0.16337967945E+03  0.23903017864E+03  0.12499929305E+03 0.  0.
         24    2    1    2    0    0 -0.14559714809E+03 -0.30168207285E+02 -0.11850635483E+03  0.20650657132E+03  0.80576408452E+02 0.  0.
        -11    1    5    5    0    0 -0.12074551635E+03 -0.22333310512E+02 -0.48881261824E+02  0.13216517784E+03  0.00000000000E+00 0.  1.
         12    1    5    5    0    0 -0.24851631743E+02 -0.78348967723E+01 -0.69625093004E+02  0.74341393473E+02  0.00000000000E+00 0. -1.
        -13    1    3    3    0    0  0.63432514628E+02 -0.17096890912E+02 -0.21995500169E+03  0.22955650799E+03  0.00000000000E+00 0.  1.
         14    1    3    3    0    0  0.20259801398E+03  0.57783110971E+01 -0.14726061091E+04  0.14864885122E+04  0.00000000000E+00 0. -1.
          5    1    4    4  502    0  0.21072677794E+02 -0.59883238211E+01  0.54048678034E+02  0.58508694813E+02  0.47000000000E+01 0. -1.
         -5    1    4    4    0  502 -0.13500418764E+03  0.48851996613E+02  0.10933100142E+03  0.18052148383E+03  0.47000000000E+01 0. -1.
          1    1    1    2  503    0  0.27756012068E+02  0.25388404405E+02 -0.15402303484E+04  0.15406896162E+04  0.00000000000E+00 0. -1.
         -2    1    1    2    0  501 -0.34257882736E+02 -0.26765290098E+02  0.10061158663E+03  0.10960234782E+03  0.00000000000E+00 0.  1.
<mgrwt>
<rscale>  0 0.40397972E+02</rscale>
<asrwt>0</asrwt>
<pdfrwt beam="2">  1        2 0.50729267E+00 0.37616051E+02</pdfrwt>
<pdfrwt beam="1">  1       -1 0.53276999E-01 0.43385632E+02</pdfrwt>
<totfact> 0.83609675E+00</totfact>
</mgrwt>
</event>
<event>
13    1  0.1675423E-008  0.1328380E+03  0.7546771E-02  0.1324772E+00
          2   -1    0    0  503    0  0.00000000000E+00  0.00000000000E+00  0.14505775672E+04  0.14505775672E+04  0.00000000000E+00 0. -1.
          2   -1    0    0  502    0 -0.00000000000E+00 -0.00000000000E+00 -0.33887002889E+04  0.33887002889E+04  0.00000000000E+00 0. -1.
         24    2    1    2    0    0  0.79926367438E+03  0.11178143088E+03 -0.57722330806E+03  0.99839291574E+03  0.11083391784E+03 0.  0.
         25    2    1    2    0    0 -0.59014901568E+02 -0.71138740403E+02  0.19077995821E+03  0.24609995324E+03  0.12499886213E+03 0.  0.
         24    2    1    2    0    0 -0.83014154425E+03  0.12595627882E+02 -0.35959469857E+03  0.90939362039E+03  0.91623011498E+02 0.  0.
        -11    1    5    5    0    0 -0.65568321362E+03  0.47193074090E+02 -0.27926788102E+03  0.71423960422E+03  0.00000000000E+00 0.  1.
         12    1    5    5    0    0 -0.17445833063E+03 -0.34597446208E+02 -0.80326817548E+02  0.19515401617E+03  0.00000000000E+00 0. -1.
        -13    1    3    3    0    0  0.53648378422E+03  0.41702774750E+02 -0.43218009426E+03  0.69016925897E+03  0.00000000000E+00 0.  1.
         14    1    3    3    0    0  0.26277989017E+03  0.70078656134E+02 -0.14504321379E+03  0.30822365677E+03  0.00000000000E+00 0. -1.
          5    1    4    4  501    0 -0.50678876252E+01 -0.93595018076E+02  0.93203327603E+02  0.13226738513E+03  0.47000000000E+01 0.  1.
         -5    1    4    4    0  501 -0.53947013943E+02  0.22456277673E+02  0.97576630609E+02  0.11383256811E+03  0.47000000000E+01 0.  1.
          1    1    1    2  502    0  0.13071106606E+03 -0.24298917109E+02 -0.19356168873E+04  0.19401774544E+04  0.00000000000E+00 0. -1.
          1    1    1    2  503    0 -0.40818294625E+02 -0.28939401253E+02  0.74353221393E+03  0.74521391243E+03  0.00000000000E+00 0. -1.
<mgrwt>
<rscale>  0 0.81527354E+02</rscale>
<asrwt>0</asrwt>
<pdfrwt beam="1">  1        2 0.21332023E+00 0.50036208E+02</pdfrwt>
<pdfrwt beam="2">  1        2 0.49833828E+00 0.13283799E+03</pdfrwt>
<totfact> 0.46789977E+00</totfact>
</mgrwt>
</event>
<event>
13    1  0.1675423E-008  0.2122653E+03  0.7546771E-02  0.1181539E+00
          2   -1    0    0  502    0  0.00000000000E+00  0.00000000000E+00  0.14899602818E+04  0.14899602818E+04  0.00000000000E+00 0. -1.
          2   -1    0    0  503    0 -0.00000000000E+00 -0.00000000000E+00 -0.38570661772E+04  0.38570661772E+04  0.00000000000E+00 0. -1.
         24    2    1    2    0    0  0.14871910183E+02  0.67965234849E+02  0.14369700352E+02  0.10584281703E+03  0.78458694665E+02 0.  0.
         25    2    1    2    0    0 -0.44028460291E+02 -0.43901945528E+03 -0.50603686639E+03  0.68291644566E+03  0.12499989670E+03 0.  0.
         24    2    1    2    0    0 -0.66814275642E+02  0.13082560029E+03 -0.38438258039E+03  0.41929902419E+03  0.80512225498E+02 0.  0.
        -13    1    3    3    0    0  0.46414440287E+02  0.38608148531E+02 -0.14669241618E+00  0.60373097641E+02  0.00000000000E+00 0.  1.
         14    1    3    3    0    0 -0.31542530104E+02  0.29357086318E+02  0.14516392768E+02  0.45469719390E+02  0.00000000000E+00 0. -1.
        -13    1    5    5    0    0 -0.47151307605E+02  0.15615888888E+02 -0.13617704722E+03  0.14495271638E+03  0.00000000000E+00 0.  1.
         14    1    5    5    0    0 -0.19662968037E+02  0.11520971140E+03 -0.24820553317E+03  0.27434630781E+03  0.00000000000E+00 0. -1.
          5    1    4    4  501    0  0.27371150038E+02 -0.15272304954E+03 -0.23866131927E+03  0.28470129089E+03  0.47000000000E+01 0.  1.
         -5    1    4    4    0  501 -0.71399610329E+02 -0.28629640574E+03 -0.26737554711E+03  0.39821515477E+03  0.47000000000E+01 0.  1.
          1    1    1    2  502    0  0.11403413189E+03  0.37959809255E+02  0.13175548927E+04  0.13230251795E+04  0.00000000000E+00 0. -1.
          1    1    1    2  503    0 -0.18063306138E+02  0.20226881089E+03 -0.28086110417E+04  0.28159429927E+04  0.00000000000E+00 0. -1.
<mgrwt>
<rscale>  0 0.16650816E+03</rscale>
<asrwt>0</asrwt>
<pdfrwt beam="1">  1        2 0.21911181E+00 0.13061467E+03</pdfrwt>
<pdfrwt beam="2">  1        2 0.56721561E+00 0.21226534E+03</pdfrwt>
<totfact> 0.19662191E+00</totfact>
</mgrwt>
</event>
<event>
13    1  0.1675423E-008  0.2023862E+03  0.7546771E-02  0.1164522E+00
          2   -1    0    0  502    0  0.00000000000E+00  0.00000000000E+00  0.21389698415E+04  0.21389698415E+04  0.00000000000E+00 0. -1.
          2   -1    0    0  503    0 -0.00000000000E+00 -0.00000000000E+00 -0.16590673264E+04  0.16590673264E+04  0.00000000000E+00 0. -1.
         24    2    1    2    0    0 -0.14833523291E+03  0.37845806609E+02  0.46906458108E+03  0.50091275151E+03  0.86350199775E+02 0.  0.
         25    2    1    2    0    0 -0.33823628095E+03 -0.29582369719E+03 -0.10046492423E+04  0.11076370918E+04  0.12499754157E+03 0.  0.
         24    2    1    2    0    0  0.92883896397E+02  0.44807487821E+01 -0.27051692968E+02  0.12471795402E+03  0.78582941163E+02 0.  0.
        -13    1    5    5    0    0  0.43090923914E+02  0.40277549409E+02 -0.22829266194E+02  0.63247799211E+02  0.00000000000E+00 0.  1.
         14    1    5    5    0    0  0.49792972483E+02 -0.35796800626E+02 -0.42224267746E+01  0.61470154804E+02  0.00000000000E+00 0. -1.
        -13    1    3    3    0    0 -0.26042113315E+02 -0.26233362535E+02  0.11887183072E+03  0.12448651781E+03  0.00000000000E+00 0.  1.
         14    1    3    3    0    0 -0.12229311960E+03  0.64079169144E+02  0.35019275035E+03  0.37642623370E+03  0.00000000000E+00 0. -1.
          5    1    4    4  501    0 -0.23451526663E+03 -0.27038048123E+03 -0.73357065410E+03  0.81624200423E+03  0.47000000000E+01 0.  1.
         -5    1    4    4    0  501 -0.10372101431E+03 -0.25443215955E+02 -0.27107858824E+03  0.29139508755E+03  0.47000000000E+01 0.  1.
          1    1    1    2  502    0  0.17035142682E+03  0.11911589657E+03  0.15128487694E+04  0.15270624102E+04  0.00000000000E+00 0. -1.
          1    1    1    2  503    0  0.22333619065E+03  0.13438124523E+03 -0.47030990009E+03  0.53770696039E+03  0.00000000000E+00 0. -1.
<mgrwt>
<rscale>  0 0.18343220E+03</rscale>
<asrwt>0</asrwt>
<pdfrwt beam="1">  1        2 0.31455439E+00 0.16625328E+03</pdfrwt>
<pdfrwt beam="2">  1        2 0.24398049E+00 0.20238622E+03</pdfrwt>
<totfact> 0.14613630E+01</totfact>
</mgrwt>
</event>
<event>
13    1  0.1675423E-008  0.1308526E+03  0.7546771E-02  0.1249545E+00
          2   -1    0    0  503    0  0.00000000000E+00  0.00000000000E+00  0.14511343000E+04  0.14511343000E+04  0.00000000000E+00 0. -1.
          2   -1    0    0  502    0 -0.00000000000E+00 -0.00000000000E+00 -0.20929790371E+04  0.20929790371E+04  0.00000000000E+00 0. -1.
         24    2    1    2    0    0  0.10219929822E+02 -0.63235732085E+02  0.22577231273E+03  0.24822565371E+03  0.80867998543E+02 0.  0.
         25    2    1    2    0    0  0.27356172918E+03 -0.68977513724E+02 -0.39195524710E+03  0.49884683431E+03  0.12500132519E+03 0.  0.
         24    2    1    2    0    0 -0.32916775135E+03  0.13380146875E+03 -0.30830360966E+03  0.47719307593E+03  0.80049199955E+02 0.  0.
        -11    1    3    3    0    0 -0.71191530597E+01  0.76108149984E+01  0.11577755404E+03  0.11624564019E+03  0.00000000000E+00 0.  1.
         12    1    3    3    0    0  0.17339082881E+02 -0.70846547084E+02  0.10999475869E+03  0.13198001352E+03  0.00000000000E+00 0. -1.
        -13    1    5    5    0    0 -0.19483754123E+02 -0.10864135030E+02 -0.21821922878E+02  0.31206448416E+02  0.00000000000E+00 0.  1.
         14    1    5    5    0    0 -0.30968399723E+03  0.14466560378E+03 -0.28648168678E+03  0.44598662751E+03  0.00000000000E+00 0. -1.
          5    1    4    4  501    0  0.13134576481E+02  0.25059323637E+02 -0.19326605286E+02  0.34584598774E+02  0.47000000000E+01 0.  1.
         -5    1    4    4    0  501  0.26042715270E+03 -0.94036837360E+02 -0.37262864182E+03  0.46426223554E+03  0.47000000000E+01 0.  1.
          1    1    1    2  502    0 -0.17233722341E+02 -0.13162246852E+03 -0.12351920177E+04  0.12423046309E+04  0.00000000000E+00 0. -1.
          1    1    1    2  503    0  0.62619814690E+02  0.13003424557E+03  0.10678338247E+04  0.10775431422E+04  0.00000000000E+00 0. -1.
<mgrwt>
<rscale>  0 0.11617458E+03</rscale>
<asrwt>0</asrwt>
<pdfrwt beam="1">  1        2 0.21340211E+00 0.10314299E+03</pdfrwt>
<pdfrwt beam="2">  1        2 0.30779103E+00 0.13085265E+03</pdfrwt>
<totfact> 0.21131390E+01</totfact>
</mgrwt>
</event>
<event>
13    1  0.1675423E-008  0.9663168E+02  0.7546771E-02  0.1454175E+00
          4   -1    0    0  503    0 -0.00000000000E+00  0.00000000000E+00  0.22802277838E+04  0.22802277838E+04  0.00000000000E+00 0. -1.
          2   -1    0    0  502    0  0.00000000000E+00 -0.00000000000E+00 -0.22719870203E+04  0.22719870203E+04  0.00000000000E+00 0. -1.
         24    2    1    2    0    0 -0.43053833239E+03  0.62351034579E+03 -0.10301141470E+04  0.12817380893E+04  0.87114675282E+02 0.  0.
         25    2    1    2    0    0 -0.24715815084E+03 -0.12481117609E+03 -0.99595551028E+02  0.31970186113E+03  0.12500010008E+03 0.  0.
         24    2    1    2    0    0  0.64562101692E+03 -0.56818343748E+03  0.92111715237E+03  0.12627598751E+04  0.80291827381E+02 0.  0.
        -11    1    3    3    0    0 -0.29171522738E+03  0.35305976777E+03 -0.59165135378E+03  0.74819803390E+03  0.00000000000E+00 0.  1.
         12    1    3    3    0    0 -0.13882310501E+03  0.27045057802E+03 -0.43846279323E+03  0.53354005537E+03  0.00000000000E+00 0. -1.
        -13    1    5    5    0    0  0.49717613620E+03 -0.43562465815E+03  0.65628910897E+03  0.93148716993E+03  0.00000000000E+00 0.  1.
         14    1    5    5    0    0  0.14844488073E+03 -0.13255877934E+03  0.26482804340E+03  0.33127270513E+03  0.00000000000E+00 0. -1.
          5    1    4    4  501    0 -0.15062310866E+03 -0.66646239221E+02  0.64188270527E+01  0.16490098061E+03  0.47000000000E+01 0. -1.
         -5    1    4    4    0  501 -0.96535042174E+02 -0.58164936873E+02 -0.10601437808E+03  0.15480088052E+03  0.47000000000E+01 0. -1.
          1    1    1    2  502    0  0.26317167991E+02  0.93031291918E+02 -0.73225856756E+03  0.73861358258E+03  0.00000000000E+00 0. -1.
          3    1    1    2  503    0  0.57582983147E+01 -0.23547024136E+02  0.94909187673E+03  0.94940139605E+03  0.00000000000E+00 0. -1.
<mgrwt>
<rscale>  0 0.48398731E+02</rscale>
<asrwt>0</asrwt>
<pdfrwt beam="2">  1        2 0.33411574E+00 0.96631682E+02</pdfrwt>
<pdfrwt beam="1">  1        4 0.33532761E+00 0.24240882E+02</pdfrwt>
<totfact> 0.98130842E-02</totfact>
</mgrwt>
</event>
<event>
13    1  0.1675423E-008  0.2701054E+03  0.7546771E-02  0.1179999E+00
          2   -1    0    0  503    0  0.00000000000E+00  0.00000000000E+00  0.13854068479E+04  0.13854068479E+04  0.00000000000E+00 0. -1.
          2   -1    0    0  502    0 -0.00000000000E+00 -0.00000000000E+00 -0.16721010330E+04  0.16721010330E+04  0.00000000000E+00 0. -1.
         24    2    1    2    0    0  0.27876535093E+03 -0.37003074497E+03  0.84063908715E+03  0.96319639852E+03  0.80251817227E+02 0.  0.
         25    2    1    2    0    0 -0.10441871686E+03  0.10614963540E+03 -0.49906208009E+03  0.53559236511E+03  0.12500083302E+03 0.  0.
         24    2    1    2    0    0 -0.20037296723E+03 -0.75312990711E+02 -0.15358292037E+03  0.27757170134E+03  0.87389721319E+02 0.  0.
        -11    1    5    5    0    0 -0.12347403148E+03  0.70523646626E-01 -0.84949401249E+02  0.14987408781E+03  0.00000000000E+00 0.  1.
         12    1    5    5    0    0 -0.76898935747E+02 -0.75383514358E+02 -0.68633519122E+02  0.12769761354E+03  0.00000000000E+00 0. -1.
        -11    1    3    3    0    0  0.14131539961E+03 -0.23392535271E+03  0.43378014012E+03  0.51269515579E+03  0.00000000000E+00 0.  1.
         12    1    3    3    0    0  0.13744995132E+03 -0.13610539226E+03  0.40685894703E+03  0.45050124273E+03  0.00000000000E+00 0. -1.
          5    1    4    4  501    0  0.55129663690E+01  0.78087029521E+02 -0.24656697247E+03  0.25873797342E+03  0.47000000000E+01 0. -1.
         -5    1    4    4    0  501 -0.10993168323E+03  0.28062605882E+02 -0.25249510762E+03  0.27685439169E+03  0.47000000000E+01 0. -1.
          1    1    1    2  502    0 -0.66132275279E+02  0.29006803749E+03 -0.84528669402E+03  0.89611524889E+03  0.00000000000E+00 0. -1.
          1    1    1    2  503    0  0.92158608433E+02  0.49126062797E+02  0.37059842216E+03  0.38503216705E+03  0.00000000000E+00 0. -1.
<mgrwt>
<rscale>  0 0.16795339E+03</rscale>
<asrwt>0</asrwt>
<pdfrwt beam="1">  1        2 0.20373630E+00 0.10443457E+03</pdfrwt>
<pdfrwt beam="2">  1        2 0.24589721E+00 0.27010540E+03</pdfrwt>
<totfact> 0.34479171E+01</totfact>
</mgrwt>
</event>
<event>
13    1  0.1675423E-008  0.2370815E+03  0.7546771E-02  0.1296333E+00
          2   -1    0    0  503    0  0.00000000000E+00  0.00000000000E+00  0.12386651373E+04  0.12386651373E+04  0.00000000000E+00 0. -1.
         -1   -1    0    0    0  501 -0.00000000000E+00 -0.00000000000E+00 -0.87279880785E+03  0.87279880785E+03  0.00000000000E+00 0.  1.
         24    2    1    2    0    0  0.14135679246E+03  0.12475565366E+03 -0.11453493325E+03  0.23524814147E+03  0.81717325190E+02 0.  0.
         25    2    1    2    0    0 -0.33500096439E+03 -0.42090769833E+02  0.27758376894E+02  0.36110000477E+03  0.12500162762E+03 0.  0.
         24    2    1    2    0    0 -0.92720640447E+01 -0.94350810799E+02  0.18899253336E+03  0.22651184866E+03  0.81248958442E+02 0.  0.
        -11    1    3    3    0    0  0.13511054802E+03  0.13023694403E+03 -0.12220175898E+03  0.22394149163E+03  0.00000000000E+00 0.  1.
         12    1    3    3    0    0  0.62462444449E+01 -0.54812903717E+01  0.76668257317E+01  0.11306649840E+02  0.00000000000E+00 0. -1.
        -11    1    5    5    0    0  0.20358778939E+02  0.50772754926E+01  0.28110619331E+02  0.35077992039E+02  0.00000000000E+00 0.  1.
         12    1    5    5    0    0 -0.29630842984E+02 -0.99428086292E+02  0.16088191403E+03  0.19143385662E+03  0.00000000000E+00 0. -1.
          5    1    4    4  502    0 -0.19901998330E+03 -0.84168104295E+02  0.32686602544E+02  0.21859489363E+03  0.47000000000E+01 0.  1.
         -5    1    4    4    0  502 -0.13598098109E+03  0.42077334463E+02 -0.49282256501E+01  0.14250511114E+03  0.47000000000E+01 0.  1.
          1    1    1    2  503    0 -0.21432491659E+02  0.29276150486E+02  0.75096360327E+03  0.75183959601E+03  0.00000000000E+00 0. -1.
         -2    1    1    2    0  501  0.22434872763E+03 -0.17590223514E+02 -0.48731325083E+03  0.53676435424E+03  0.00000000000E+00 0.  1.
<mgrwt>
<rscale>  0 0.92746916E+02</rscale>
<asrwt>0</asrwt>
<pdfrwt beam="1">  1        2 0.18215664E+00 0.36282843E+02</pdfrwt>
<pdfrwt beam="2">  1       -1 0.12835277E+00 0.23708149E+03</pdfrwt>
<totfact> 0.15187903E+01</totfact>
</mgrwt>
</event>
<event>
13    1  0.1675423E-008  0.4280723E+02  0.7546771E-02  0.1498215E+00
         -1   -1    0    0    0  501 -0.00000000000E+00  0.00000000000E+00  0.43284773632E+03  0.43284773632E+03  0.00000000000E+00 0.  1.
          2   -1    0    0  503    0  0.00000000000E+00 -0.00000000000E+00 -0.12112871699E+04  0.12112871699E+04  0.00000000000E+00 0. -1.
         24    2    1    2    0    0 -0.78687177298E+01  0.32078052324E+02 -0.21761928458E+03  0.23398775672E+03  0.79380092684E+02 0.  0.
         25    2    1    2    0    0 -0.58577402687E+02 -0.84665581444E+02  0.74075687342E+02  0.17807721934E+03  0.12499886322E+03 0.  0.
         24    2    1    2    0    0  0.27738317456E+02 -0.18436715348E+02 -0.13551371352E+03  0.15516187385E+03  0.67837407201E+02 0.  0.
        -11    1    5    5    0    0 -0.12850093574E+02 -0.28143789116E+02 -0.37379379398E+02  0.48522322439E+02  0.00000000000E+00 0.  1.
         12    1    5    5    0    0  0.40588411030E+02  0.97070737677E+01 -0.98134334127E+02  0.10663955141E+03  0.00000000000E+00 0. -1.
        -13    1    3    3    0    0 -0.13641882754E+02 -0.19943580900E+02 -0.26639568013E+02  0.35965455205E+02  0.00000000000E+00 0.  1.
         14    1    3    3    0    0  0.57731650242E+01  0.52021633224E+02 -0.19097971657E+03  0.19802230152E+03  0.00000000000E+00 0. -1.
          5    1    4    4  502    0  0.16967531674E+02 -0.10880376917E+01 -0.23209303691E+02  0.29152062276E+02  0.47000000000E+01 0. -1.
         -5    1    4    4    0  502 -0.75544934361E+02 -0.83577543752E+02  0.97284991033E+02  0.14892515707E+03  0.47000000000E+01 0. -1.
          1    1    1    2  503    0  0.27520538358E+02  0.32597183130E+02 -0.78617722370E+03  0.78733384498E+03  0.00000000000E+00 0. -1.
         -2    1    1    2    0  501  0.11187264603E+02  0.38427061337E+02  0.28679510092E+03  0.28957421129E+03  0.00000000000E+00 0.  1.
<mgrwt>
<rscale>  0 0.41391408E+02</rscale>
<asrwt>0</asrwt>
<pdfrwt beam="2">  1        2 0.17813046E+00 0.42807225E+02</pdfrwt>
<pdfrwt beam="1">  1       -1 0.63654080E-01 0.40022418E+02</pdfrwt>
<totfact> 0.73155790E+01</totfact>
</mgrwt>
</event>
<event>
13    1  0.1675423E-008  0.8928516E+02  0.7546771E-02  0.1408018E+00
          2   -1    0    0  502    0  0.00000000000E+00  0.00000000000E+00  0.15596618594E+04  0.15596618594E+04  0.00000000000E+00 0. -1.
          2   -1    0    0  503    0 -0.00000000000E+00 -0.00000000000E+00 -0.23876464975E+04  0.23876464975E+04  0.00000000000E+00 0. -1.
         24    2    1    2    0    0 -0.18515255844E+03  0.11108326684E+03 -0.49085430407E+03  0.54213579311E+03  0.79701369330E+02 0.  0.
         25    2    1    2    0    0  0.24679295284E+03  0.63405724246E+01 -0.21831109779E+03  0.35246525971E+03  0.12500023782E+03 0.  0.
         24    2    1    2    0    0  0.14006599854E+02 -0.37664945212E+02 -0.53862137968E+03  0.55114911880E+03  0.10971566689E+03 0.  0.
        -13    1    3    3    0    0 -0.11687970739E+03  0.10199941982E+03 -0.39268023628E+03  0.42221145841E+03  0.00000000000E+00 0.  1.
         14    1    3    3    0    0 -0.68272851045E+02  0.90838470153E+01 -0.98174067792E+02  0.11992433470E+03  0.00000000000E+00 0. -1.
        -13    1    5    5    0    0 -0.23932358070E+02  0.21466240551E+02 -0.66889588795E+02  0.74214380920E+02  0.00000000000E+00 0.  1.
         14    1    5    5    0    0  0.37938957924E+02 -0.59131185763E+02 -0.47173179089E+03  0.47693473788E+03  0.00000000000E+00 0. -1.
          5    1    4    4  501    0  0.37289823837E+02 -0.10388789958E+02  0.11843187336E+02  0.40753024487E+02  0.47000000000E+01 0.  1.
         -5    1    4    4    0  501  0.20950312900E+03  0.16729362382E+02 -0.23015428513E+03  0.31171223523E+03  0.47000000000E+01 0.  1.
          1    1    1    2  502    0 -0.38447050693E+02 -0.80566120982E+02  0.14589829559E+04  0.14617114426E+04  0.00000000000E+00 0. -1.
          1    1    1    2  503    0 -0.37199943563E+02  0.80722692902E+00 -0.10391808125E+04  0.10398467428E+04  0.00000000000E+00 0. -1.
<mgrwt>
<rscale>  0 0.57638397E+02</rscale>
<asrwt>0</asrwt>
<pdfrwt beam="1">  1        2 0.22936204E+00 0.89285161E+02</pdfrwt>
<pdfrwt beam="2">  1        2 0.35112448E+00 0.37208701E+02</pdfrwt>
<totfact> 0.15918217E+01</totfact>
</mgrwt>
</event>
<event>
13    1  0.1675423E-008  0.7472877E+02  0.7546771E-02  0.1400395E+00
          2   -1    0    0  503    0  0.00000000000E+00  0.00000000000E+00  0.51881627284E+03  0.51881627284E+03  0.00000000000E+00 0. -1.
         -3   -1    0    0    0  501 -0.00000000000E+00 -0.00000000000E+00 -0.17098113668E+04  0.17098113668E+04  0.00000000000E+00 0.  1.
         24    2    1    2    0    0  0.41445775516E+02  0.91119084733E+02 -0.15819509309E+03  0.20360177181E+03  0.80047199170E+02 0.  0.
         25    2    1    2    0    0 -0.10018972571E+02 -0.22871931942E+03  0.26046230300E+03  0.36859460008E+03  0.12493382662E+03 0.  0.
         24    2    1    2    0    0 -0.60498964900E+02  0.25302692435E+02 -0.31423945613E+03  0.33440824048E+03  0.93712776690E+02 0.  0.
        -13    1    3    3    0    0  0.43595555502E+02  0.10386929272E+03 -0.15219274292E+03  0.18934633196E+03  0.00000000000E+00 0.  1.
         14    1    3    3    0    0 -0.21497799858E+01 -0.12750207986E+02 -0.60023501707E+01  0.14255439848E+02  0.00000000000E+00 0. -1.
        -13    1    5    5    0    0  0.10222663408E+02  0.16751623161E+02 -0.10165091800E+02  0.22100878194E+02  0.00000000000E+00 0.  1.
         14    1    5    5    0    0 -0.70721628307E+02  0.85510692741E+01 -0.30407436433E+03  0.31230736229E+03  0.00000000000E+00 0. -1.
          5    1    4    4  502    0 -0.53890755553E+02 -0.20093835583E+03  0.21774565747E+03  0.30119046752E+03  0.47000000000E+01 0.  1.
         -5    1    4    4    0  502  0.43871782982E+02 -0.27780963582E+02  0.42716645538E+02  0.67404132556E+02  0.47000000000E+01 0.  1.
          1    1    1    2  503    0  0.34906553561E+02  0.65454551546E+02  0.16296809447E+03  0.17905687816E+03  0.00000000000E+00 0. -1.
         -4    1    1    2    0  501 -0.58343916055E+01  0.46842990701E+02 -0.11419909423E+04  0.11429661491E+04  0.00000000000E+00 0.  1.
<mgrwt>
<rscale>  0 0.59393321E+02</rscale>
<asrwt>0</asrwt>
<pdfrwt beam="1">  1        2 0.76296511E-01 0.74728765E+02</pdfrwt>
<pdfrwt beam="2">  1       -3 0.25144285E+00 0.47204935E+02</pdfrwt>
<totfact> 0.34866814E+00</totfact>
</mgrwt>
</event>
<event>
13    1  0.1675423E-008  0.1192335E+03  0.7546771E-02  0.1247458E+00
          2   -1    0    0  502    0  0.00000000000E+00  0.00000000000E+00  0.29014759024E+04  0.29014759024E+04  0.00000000000E+00 0. -1.
          2   -1    0    0  503    0 -0.00000000000E+00 -0.00000000000E+00 -0.18917459516E+03  0.18917459516E+03  0.00000000000E+00 0. -1.
         24    2    1    2    0    0 -0.91416543484E+02  0.13029273350E+00  0.63850734670E+03  0.64985203370E+03  0.79114047511E+02 0.  0.
         25    2    1    2    0    0 -0.17990787163E+03 -0.96878475958E+02  0.21526447098E+03  0.32205023243E+03  0.12500111344E+03 0.  0.
         24    2    1    2    0    0  0.34247690275E+02 -0.77101622306E+02  0.28479101818E+03  0.30420769930E+03  0.65717850157E+02 0.  0.
        -13    1    5    5    0    0 -0.94382359736E+01  0.65962363356E+01  0.19862623308E+02  0.22958972903E+02  0.00000000000E+00 0.  1.
         14    1    5    5    0    0  0.43685926249E+02 -0.83697858642E+02  0.26492839487E+03  0.28124872640E+03  0.00000000000E+00 0. -1.
        -13    1    3    3    0    0 -0.14289873185E+02  0.30219214155E+02  0.11221566312E+03  0.11708866909E+03  0.00000000000E+00 0.  1.
         14    1    3    3    0    0 -0.77126670299E+02 -0.30088921421E+02  0.52629168359E+03  0.53276336462E+03  0.00000000000E+00 0. -1.
          5    1    4    4  501    0 -0.42073656290E+02  0.21681629353E+02  0.11517347316E+02  0.48938991553E+02  0.47000000000E+01 0.  1.
         -5    1    4    4    0  501 -0.13783421534E+03 -0.11856010531E+03  0.20374712367E+03  0.27311124087E+03  0.47000000000E+01 0.  1.
          1    1    1    2  502    0  0.92247621331E+02  0.90522073186E+02  0.16323579717E+04  0.16374664629E+04  0.00000000000E+00 0. -1.
          1    1    1    2  503    0  0.14482910350E+03  0.83327732344E+02 -0.58619500263E+02  0.17707406928E+03  0.00000000000E+00 0. -1.
<mgrwt>
<rscale>  0 0.11739487E+03</rscale>
<asrwt>0</asrwt>
<pdfrwt beam="1">  1        2 0.42668761E+00 0.11923353E+03</pdfrwt>
<pdfrwt beam="2">  1        2 0.27819795E-01 0.11558456E+03</pdfrwt>
<totfact> 0.92065478E+01</totfact>
</mgrwt>
</event>
<event>
13    1  0.1675423E-008  0.1112338E+03  0.7546771E-02  0.1274090E+00
          2   -1    0    0  502    0  0.00000000000E+00  0.00000000000E+00  0.15342030944E+04  0.15342030944E+04  0.00000000000E+00 0. -1.
          2   -1    0    0  503    0 -0.00000000000E+00 -0.00000000000E+00 -0.92138875995E+03  0.92138875995E+03  0.00000000000E+00 0. -1.
         24    2    1    2    0    0  0.54484199623E+01  0.43659891756E+02  0.13743918031E+03  0.16486360788E+03  0.79715804518E+02 0.  0.
         25    2    1    2    0    0 -0.85013340467E+02  0.82786094630E+02 -0.16375136665E+03  0.23773085772E+03  0.12498257923E+03 0.  0.
         24    2    1    2    0    0 -0.32916259426E+02  0.18569066085E+02  0.13452819633E+03  0.16220661263E+03  0.82370256908E+02 0.  0.
        -11    1    3    3    0    0 -0.56449936261E+01  0.65902046289E+02  0.97342565517E+02  0.11768823526E+03  0.00000000000E+00 0.  1.
         12    1    3    3    0    0  0.11093413588E+02 -0.22242154534E+02  0.40096614793E+02  0.47175372613E+02  0.00000000000E+00 0. -1.
        -13    1    5    5    0    0  0.15828009809E+02  0.33441863085E+02  0.76495564737E+02  0.84973263593E+02  0.00000000000E+00 0.  1.
         14    1    5    5    0    0 -0.48744269235E+02 -0.14872797000E+02  0.58032631596E+02  0.77233349039E+02  0.00000000000E+00 0. -1.
          5    1    4    4  501    0 -0.10675998567E+03  0.80960802461E+02 -0.92030819215E+02  0.16261644370E+03  0.47000000000E+01 0.  1.
         -5    1    4    4    0  501  0.21746645205E+02  0.18252921696E+01 -0.71720547434E+02  0.75114414019E+02  0.47000000000E+01 0.  1.
          1    1    1    2  502    0  0.97534515812E+02  0.55944319196E+02  0.11803187487E+04  0.11856623031E+04  0.00000000000E+00 0. -1.
          1    1    1    2  503    0  0.14946664118E+02 -0.20095937167E+03 -0.67572042417E+03  0.70512847302E+03  0.00000000000E+00 0. -1.
<mgrwt>
<rscale>  0 0.10301040E+03</rscale>
<asrwt>0</asrwt>
<pdfrwt beam="1">  1        2 0.22561810E+00 0.95394990E+02</pdfrwt>
<pdfrwt beam="2">  1        2 0.13549835E+00 0.11123375E+03</pdfrwt>
<totfact> 0.78301697E+01</totfact>
</mgrwt>
</event>
<event>
13    1  0.1675423E-008  0.1217045E+03  0.7546771E-02  0.1271314E+00
          2   -1    0    0  503    0  0.00000000000E+00  0.00000000000E+00  0.17288957696E+04  0.17288957696E+04  0.00000000000E+00 0. -1.
          2   -1    0    0  502    0 -0.00000000000E+00 -0.00000000000E+00 -0.27517685378E+03  0.27517685378E+03  0.00000000000E+00 0. -1.
         24    2    1    2    0    0  0.66497091860E+01 -0.70322519613E+02  0.73661860873E+03  0.74426531592E+03  0.79589009036E+02 0.  0.
         25    2    1    2    0    0  0.57729444944E+01  0.66123921533E+02 -0.97521313927E+02  0.17187637345E+03  0.12500152477E+03 0.  0.
         24    2    1    2    0    0  0.19986964613E+02  0.41646407290E+02  0.24569980441E+03  0.26214306826E+03  0.78846004063E+02 0.  0.
        -11    1    5    5    0    0  0.37434275628E+02 -0.84137071819E+01  0.10316024323E+03  0.11006430503E+03  0.00000000000E+00 0.  1.
         12    1    5    5    0    0 -0.17447311015E+02  0.50060114472E+02  0.14253956119E+03  0.15207876323E+03  0.00000000000E+00 0. -1.
        -11    1    3    3    0    0 -0.19728273068E+01  0.32430949464E+01 -0.13441503361E+00  0.37983917406E+01  0.00000000000E+00 0.  1.
         12    1    3    3    0    0  0.86225364928E+01 -0.73565614560E+02  0.73675302376E+03  0.74046692418E+03  0.00000000000E+00 0. -1.
          5    1    4    4  501    0 -0.45285131134E+02 -0.57126737776E+01 -0.61069499206E+02  0.76386854083E+02  0.47000000000E+01 0.  1.
         -5    1    4    4    0  501  0.51058075629E+02  0.71836595311E+02 -0.36451814721E+02  0.95489519368E+02  0.47000000000E+01 0.  1.
          1    1    1    2  502    0 -0.12184721004E+03 -0.32973964356E+02 -0.93659940771E+02  0.15718209003E+03  0.00000000000E+00 0. -1.
          1    1    1    2  503    0  0.89437591751E+02 -0.44738448533E+01  0.66258175734E+03  0.66860577567E+03  0.00000000000E+00 0. -1.
<mgrwt>
<rscale>  0 0.10439619E+03</rscale>
<asrwt>0</asrwt>
<pdfrwt beam="1">  1        2 0.25424937E+00 0.89549417E+02</pdfrwt>
<pdfrwt beam="2">  1        2 0.40467185E-01 0.12170448E+03</pdfrwt>
<totfact> 0.24265010E+02</totfact>
</mgrwt>
</event>
<event>
13    1  0.1675423E-008  0.4960121E+02  0.7546771E-02  0.1536869E+00
          2   -1    0    0  503    0  0.00000000000E+00  0.00000000000E+00  0.16045312958E+04  0.16045312958E+04  0.00000000000E+00 0. -1.
         -1   -1    0    0    0  501 -0.00000000000E+00 -0.00000000000E+00 -0.17498511786E+03  0.17498511786E+03  0.00000000000E+00 0.  1.
         24    2    1    2    0    0  0.87910541031E+02  0.11814173077E+03  0.57605384012E+03  0.60010282246E+03  0.81238162398E+02 0.  0.
         25    2    1    2    0    0 -0.70644120764E+02 -0.56743847670E+02  0.12068805737E+03  0.19596276996E+03  0.12500137588E+03 0.  0.
         24    2    1    2    0    0 -0.52052384782E+02 -0.12459626775E+03  0.46842291735E+03  0.49416760312E+03  0.80919155763E+02 0.  0.
        -11    1    3    3    0    0 -0.10687514554E+02  0.39949143267E+02  0.11609779524E+03  0.12324307313E+03  0.00000000000E+00 0.  1.
         12    1    3    3    0    0  0.98598055585E+02  0.78192587506E+02  0.45995604489E+03  0.47685974933E+03  0.00000000000E+00 0. -1.
        -13    1    5    5    0    0 -0.99382824742E+01 -0.12035423461E+02  0.19344444359E+03  0.19407311414E+03  0.00000000000E+00 0.  1.
         14    1    5    5    0    0 -0.42114102308E+02 -0.11256084429E+03  0.27497847376E+03  0.30009448898E+03  0.00000000000E+00 0. -1.
          5    1    4    4  502    0 -0.95640357597E+02 -0.38369432809E+02  0.42235901355E+02  0.11146861773E+03  0.47000000000E+01 0. -1.
         -5    1    4    4    0  502  0.24996236833E+02 -0.18374414861E+02  0.78452156014E+02  0.84494152227E+02  0.47000000000E+01 0. -1.
          1    1    1    2  503    0  0.32642069179E+02  0.36635413715E+02  0.37362643898E+03  0.37683467745E+03  0.00000000000E+00 0. -1.
         -2    1    1    2    0  501  0.21438953364E+01  0.26562970935E+02 -0.10924507585E+03  0.11244854071E+03  0.00000000000E+00 0.  1.
<mgrwt>
<rscale>  0 0.36357117E+02</rscale>
<asrwt>0</asrwt>
<pdfrwt beam="1">  1        2 0.23596048E+00 0.49601213E+02</pdfrwt>
<pdfrwt beam="2">  1       -1 0.25733106E-01 0.26649347E+02</pdfrwt>
<totfact> 0.21485175E+02</totfact>
</mgrwt>
</event>
<event>
13    1  0.1675423E-008  0.7582474E+02  0.7546771E-02  0.1399976E+00
         -1   -1    0    0    0  501 -0.00000000000E+00  0.00000000000E+00  0.92677836710E+03  0.92677836710E+03  0.00000000000E+00 0.  1.
          2   -1    0    0  503    0  0.00000000000E+00 -0.00000000000E+00 -0.27446470040E+04  0.27446470040E+04  0.00000000000E+00 0. -1.
         24    2    1    2    0    0  0.27785305211E+02 -0.10282553353E+02 -0.28556732952E+03  0.29803608957E+03  0.79994105474E+02 0.  0.
         25    2    1    2    0    0 -0.42792340653E+02  0.14126707113E+03 -0.33734711103E+02  0.19634217104E+03  0.12499859035E+03 0.  0.
         24    2    1    2    0    0 -0.42039164733E+01 -0.10335647494E+02  0.18545721753E+03  0.20321000822E+03  0.82312996447E+02 0.  0.
        -13    1    5    5    0    0 -0.39454820100E+02  0.14397056757E+01  0.55963809198E+02  0.68488710905E+02  0.00000000000E+00 0.  1.
         14    1    5    5    0    0  0.35250903626E+02 -0.11775353170E+02  0.12949340833E+03  0.13472129731E+03  0.00000000000E+00 0. -1.
        -13    1    3    3    0    0 -0.91483756087E+01  0.28790049196E+02 -0.78777445385E+02  0.84370881294E+02  0.00000000000E+00 0.  1.
         14    1    3    3    0    0  0.36933680819E+02 -0.39072602550E+02 -0.20678988413E+03  0.21366520828E+03  0.00000000000E+00 0. -1.
          5    1    4    4  502    0 -0.19022015611E+02  0.11703544860E+03 -0.76768254579E+02  0.14133148347E+03  0.47000000000E+01 0. -1.
         -5    1    4    4    0  502 -0.23770325042E+02  0.24231622529E+02  0.43033543476E+02  0.55010687571E+02  0.47000000000E+01 0. -1.
          1    1    1    2  503    0  0.95416194529E+01 -0.45691879812E+02 -0.23264812561E+04  0.23269494677E+04  0.00000000000E+00 0. -1.
         -2    1    1    2    0  501  0.96693324628E+01 -0.74956990472E+02  0.64245744235E+03  0.64688763448E+03  0.00000000000E+00 0.  1.
<mgrwt>
<rscale>  0 0.59492103E+02</rscale>
<asrwt>0</asrwt>
<pdfrwt beam="2">  1        2 0.40362456E+00 0.46677515E+02</pdfrwt>
<pdfrwt beam="1">  1       -1 0.13629094E+00 0.75824737E+02</pdfrwt>
<totfact> 0.26570944E+00</totfact>
</mgrwt>
</event>
<event>
13    1  0.1675423E-008  0.1854350E+03  0.7546771E-02  0.1382842E+00
          2   -1    0    0  503    0  0.00000000000E+00  0.00000000000E+00  0.32709887147E+04  0.32709887147E+04  0.00000000000E+00 0. -1.
          2   -1    0    0  502    0 -0.00000000000E+00 -0.00000000000E+00 -0.26782308657E+04  0.26782308657E+04  0.00000000000E+00 0. -1.
         24    2    1    2    0    0 -0.17468199632E+02 -0.17656269564E+02 -0.11118686260E+02  0.83702449822E+02  0.79155499295E+02 0.  0.
         25    2    1    2    0    0 -0.12871683165E+03 -0.18742322133E+02 -0.10741974617E+04  0.10892368364E+04  0.12496960238E+03 0.  0.
         24    2    1    2    0    0 -0.43931288001E+02 -0.25416266589E+01 -0.28419343614E+02  0.95991081347E+02  0.80437619776E+02 0.  0.
        -11    1    3    3    0    0  0.16899894418E+02 -0.33466334880E+02  0.12002908598E+02  0.39365871214E+02  0.00000000000E+00 0.  1.
         12    1    3    3    0    0 -0.34368094050E+02  0.15810065316E+02 -0.23121594857E+02  0.44336578608E+02  0.00000000000E+00 0. -1.
        -13    1    5    5    0    0  0.81725427008E+01  0.12349284968E+02  0.18926595546E+02  0.24031465049E+02  0.00000000000E+00 0.  1.
         14    1    5    5    0    0 -0.52103830702E+02 -0.14890911627E+02 -0.47345939160E+02  0.71959616298E+02  0.00000000000E+00 0. -1.
          5    1    4    4  501    0 -0.13982532931E+03 -0.48228351584E+02 -0.91400416877E+03  0.92590647861E+03  0.47000000000E+01 0.  1.
         -5    1    4    4    0  501  0.11108497664E+02  0.29486029451E+02 -0.16019329295E+03  0.16333035774E+03  0.47000000000E+01 0.  1.
          1    1    1    2  502    0  0.13297245587E+02 -0.17397824138E+02 -0.14841209886E+04  0.14842825236E+04  0.00000000000E+00 0. -1.
          1    1    1    2  503    0  0.17681907369E+03  0.56338042494E+02  0.31906143293E+04  0.31960066893E+04  0.00000000000E+00 0. -1.
<mgrwt>
<rscale>  0 0.63722572E+02</rscale>
<asrwt>0</asrwt>
<pdfrwt beam="1">  1        2 0.48102775E+00 0.18543505E+03</pdfrwt>
<pdfrwt beam="2">  1        2 0.39385748E+00 0.21897512E+02</pdfrwt>
<totfact> 0.15580644E+00</totfact>
</mgrwt>
</event>
<event>
13    1  0.1675423E-008  0.1084889E+03  0.7546771E-02  0.1283551E+00
          2   -1    0    0  503    0  0.00000000000E+00  0.00000000000E+00  0.47064382027E+04  0.47064382027E+04  0.00000000000E+00 0. -1.
          2   -1    0    0  502    0 -0.00000000000E+00 -0.00000000000E+00 -0.54333021741E+03  0.54333021741E+03  0.00000000000E+00 0. -1.
         24    2    1    2    0    0  0.11746821608E+03  0.54543785069E+02  0.20023003928E+04  0.20081317496E+04  0.81316999563E+02 0.  0.
         25    2    1    2    0    0 -0.22007700705E+03 -0.22880805951E+03  0.45074501533E+03  0.56531789699E+03  0.12500495466E+03 0.  0.
         24    2    1    2    0    0  0.46752352600E+02  0.11370005223E+02 -0.63893535193E+02  0.11267785883E+03  0.79365335877E+02 0.  0.
        -11    1    5    5    0    0  0.47685312487E+02  0.40706305791E+02 -0.50059258218E+02  0.80229805506E+02  0.00000000000E+00 0.  1.
         12    1    5    5    0    0 -0.93295988645E+00 -0.29336300569E+02 -0.13834276975E+02  0.32448053326E+02  0.00000000000E+00 0. -1.
        -11    1    3    3    0    0 -0.30732750783E+00 -0.85201975746E+01  0.26896570034E+02  0.28215486821E+02  0.00000000000E+00 0.  1.
         12    1    3    3    0    0  0.11777554358E+03  0.63063982643E+02  0.19754038228E+04  0.19799162628E+04  0.00000000000E+00 0. -1.
          5    1    4    4  501    0 -0.48807569094E+00 -0.59012551562E+02  0.48288841521E+02  0.76397785800E+02  0.47000000000E+01 0. -1.
         -5    1    4    4    0  501 -0.21958893136E+03 -0.16979550795E+03  0.40245617380E+03  0.48892011119E+03  0.47000000000E+01 0. -1.
          1    1    1    2  502    0  0.69864465041E+02  0.55735450298E+02 -0.38841823291E+03  0.39856769507E+03  0.00000000000E+00 0. -1.
          1    1    1    2  503    0 -0.14008026662E+02  0.10715881892E+03  0.21623743453E+04  0.21650732197E+04  0.00000000000E+00 0. -1.
<mgrwt>
<rscale>  0 0.98467995E+02</rscale>
<asrwt>0</asrwt>
<pdfrwt beam="1">  1        2 0.69212324E+00 0.10848887E+03</pdfrwt>
<pdfrwt beam="2">  1        2 0.79901505E-01 0.89372725E+02</pdfrwt>
<totfact> 0.19997834E+00</totfact>
</mgrwt>
</event>
<event>
13    1  0.1675423E-008  0.4131599E+03  0.7546771E-02  0.1142504E+00
          2   -1    0    0  502    0  0.00000000000E+00  0.00000000000E+00  0.19285485441E+04  0.19285485441E+04  0.00000000000E+00 0. -1.
          2   -1    0    0  503    0 -0.00000000000E+00 -0.00000000000E+00 -0.16937373591E+04  0.16937373591E+04  0.00000000000E+00 0. -1.
         24    2    1    2    0    0  0.32447667741E+03  0.11764131032E+02  0.45193598079E+03  0.56223448394E+03  0.80236994189E+02 0.  0.
         25    2    1    2    0    0  0.26865870836E+03  0.53704269818E+03 -0.10287926570E+03  0.62193894522E+03  0.12502618530E+03 0.  0.
         24    2    1    2    0    0  0.61785469485E+02 -0.10642876632E+03 -0.16820071675E+03  0.22458991666E+03  0.83693625851E+02 0.  0.
        -11    1    3    3    0    0  0.20016892123E+03 -0.10195834809E+02  0.21608926617E+03  0.29473059398E+03  0.00000000000E+00 0.  1.
         12    1    3    3    0    0  0.12430775618E+03  0.21959965841E+02  0.23584671463E+03  0.26750388997E+03  0.00000000000E+00 0. -1.
        -13    1    5    5    0    0  0.33878371997E+02  0.67196835753E+00 -0.64809755657E+02  0.73133440087E+02  0.00000000000E+00 0.  1.
         14    1    5    5    0    0  0.27907097488E+02 -0.10710073468E+03 -0.10339096110E+03  0.15145647657E+03  0.00000000000E+00 0. -1.
          5    1    4    4  501    0  0.66128341978E+02  0.42221604995E+02 -0.16698811839E+02  0.80352733979E+02  0.47000000000E+01 0.  1.
         -5    1    4    4    0  501  0.20253036639E+03  0.49482109319E+03 -0.86180453865E+02  0.54158621124E+03  0.47000000000E+01 0.  1.
          1    1    1    2  502    0 -0.57682904949E+03 -0.37138041078E+03  0.10268391069E+04  0.12349306512E+04  0.00000000000E+00 0. -1.
          1    1    1    2  503    0 -0.78091805772E+02 -0.70997652114E+02 -0.97288392023E+03  0.97859190625E+03  0.00000000000E+00 0. -1.
<mgrwt>
<rscale>  0 0.20881927E+03</rscale>
<asrwt>0</asrwt>
<pdfrwt beam="1">  1        2 0.28361008E+00 0.41315987E+03</pdfrwt>
<pdfrwt beam="2">  1        2 0.24907902E+00 0.10554145E+03</pdfrwt>
<totfact> 0.17339331E+01</totfact>
</mgrwt>
</event>
<event>
13    1  0.1675423E-008  0.1270833E+03  0.7546771E-02  0.1320200E+00
          2   -1    0    0  502    0  0.00000000000E+00  0.00000000000E+00  0.18340452998E+04  0.18340452998E+04  0.00000000000E+00 0. -1.
          2   -1    0    0  503    0 -0.00000000000E+00 -0.00000000000E+00 -0.14999980395E+04  0.14999980395E+04  0.00000000000E+00 0. -1.
         24    2    1    2    0    0 -0.33731371962E+02 -0.63670468051E+02 -0.93392686973E+03  0.93971804857E+03  0.75225519966E+02 0.  0.
         25    2    1    2    0    0 -0.19354408884E+03  0.79656785974E+02  0.45197324815E+03  0.51352636707E+03  0.12499997902E+03 0.  0.
         24    2    1    2    0    0  0.12589888622E+03  0.82757608474E+02 -0.21654412499E+03  0.27650031514E+03  0.82835468820E+02 0.  0.
        -13    1    3    3    0    0  0.38744854351E+01  0.15611404021E+02 -0.11950056308E+03  0.12057824077E+03  0.00000000000E+00 0.  1.
         14    1    3    3    0    0 -0.37605857397E+02 -0.79281872072E+02 -0.81442630665E+03  0.81913980780E+03  0.00000000000E+00 0. -1.
        -13    1    5    5    0    0  0.12086438969E+03  0.96279676192E+02 -0.18011101210E+03  0.23731403966E+03  0.00000000000E+00 0.  1.
         14    1    5    5    0    0  0.50344965254E+01 -0.13522067719E+02 -0.36433112893E+02  0.39186275477E+02  0.00000000000E+00 0. -1.
          5    1    4    4  501    0 -0.18042831461E+03  0.78882179822E+02  0.28774430260E+03  0.34870567630E+03  0.47000000000E+01 0.  1.
         -5    1    4    4    0  501 -0.13115774227E+02  0.77460615174E+00  0.16422894555E+03  0.16482069076E+03  0.47000000000E+01 0.  1.
          1    1    1    2  502    0 -0.37613129577E+02 -0.39403598233E+02  0.12978373330E+04  0.12989800360E+04  0.00000000000E+00 0. -1.
          1    1    1    2  503    0  0.13898970416E+03 -0.59340328163E+02 -0.26529232610E+03  0.30531857247E+03  0.00000000000E+00 0. -1.
<mgrwt>
<rscale>  0 0.83202795E+02</rscale>
<asrwt>0</asrwt>
<pdfrwt beam="1">  1        2 0.26971255E+00 0.54473765E+02</pdfrwt>
<pdfrwt beam="2">  1        2 0.22058795E+00 0.12708329E+03</pdfrwt>
<totfact> 0.28635420E+01</totfact>
</mgrwt>
</event>
<event>
13    1  0.1675423E-008  0.9620086E+02  0.7546771E-02  0.1420759E+00
          2   -1    0    0  502    0  0.00000000000E+00  0.00000000000E+00  0.21080502408E+04  0.21080502408E+04  0.00000000000E+00 0. -1.
          2   -1    0    0  503    0 -0.00000000000E+00 -0.00000000000E+00 -0.18445905388E+04  0.18445905388E+04  0.00000000000E+00 0. -1.
         24    2    1    2    0    0  0.24874961011E+02 -0.12630033524E+03  0.20013007632E+03  0.25269127740E+03  0.85031146388E+02 0.  0.
         25    2    1    2    0    0 -0.15048549343E+02  0.17718644637E+03 -0.39075639229E+03  0.44714168197E+03  0.12499451999E+03 0.  0.
         24    2    1    2    0    0  0.12621284344E+02  0.74467650995E+02  0.14770828057E+02  0.11115193415E+03  0.80198798245E+02 0.  0.
        -11    1    3    3    0    0  0.94618757545E+01 -0.12082079714E+03  0.20266670090E+03  0.23613763734E+03  0.00000000000E+00 0.  1.
         12    1    3    3    0    0  0.15413085257E+02 -0.54795381059E+01 -0.25366245774E+01  0.16553640060E+02  0.00000000000E+00 0. -1.
        -13    1    5    5    0    0  0.35239036420E+02  0.15863531562E+02 -0.15230571158E+02  0.41538074332E+02  0.00000000000E+00 0.  1.
         14    1    5    5    0    0 -0.22617752076E+02  0.58604119433E+02  0.30001399214E+02  0.69613859815E+02  0.00000000000E+00 0. -1.
          5    1    4    4  501    0 -0.58891229542E+02  0.10463103732E+03 -0.29842942151E+03  0.32171111344E+03  0.47000000000E+01 0.  1.
         -5    1    4    4    0  501  0.43842680199E+02  0.72555409045E+02 -0.92326970778E+02  0.12543056853E+03  0.47000000000E+01 0.  1.
          1    1    1    2  502    0 -0.18556368284E+02 -0.94311258482E+02  0.17890141293E+04  0.17915944037E+04  0.00000000000E+00 0. -1.
          1    1    1    2  503    0 -0.38913277278E+01 -0.31042503634E+02 -0.13496989394E+04  0.13500614825E+04  0.00000000000E+00 0. -1.
<mgrwt>
<rscale>  0 0.54860617E+02</rscale>
<asrwt>0</asrwt>
<pdfrwt beam="1">  1        2 0.31000739E+00 0.96200860E+02</pdfrwt>
<pdfrwt beam="2">  1        2 0.27126331E+00 0.31285451E+02</pdfrwt>
<totfact> 0.15585325E+01</totfact>
</mgrwt>
</event>
<event>
13    1  0.1675423E-008  0.1072435E+03  0.7546771E-02  0.1285229E+00
          2   -1    0    0  503    0  0.00000000000E+00  0.00000000000E+00  0.19940825829E+04  0.19940825829E+04  0.00000000000E+00 0. -1.
         -1   -1    0    0    0  501 -0.00000000000E+00 -0.00000000000E+00 -0.63221868277E+03  0.63221868277E+03  0.00000000000E+00 0.  1.
         24    2    1    2    0    0  0.71166410691E+01  0.40519360800E+02  0.39890175722E+03  0.40877143919E+03  0.79240219622E+02 0.  0.
         25    2    1    2    0    0  0.14906321342E+03  0.98915920970E+02 -0.38095597450E+02  0.22154069571E+03  0.12499921717E+03 0.  0.
         24    2    1    2    0    0 -0.34737741681E+01  0.37434923113E+02  0.39451495516E+02  0.96980161615E+02  0.80220263481E+02 0.  0.
        -11    1    5    5    0    0 -0.30289967615E+02  0.16446427585E+01 -0.84073432589E+01  0.31478094107E+02  0.00000000000E+00 0.  1.
         12    1    5    5    0    0  0.26816193447E+02  0.35790280355E+02  0.47858838775E+02  0.65502067508E+02  0.00000000000E+00 0. -1.
        -13    1    3    3    0    0  0.16500378924E+02  0.54687333989E+02  0.17206475512E+03  0.18129877815E+03  0.00000000000E+00 0.  1.
         14    1    3    3    0    0 -0.93837378552E+01 -0.14167973189E+02  0.22683700210E+03  0.22747266104E+03  0.00000000000E+00 0. -1.
          5    1    4    4  502    0  0.16049622368E+03  0.10177470960E+03 -0.95968487567E+01  0.19034526218E+03  0.47000000000E+01 0.  1.
         -5    1    4    4    0  502 -0.11433010256E+02 -0.28587886277E+01 -0.28498748693E+02  0.31195433528E+02  0.47000000000E+01 0.  1.
          1    1    1    2  503    0 -0.65753117465E+02 -0.14833348831E+03  0.14211798867E+04  0.14304120269E+04  0.00000000000E+00 0. -1.
         -2    1    1    2    0  501 -0.86952962859E+02 -0.28536716578E+02 -0.45957364192E+03  0.46859694225E+03  0.00000000000E+00 0.  1.
<mgrwt>
<rscale>  0 0.97690520E+02</rscale>
<asrwt>0</asrwt>
<pdfrwt beam="1">  1        2 0.29324744E+00 0.10724347E+03</pdfrwt>
<pdfrwt beam="2">  1       -1 0.92973337E-01 0.88988521E+02</pdfrwt>
<totfact> 0.13054487E+01</totfact>
</mgrwt>
</event>
<event>
13    1  0.1675423E-008  0.7226642E+02  0.7546771E-02  0.1503370E+00
         -3   -1    0    0    0  501 -0.00000000000E+00  0.00000000000E+00  0.11531070123E+04  0.11531070123E+04  0.00000000000E+00 0.  1.
          2   -1    0    0  503    0  0.00000000000E+00 -0.00000000000E+00 -0.20112347594E+04  0.20112347594E+04  0.00000000000E+00 0. -1.
         24    2    1    2    0    0  0.80709637952E+02 -0.15010108916E+03 -0.73388331460E+03  0.75824456672E+03  0.85473509837E+02 0.  0.
         25    2    1    2    0    0 -0.94827645173E+02  0.16777860649E+03  0.37108872839E+03  0.43643264056E+03  0.12499864926E+03 0.  0.
         24    2    1    2    0    0 -0.12274631159E+02  0.30204635163E+02 -0.85024962672E+02  0.12924448643E+03  0.91716445858E+02 0.  0.
        -11    1    3    3    0    0 -0.11872901843E+02 -0.40283001694E+01 -0.11404426304E+03  0.11473136856E+03  0.00000000000E+00 0.  1.
         12    1    3    3    0    0  0.92582539796E+02 -0.14607278900E+03 -0.61983905157E+03  0.64351319816E+03  0.00000000000E+00 0. -1.
        -13    1    5    5    0    0  0.36036378179E+02  0.26629133464E+02 -0.59510008551E+02  0.74492767562E+02  0.00000000000E+00 0.  1.
         14    1    5    5    0    0 -0.48311009338E+02  0.35755016993E+01 -0.25514954121E+02  0.54751718872E+02  0.00000000000E+00 0. -1.
          5    1    4    4  502    0 -0.83920535387E+02  0.17470100307E+03  0.37499204439E+03  0.42214241683E+03  0.47000000000E+01 0.  1.
         -5    1    4    4    0  502 -0.10907109786E+02 -0.69223965760E+01 -0.39033159987E+01  0.14290223722E+02  0.47000000000E+01 0.  1.
          1    1    1    2  503    0  0.48551041128E+02 -0.53596087322E+02 -0.11240187835E+04  0.11263427409E+04  0.00000000000E+00 0. -1.
         -4    1    1    2    0  501 -0.22158402748E+02  0.57139348333E+01  0.71371058525E+03  0.71407733710E+03  0.00000000000E+00 0.  1.
<mgrwt>
<rscale>  0 0.40665608E+02</rscale>
<asrwt>0</asrwt>
<pdfrwt beam="2">  1        2 0.29576982E+00 0.72266418E+02</pdfrwt>
<pdfrwt beam="1">  1       -3 0.16957456E+00 0.22883266E+02</pdfrwt>
<totfact> 0.14741955E+00</totfact>
</mgrwt>
</event>
<event>
13    1  0.1675423E-008  0.1366110E+03  0.7546771E-02  0.1345768E+00
          2   -1    0    0  503    0  0.00000000000E+00  0.00000000000E+00  0.99490492044E+03  0.99490492044E+03  0.00000000000E+00 0. -1.
         -1   -1    0    0    0  501 -0.00000000000E+00 -0.00000000000E+00 -0.18910420324E+04  0.18910420324E+04  0.00000000000E+00 0.  1.
         24    2    1    2    0    0  0.11091261778E+03  0.67469569875E+02  0.23138923439E+03  0.27904901090E+03  0.86450107309E+02 0.  0.
         25    2    1    2    0    0 -0.87721857761E+02 -0.10637021330E+02 -0.81540144738E+03  0.82964575699E+03  0.12499716457E+03 0.  0.
         24    2    1    2    0    0  0.20772880674E+02  0.63563508143E+02 -0.12528819815E+02  0.10527874726E+03  0.80341839415E+02 0.  0.
        -11    1    3    3    0    0  0.52820435721E+02  0.76709891095E+02  0.10981566436E+03  0.14399265939E+03  0.00000000000E+00 0.  1.
         12    1    3    3    0    0  0.58092182058E+02 -0.92403212205E+01  0.12157357003E+03  0.13505635151E+03  0.00000000000E+00 0. -1.
        -13    1    5    5    0    0  0.24820301763E+02 -0.35031775565E+01  0.18615558240E+02  0.31222726357E+02  0.00000000000E+00 0.  1.
         14    1    5    5    0    0 -0.40474210895E+01  0.67066685699E+02 -0.31144378055E+02  0.74056020907E+02  0.00000000000E+00 0. -1.
          5    1    4    4  502    0 -0.61755767688E+01 -0.57664594810E+02 -0.27520620270E+03  0.28128968564E+03  0.47000000000E+01 0. -1.
         -5    1    4    4    0  502 -0.81546280992E+02  0.47027573480E+02 -0.54019524468E+03  0.54835607135E+03  0.47000000000E+01 0. -1.
          1    1    1    2  503    0 -0.26069726889E+02 -0.15673890420E+03  0.67656479006E+03  0.69497239506E+03  0.00000000000E+00 0. -1.
         -2    1    1    2    0  501 -0.17893913803E+02  0.36342847508E+02 -0.97616086917E+03  0.97700104259E+03  0.00000000000E+00 0.  1.
<mgrwt>
<rscale>  0 0.74390860E+02</rscale>
<asrwt>0</asrwt>
<pdfrwt beam="1">  1        2 0.14630955E+00 0.13661097E+03</pdfrwt>
<pdfrwt beam="2">  1       -1 0.27809441E+00 0.40509193E+02</pdfrwt>
<totfact> 0.22286235E+00</totfact>
</mgrwt>
</event>
<event>
13    1  0.1675423E-008  0.9072026E+02  0.7546771E-02  0.1346872E+00
         -3   -1    0    0    0  501 -0.00000000000E+00  0.00000000000E+00  0.29784577486E+04  0.29784577486E+04  0.00000000000E+00 0.  1.
          2   -1    0    0  503    0  0.00000000000E+00 -0.00000000000E+00 -0.11210793046E+04  0.11210793046E+04  0.00000000000E+00 0. -1.
         24    2    1    2    0    0  0.12688141361E+02  0.36179389661E+02 -0.33970582714E+01  0.88685476167E+02  0.79897662736E+02 0.  0.
         25    2    1    2    0    0  0.77981411174E+02  0.11481037324E+02  0.45800802870E+03  0.48125559228E+03  0.12499070379E+03 0.  0.
         24    2    1    2    0    0  0.44293014633E+02 -0.10775758185E+03  0.88272590967E+02  0.16729262660E+03  0.81370787183E+02 0.  0.
        -11    1    3    3    0    0 -0.29672328595E+02  0.89425747829E+01 -0.18519861120E+02  0.36102658959E+02  0.00000000000E+00 0.  1.
         12    1    3    3    0    0  0.42360469956E+02  0.27236814879E+02  0.15122802849E+02  0.52582817209E+02  0.00000000000E+00 0. -1.
        -13    1    5    5    0    0  0.24153577408E+02  0.33460533266E+01  0.69184855211E+00  0.24394057245E+02  0.00000000000E+00 0.  1.
         14    1    5    5    0    0  0.20139437225E+02 -0.11110363518E+03  0.87580742415E+02  0.14289856936E+03  0.00000000000E+00 0. -1.
          5    1    4    4  502    0  0.59315408981E+02 -0.24056313150E+02  0.42283481941E+03  0.42767791438E+03  0.47000000000E+01 0. -1.
         -5    1    4    4    0  502  0.18666002193E+02  0.35537350474E+02  0.35173209296E+02  0.53577677896E+02  0.47000000000E+01 0. -1.
          1    1    1    2  503    0 -0.75368371350E+02  0.50106708924E+02 -0.10215128184E+04  0.10255142671E+04  0.00000000000E+00 0. -1.
         -4    1    1    2    0  501 -0.59594195818E+02  0.99904459434E+01  0.23360077010E+04  0.23367890911E+04  0.00000000000E+00 0.  1.
<mgrwt>
<rscale>  0 0.74039476E+02</rscale>
<asrwt>0</asrwt>
<pdfrwt beam="2">  1        2 0.16486460E+00 0.90720258E+02</pdfrwt>
<pdfrwt beam="1">  1       -3 0.43800849E+00 0.60425799E+02</pdfrwt>
<totfact> 0.15340013E-01</totfact>
</mgrwt>
</event>
<event>
13    1  0.1675423E-008  0.6714173E+02  0.7546771E-02  0.1385561E+00
          2   -1    0    0  503    0  0.00000000000E+00  0.00000000000E+00  0.12784298734E+04  0.12784298734E+04  0.00000000000E+00 0. -1.
          2   -1    0    0  502    0 -0.00000000000E+00 -0.00000000000E+00 -0.43418611992E+03  0.43418611992E+03  0.00000000000E+00 0. -1.
         24    2    1    2    0    0  0.13030051266E+03  0.82057611884E+02  0.16759947808E+03  0.24092226586E+03  0.79008087357E+02 0.  0.
         25    2    1    2    0    0 -0.13439303639E+03 -0.13193352328E+03  0.13407060013E+03  0.26280804872E+03  0.12500080742E+03 0.  0.
         24    2    1    2    0    0 -0.29612815728E+02 -0.15270464847E+02 -0.14626096728E+03  0.17053211786E+03  0.81109966834E+02 0.  0.
        -11    1    3    3    0    0  0.12462560797E+03  0.42663361848E+02  0.14152020786E+03  0.19333823688E+03  0.00000000000E+00 0.  1.
         12    1    3    3    0    0  0.56749046888E+01  0.39394250036E+02  0.26079270217E+02  0.47584028982E+02  0.00000000000E+00 0. -1.
        -11    1    5    5    0    0  0.18747659984E+02  0.40001785954E+01 -0.47500868182E+01  0.19749417927E+02  0.00000000000E+00 0.  1.
         12    1    5    5    0    0 -0.48360475712E+02 -0.19270643442E+02 -0.14151088046E+03  0.15078269993E+03  0.00000000000E+00 0. -1.
          5    1    4    4  501    0 -0.15637057349E+03 -0.10866435521E+03  0.12903203852E+03  0.23006750164E+03  0.47000000000E+01 0. -1.
         -5    1    4    4    0  501  0.21977537100E+02 -0.23269168075E+02  0.50385616032E+01  0.32740547077E+02  0.47000000000E+01 0. -1.
          1    1    1    2  502    0 -0.31782927588E+02  0.49896945345E+02 -0.16839823417E+03  0.17848760437E+03  0.00000000000E+00 0. -1.
          1    1    1    2  503    0  0.65488267044E+02  0.15249430900E+02  0.85723287674E+03  0.85986595655E+03  0.00000000000E+00 0. -1.
<mgrwt>
<rscale>  0 0.63024431E+02</rscale>
<asrwt>0</asrwt>
<pdfrwt beam="1">  1        2 0.18800439E+00 0.67141734E+02</pdfrwt>
<pdfrwt beam="2">  1        2 0.63850901E-01 0.59159612E+02</pdfrwt>
<totfact> 0.25584720E+02</totfact>
</mgrwt>
</event>
<event>
13    1  0.1675423E-008  0.1271435E+03  0.7546771E-02  0.1375220E+00
          2   -1    0    0  502    0  0.00000000000E+00  0.00000000000E+00  0.47357879167E+03  0.47357879167E+03  0.00000000000E+00 0. -1.
          2   -1    0    0  503    0 -0.00000000000E+00 -0.00000000000E+00 -0.36305368783E+04  0.36305368783E+04  0.00000000000E+00 0. -1.
         24    2    1    2    0    0  0.11476098578E+02 -0.90768049780E+02  0.13900512167E+02  0.12187392002E+03  0.79306295109E+02 0.  0.
         25    2    1    2    0    0 -0.17925721223E+03 -0.53573505338E+02  0.48050530106E+02  0.23008339987E+03  0.12500499527E+03 0.  0.
         24    2    1    2    0    0  0.13795954845E+02  0.22123822829E+02 -0.61999897218E+03  0.62530771530E+03  0.77014423286E+02 0.  0.
        -11    1    3    3    0    0 -0.23922754931E+02 -0.18905364838E+02  0.26969021036E+02  0.40706745372E+02  0.00000000000E+00 0.  1.
         12    1    3    3    0    0  0.35398853509E+02 -0.71862684942E+02 -0.13068508869E+02  0.81167174651E+02  0.00000000000E+00 0. -1.
        -13    1    5    5    0    0 -0.20354670070E+02  0.22994427500E+02 -0.11117826762E+03  0.11534150806E+03  0.00000000000E+00 0.  1.
         14    1    5    5    0    0  0.34150624915E+02 -0.87060467158E+00 -0.50882070456E+03  0.50996620724E+03  0.00000000000E+00 0. -1.
          5    1    4    4  501    0 -0.15247366357E+03 -0.43609948824E+00  0.68179587017E+02  0.16708965962E+03  0.47000000000E+01 0. -1.
         -5    1    4    4    0  501 -0.26783548658E+02 -0.53137405849E+02 -0.20129056911E+02  0.62993740254E+02  0.47000000000E+01 0. -1.
          1    1    1    2  502    0  0.33857803601E+00  0.33986498009E+02  0.26012233800E+03  0.26233342793E+03  0.00000000000E+00 0. -1.
          1    1    1    2  503    0  0.15364658077E+03  0.88231234280E+02 -0.28590324948E+04  0.28645172069E+04  0.00000000000E+00 0. -1.
<mgrwt>
<rscale>  0 0.65737176E+02</rscale>
<asrwt>0</asrwt>
<pdfrwt beam="1">  1        2 0.69643942E-01 0.33988184E+02</pdfrwt>
<pdfrwt beam="2">  1        2 0.53390246E+00 0.12714349E+03</pdfrwt>
<totfact> 0.13395914E+01</totfact>
</mgrwt>
</event>
<event>
13    1  0.1809444E-008  0.7198247E+02  0.7546771E-02  0.1400162E+00
          2   -1    0    0  502    0  0.00000000000E+00  0.00000000000E+00  0.38373557699E+04  0.38373557699E+04  0.00000000000E+00 0. -1.
          2   -1    0    0  503    0 -0.00000000000E+00 -0.00000000000E+00 -0.25878290849E+04  0.25878290849E+04  0.00000000000E+00 0. -1.
         24    2    1    2    0    0 -0.94431852470E+03  0.52646908255E+03  0.10581224281E+04  0.15168360862E+04  0.11073151640E+03 0.  0.
         25    2    1    2    0    0  0.90817978178E+03 -0.94723612232E+03 -0.96478743547E+02  0.13217337721E+04  0.12500091572E+03 0.  0.
         24    2    1    2    0    0  0.78251954823E+02  0.44549658931E+03 -0.41451939799E+03  0.61895989640E+03  0.81819572952E+02 0.  0.
        -11    1    3    3    0    0 -0.73586423287E+03  0.36195914491E+03  0.82932737315E+03  0.11663166310E+04  0.00000000000E+00 0.  1.
         12    1    3    3    0    0 -0.20845429183E+03  0.16450993764E+03  0.22879505495E+03  0.35051945529E+03  0.00000000000E+00 0. -1.
        -13    1    5    5    0    0  0.62339419421E+02  0.16227788642E+03 -0.18701818862E+03  0.25533530604E+03  0.00000000000E+00 0.  1.
         14    1    5    5    0    0  0.15912535402E+02  0.28321870289E+03 -0.22750120937E+03  0.36362459036E+03  0.00000000000E+00 0. -1.
          5    1    4    4  501    0  0.44528321368E+02 -0.62257069938E+02  0.21240648825E+02  0.79573672302E+02  0.47000000000E+01 0. -1.
         -5    1    4    4    0  501  0.86365146041E+03 -0.88497905238E+03 -0.11771939237E+03  0.12421600998E+04  0.47000000000E+01 0. -1.
          1    1    1    2  502    0 -0.20763546725E+02 -0.68941122897E+02  0.18337899023E+04  0.18352028250E+04  0.00000000000E+00 0. -1.
          1    1    1    2  503    0 -0.21349665176E+02  0.44211573354E+02 -0.11313875038E+04  0.11324522751E+04  0.00000000000E+00 0. -1.
<mgrwt>
<rscale>  0 0.59448222E+02</rscale>
<asrwt>0</asrwt>
<pdfrwt beam="1">  1        2 0.56431703E+00 0.71982471E+02</pdfrwt>
<pdfrwt beam="2">  1        2 0.38056310E+00 0.49096552E+02</pdfrwt>
<totfact> 0.82003406E-01</totfact>
</mgrwt>
</event>
<event>
13    1  0.1675423E-008  0.1281257E+03  0.7546771E-02  0.1361455E+00
          2   -1    0    0  503    0  0.00000000000E+00  0.00000000000E+00  0.45283941408E+04  0.45283941408E+04  0.00000000000E+00 0. -1.
         -1   -1    0    0    0  501 -0.00000000000E+00 -0.00000000000E+00 -0.67086296044E+03  0.67086296044E+03  0.00000000000E+00 0.  1.
         24    2    1    2    0    0  0.24106053360E+02  0.55138913153E+02  0.13515403326E+04  0.13553162222E+04  0.81236629653E+02 0.  0.
         25    2    1    2    0    0 -0.24667076796E+02 -0.52507098132E+02 -0.26884668410E+03  0.30210108388E+03  0.12498426020E+03 0.  0.
         24    2    1    2    0    0 -0.92619371944E+02 -0.40579736755E+02  0.10352739454E+04  0.10437123514E+04  0.85546872347E+02 0.  0.
        -11    1    3    3    0    0 -0.25412868253E+01 -0.11075103211E+02  0.34090045417E+02  0.35933928903E+02  0.00000000000E+00 0.  1.
         12    1    3    3    0    0  0.26647340186E+02  0.66214016365E+02  0.13174502872E+04  0.13193822933E+04  0.00000000000E+00 0. -1.
        -13    1    5    5    0    0 -0.77484544603E+02 -0.52730052074E+02  0.99035048670E+03  0.99477555235E+03  0.00000000000E+00 0.  1.
         14    1    5    5    0    0 -0.15134827341E+02  0.12150315319E+02  0.44923458725E+02  0.48936799086E+02  0.00000000000E+00 0. -1.
          5    1    4    4  502    0 -0.18936407506E+02 -0.65510773870E+02 -0.55008745399E+02  0.87739962917E+02  0.47000000000E+01 0.  1.
         -5    1    4    4    0  502 -0.57306692901E+01  0.13003675738E+02 -0.21383793870E+03  0.21436112096E+03  0.47000000000E+01 0.  1.
          1    1    1    2  503    0  0.13096709358E+03  0.36647641119E+02  0.21157145724E+04  0.21200810318E+04  0.00000000000E+00 0. -1.
         -2    1    1    2    0  501 -0.37786698203E+02  0.13002806148E+01 -0.37615098603E+03  0.37804641194E+03  0.00000000000E+00 0.  1.
<mgrwt>
<rscale>  0 0.69601101E+02</rscale>
<asrwt>0</asrwt>
<pdfrwt beam="1">  1        2 0.66594030E+00 0.12812571E+03</pdfrwt>
<pdfrwt beam="2">  1       -1 0.98656320E-01 0.37809064E+02</pdfrwt>
<totfact> 0.37250863E-01</totfact>
</mgrwt>
</event>
<event>
13    1  0.1675423E-008  0.1020706E+03  0.7546771E-02  0.1285046E+00
          2   -1    0    0  502    0  0.00000000000E+00  0.00000000000E+00  0.11010375378E+04  0.11010375378E+04  0.00000000000E+00 0. -1.
          4   -1    0    0  503    0 -0.00000000000E+00 -0.00000000000E+00 -0.93095661734E+03  0.93095661734E+03  0.00000000000E+00 0. -1.
         24    2    1    2    0    0 -0.40126834599E+02  0.26660614851E+02  0.47330921179E+03  0.48185462821E+03  0.76428538653E+02 0.  0.
         25    2    1    2    0    0  0.61426826251E+02  0.87599536134E+02 -0.22040929930E+03  0.27504975833E+03  0.12500070651E+03 0.  0.
         24    2    1    2    0    0 -0.89317042818E+01  0.19660322992E+01 -0.17564560827E+03  0.19343826693E+03  0.80519207549E+02 0.  0.
        -13    1    3    3    0    0  0.16303118172E+02  0.20993358509E+02  0.25185020276E+03  0.25324896326E+03  0.00000000000E+00 0.  1.
         14    1    3    3    0    0 -0.56429952771E+02  0.56672563421E+01  0.22145900903E+03  0.22860566495E+03  0.00000000000E+00 0. -1.
        -13    1    5    5    0    0 -0.17026048244E+02  0.66263648938E+01 -0.18149858190E+03  0.18241581692E+03  0.00000000000E+00 0.  1.
         14    1    5    5    0    0  0.80943439623E+01 -0.46603325946E+01  0.58529736263E+01  0.11022450015E+02  0.00000000000E+00 0. -1.
          5    1    4    4  501    0  0.38814258007E+02  0.11893950656E+03 -0.17605053766E+03  0.21603017071E+03  0.47000000000E+01 0.  1.
         -5    1    4    4    0  501  0.22612568244E+02 -0.31339970430E+02 -0.44358761638E+02  0.59019587623E+02  0.47000000000E+01 0.  1.
          1    1    1    2  502    0  0.88007862052E+02 -0.13132905131E+03  0.57117615106E+03  0.59265073951E+03  0.00000000000E+00 0. -1.
          3    1    1    2  503    0 -0.10037614942E+03  0.15102868026E+02 -0.47834953478E+03  0.48900076219E+03  0.00000000000E+00 0. -1.
<mgrwt>
<rscale>  0 0.97774752E+02</rscale>
<asrwt>0</asrwt>
<pdfrwt beam="1">  1        2 0.16191729E+00 0.10207059E+03</pdfrwt>
<pdfrwt beam="2">  1        4 0.13690538E+00 0.93659716E+02</pdfrwt>
<totfact> 0.53602166E+00</totfact>
</mgrwt>
</event>
<event>
13    1  0.1675423E-008  0.7620692E+02  0.7546771E-02  0.1409351E+00
          2   -1    0    0  502    0  0.00000000000E+00  0.00000000000E+00  0.31341706058E+03  0.31341706058E+03  0.00000000000E+00 0. -1.
          2   -1    0    0  503    0 -0.00000000000E+00 -0.00000000000E+00 -0.91184507543E+03  0.91184507543E+03  0.00000000000E+00 0. -1.
         24    2    1    2    0    0  0.38244144154E+02  0.11864895134E+03  0.10100037716E+03  0.17961763549E+03  0.80754136591E+02 0.  0.
         25    2    1    2    0    0  0.35748795418E+02 -0.26395756112E+02 -0.61092786977E+03  0.62516498179E+03  0.12499472017E+03 0.  0.
         24    2    1    2    0    0 -0.45899109385E+02 -0.25664224440E+02 -0.45080710190E+02  0.10873743386E+03  0.83822302717E+02 0.  0.
        -11    1    3    3    0    0  0.32321133860E+02  0.10750589878E+03  0.11504215236E+03  0.16073851681E+03  0.00000000000E+00 0.  1.
         12    1    3    3    0    0  0.59230102942E+01  0.11143052564E+02 -0.14041775202E+02  0.18879118682E+02  0.00000000000E+00 0. -1.
        -13    1    5    5    0    0  0.46971149822E+01 -0.44150441434E+02 -0.26755994352E+02  0.51838283168E+02  0.00000000000E+00 0.  1.
         14    1    5    5    0    0 -0.50596224367E+02  0.18486216995E+02 -0.18324715838E+02  0.56899150692E+02  0.00000000000E+00 0. -1.
          5    1    4    4  501    0  0.71788709823E+01  0.42821475162E+02 -0.37646851890E+03  0.37899320660E+03  0.47000000000E+01 0.  1.
         -5    1    4    4    0  501  0.28569924436E+02 -0.69217231275E+02 -0.23445935087E+03  0.24617177519E+03  0.47000000000E+01 0.  1.
          1    1    1    2  502    0 -0.63712943674E+02 -0.42246593809E+02  0.12024390898E+03  0.14248758377E+03  0.00000000000E+00 0. -1.
          1    1    1    2  503    0  0.35619113487E+02 -0.24342376982E+02 -0.16366372103E+03  0.16925450110E+03  0.00000000000E+00 0. -1.
<mgrwt>
<rscale>  0 0.57338944E+02</rscale>
<asrwt>0</asrwt>
<pdfrwt beam="1">  1        2 0.46090744E-01 0.76206916E+02</pdfrwt>
<pdfrwt beam="2">  1        2 0.13409486E+00 0.43142468E+02</pdfrwt>
<totfact> 0.57875971E+02</totfact>
</mgrwt>
</event>
<event>
13    1  0.1675423E-008  0.8695971E+02  0.7546771E-02  0.1357711E+00
          2   -1    0    0  502    0  0.00000000000E+00  0.00000000000E+00  0.28962774505E+04  0.28962774505E+04  0.00000000000E+00 0. -1.
          2   -1    0    0  503    0 -0.00000000000E+00 -0.00000000000E+00 -0.12922744029E+04  0.12922744029E+04  0.00000000000E+00 0. -1.
         24    2    1    2    0    0 -0.29042528145E+02  0.91150009642E+03  0.69098340833E+03  0.11469621992E+04  0.79926976990E+02 0.  0.
         25    2    1    2    0    0  0.15945124691E+03  0.26437396595E+03  0.34959213979E+03  0.48286499317E+03  0.12500257361E+03 0.  0.
         24    2    1    2    0    0 -0.17695966865E+03 -0.12693675073E+04  0.10342015103E+04  0.16497142005E+04  0.96827612081E+02 0.  0.
        -11    1    3    3    0    0  0.11958390337E+02  0.25980185694E+03  0.23503821011E+03  0.35054667047E+03  0.00000000000E+00 0.  1.
         12    1    3    3    0    0 -0.41000918482E+02  0.65169823947E+03  0.45594519822E+03  0.79641552875E+03  0.00000000000E+00 0. -1.
        -13    1    5    5    0    0 -0.11553180469E+03 -0.94031960159E+03  0.71206200036E+03  0.11851501354E+04  0.00000000000E+00 0.  1.
         14    1    5    5    0    0 -0.61427863960E+02 -0.32904790568E+03  0.32213950996E+03  0.46456406509E+03  0.00000000000E+00 0. -1.
          5    1    4    4  501    0  0.15812399334E+03  0.16944790787E+03  0.20289412516E+03  0.30806477692E+03  0.47000000000E+01 0. -1.
         -5    1    4    4    0  501  0.13272535666E+01  0.94926058081E+02  0.14669801463E+03  0.17480021625E+03  0.47000000000E+01 0. -1.
          1    1    1    2  502    0  0.57040521558E+02  0.71689727634E+01  0.21254387209E+03  0.22018154517E+03  0.00000000000E+00 0. -1.
          1    1    1    2  503    0 -0.10489571673E+02  0.86324472132E+02 -0.68331788289E+03  0.68882891539E+03  0.00000000000E+00 0. -1.
<mgrwt>
<rscale>  0 0.70705372E+02</rscale>
<asrwt>0</asrwt>
<pdfrwt beam="1">  1        2 0.42592315E+00 0.57489262E+02</pdfrwt>
<pdfrwt beam="2">  1        2 0.19004035E+00 0.86959711E+02</pdfrwt>
<totfact> 0.11461930E+01</totfact>
</mgrwt>
</event>
<event>
13    1  0.1675423E-008  0.1846708E+03  0.7546771E-02  0.1282856E+00
          2   -1    0    0  503    0  0.00000000000E+00  0.00000000000E+00  0.35161456425E+04  0.35161456425E+04  0.00000000000E+00 0. -1.
          2   -1    0    0  502    0 -0.00000000000E+00 -0.00000000000E+00 -0.16861055088E+04  0.16861055088E+04  0.00000000000E+00 0. -1.
         24    2    1    2    0    0 -0.95324267019E+02 -0.29122192879E+03  0.23117849124E+04  0.23334019470E+04  0.80735603808E+02 0.  0.
         25    2    1    2    0    0  0.37899107044E+03  0.15851150442E+03  0.93648577500E+02  0.43949116358E+03  0.12498919269E+03 0.  0.
         24    2    1    2    0    0 -0.16790083302E+03 -0.65280889515E+02  0.23388038457E+03  0.30504925368E+03  0.76829217219E+02 0.  0.
        -11    1    5    5    0    0 -0.42104909247E+02  0.81721161910E+01  0.92928617707E+02  0.10234908331E+03  0.00000000000E+00 0.  1.
         12    1    5    5    0    0 -0.12579592377E+03 -0.73453005706E+02  0.14095176687E+03  0.20270017037E+03  0.00000000000E+00 0. -1.
        -13    1    3    3    0    0 -0.31996951105E+02 -0.75961749113E+02  0.39360229772E+03  0.40214022552E+03  0.00000000000E+00 0.  1.
         14    1    3    3    0    0 -0.63327315913E+02 -0.21526017968E+03  0.19181826146E+04  0.19312617215E+04  0.00000000000E+00 0. -1.
          5    1    4    4  501    0  0.12359654533E+03  0.11755229435E+03  0.33607426167E+02  0.17391433816E+03  0.47000000000E+01 0. -1.
         -5    1    4    4    0  501  0.25539452512E+03  0.40959210075E+02  0.60041151333E+02  0.26557682543E+03  0.47000000000E+01 0. -1.
          1    1    1    2  502    0 -0.42742181596E+02  0.31085093170E+02 -0.14536823405E+04  0.14546427480E+04  0.00000000000E+00 0. -1.
          1    1    1    2  503    0 -0.73023788812E+02  0.16690622071E+03  0.64440859986E+03  0.66966603903E+03  0.00000000000E+00 0. -1.
<mgrwt>
<rscale>  0 0.98792444E+02</rscale>
<asrwt>0</asrwt>
<pdfrwt beam="1">  1        2 0.51708024E+00 0.18467080E+03</pdfrwt>
<pdfrwt beam="2">  1        2 0.24795669E+00 0.52850517E+02</pdfrwt>
<totfact> 0.28639970E+00</totfact>
</mgrwt>
</event>
<event>
13    1  0.1675423E-008  0.3175228E+02  0.7546771E-02  0.1635134E+00
         -1   -1    0    0    0  501 -0.00000000000E+00  0.00000000000E+00  0.14045343178E+04  0.14045343178E+04  0.00000000000E+00 0.  1.
          2   -1    0    0  503    0  0.00000000000E+00 -0.00000000000E+00 -0.22305159492E+04  0.22305159492E+04  0.00000000000E+00 0. -1.
         24    2    1    2    0    0 -0.32960134256E+03  0.17661001878E+03 -0.14545627228E+04  0.15040428526E+04  0.81018790326E+02 0.  0.
         25    2    1    2    0    0  0.37753980241E+03 -0.78234469594E+02  0.81545720468E+03  0.91063276730E+03  0.12499859830E+03 0.  0.
         24    2    1    2    0    0 -0.41799482331E+02 -0.57866176121E+02 -0.68681617469E+02  0.12636401671E+03  0.78453865931E+02 0.  0.
        -13    1    5    5    0    0  0.19929984392E+02  0.17359742166E+01 -0.16530947257E+02  0.25951687836E+02  0.00000000000E+00 0.  1.
         14    1    5    5    0    0 -0.61729466723E+02 -0.59602150338E+02 -0.52150670212E+02  0.10041232888E+03  0.00000000000E+00 0. -1.
        -13    1    3    3    0    0 -0.63856359085E+02  0.23563508349E+01 -0.28510698562E+03  0.29218004763E+03  0.00000000000E+00 0.  1.
         14    1    3    3    0    0 -0.26574498348E+03  0.17425366794E+03 -0.11694557371E+04  0.12118628050E+04  0.00000000000E+00 0. -1.
          5    1    4    4  502    0  0.21222541557E+03  0.11723824552E+02  0.36476726538E+03  0.42220175623E+03  0.47000000000E+01 0.  1.
         -5    1    4    4    0  502  0.16531438684E+03 -0.89958294146E+02  0.45068993930E+03  0.48843101107E+03  0.47000000000E+01 0.  1.
          1    1    1    2  503    0  0.13400832057E+02 -0.28784658335E+02 -0.60542025358E+03  0.60625227612E+03  0.00000000000E+00 0. -1.
         -2    1    1    2    0  501 -0.19539809570E+02 -0.11724714729E+02  0.48722575773E+03  0.48775835420E+03  0.00000000000E+00 0.  1.
<mgrwt>
<rscale>  0 0.26899019E+02</rscale>
<asrwt>0</asrwt>
<pdfrwt beam="2">  1        2 0.32801705E+00 0.31752285E+02</pdfrwt>
<pdfrwt beam="1">  1       -1 0.20654917E+00 0.22787564E+02</pdfrwt>
<totfact> 0.17880472E+00</totfact>
</mgrwt>
</event>
<event>
13    1  0.1675423E-008  0.4304423E+02  0.7546771E-02  0.1554886E+00
          4   -1    0    0  503    0  0.00000000000E+00  0.00000000000E+00  0.17852552979E+04  0.17852552979E+04  0.00000000000E+00 0. -1.
         -1   -1    0    0    0  501 -0.00000000000E+00 -0.00000000000E+00 -0.73952293191E+03  0.73952293191E+03  0.00000000000E+00 0.  1.
         24    2    1    2    0    0 -0.40995690548E+02  0.83381475672E+02  0.76682015493E+03  0.77656560959E+03  0.80049227686E+02 0.  0.
         25    2    1    2    0    0 -0.10965156049E+03 -0.44531331040E+02 -0.12142052110E+03  0.21065526917E+03  0.12500478120E+03 0.  0.
         24    2    1    2    0    0  0.10220862440E+03 -0.42204805923E+02  0.77173951616E+03  0.78373253280E+03  0.80168283112E+02 0.  0.
        -11    1    3    3    0    0 -0.79405887126E+01 -0.15113005560E+02  0.70506069100E+02  0.72543515673E+02  0.00000000000E+00 0.  1.
         12    1    3    3    0    0 -0.33055101836E+02  0.98494481232E+02  0.69631408583E+03  0.70402209391E+03  0.00000000000E+00 0. -1.
        -13    1    5    5    0    0  0.12094732271E+02 -0.39247620579E+02  0.35396140888E+03  0.35633598927E+03  0.00000000000E+00 0.  1.
         14    1    5    5    0    0  0.90113892133E+02 -0.29571853444E+01  0.41777810728E+03  0.42739654353E+03  0.00000000000E+00 0. -1.
          5    1    4    4  502    0 -0.11690000543E+03 -0.72922261648E+02 -0.79019144474E+02  0.15890054345E+03  0.47000000000E+01 0.  1.
         -5    1    4    4    0  502  0.72484449421E+01  0.28390930608E+02 -0.42401376625E+02  0.51754725722E+02  0.47000000000E+01 0.  1.
          3    1    1    2  503    0  0.14525867362E+02 -0.23156769271E+02  0.18940300115E+03  0.19136544524E+03  0.00000000000E+00 0. -1.
         -2    1    1    2    0  501  0.33912759273E+02  0.26511430562E+02 -0.56080978515E+03  0.56245937303E+03  0.00000000000E+00 0.  1.
<mgrwt>
<rscale>  0 0.34302205E+02</rscale>
<asrwt>0</asrwt>
<pdfrwt beam="1">  1        4 0.26253754E+00 0.27335632E+02</pdfrwt>
<pdfrwt beam="2">  1       -1 0.10875337E+00 0.43044232E+02</pdfrwt>
<totfact> 0.23579149E-01</totfact>
</mgrwt>
</event>
<event>
13    1  0.1675423E-008  0.1926069E+03  0.7546771E-02  0.1231951E+00
          2   -1    0    0  502    0  0.00000000000E+00  0.00000000000E+00  0.24277661507E+04  0.24277661507E+04  0.00000000000E+00 0. -1.
          2   -1    0    0  503    0 -0.00000000000E+00 -0.00000000000E+00 -0.13908019709E+04  0.13908019709E+04  0.00000000000E+00 0. -1.
         24    2    1    2    0    0 -0.16579362617E+03 -0.56506292973E+02  0.35222065984E+03  0.39661894786E+03  0.50662697901E+02 0.  0.
         25    2    1    2    0    0  0.20370220270E+03 -0.10367578735E+03 -0.86923763850E+03  0.90743763147E+03  0.12500290617E+03 0.  0.
         24    2    1    2    0    0 -0.47667442161E+02  0.34647709084E+02  0.17552094243E+03  0.20138589955E+03  0.79221401908E+02 0.  0.
        -11    1    3    3    0    0 -0.51145973069E+02 -0.13337825421E+02  0.61204418659E+02  0.80868961979E+02  0.00000000000E+00 0.  1.
         12    1    3    3    0    0 -0.11464765310E+03 -0.43168467553E+02  0.29101624118E+03  0.31574998588E+03  0.00000000000E+00 0. -1.
        -13    1    5    5    0    0 -0.20871988257E+02 -0.14062557837E+02  0.10531690465E+02  0.27282080763E+02  0.00000000000E+00 0.  1.
         14    1    5    5    0    0 -0.26795453904E+02  0.48710266921E+02  0.16498925196E+03  0.17410381879E+03  0.00000000000E+00 0. -1.
          5    1    4    4  501    0  0.28974252668E+02 -0.69290542476E+02 -0.36447582673E+03  0.37216314281E+03  0.47000000000E+01 0.  1.
         -5    1    4    4    0  501  0.17472795004E+03 -0.34385244873E+02 -0.50476181177E+03  0.53527448866E+03  0.47000000000E+01 0.  1.
          1    1    1    2  502    0  0.10900081455E+03 -0.16385424728E+02  0.18280323913E+04  0.18313525284E+04  0.00000000000E+00 0. -1.
          1    1    1    2  503    0 -0.99241948927E+02  0.14191979597E+03 -0.44957217529E+03  0.48177311435E+03  0.00000000000E+00 0. -1.
<mgrwt>
<rscale>  0 0.12701680E+03</rscale>
<asrwt>0</asrwt>
<pdfrwt beam="1">  1        2 0.35702443E+00 0.83762658E+02</pdfrwt>
<pdfrwt beam="2">  1        2 0.20452970E+00 0.19260693E+03</pdfrwt>
<totfact> 0.15692752E+01</totfact>
</mgrwt>
</event>
<event>
13    1  0.1675423E-008  0.8799274E+02  0.7546771E-02  0.1319607E+00
          2   -1    0    0  503    0  0.00000000000E+00  0.00000000000E+00  0.29379095327E+04  0.29379095327E+04  0.00000000000E+00 0. -1.
          2   -1    0    0  502    0 -0.00000000000E+00 -0.00000000000E+00 -0.27047655450E+04  0.27047655450E+04  0.00000000000E+00 0. -1.
         24    2    1    2    0    0  0.92008310399E+01 -0.52544513731E+02  0.56905433030E+03  0.57708339843E+03  0.79729772918E+02 0.  0.
         25    2    1    2    0    0 -0.80332264663E+02  0.11644502772E+03 -0.49054962311E+03  0.52562093370E+03  0.12500286392E+03 0.  0.
         24    2    1    2    0    0 -0.47424908667E+02  0.62279245101E+02 -0.10098744054E+03  0.13863612774E+03  0.53792996142E+02 0.  0.
        -11    1    3    3    0    0 -0.21565510129E+02 -0.54333375529E+02  0.25970195779E+03  0.26619972540E+03  0.00000000000E+00 0.  1.
         12    1    3    3    0    0  0.30766341169E+02  0.17888617983E+01  0.30935237251E+03  0.31088367303E+03  0.00000000000E+00 0. -1.
        -11    1    5    5    0    0 -0.47570682064E+02  0.20846610652E+02 -0.43349671076E+02  0.67651644105E+02  0.00000000000E+00 0.  1.
         12    1    5    5    0    0  0.14577339727E+00  0.41432634450E+02 -0.57637769468E+02  0.70984483633E+02  0.00000000000E+00 0. -1.
          5    1    4    4  501    0  0.42914192737E+01 -0.23730974162E+02 -0.76382951072E+02  0.80237277051E+02  0.47000000000E+01 0. -1.
         -5    1    4    4    0  501 -0.84623683936E+02  0.14017600188E+03 -0.41416667204E+03  0.44538365665E+03  0.47000000000E+01 0. -1.
          1    1    1    2  502    0  0.31104906596E+02 -0.11643453615E+03 -0.20702695591E+04  0.20737744727E+04  0.00000000000E+00 0. -1.
          1    1    1    2  503    0  0.87451435693E+02 -0.97452229420E+01  0.23258962802E+04  0.23275601451E+04  0.00000000000E+00 0. -1.
<mgrwt>
<rscale>  0 0.83423732E+02</rscale>
<asrwt>0</asrwt>
<pdfrwt beam="1">  1        2 0.43204552E+00 0.87992744E+02</pdfrwt>
<pdfrwt beam="2">  1        2 0.39775964E+00 0.79091965E+02</pdfrwt>
<totfact> 0.21128470E+00</totfact>
</mgrwt>
</event>
<event>
13    1  0.1675423E-008  0.1304490E+03  0.7546771E-02  0.1228809E+00
          2   -1    0    0  503    0  0.00000000000E+00  0.00000000000E+00  0.12208853711E+04  0.12208853711E+04  0.00000000000E+00 0. -1.
          2   -1    0    0  502    0 -0.00000000000E+00 -0.00000000000E+00 -0.31842662216E+04  0.31842662216E+04  0.00000000000E+00 0. -1.
         24    2    1    2    0    0 -0.51830734796E+02  0.53054426167E+02  0.95536609382E+02  0.14549902862E+03  0.80879703220E+02 0.  0.
         25    2    1    2    0    0  0.17473053494E+03 -0.39519926573E+02 -0.94448656402E+03  0.96941330211E+03  0.12495877824E+03 0.  0.
         24    2    1    2    0    0  0.53290612239E+02  0.79387228334E+02 -0.29845670897E+02  0.12802181828E+03  0.79728291775E+02 0.  0.
        -11    1    3    3    0    0 -0.57103265148E+02  0.67262553488E+02  0.95933356570E+02  0.13033895387E+03  0.00000000000E+00 0.  1.
         12    1    3    3    0    0  0.52725303522E+01 -0.14208127321E+02 -0.39674718879E+00  0.15160074757E+02  0.00000000000E+00 0. -1.
        -11    1    5    5    0    0 -0.98927608296E+01  0.34098683080E+02  0.14697617455E+02  0.38426642625E+02  0.00000000000E+00 0.  1.
         12    1    5    5    0    0  0.63183373069E+02  0.45288545254E+02 -0.44543288352E+02  0.89595175655E+02  0.00000000000E+00 0. -1.
          5    1    4    4  501    0  0.16730340049E+03 -0.60915113522E+02 -0.64819120369E+03  0.67221648702E+03  0.47000000000E+01 0. -1.
         -5    1    4    4    0  501  0.74271344443E+01  0.21395186950E+02 -0.29629536033E+03  0.29719681510E+03  0.47000000000E+01 0. -1.
          1    1    1    2  502    0 -0.11219012703E+03  0.55926337759E+02 -0.21152166384E+04  0.21189279854E+04  0.00000000000E+00 0. -1.
          1    1    1    2  503    0 -0.64000285352E+02 -0.14884806569E+03  0.10306314135E+04  0.10432894583E+04  0.00000000000E+00 0. -1.
<mgrwt>
<rscale>  0 0.12909225E+03</rscale>
<asrwt>0</asrwt>
<pdfrwt beam="1">  1        2 0.17954197E+00 0.12774958E+03</pdfrwt>
<pdfrwt beam="2">  1        2 0.46827445E+00 0.13044903E+03</pdfrwt>
<totfact> 0.75085930E+00</totfact>
</mgrwt>
</event>
<event>
13    1  0.1675423E-008  0.2424229E+03  0.7546771E-02  0.1183291E+00
          2   -1    0    0  503    0  0.00000000000E+00  0.00000000000E+00  0.32418398801E+04  0.32418398801E+04  0.00000000000E+00 0. -1.
          2   -1    0    0  502    0 -0.00000000000E+00 -0.00000000000E+00 -0.40090680150E+04  0.40090680150E+04  0.00000000000E+00 0. -1.
         24    2    1    2    0    0  0.13397712901E+03 -0.58894105113E+02 -0.54235919930E+03  0.56763829125E+03  0.81494428763E+02 0.  0.
         25    2    1    2    0    0 -0.37317173471E+02  0.14821165507E+03 -0.15292613570E+03  0.24974169153E+03  0.12500097350E+03 0.  0.
         24    2    1    2    0    0 -0.42696591103E+03 -0.32107749495E+02 -0.11995489400E+04  0.12765671636E+04  0.85879374203E+02 0.  0.
        -11    1    5    5    0    0 -0.18924949216E+03 -0.26277481093E+01 -0.65199027002E+03  0.67890616991E+03  0.00000000000E+00 0.  1.
         12    1    5    5    0    0 -0.23771641887E+03 -0.29480001386E+02 -0.54755867001E+03  0.59766099369E+03  0.00000000000E+00 0. -1.
        -11    1    3    3    0    0  0.89045792310E+02  0.24241720899E+01 -0.33987751710E+03  0.35135702123E+03  0.00000000000E+00 0.  1.
         12    1    3    3    0    0  0.44931336695E+02 -0.61318277203E+02 -0.20248168220E+03  0.21628127003E+03  0.00000000000E+00 0. -1.
          5    1    4    4  501    0 -0.73443399660E+02  0.41311044093E+02 -0.69568966937E+02  0.10937306103E+03  0.47000000000E+01 0. -1.
         -5    1    4    4    0  501  0.36126226189E+02  0.10690061097E+03 -0.83357168763E+02  0.14036863050E+03  0.47000000000E+01 0. -1.
          1    1    1    2  502    0  0.21838525358E+03 -0.64305751739E+02 -0.20072402332E+04  0.20201090818E+04  0.00000000000E+00 0. -1.
          1    1    1    2  503    0  0.11192070191E+03  0.70959512791E+01  0.31348463733E+04  0.31368516669E+04  0.00000000000E+00 0. -1.
<mgrwt>
<rscale>  0 0.16488365E+03</rscale>
<asrwt>0</asrwt>
<pdfrwt beam="1">  1        2 0.47674116E+00 0.11214542E+03</pdfrwt>
<pdfrwt beam="2">  1        2 0.58956883E+00 0.24242289E+03</pdfrwt>
<totfact> 0.19997144E-01</totfact>
</mgrwt>
</event>
<event>
13    1  0.1675423E-008  0.1006288E+03  0.7546771E-02  0.1372020E+00
         -1   -1    0    0    0  501 -0.00000000000E+00  0.00000000000E+00  0.27813055660E+03  0.27813055660E+03  0.00000000000E+00 0.  1.
          2   -1    0    0  503    0  0.00000000000E+00 -0.00000000000E+00 -0.88894978602E+03  0.88894978602E+03  0.00000000000E+00 0. -1.
         24    2    1    2    0    0  0.76738051726E+02  0.10105201285E+03 -0.49406667570E+03  0.51651034405E+03  0.81122238586E+02 0.  0.
         25    2    1    2    0    0 -0.75567118556E+02 -0.15344735605E+03 -0.62868423854E+02  0.22098448109E+03  0.12500088671E+03 0.  0.
         24    2    1    2    0    0 -0.54853166146E+02  0.21558110072E+02 -0.91377145497E+01  0.10054287436E+03  0.80942879930E+02 0.  0.
        -13    1    5    5    0    0 -0.70802291705E+02 -0.27562533439E+01 -0.36414302087E+01  0.70949428871E+02  0.00000000000E+00 0.  1.
         14    1    5    5    0    0  0.15949125559E+02  0.24314363416E+02 -0.54962843410E+01  0.29593445490E+02  0.00000000000E+00 0. -1.
        -13    1    3    3    0    0  0.18355185373E+02 -0.11821862578E+02 -0.10393616796E+03  0.10620450214E+03  0.00000000000E+00 0.  1.
         14    1    3    3    0    0  0.58382866353E+02  0.11287387542E+03 -0.39013050774E+03  0.41030584191E+03  0.00000000000E+00 0. -1.
          5    1    4    4  502    0 -0.76642187837E+02 -0.17303513764E+03 -0.46317565944E+02  0.19489122795E+03  0.47000000000E+01 0.  1.
         -5    1    4    4    0  502  0.10750692820E+01  0.19587781597E+02 -0.16550857910E+02  0.26093253139E+02  0.47000000000E+01 0.  1.
          1    1    1    2  503    0  0.96543108992E+02  0.41175762701E+02 -0.16802766725E+03  0.19811439193E+03  0.00000000000E+00 0. -1.
         -2    1    1    2    0  501 -0.42860876016E+02 -0.10338529574E+02  0.12328125192E+03  0.13092825120E+03  0.00000000000E+00 0.  1.
<mgrwt>
<rscale>  0 0.66608841E+02</rscale>
<asrwt>0</asrwt>
<pdfrwt beam="2">  1        2 0.13072791E+00 0.10062881E+03</pdfrwt>
<pdfrwt beam="1">  1       -1 0.40901552E-01 0.44090134E+02</pdfrwt>
<totfact> 0.23135115E+02</totfact>
</mgrwt>
</event>
<event>
13    1  0.1675423E-008  0.5031920E+02  0.7546771E-02  0.1567642E+00
         -1   -1    0    0    0  501 -0.00000000000E+00  0.00000000000E+00  0.98646755272E+03  0.98646755272E+03  0.00000000000E+00 0.  1.
          2   -1    0    0  503    0  0.00000000000E+00 -0.00000000000E+00 -0.32848981438E+04  0.32848981438E+04  0.00000000000E+00 0. -1.
         24    2    1    2    0    0 -0.23867442649E+02 -0.38090148681E+02 -0.64021265413E+03  0.64680449018E+03  0.80394600385E+02 0.  0.
         25    2    1    2    0    0  0.57807706030E+02 -0.70739571022E+02 -0.21485642307E+02  0.15634973411E+03  0.12505114452E+03 0.  0.
         24    2    1    2    0    0  0.11087446320E+00  0.89881424445E+02 -0.37809160875E+03  0.39733351505E+03  0.82716230736E+02 0.  0.
        -11    1    5    5    0    0  0.94839638237E+01 -0.14511047594E+02 -0.54520167787E+02  0.57209831040E+02  0.00000000000E+00 0.  1.
         12    1    5    5    0    0 -0.93730893605E+01  0.10439247204E+03 -0.32357144096E+03  0.34012368401E+03  0.00000000000E+00 0. -1.
        -11    1    3    3    0    0  0.12408187793E+02 -0.34677329976E+02 -0.12520766094E+03  0.13051221666E+03  0.00000000000E+00 0.  1.
         12    1    3    3    0    0 -0.36275630442E+02 -0.34128187051E+01 -0.51500499318E+03  0.51629227352E+03  0.00000000000E+00 0. -1.
          5    1    4    4  502    0  0.56371883356E+01  0.25131582757E+02 -0.37705803648E+02  0.45904160736E+02  0.47000000000E+01 0.  1.
         -5    1    4    4    0  502  0.52170517694E+02 -0.95871153779E+02  0.16220161340E+02  0.11044557337E+03  0.47000000000E+01 0.  1.
          1    1    1    2  503    0 -0.50161740234E+02  0.46053691894E+01 -0.21643378574E+04  0.21649239641E+04  0.00000000000E+00 0. -1.
         -2    1    1    2    0  501  0.16110602390E+02  0.14342926068E+02  0.90569717149E+03  0.90595399303E+03  0.00000000000E+00 0.  1.
<mgrwt>
<rscale>  0 0.32945294E+02</rscale>
<asrwt>0</asrwt>
<pdfrwt beam="2">  1        2 0.48307324E+00 0.50319204E+02</pdfrwt>
<pdfrwt beam="1">  1       -1 0.14506876E+00 0.21570142E+02</pdfrwt>
<totfact> 0.12808694E+00</totfact>
</mgrwt>
</event>
<event>
13    1  0.1675423E-008  0.1567631E+03  0.7546771E-02  0.1367361E+00
          2   -1    0    0  502    0  0.00000000000E+00  0.00000000000E+00  0.14647031286E+04  0.14647031286E+04  0.00000000000E+00 0. -1.
          2   -1    0    0  503    0 -0.00000000000E+00 -0.00000000000E+00 -0.17189429407E+04  0.17189429407E+04  0.00000000000E+00 0. -1.
         24    2    1    2    0    0 -0.64228757866E+02  0.50884677633E+02  0.98556183446E+03  0.99226432686E+03  0.80881277633E+02 0.  0.
         25    2    1    2    0    0  0.24467157495E+03 -0.10504524186E+03 -0.11173575321E+03  0.31465494180E+03  0.12499668566E+03 0.  0.
         24    2    1    2    0    0  0.19515852008E+00  0.88113986486E+02 -0.53924571672E+02  0.13095255683E+03  0.80477326053E+02 0.  0.
        -13    1    5    5    0    0 -0.28254282727E+02  0.78059901954E+02 -0.56882232413E+02  0.10063419473E+03  0.00000000000E+00 0.  1.
         14    1    5    5    0    0  0.28449441247E+02  0.10054084532E+02  0.29576607411E+01  0.30318362095E+02  0.00000000000E+00 0. -1.
        -13    1    3    3    0    0  0.12068794958E+02  0.24933312817E+02  0.13018536018E+03  0.13309978928E+03  0.00000000000E+00 0.  1.
         14    1    3    3    0    0 -0.76297552824E+02  0.25951364816E+02  0.85537647428E+03  0.85916453759E+03  0.00000000000E+00 0. -1.
          5    1    4    4  501    0  0.49688645028E+02  0.18920782659E+02  0.86571069727E+01  0.54073958264E+02  0.47000000000E+01 0. -1.
         -5    1    4    4    0  501  0.19498292992E+03 -0.12396602452E+03 -0.12039286018E+03  0.26058098353E+03  0.47000000000E+01 0. -1.
          1    1    1    2  502    0  0.33639840317E+01  0.29222597131E+02  0.32844520404E+03  0.32975980444E+03  0.00000000000E+00 0. -1.
          1    1    1    2  503    0 -0.18400195964E+03 -0.63176019393E+02 -0.14025865257E+04  0.14160144394E+04  0.00000000000E+00 0. -1.
<mgrwt>
<rscale>  0 0.67906383E+02</rscale>
<asrwt>0</asrwt>
<pdfrwt beam="1">  1        2 0.21539752E+00 0.29415584E+02</pdfrwt>
<pdfrwt beam="2">  1        2 0.25278572E+00 0.15676306E+03</pdfrwt>
<totfact> 0.34471673E+01</totfact>
</mgrwt>
</event>
<event>
13    1  0.1675423E-008  0.7594846E+02  0.7546771E-02  0.1387920E+00
         -1   -1    0    0    0  501 -0.00000000000E+00  0.00000000000E+00  0.23342432069E+04  0.23342432069E+04  0.00000000000E+00 0.  1.
          2   -1    0    0  503    0  0.00000000000E+00 -0.00000000000E+00 -0.19229972196E+04  0.19229972196E+04  0.00000000000E+00 0. -1.
         24    2    1    2    0    0  0.31710661658E+02  0.39395395451E+02 -0.10736549304E+04  0.10776386677E+04  0.77541120727E+02 0.  0.
         25    2    1    2    0    0 -0.66737385916E+01  0.48095248756E+02  0.19310862567E+03  0.23510299907E+03  0.12499914848E+03 0.  0.
         24    2    1    2    0    0  0.36396685659E+02 -0.59109615909E+02 -0.57492986441E+03  0.58448537981E+03  0.79121076849E+02 0.  0.
        -13    1    3    3    0    0 -0.53409476774E+01  0.61376818643E+00 -0.71271697073E+03  0.71273724668E+03  0.00000000000E+00 0.  1.
         14    1    3    3    0    0  0.37051609335E+02  0.38781627264E+02 -0.36093795964E+03  0.36490142104E+03  0.00000000000E+00 0. -1.
        -13    1    5    5    0    0  0.77372467447E+01  0.19637757469E+02 -0.13589557273E+03  0.13752495480E+03  0.00000000000E+00 0.  1.
         14    1    5    5    0    0  0.28659438914E+02 -0.78747373379E+02 -0.43903429167E+03  0.44696042500E+03  0.00000000000E+00 0. -1.
          5    1    4    4  502    0 -0.65676956254E+01 -0.25571395684E+01  0.18305257917E+03  0.18324849339E+03  0.47000000000E+01 0. -1.
         -5    1    4    4    0  502 -0.10604296628E+00  0.50652388324E+02  0.10056046507E+02  0.51854505681E+02  0.47000000000E+01 0. -1.
          1    1    1    2  503    0 -0.31310442706E+02 -0.69921563315E+02 -0.24037652313E+03  0.25228999527E+03  0.00000000000E+00 0. -1.
         -2    1    1    2    0  501 -0.30123166019E+02  0.41540535019E+02  0.21070986795E+04  0.21077233847E+04  0.00000000000E+00 0.  1.
<mgrwt>
<rscale>  0 0.62427089E+02</rscale>
<asrwt>0</asrwt>
<pdfrwt beam="2">  1        2 0.28279371E+00 0.75948464E+02</pdfrwt>
<pdfrwt beam="1">  1       -1 0.34327106E+00 0.51312973E+02</pdfrwt>
<totfact> 0.30942652E-01</totfact>
</mgrwt>
</event>
<event>
13    1  0.1675423E-008  0.7072413E+02  0.7546771E-02  0.1375185E+00
          2   -1    0    0  503    0  0.00000000000E+00  0.00000000000E+00  0.21997632765E+04  0.21997632765E+04  0.00000000000E+00 0. -1.
          2   -1    0    0  502    0 -0.00000000000E+00 -0.00000000000E+00 -0.83201181417E+03  0.83201181417E+03  0.00000000000E+00 0. -1.
         24    2    1    2    0    0  0.28150457703E+02  0.10470882186E+03  0.12639735252E+03  0.18494227599E+03  0.80442333878E+02 0.  0.
         25    2    1    2    0    0 -0.86753514911E+02  0.40966740045E+02 -0.28674928365E+03  0.32719320082E+03  0.12500317138E+03 0.  0.
         24    2    1    2    0    0  0.31900515445E+02 -0.15001160503E+03  0.26856917690E+03  0.32007646182E+03  0.82452496049E+02 0.  0.
        -13    1    5    5    0    0  0.15368361532E+02 -0.15452771635E+03  0.22622109455E+03  0.27439202845E+03  0.00000000000E+00 0.  1.
         14    1    5    5    0    0  0.16532153913E+02  0.45161113174E+01  0.42348082348E+02  0.45684433377E+02  0.00000000000E+00 0. -1.
        -13    1    3    3    0    0  0.65602535243E+01 -0.37127628859E+01 -0.79515221886E+01  0.10956652758E+02  0.00000000000E+00 0.  1.
         14    1    3    3    0    0  0.21590204178E+02  0.10842158475E+03  0.13434887471E+03  0.17398562323E+03  0.00000000000E+00 0. -1.
          5    1    4    4  501    0 -0.25431497904E+00 -0.30463615913E+02 -0.13469590638E+03  0.13817805096E+03  0.47000000000E+01 0.  1.
         -5    1    4    4    0  501 -0.86499199932E+02  0.71430355957E+02 -0.15205337726E+03  0.18901514987E+03  0.47000000000E+01 0.  1.
          1    1    1    2  502    0 -0.19703522289E+02  0.57856354715E+02 -0.46729827870E+03  0.47127833373E+03  0.00000000000E+00 0. -1.
          1    1    1    2  503    0  0.46406064053E+02 -0.53520311591E+02  0.17268324952E+04  0.17282848183E+04  0.00000000000E+00 0. -1.
<mgrwt>
<rscale>  0 0.65746631E+02</rscale>
<asrwt>0</asrwt>
<pdfrwt beam="1">  1        2 0.32349460E+00 0.70724128E+02</pdfrwt>
<pdfrwt beam="2">  1        2 0.12235468E+00 0.61119445E+02</pdfrwt>
<totfact> 0.44965828E+01</totfact>
</mgrwt>
</event>
<event>
13    1  0.1675423E-008  0.2113833E+03  0.7546771E-02  0.1212683E+00
          2   -1    0    0  502    0  0.00000000000E+00  0.00000000000E+00  0.13575707343E+04  0.13575707343E+04  0.00000000000E+00 0. -1.
          2   -1    0    0  503    0 -0.00000000000E+00 -0.00000000000E+00 -0.13503077066E+04  0.13503077066E+04  0.00000000000E+00 0. -1.
         24    2    1    2    0    0 -0.17336422897E+03 -0.10968683052E+03  0.82271803800E+03  0.85101285108E+03  0.72605412888E+02 0.  0.
         25    2    1    2    0    0  0.27570254166E+03  0.17041273036E+03 -0.24804107497E+03  0.42685217543E+03  0.12500405852E+03 0.  0.
         24    2    1    2    0    0  0.15290099250E+03  0.65223060554E+00 -0.56790798145E+02  0.17933606824E+03  0.74545903333E+02 0.  0.
        -11    1    5    5    0    0  0.26946288250E+02 -0.84149015326E+00 -0.45474377228E+02  0.52865201602E+02  0.00000000000E+00 0.  1.
         12    1    5    5    0    0  0.12595470425E+03  0.14937207588E+01 -0.11316420917E+02  0.12647086664E+03  0.00000000000E+00 0. -1.
        -13    1    3    3    0    0 -0.11072447815E+03 -0.27833422067E+02  0.40726215429E+03  0.42296225808E+03  0.00000000000E+00 0.  1.
         14    1    3    3    0    0 -0.62639750820E+02 -0.81853408450E+02  0.41545588371E+03  0.42805059300E+03  0.00000000000E+00 0. -1.
          5    1    4    4  501    0  0.17798377193E+03  0.16213712435E+03 -0.21624148060E+03  0.32364971512E+03  0.47000000000E+01 0. -1.
         -5    1    4    4    0  501  0.97718769731E+02  0.82756060178E+01 -0.31799594371E+02  0.10320246031E+03  0.47000000000E+01 0. -1.
          1    1    1    2  502    0 -0.77467217843E+02  0.52106625450E+02  0.35121302273E+03  0.36341004057E+03  0.00000000000E+00 0. -1.
          1    1    1    2  503    0 -0.17777208735E+03 -0.11348475590E+03 -0.86183615999E+03  0.88726730557E+03  0.00000000000E+00 0. -1.
<mgrwt>
<rscale>  0 0.14048114E+03</rscale>
<asrwt>0</asrwt>
<pdfrwt beam="1">  1        2 0.19964276E+00 0.93360968E+02</pdfrwt>
<pdfrwt beam="2">  1        2 0.19857466E+00 0.21138331E+03</pdfrwt>
<totfact> 0.53508889E+01</totfact>
</mgrwt>
</event>
<event>
13    1  0.1675423E-008  0.6664364E+02  0.7546771E-02  0.1430100E+00
          2   -1    0    0  503    0  0.00000000000E+00  0.00000000000E+00  0.20594991141E+04  0.20594991141E+04  0.00000000000E+00 0. -1.
         -1   -1    0    0    0  501 -0.00000000000E+00 -0.00000000000E+00 -0.20172854728E+04  0.20172854728E+04  0.00000000000E+00 0.  1.
         24    2    1    2    0    0 -0.19467432797E+02 -0.60548061321E+02  0.32141057658E+03  0.33877402142E+03  0.86127987196E+02 0.  0.
         25    2    1    2    0    0  0.54500205313E+02  0.35382848875E+02 -0.26350575808E+03  0.29880179124E+03  0.12500003014E+03 0.  0.
         24    2    1    2    0    0 -0.79130140468E+02  0.18161394257E+02  0.70169810882E+03  0.71090163888E+03  0.80059283468E+02 0.  0.
        -11    1    5    5    0    0  0.15190805633E+02  0.32912104021E+01  0.53633804156E+02  0.55840644605E+02  0.00000000000E+00 0.  1.
         12    1    5    5    0    0 -0.94320946100E+02  0.14870183855E+02  0.64806430466E+03  0.65506099427E+03  0.00000000000E+00 0. -1.
        -11    1    3    3    0    0  0.15787262349E+02  0.13541983928E+02  0.33785769909E+02  0.39674944607E+02  0.00000000000E+00 0.  1.
         12    1    3    3    0    0 -0.35254695146E+02 -0.74090045249E+02  0.28762480667E+03  0.29909907681E+03  0.00000000000E+00 0. -1.
          5    1    4    4  502    0  0.18891087177E+02  0.76336293227E+02 -0.20102077210E+03  0.21590633074E+03  0.47000000000E+01 0.  1.
         -5    1    4    4    0  502  0.35609118136E+02 -0.40953444352E+02 -0.62484985982E+02  0.82895460502E+02  0.47000000000E+01 0.  1.
          1    1    1    2  503    0 -0.14027101030E+02  0.39645827606E+02  0.10043738846E+04  0.10052539237E+04  0.00000000000E+00 0. -1.
         -2    1    1    2    0  501  0.58124468981E+02 -0.32642009417E+02 -0.17217631706E+04  0.17230532117E+04  0.00000000000E+00 0.  1.
<mgrwt>
<rscale>  0 0.52939980E+02</rscale>
<asrwt>0</asrwt>
<pdfrwt beam="1">  1        2 0.30286752E+00 0.42054146E+02</pdfrwt>
<pdfrwt beam="2">  1       -1 0.29665963E+00 0.66643643E+02</pdfrwt>
<totfact> 0.52590053E-01</totfact>
</mgrwt>
</event>
<event>
13    1  0.1675423E-008  0.1217369E+03  0.7546771E-02  0.1338120E+00
          2   -1    0    0  503    0  0.00000000000E+00  0.00000000000E+00  0.27540732263E+04  0.27540732263E+04  0.00000000000E+00 0. -1.
          2   -1    0    0  502    0 -0.00000000000E+00 -0.00000000000E+00 -0.10329456425E+04  0.10329456425E+04  0.00000000000E+00 0. -1.
         24    2    1    2    0    0 -0.16604663418E+02  0.54793150299E+01  0.54650515662E+03  0.55315891773E+03  0.83732695566E+02 0.  0.
         25    2    1    2    0    0 -0.69453798848E+02  0.29085735327E+02 -0.52613094449E+02  0.15514531178E+03  0.12502847630E+03 0.  0.
         24    2    1    2    0    0  0.69966958298E+02 -0.18811947917E+03 -0.22931006615E+03  0.31550538277E+03  0.81708178431E+02 0.  0.
        -11    1    5    5    0    0  0.11007703785E+02 -0.18576120486E+02  0.31346750931E+01  0.21818982168E+02  0.00000000000E+00 0.  1.
         12    1    5    5    0    0  0.58959254513E+02 -0.16954335869E+03 -0.23244474125E+03  0.29368640061E+03  0.00000000000E+00 0. -1.
        -13    1    3    3    0    0  0.33612994325E+02  0.61496119184E+01  0.17834673666E+03  0.18159077507E+03  0.00000000000E+00 0.  1.
         14    1    3    3    0    0 -0.50217657743E+02 -0.67029688850E+00  0.36815841996E+03  0.37156814266E+03  0.00000000000E+00 0. -1.
          5    1    4    4  501    0 -0.53365814241E+02 -0.44643553429E+02 -0.32307560470E+02  0.76855874570E+02  0.47000000000E+01 0. -1.
         -5    1    4    4    0  501 -0.16087984606E+02  0.73729288755E+02 -0.20305533979E+02  0.78289437214E+02  0.47000000000E+01 0. -1.
          1    1    1    2  502    0 -0.47940404133E+02 -0.77495913666E+01 -0.64885409483E+03  0.65066886732E+03  0.00000000000E+00 0. -1.
          1    1    1    2  503    0  0.64031908101E+02  0.16130402018E+03  0.21053996827E+04  0.21125403892E+04  0.00000000000E+00 0. -1.
<mgrwt>
<rscale>  0 0.76888715E+02</rscale>
<asrwt>0</asrwt>
<pdfrwt beam="1">  1        2 0.40501077E+00 0.12173687E+03</pdfrwt>
<pdfrwt beam="2">  1        2 0.15190377E+00 0.48562728E+02</pdfrwt>
<totfact> 0.17198831E+01</totfact>
</mgrwt>
</event>
<event>
13    1  0.1675423E-008  0.8530822E+02  0.7546771E-02  0.1379019E+00
          2   -1    0    0  503    0  0.00000000000E+00  0.00000000000E+00  0.29071501994E+04  0.29071501994E+04  0.00000000000E+00 0. -1.
          2   -1    0    0  502    0 -0.00000000000E+00 -0.00000000000E+00 -0.26431930436E+03  0.26431930436E+03  0.00000000000E+00 0. -1.
         24    2    1    2    0    0  0.78716754925E+00 -0.30642694757E+02  0.19213019162E+04  0.19231972561E+04  0.79668301638E+02 0.  0.
         25    2    1    2    0    0 -0.18097799960E+02  0.33850633367E+02  0.72472112440E+02  0.14950102802E+03  0.12499981822E+03 0.  0.
         24    2    1    2    0    0 -0.21190624489E+02 -0.46690015348E+02  0.27012082360E+02  0.91370718812E+02  0.70639617519E+02 0.  0.
        -11    1    5    5    0    0 -0.14376454892E+02 -0.21330524493E+02  0.50156422274E+02  0.56367902443E+02  0.00000000000E+00 0.  1.
         12    1    5    5    0    0 -0.68141695967E+01 -0.25359490855E+02 -0.23144339914E+02  0.35002816369E+02  0.00000000000E+00 0. -1.
        -11    1    3    3    0    0  0.75893530071E+01  0.19133477704E+02  0.18038469136E+03  0.18155529495E+03  0.00000000000E+00 0.  1.
         12    1    3    3    0    0 -0.68021854578E+01 -0.49776172461E+02  0.17409172249E+04  0.17416419612E+04  0.00000000000E+00 0. -1.
          5    1    4    4  501    0 -0.51606136268E+02  0.34392015039E+02  0.91531570143E+02  0.11066219920E+03  0.47000000000E+01 0.  1.
         -5    1    4    4    0  501  0.33508336308E+02 -0.54138167123E+00 -0.19059457702E+02  0.38838828820E+02  0.47000000000E+01 0.  1.
          1    1    1    2  502    0  0.82617747335E+02  0.21919756301E+02 -0.18241248327E+03  0.20144597773E+03  0.00000000000E+00 0. -1.
          1    1    1    2  503    0 -0.44116490435E+02  0.21562320437E+02  0.80445726732E+03  0.80595452312E+03  0.00000000000E+00 0. -1.
<mgrwt>
<rscale>  0 0.64722261E+02</rscale>
<asrwt>0</asrwt>
<pdfrwt beam="1">  1        2 0.42752207E+00 0.49103955E+02</pdfrwt>
<pdfrwt beam="2">  1        2 0.38870488E-01 0.85308222E+02</pdfrwt>
<totfact> 0.73053858E+01</totfact>
</mgrwt>
</event>
<event>
13    1  0.1675423E-008  0.1336713E+03  0.7546771E-02  0.1376114E+00
          2   -1    0    0  502    0  0.00000000000E+00  0.00000000000E+00  0.10385231685E+04  0.10385231685E+04  0.00000000000E+00 0. -1.
          2   -1    0    0  503    0 -0.00000000000E+00 -0.00000000000E+00 -0.32270327823E+04  0.32270327823E+04  0.00000000000E+00 0. -1.
         24    2    1    2    0    0  0.26188038506E+03  0.73872244026E+03 -0.67217801637E+03  0.10339573806E+04  0.54335986466E+02 0.  0.
         25    2    1    2    0    0 -0.48963853776E+02 -0.47643387583E+03 -0.11034801734E+04  0.12094109212E+04  0.12497834358E+03 0.  0.
         24    2    1    2    0    0 -0.14511651680E+03 -0.18571297997E+03 -0.99042144802E+02  0.26784966135E+03  0.79912328602E+02 0.  0.
        -11    1    3    3    0    0  0.11891038557E+03  0.25736294499E+03 -0.24182545255E+03  0.37263241238E+03  0.00000000000E+00 0.  1.
         12    1    3    3    0    0  0.14296999950E+03  0.48135949527E+03 -0.43035256381E+03  0.66132496824E+03  0.00000000000E+00 0. -1.
        -13    1    5    5    0    0 -0.50491007924E+02 -0.73675705552E+02  0.27078978527E+01  0.89357619600E+02  0.00000000000E+00 0.  1.
         14    1    5    5    0    0 -0.94625508872E+02 -0.11203727442E+03 -0.10175004265E+03  0.17849204175E+03  0.00000000000E+00 0. -1.
          5    1    4    4  501    0 -0.79316343474E+02 -0.23005280824E+03 -0.47654946137E+03  0.53510452815E+03  0.47000000000E+01 0. -1.
         -5    1    4    4    0  501  0.30352489698E+02 -0.24638106760E+03 -0.62693071199E+03  0.67430639307E+03  0.47000000000E+01 0. -1.
          1    1    1    2  502    0 -0.83220930426E+02 -0.10471959633E+03  0.71380150906E+03  0.72622621231E+03  0.00000000000E+00 0. -1.
          1    1    1    2  503    0  0.15420915935E+02  0.28144011869E+02 -0.10276107884E+04  0.10281117753E+04  0.00000000000E+00 0. -1.
<mgrwt>
<rscale>  0 0.65496312E+02</rscale>
<asrwt>0</asrwt>
<pdfrwt beam="1">  1        2 0.15272400E+00 0.13367133E+03</pdfrwt>
<pdfrwt beam="2">  1        2 0.47456364E+00 0.32091900E+02</pdfrwt>
<totfact> 0.11446191E+01</totfact>
</mgrwt>
</event>
<event>
13    1  0.1675423E-008  0.7537097E+02  0.7546771E-02  0.1499670E+00
          2   -1    0    0  503    0  0.00000000000E+00  0.00000000000E+00  0.13660212487E+04  0.13660212487E+04  0.00000000000E+00 0. -1.
          2   -1    0    0  502    0 -0.00000000000E+00 -0.00000000000E+00 -0.16156495452E+04  0.16156495452E+04  0.00000000000E+00 0. -1.
         24    2    1    2    0    0  0.49021373845E+03 -0.21110375870E+03  0.36109454693E+03  0.65368253806E+03  0.10971454983E+03 0.  0.
         25    2    1    2    0    0 -0.19263074894E+03  0.74524653412E+02  0.12001351377E+03  0.26962123788E+03  0.12502735309E+03 0.  0.
         24    2    1    2    0    0 -0.29390252689E+03  0.21756750488E+03 -0.26586698967E+03  0.45897379771E+03  0.79103579547E+02 0.  0.
        -11    1    3    3    0    0  0.13577415945E+03 -0.13154325839E+02  0.11890967679E+03  0.18096179126E+03  0.00000000000E+00 0.  1.
         12    1    3    3    0    0  0.35443957900E+03 -0.19794943286E+03  0.24218487015E+03  0.47272074680E+03  0.00000000000E+00 0. -1.
        -13    1    5    5    0    0 -0.13487225619E+03  0.54006187587E+02 -0.11738767777E+03  0.18678078242E+03  0.00000000000E+00 0.  1.
         14    1    5    5    0    0 -0.15903027070E+03  0.16356131729E+03 -0.14847931190E+03  0.27219301529E+03  0.00000000000E+00 0. -1.
          5    1    4    4  501    0 -0.40739056995E+02 -0.32502754661E+02  0.89253819627E+01  0.53083446276E+02  0.47000000000E+01 0. -1.
         -5    1    4    4    0  501 -0.15189169195E+03  0.10702740807E+03  0.11108813181E+03  0.21653779160E+03  0.47000000000E+01 0. -1.
          1    1    1    2  502    0  0.17474497236E+02 -0.73312749395E+02 -0.10305314320E+04  0.10332836733E+04  0.00000000000E+00 0. -1.
          1    1    1    2  503    0 -0.21154959849E+02 -0.76756501941E+01  0.56566206443E+03  0.56610954687E+03  0.00000000000E+00 0. -1.
<mgrwt>
<rscale>  0 0.41184685E+02</rscale>
<asrwt>0</asrwt>
<pdfrwt beam="1">  1        2 0.20088548E+00 0.22504398E+02</pdfrwt>
<pdfrwt beam="2">  1        2 0.23759552E+00 0.75370968E+02</pdfrwt>
<totfact> 0.46838979E+01</totfact>
</mgrwt>
</event>
<event>
13    1  0.1675423E-008  0.2670282E+03  0.7546771E-02  0.1187456E+00
          2   -1    0    0  503    0  0.00000000000E+00  0.00000000000E+00  0.90325832807E+03  0.90325832807E+03  0.00000000000E+00 0. -1.
          2   -1    0    0  502    0 -0.00000000000E+00 -0.00000000000E+00 -0.75937212218E+03  0.75937212218E+03  0.00000000000E+00 0. -1.
         24    2    1    2    0    0  0.11990208106E+02  0.64699580696E+02 -0.43481864820E+02  0.11485428784E+03  0.83492718457E+02 0.  0.
         25    2    1    2    0    0  0.98946133456E+02 -0.39717946871E+03  0.92488431134E+02  0.43786190159E+03  0.12500826885E+03 0.  0.
         24    2    1    2    0    0 -0.13292277892E+03  0.58361146409E+02 -0.20707529991E+03  0.26536032219E+03  0.80383034235E+02 0.  0.
        -11    1    5    5    0    0 -0.14066918096E+03  0.40478270097E+02 -0.18012705375E+03  0.23210356377E+03  0.00000000000E+00 0.  1.
         12    1    5    5    0    0  0.77464020329E+01  0.17882876313E+02 -0.26948246152E+02  0.33256758416E+02  0.00000000000E+00 0. -1.
        -11    1    3    3    0    0 -0.27165105854E+02 -0.37375352831E+01 -0.12568081855E+02  0.30164032018E+02  0.00000000000E+00 0.  1.
         12    1    3    3    0    0  0.39155313960E+02  0.68437115979E+02 -0.30913782964E+02  0.84690255827E+02  0.00000000000E+00 0. -1.
          5    1    4    4  501    0  0.11675074656E+03 -0.22921679893E+03  0.75006062817E+02  0.26799081550E+03  0.47000000000E+01 0. -1.
         -5    1    4    4    0  501 -0.17804613102E+02 -0.16796266978E+03  0.17482368317E+02  0.16987108609E+03  0.47000000000E+01 0. -1.
          1    1    1    2  502    0  0.89275423286E+02  0.38436161233E+02 -0.23499808354E+03  0.25430599474E+03  0.00000000000E+00 0. -1.
          1    1    1    2  503    0 -0.67288985926E+02  0.23568258037E+03  0.53695302303E+03  0.59024794388E+03  0.00000000000E+00 0. -1.
<mgrwt>
<rscale>  0 0.16110429E+03</rscale>
<asrwt>0</asrwt>
<pdfrwt beam="1">  1        2 0.13283211E+00 0.26702820E+03</pdfrwt>
<pdfrwt beam="2">  1        2 0.11167237E+00 0.97197941E+02</pdfrwt>
<totfact> 0.20780784E+02</totfact>
</mgrwt>
</event>
<event>
13    1  0.1675423E-008  0.4763091E+02  0.7546771E-02  0.1519494E+00
          2   -1    0    0  503    0  0.00000000000E+00  0.00000000000E+00  0.28002099658E+04  0.28002099658E+04  0.00000000000E+00 0. -1.
          2   -1    0    0  502    0 -0.00000000000E+00 -0.00000000000E+00 -0.13422983679E+04  0.13422983679E+04  0.00000000000E+00 0. -1.
         24    2    1    2    0    0  0.67631444004E+02  0.76611172571E+02  0.29315494240E+03  0.32056226406E+03  0.79856501958E+02 0.  0.
         25    2    1    2    0    0 -0.13943493306E+03 -0.31506215825E+02 -0.79996122102E+03  0.82219067100E+03  0.12499920862E+03 0.  0.
         24    2    1    2    0    0  0.11285609143E+02 -0.32391348056E+02 -0.19833534141E+02  0.94642893360E+02  0.85949658431E+02 0.  0.
        -13    1    5    5    0    0  0.17949843099E+02 -0.60777322611E+02 -0.12902786409E+02  0.64672727700E+02  0.00000000000E+00 0.  1.
         14    1    5    5    0    0 -0.66642339560E+01  0.28385974554E+02 -0.69307477312E+01  0.29970165661E+02  0.00000000000E+00 0. -1.
        -13    1    3    3    0    0  0.33198659201E+02  0.11780739590E+02  0.26759894075E+02  0.44238317428E+02  0.00000000000E+00 0.  1.
         14    1    3    3    0    0  0.34432784803E+02  0.64830432981E+02  0.26639504833E+03  0.27632394663E+03  0.00000000000E+00 0. -1.
          5    1    4    4  501    0 -0.88599338747E+02 -0.31299440142E+02 -0.21105053568E+03  0.23107123662E+03  0.47000000000E+01 0.  1.
         -5    1    4    4    0  501 -0.50835594316E+02 -0.20677568338E+00 -0.58891068533E+03  0.59111943438E+03  0.47000000000E+01 0.  1.
          1    1    1    2  502    0  0.15144681644E+02 -0.27198842362E+02 -0.45952187334E+03  0.46057517354E+03  0.00000000000E+00 0. -1.
          1    1    1    2  503    0  0.45373198272E+02  0.14485233672E+02  0.24440732840E+04  0.24445373318E+04  0.00000000000E+00 0. -1.
<mgrwt>
<rscale>  0 0.38507106E+02</rscale>
<asrwt>0</asrwt>
<pdfrwt beam="1">  1        2 0.41179558E+00 0.47630908E+02</pdfrwt>
<pdfrwt beam="2">  1        2 0.19739682E+00 0.31130988E+02</pdfrwt>
<totfact> 0.13420947E+01</totfact>
</mgrwt>
</event>
<event>
13    1  0.1675423E-008  0.1808533E+03  0.7546771E-02  0.1384384E+00
          2   -1    0    0  503    0  0.00000000000E+00  0.00000000000E+00  0.16298942162E+04  0.16298942162E+04  0.00000000000E+00 0. -1.
          2   -1    0    0  502    0 -0.00000000000E+00 -0.00000000000E+00 -0.94452711466E+03  0.94452711466E+03  0.00000000000E+00 0. -1.
         24    2    1    2    0    0 -0.44037573091E+02  0.92976366467E+02  0.15584931933E+03  0.20299253477E+03  0.79580439014E+02 0.  0.
         25    2    1    2    0    0  0.24788329045E+03 -0.82271839213E+02 -0.39101278312E+03  0.48655318416E+03  0.12501289233E+03 0.  0.
         24    2    1    2    0    0 -0.10879989493E+02 -0.44407012559E+02 -0.40619449296E+02  0.10262560885E+03  0.82411886247E+02 0.  0.
        -13    1    3    3    0    0 -0.62713949753E+02  0.86898109214E+02  0.14575112853E+03  0.18090802179E+03  0.00000000000E+00 0.  1.
         14    1    3    3    0    0  0.18676376662E+02  0.60782572531E+01  0.10098190793E+02  0.22084512984E+02  0.00000000000E+00 0. -1.
        -13    1    5    5    0    0 -0.23276408366E+02  0.48864913994E+01  0.14334366726E+02  0.27769462617E+02  0.00000000000E+00 0.  1.
         14    1    5    5    0    0  0.12396418873E+02 -0.49293503959E+02 -0.54953816022E+02  0.74856146232E+02  0.00000000000E+00 0. -1.
          5    1    4    4  501    0  0.18451558250E+03 -0.11343701598E+03 -0.31875282923E+03  0.38540811216E+03  0.47000000000E+01 0.  1.
         -5    1    4    4    0  501  0.63367707951E+02  0.31165176771E+02 -0.72259953888E+02  0.10114507200E+03  0.47000000000E+01 0.  1.
          1    1    1    2  502    0 -0.18194080009E+02 -0.12673834039E+02 -0.40428586913E+03  0.40489346080E+03  0.00000000000E+00 0. -1.
          1    1    1    2  503    0 -0.17477164786E+03  0.46376319345E+02  0.13654358837E+04  0.13773565423E+04  0.00000000000E+00 0. -1.
<mgrwt>
<rscale>  0 0.63325314E+02</rscale>
<asrwt>0</asrwt>
<pdfrwt beam="1">  1        2 0.23969033E+00 0.18085329E+03</pdfrwt>
<pdfrwt beam="2">  1        2 0.13890105E+00 0.22173196E+02</pdfrwt>
<totfact> 0.69573932E+01</totfact>
</mgrwt>
</event>
<event>
13    1  0.1675423E-008  0.7165357E+02  0.7546771E-02  0.1416056E+00
          2   -1    0    0  502    0  0.00000000000E+00  0.00000000000E+00  0.11376552166E+04  0.11376552166E+04  0.00000000000E+00 0. -1.
          2   -1    0    0  503    0 -0.00000000000E+00 -0.00000000000E+00 -0.20201804729E+04  0.20201804729E+04  0.00000000000E+00 0. -1.
         24    2    1    2    0    0  0.28397819218E+02  0.56300419245E+02  0.40685831476E+03  0.41947250707E+03  0.80295221246E+02 0.  0.
         25    2    1    2    0    0 -0.10155294312E+03 -0.50549503487E+02 -0.11033870587E+04  0.11162239780E+04  0.12499886091E+03 0.  0.
         24    2    1    2    0    0 -0.32502252041E+02  0.39533062706E+02 -0.32449361394E+03  0.33830926902E+03  0.80856642166E+02 0.  0.
        -13    1    5    5    0    0  0.13823460326E+02 -0.80017615981E+01 -0.15463704165E+02  0.22231562935E+02  0.00000000000E+00 0.  1.
         14    1    5    5    0    0 -0.46325712367E+02  0.47534824304E+02 -0.30902990977E+03  0.31607770608E+03  0.00000000000E+00 0. -1.
        -13    1    3    3    0    0 -0.27218402734E+02  0.80425088958E+01  0.12075574850E+03  0.12404625828E+03  0.00000000000E+00 0.  1.
         14    1    3    3    0    0  0.55616221952E+02  0.48257910349E+02  0.28610256626E+03  0.29542624879E+03  0.00000000000E+00 0. -1.
          5    1    4    4  501    0 -0.12337529174E+03 -0.64088475575E+02 -0.99815339080E+03  0.10078001175E+04  0.47000000000E+01 0. -1.
         -5    1    4    4    0  501  0.21822348614E+02  0.13538972088E+02 -0.10523366785E+03  0.10842386045E+03  0.47000000000E+01 0. -1.
          1    1    1    2  502    0  0.39524941309E+02 -0.18295897510E+02  0.70826472810E+03  0.70960262537E+03  0.00000000000E+00 0. -1.
          1    1    1    2  503    0  0.66132434637E+02 -0.26988080953E+02 -0.56976762653E+03  0.57422731011E+03  0.00000000000E+00 0. -1.
<mgrwt>
<rscale>  0 0.55864188E+02</rscale>
<asrwt>0</asrwt>
<pdfrwt beam="1">  1        2 0.16730224E+00 0.43554114E+02</pdfrwt>
<pdfrwt beam="2">  1        2 0.29708536E+00 0.71653565E+02</pdfrwt>
<totfact> 0.37343166E+01</totfact>
</mgrwt>
</event>
<event>
13    1  0.1675423E-008  0.3489019E+03  0.7546771E-02  0.1276385E+00
         -3   -1    0    0    0  501 -0.00000000000E+00  0.00000000000E+00  0.12721659381E+04  0.12721659381E+04  0.00000000000E+00 0.  1.
          2   -1    0    0  503    0  0.00000000000E+00 -0.00000000000E+00 -0.16190247822E+04  0.16190247822E+04  0.00000000000E+00 0. -1.
         24    2    1    2    0    0  0.78981966263E+02 -0.12138513136E+03  0.26020148965E+03  0.30872594840E+03  0.81451794880E+02 0.  0.
         25    2    1    2    0    0  0.25185038544E+02 -0.29988163427E+03 -0.75612003783E+03  0.82335194390E+03  0.12501052421E+03 0.  0.
         24    2    1    2    0    0 -0.72107274172E+02 -0.67807824058E+01  0.18009218577E+02  0.11428119593E+03  0.86547222898E+02 0.  0.
        -11    1    3    3    0    0  0.49057344417E+02 -0.12198919055E+03  0.23632092931E+03  0.27043588386E+03  0.00000000000E+00 0.  1.
         12    1    3    3    0    0  0.29924621846E+02  0.60405918148E+00  0.23880560340E+02  0.38290064537E+02  0.00000000000E+00 0. -1.
        -13    1    5    5    0    0 -0.65929274545E+02  0.28648825864E+02 -0.42081095503E+01  0.72007865206E+02  0.00000000000E+00 0.  1.
         14    1    5    5    0    0 -0.61779996270E+01 -0.35429608270E+02  0.22217328128E+02  0.42273330726E+02  0.00000000000E+00 0. -1.
          5    1    4    4  502    0  0.67908184866E+02 -0.11318409030E+03 -0.26241735422E+03  0.29378073059E+03  0.47000000000E+01 0. -1.
         -5    1    4    4    0  502 -0.42723146322E+02 -0.18669754397E+03 -0.49370268361E+03  0.52957121331E+03  0.47000000000E+01 0. -1.
          1    1    1    2  503    0 -0.54515248301E+01  0.44135622361E+03 -0.69224857497E+03  0.82099520388E+03  0.00000000000E+00 0. -1.
         -4    1    1    2    0  501 -0.26608205804E+02 -0.13308675572E+02  0.82329906044E+03  0.82383642817E+03  0.00000000000E+00 0.  1.
<mgrwt>
<rscale>  0 0.10188304E+03</rscale>
<asrwt>0</asrwt>
<pdfrwt beam="2">  1        2 0.23809188E+00 0.34890188E+03</pdfrwt>
<pdfrwt beam="1">  1       -3 0.18708323E+00 0.29750924E+02</pdfrwt>
<totfact> 0.15701540E+00</totfact>
</mgrwt>
</event>
<event>
13    1  0.1675423E-008  0.1402702E+03  0.7546771E-02  0.1225290E+00
          2   -1    0    0  503    0  0.00000000000E+00  0.00000000000E+00  0.10385180320E+04  0.10385180320E+04  0.00000000000E+00 0. -1.
          2   -1    0    0  502    0 -0.00000000000E+00 -0.00000000000E+00 -0.25936844379E+04  0.25936844379E+04  0.00000000000E+00 0. -1.
         24    2    1    2    0    0 -0.89252248526E+00  0.13364267402E+03  0.11021895097E+03  0.19122947190E+03  0.80989708312E+02 0.  0.
         25    2    1    2    0    0  0.53088772535E+02 -0.13759676600E+03 -0.39620213940E+03  0.44085427057E+03  0.12500025935E+03 0.  0.
         24    2    1    2    0    0 -0.25082384503E+02  0.42559378157E+02  0.86657396580E+01  0.94778822683E+02  0.80420790246E+02 0.  0.
        -11    1    5    5    0    0  0.17046007631E+02 -0.14953400186E+02 -0.16927354706E+01  0.22738423575E+02  0.00000000000E+00 0.  1.
         12    1    5    5    0    0 -0.42128392134E+02  0.57512778343E+02  0.10358475129E+02  0.72040399108E+02  0.00000000000E+00 0. -1.
        -13    1    3    3    0    0 -0.11409925238E+02  0.26141877994E+02 -0.94257727974E+01  0.30040462243E+02  0.00000000000E+00 0.  1.
         14    1    3    3    0    0  0.10517402753E+02  0.10750079603E+03  0.11964472377E+03  0.16118900965E+03  0.00000000000E+00 0. -1.
          5    1    4    4  501    0  0.40353358067E+02 -0.92701863345E+02 -0.10477661491E+03  0.14567861204E+03  0.47000000000E+01 0. -1.
         -5    1    4    4    0  501  0.12735414468E+02 -0.44894902655E+02 -0.29142552449E+03  0.29517565853E+03  0.47000000000E+01 0. -1.
          1    1    1    2  502    0  0.73267117894E+02  0.11954952472E+03 -0.20784207581E+04  0.20831449798E+04  0.00000000000E+00 0. -1.
          1    1    1    2  503    0 -0.10038098344E+03 -0.15815481090E+03  0.80057180098E+03  0.82219492492E+03  0.00000000000E+00 0. -1.
<mgrwt>
<rscale>  0 0.13147073E+03</rscale>
<asrwt>0</asrwt>
<pdfrwt beam="1">  1        2 0.15272324E+00 0.12322325E+03</pdfrwt>
<pdfrwt beam="2">  1        2 0.38142418E+00 0.14027022E+03</pdfrwt>
<totfact> 0.19315101E+01</totfact>
</mgrwt>
</event>
<event>
13    1  0.1675423E-008  0.8733872E+02  0.7546771E-02  0.1412581E+00
          2   -1    0    0  503    0  0.00000000000E+00  0.00000000000E+00  0.28243233912E+04  0.28243233912E+04  0.00000000000E+00 0. -1.
         -1   -1    0    0    0  501 -0.00000000000E+00 -0.00000000000E+00 -0.15359523476E+04  0.15359523476E+04  0.00000000000E+00 0.  1.
         24    2    1    2    0    0  0.12985741991E+02  0.10415271970E+02  0.44439359799E+03  0.45149466999E+03  0.78004228770E+02 0.  0.
         25    2    1    2    0    0 -0.10093447798E+02 -0.51073274898E+02 -0.37796177402E+03  0.40148555278E+03  0.12500075750E+03 0.  0.
         24    2    1    2    0    0  0.32498443203E+02 -0.62123947700E+01  0.24423555233E+03  0.25908611491E+03  0.79874071247E+02 0.  0.
        -11    1    3    3    0    0  0.40707631465E+02 -0.13585193083E+02  0.25459795124E+03  0.25818943724E+03  0.00000000000E+00 0.  1.
         12    1    3    3    0    0 -0.27721889475E+02  0.24000465053E+02  0.18979564675E+03  0.19330523274E+03  0.00000000000E+00 0. -1.
        -11    1    5    5    0    0  0.57748864076E+02 -0.11556969364E+02  0.19187402312E+03  0.20070908199E+03  0.00000000000E+00 0.  1.
         12    1    5    5    0    0 -0.25250420873E+02  0.53445745942E+01  0.52361529207E+02  0.58377032922E+02  0.00000000000E+00 0. -1.
          5    1    4    4  502    0 -0.48559236132E+02  0.76160238960E+01 -0.70428868245E+02  0.86013479850E+02  0.47000000000E+01 0. -1.
         -5    1    4    4    0  502  0.38465788334E+02 -0.58689298794E+02 -0.30753290577E+03  0.31547207293E+03  0.47000000000E+01 0. -1.
          1    1    1    2  503    0 -0.36961598623E+02  0.83544886256E+02  0.21116719321E+04  0.21136471457E+04  0.00000000000E+00 0. -1.
         -2    1    1    2    0  501  0.15708612273E+01 -0.36674488558E+02 -0.11339682649E+04  0.11345622554E+04  0.00000000000E+00 0.  1.
<mgrwt>
<rscale>  0 0.56621902E+02</rscale>
<asrwt>0</asrwt>
<pdfrwt beam="1">  1        2 0.41534168E+00 0.87338721E+02</pdfrwt>
<pdfrwt beam="2">  1       -1 0.22587534E+00 0.36708115E+02</pdfrwt>
<totfact> 0.57918275E-01</totfact>
</mgrwt>
</event>
<event>
13    1  0.1675423E-008  0.1928683E+03  0.7546771E-02  0.1221694E+00
          2   -1    0    0  503    0  0.00000000000E+00  0.00000000000E+00  0.18549411860E+04  0.18549411860E+04  0.00000000000E+00 0. -1.
          2   -1    0    0  502    0 -0.00000000000E+00 -0.00000000000E+00 -0.31440717070E+04  0.31440717070E+04  0.00000000000E+00 0. -1.
         24    2    1    2    0    0  0.22611388693E+02  0.56661682110E+01 -0.44498427801E+02  0.88498824629E+02  0.72859807323E+02 0.  0.
         25    2    1    2    0    0 -0.20070353923E+03 -0.34467587304E+03 -0.38366435935E+03  0.56737254734E+03  0.12501959337E+03 0.  0.
         24    2    1    2    0    0  0.81917678064E+02  0.59415108327E+02  0.29904592612E+03  0.32558656097E+03  0.79608301585E+02 0.  0.
        -13    1    3    3    0    0  0.29464172915E+02  0.35192028807E+02 -0.30529942365E+02  0.55124348141E+02  0.00000000000E+00 0.  1.
         14    1    3    3    0    0 -0.68527842218E+01 -0.29525860596E+02 -0.13968485436E+02  0.33374476489E+02  0.00000000000E+00 0. -1.
        -13    1    5    5    0    0  0.68738843638E+01  0.42767814039E+02  0.16953999123E+03  0.17498612753E+03  0.00000000000E+00 0.  1.
         14    1    5    5    0    0  0.75043793700E+02  0.16647294288E+02  0.12950593489E+03  0.15060043344E+03  0.00000000000E+00 0. -1.
          5    1    4    4  501    0 -0.20856224382E+03 -0.26521099403E+03 -0.32147916721E+03  0.46605367272E+03  0.47000000000E+01 0. -1.
         -5    1    4    4    0  501  0.78587045933E+01 -0.79464879008E+02 -0.62185192139E+02  0.10131887462E+03  0.47000000000E+01 0. -1.
          1    1    1    2  502    0  0.22045412681E+02  0.10072334127E+03 -0.25811904695E+04  0.25832490068E+04  0.00000000000E+00 0. -1.
          1    1    1    2  503    0  0.74129059792E+02  0.17887125522E+03  0.14211768095E+04  0.14343059532E+04  0.00000000000E+00 0. -1.
<mgrwt>
<rscale>  0 0.13396078E+03</rscale>
<asrwt>0</asrwt>
<pdfrwt beam="1">  1        2 0.27278547E+00 0.19286827E+03</pdfrwt>
<pdfrwt beam="2">  1        2 0.46236348E+00 0.93045322E+02</pdfrwt>
<totfact> 0.38585087E+00</totfact>
</mgrwt>
</event>
<event>
13    1  0.1675423E-008  0.5448244E+02  0.7546771E-02  0.1447734E+00
          2   -1    0    0  502    0  0.00000000000E+00  0.00000000000E+00  0.18988686189E+04  0.18988686189E+04  0.00000000000E+00 0. -1.
          2   -1    0    0  503    0 -0.00000000000E+00 -0.00000000000E+00 -0.15582014735E+04  0.15582014735E+04  0.00000000000E+00 0. -1.
         24    2    1    2    0    0  0.26720280167E+03 -0.20780990768E+03  0.10173734164E+04  0.10753015166E+04  0.81500848851E+02 0.  0.
         25    2    1    2    0    0 -0.19914998765E+03 -0.12199497940E+03  0.16990534037E+03  0.31470097035E+03  0.12500153387E+03 0.  0.
         24    2    1    2    0    0 -0.93923721164E+02  0.30922120630E+03 -0.69043545125E+03  0.76850230744E+03  0.97238183712E+02 0.  0.
        -11    1    3    3    0    0  0.19054276664E+02  0.65937909930E+01  0.64047418016E+02  0.67146223225E+02  0.00000000000E+00 0.  1.
         12    1    3    3    0    0  0.24814852500E+03 -0.21440369868E+03  0.95332599838E+03  0.10081552934E+04  0.00000000000E+00 0. -1.
        -13    1    5    5    0    0 -0.67080458999E+02  0.96627530100E+02 -0.18136016692E+03  0.21616701343E+03  0.00000000000E+00 0.  1.
         14    1    5    5    0    0 -0.26843262164E+02  0.21259367620E+03 -0.50907528433E+03  0.55233529400E+03  0.00000000000E+00 0. -1.
          5    1    4    4  501    0 -0.21395819717E+03 -0.12660191757E+03  0.15823897307E+03  0.29473346989E+03  0.47000000000E+01 0.  1.
         -5    1    4    4    0  501  0.14808209525E+02  0.46069381771E+01  0.11666367297E+02  0.19967500460E+02  0.47000000000E+01 0.  1.
          1    1    1    2  502    0 -0.39457294850E+01  0.54395705104E+02  0.56919135433E+03  0.57179826806E+03  0.00000000000E+00 0. -1.
          1    1    1    2  503    0  0.29816636633E+02 -0.33812024328E+02 -0.72536751438E+03  0.72676702989E+03  0.00000000000E+00 0. -1.
<mgrwt>
<rscale>  0 0.49559214E+02</rscale>
<asrwt>0</asrwt>
<pdfrwt beam="1">  1        2 0.27924539E+00 0.54482437E+02</pdfrwt>
<pdfrwt beam="2">  1        2 0.22914728E+00 0.45080870E+02</pdfrwt>
<totfact> 0.27216630E+01</totfact>
</mgrwt>
</event>
<event>
13    1  0.1675423E-008  0.1216153E+03  0.7546771E-02  0.1328991E+00
          2   -1    0    0  503    0  0.00000000000E+00  0.00000000000E+00  0.77877659670E+03  0.77877659670E+03  0.00000000000E+00 0. -1.
          2   -1    0    0  502    0 -0.00000000000E+00 -0.00000000000E+00 -0.12156294725E+04  0.12156294725E+04  0.00000000000E+00 0. -1.
         24    2    1    2    0    0  0.13332652463E+03 -0.39127213772E+02  0.95239854398E+02  0.18610801557E+03  0.79111709418E+02 0.  0.
         25    2    1    2    0    0 -0.10423034250E+03  0.98418708311E+01 -0.27943984656E+03  0.32353451010E+03  0.12500849835E+03 0.  0.
         24    2    1    2    0    0  0.52976230728E+02 -0.69659140740E+02 -0.12717644009E+03  0.17435416389E+03  0.81034873009E+02 0.  0.
        -11    1    5    5    0    0 -0.10752988513E+02 -0.45104347394E+02 -0.75933765818E+02  0.88971712961E+02  0.00000000000E+00 0.  1.
         12    1    5    5    0    0  0.63729219241E+02 -0.24554793346E+02 -0.51242674267E+02  0.85382450933E+02  0.00000000000E+00 0. -1.
        -13    1    3    3    0    0  0.15396284957E+02  0.19138724427E+02  0.15452722031E+01  0.24611465404E+02  0.00000000000E+00 0.  1.
         14    1    3    3    0    0  0.11793023968E+03 -0.58265938199E+02  0.93694582194E+02  0.16149655017E+03  0.00000000000E+00 0. -1.
          5    1    4    4  501    0 -0.61528526612E+01 -0.48314730155E+02 -0.85187401344E+02  0.98240287528E+02  0.47000000000E+01 0.  1.
         -5    1    4    4    0  501 -0.98077489838E+02  0.58156600986E+02 -0.19425244521E+03  0.22529422257E+03  0.47000000000E+01 0.  1.
          1    1    1    2  502    0 -0.48834943636E+02 -0.19684216919E+02 -0.71055392202E+03  0.71250206751E+03  0.00000000000E+00 0. -1.
          1    1    1    2  503    0 -0.33237469225E+02  0.11862870060E+03  0.58507747851E+03  0.59790731207E+03  0.00000000000E+00 0. -1.
<mgrwt>
<rscale>  0 0.80021195E+02</rscale>
<asrwt>0</asrwt>
<pdfrwt beam="1">  1        2 0.11452597E+00 0.12161535E+03</pdfrwt>
<pdfrwt beam="2">  1        2 0.17876904E+00 0.52652826E+02</pdfrwt>
<totfact> 0.14472752E+02</totfact>
</mgrwt>
</event>
<event>
13    1  0.1675423E-008  0.1113322E+03  0.7546771E-02  0.1293588E+00
          2   -1    0    0  502    0  0.00000000000E+00  0.00000000000E+00  0.14732455354E+04  0.14732455354E+04  0.00000000000E+00 0. -1.
          2   -1    0    0  503    0 -0.00000000000E+00 -0.00000000000E+00 -0.24429467548E+04  0.24429467548E+04  0.00000000000E+00 0. -1.
         24    2    1    2    0    0 -0.11766702429E+02  0.53147984629E+02  0.10186723817E+04  0.10232123350E+04  0.79415979153E+02 0.  0.
         25    2    1    2    0    0 -0.81975082273E+02 -0.85985784494E+02 -0.95099141554E+01  0.17272012682E+03  0.12501333726E+03 0.  0.
         24    2    1    2    0    0 -0.21553162360E+02 -0.74320693034E+02 -0.53833682382E+03  0.54977239581E+03  0.80343307734E+02 0.  0.
        -11    1    5    5    0    0 -0.10702502445E+02 -0.49767109108E+02 -0.50210892056E+03  0.50468274868E+03  0.00000000000E+00 0.  1.
         12    1    5    5    0    0 -0.10850659915E+02 -0.24553583927E+02 -0.36227903261E+02  0.45089647137E+02  0.00000000000E+00 0. -1.
        -13    1    3    3    0    0  0.33254270518E+02  0.18683420302E+02  0.32616169352E+03  0.32838448049E+03  0.00000000000E+00 0.  1.
         14    1    3    3    0    0 -0.45020972947E+02  0.34464564326E+02  0.69251068820E+03  0.69482785456E+03  0.00000000000E+00 0. -1.
          5    1    4    4  501    0 -0.78823627900E+02 -0.69115219060E+02 -0.58818692546E+02  0.12029882133E+03  0.47000000000E+01 0. -1.
         -5    1    4    4    0  501 -0.31514543724E+01 -0.16870565434E+02  0.49308778391E+02  0.52421305488E+02  0.47000000000E+01 0. -1.
          1    1    1    2  502    0  0.38214114634E+02  0.88701827108E+02  0.35770240168E+03  0.37051226816E+03  0.00000000000E+00 0. -1.
          1    1    1    2  503    0  0.77080832427E+02  0.18456665791E+02 -0.17982292648E+04  0.17999751643E+04  0.00000000000E+00 0. -1.
<mgrwt>
<rscale>  0 0.93937001E+02</rscale>
<asrwt>0</asrwt>
<pdfrwt beam="1">  1        2 0.21665376E+00 0.11133221E+03</pdfrwt>
<pdfrwt beam="2">  1        2 0.35925687E+00 0.79259720E+02</pdfrwt>
<totfact> 0.14661938E+01</totfact>
</mgrwt>
</event>
<event>
13    1  0.1675423E-008  0.1266631E+03  0.7546771E-02  0.1407777E+00
         -1   -1    0    0    0  501 -0.00000000000E+00  0.00000000000E+00  0.12612907600E+04  0.12612907600E+04  0.00000000000E+00 0.  1.
          2   -1    0    0  503    0  0.00000000000E+00 -0.00000000000E+00 -0.17108793037E+04  0.17108793037E+04  0.00000000000E+00 0. -1.
         24    2    1    2    0    0  0.97100146134E+02 -0.18233690910E+03 -0.38307320384E+03  0.44248707808E+03  0.79840766303E+02 0.  0.
         25    2    1    2    0    0 -0.18507258248E+03  0.23852739891E+03  0.15542948409E+03  0.36184336067E+03  0.12500044928E+03 0.  0.
         24    2    1    2    0    0  0.70862396910E+01  0.44616781017E+02 -0.65059316181E+02  0.10575152593E+03  0.70069955572E+02 0.  0.
        -11    1    5    5    0    0 -0.20568936914E+01  0.44236252274E+02 -0.78123130519E+02  0.89801449593E+02  0.00000000000E+00 0.  1.
         12    1    5    5    0    0  0.91431333824E+01  0.38052874346E+00  0.13063814338E+02  0.15950076340E+02  0.00000000000E+00 0. -1.
        -11    1    3    3    0    0  0.10527737303E+03 -0.12453751206E+03 -0.28490946055E+03  0.32827780597E+03  0.00000000000E+00 0.  1.
         12    1    3    3    0    0 -0.81772268949E+01 -0.57799397042E+02 -0.98163743297E+02  0.11420927211E+03  0.00000000000E+00 0. -1.
          5    1    4    4  502    0 -0.11147090176E+03  0.57697395980E+02  0.94772003542E+02  0.15734857513E+03  0.47000000000E+01 0. -1.
         -5    1    4    4    0  502 -0.73601680721E+02  0.18083000293E+03  0.60657480545E+02  0.20449478553E+03  0.47000000000E+01 0. -1.
          1    1    1    2  503    0  0.57742570673E+02 -0.11325347541E+03 -0.11056628390E+04  0.11129469295E+04  0.00000000000E+00 0. -1.
         -2    1    1    2    0  501  0.23143625981E+02  0.12446204577E+02  0.94877733122E+03  0.94914116952E+03  0.00000000000E+00 0.  1.
<mgrwt>
<rscale>  0 0.57692780E+02</rscale>
<asrwt>0</asrwt>
<pdfrwt beam="2">  1        2 0.25159990E+00 0.12666305E+03</pdfrwt>
<pdfrwt beam="1">  1       -1 0.18548394E+00 0.26278041E+02</pdfrwt>
<totfact> 0.36258654E+00</totfact>
</mgrwt>
</event>
<event>
13    1  0.1675423E-008  0.1366194E+03  0.7546771E-02  0.1339550E+00
          2   -1    0    0  502    0  0.00000000000E+00  0.00000000000E+00  0.10110687423E+04  0.10110687423E+04  0.00000000000E+00 0. -1.
          2   -1    0    0  503    0 -0.00000000000E+00 -0.00000000000E+00 -0.21750959071E+04  0.21750959071E+04  0.00000000000E+00 0. -1.
         24    2    1    2    0    0 -0.13257742140E+03  0.86184837834E+02  0.82899805788E+01  0.17877633905E+03  0.82991907371E+02 0.  0.
         25    2    1    2    0    0  0.64348706657E+02 -0.16832173599E+03 -0.26584662414E+03  0.34463778732E+03  0.12501125560E+03 0.  0.
         24    2    1    2    0    0 -0.90522495551E+02 -0.65763519038E+02  0.11214693579E+03  0.17709689110E+03  0.79165718533E+02 0.  0.
        -11    1    3    3    0    0  0.63186231386E+01 -0.76658488938E+00  0.13393601968E+02  0.14829066877E+02  0.00000000000E+00 0.  1.
         12    1    3    3    0    0 -0.13889604454E+03  0.86951422723E+02 -0.51036213892E+01  0.16394727218E+03  0.00000000000E+00 0. -1.
        -11    1    5    5    0    0 -0.98034531605E+02 -0.76216658980E+02  0.10084669017E+03  0.15996813249E+03  0.00000000000E+00 0.  1.
         12    1    5    5    0    0  0.75120360537E+01  0.10453139942E+02  0.11300245625E+02  0.17128758610E+02  0.00000000000E+00 0. -1.
          5    1    4    4  501    0  0.65901447732E+02 -0.23887787748E+02 -0.56007388180E+02  0.89847341349E+02  0.47000000000E+01 0.  1.
         -5    1    4    4    0  501 -0.15527410749E+01 -0.14443394824E+03 -0.20983923596E+03  0.25479044597E+03  0.47000000000E+01 0.  1.
          1    1    1    2  502    0  0.19468112187E+03  0.12475583137E+03  0.71502614258E+03  0.75148329406E+03  0.00000000000E+00 0. -1.
          1    1    1    2  503    0 -0.35929911573E+02  0.23144585830E+02 -0.17336435996E+04  0.17341703379E+04  0.00000000000E+00 0. -1.
<mgrwt>
<rscale>  0 0.76413276E+02</rscale>
<asrwt>0</asrwt>
<pdfrwt beam="1">  1        2 0.14868658E+00 0.13661938E+03</pdfrwt>
<pdfrwt beam="2">  1        2 0.31986704E+00 0.42739097E+02</pdfrwt>
<totfact> 0.37045507E+01</totfact>
</mgrwt>
</event>
<event>
13    1  0.1675423E-008  0.3026628E+03  0.7546771E-02  0.1119049E+00
          2   -1    0    0  502    0  0.00000000000E+00  0.00000000000E+00  0.13936023624E+04  0.13936023624E+04  0.00000000000E+00 0. -1.
          2   -1    0    0  503    0 -0.00000000000E+00 -0.00000000000E+00 -0.16219164367E+04  0.16219164367E+04  0.00000000000E+00 0. -1.
         24    2    1    2    0    0  0.13856696173E+03 -0.10162636653E+03  0.51207078864E+02  0.19645021277E+03  0.80260824285E+02 0.  0.
         25    2    1    2    0    0 -0.48972093533E+03  0.20452250795E+03 -0.19306558815E+03  0.57840689967E+03  0.12499667791E+03 0.  0.
         24    2    1    2    0    0  0.39884455728E+02  0.80473526514E+02 -0.33341155927E+02  0.12459862377E+03  0.79664459374E+02 0.  0.
        -11    1    3    3    0    0  0.71698734937E+02 -0.92406351223E+02  0.10048736213E+02  0.11739088311E+03  0.00000000000E+00 0.  1.
         12    1    3    3    0    0  0.66868226795E+02 -0.92200153071E+01  0.41158342651E+02  0.79059329662E+02  0.00000000000E+00 0. -1.
        -11    1    5    5    0    0 -0.20347262058E+02  0.46784521773E+02 -0.12936945301E+02  0.52632376960E+02  0.00000000000E+00 0.  1.
         12    1    5    5    0    0  0.60231717786E+02  0.33689004741E+02 -0.20404210626E+02  0.71966246805E+02  0.00000000000E+00 0. -1.
          5    1    4    4  501    0 -0.29698805928E+03  0.61407638542E+02 -0.13115898338E+03  0.33045056264E+03  0.47000000000E+01 0. -1.
         -5    1    4    4    0  501 -0.19273287606E+03  0.14311486941E+03 -0.61906604771E+02  0.24795633703E+03  0.47000000000E+01 0. -1.
          1    1    1    2  502    0  0.13712551698E+03 -0.35985630541E+03  0.98034957233E+03  0.10532735884E+04  0.00000000000E+00 0. -1.
          1    1    1    2  503    0  0.17414400090E+03  0.17648663747E+03 -0.10334639814E+04  0.10627894745E+04  0.00000000000E+00 0. -1.
<mgrwt>
<rscale>  0 0.24112039E+03</rscale>
<asrwt>0</asrwt>
<pdfrwt beam="1">  1        2 0.20494153E+00 0.30266277E+03</pdfrwt>
<pdfrwt beam="2">  1        2 0.23851712E+00 0.19209182E+03</pdfrwt>
<totfact> 0.34601507E+01</totfact>
</mgrwt>
</event>
<event>
13    1  0.1675423E-008  0.1281679E+03  0.7546771E-02  0.1283469E+00
          2   -1    0    0  503    0  0.00000000000E+00  0.00000000000E+00  0.35008060289E+04  0.35008060289E+04  0.00000000000E+00 0. -1.
          2   -1    0    0  502    0 -0.00000000000E+00 -0.00000000000E+00 -0.31571453231E+03  0.31571453231E+03  0.00000000000E+00 0. -1.
         24    2    1    2    0    0  0.15511420443E+02 -0.23888010115E+01  0.25473577707E+03  0.26672020351E+03  0.77479289545E+02 0.  0.
         25    2    1    2    0    0 -0.26600145209E+02 -0.26695271056E+03  0.67483628011E+03  0.73688318522E+03  0.12498602441E+03 0.  0.
         24    2    1    2    0    0 -0.10483830404E+03  0.93487019867E+02 -0.15268067892E+03  0.22274224974E+03  0.81066807177E+02 0.  0.
        -11    1    3    3    0    0  0.20797504269E+02  0.31532332498E+02  0.18704954427E+03  0.19082546001E+03  0.00000000000E+00 0.  1.
         12    1    3    3    0    0 -0.52860838253E+01 -0.33921133510E+02  0.67686232803E+02  0.75894743506E+02  0.00000000000E+00 0. -1.
        -13    1    5    5    0    0  0.61504040246E+01  0.98846291268E+01  0.49150371744E+01  0.12636888583E+02  0.00000000000E+00 0.  1.
         14    1    5    5    0    0 -0.11098870806E+03  0.83602390740E+02 -0.15759571609E+03  0.21010536115E+03  0.00000000000E+00 0. -1.
          5    1    4    4  501    0 -0.32827289406E+01 -0.19734708941E+02  0.32001035588E+01  0.20798214083E+02  0.47000000000E+01 0.  1.
         -5    1    4    4    0  501 -0.23317416268E+02 -0.24721800162E+03  0.67163617655E+03  0.71608497113E+03  0.47000000000E+01 0.  1.
          1    1    1    2  502    0  0.75100997620E+02 -0.95784162343E+01 -0.70953543507E+02  0.10376083672E+03  0.00000000000E+00 0. -1.
          1    1    1    2  503    0  0.40826031181E+02  0.18543290794E+03  0.24791536619E+04  0.24864140861E+04  0.00000000000E+00 0. -1.
<mgrwt>
<rscale>  0 0.98506370E+02</rscale>
<asrwt>0</asrwt>
<pdfrwt beam="1">  1        2 0.51482439E+00 0.12816785E+03</pdfrwt>
<pdfrwt beam="2">  1        2 0.46428610E-01 0.75709351E+02</pdfrwt>
<totfact> 0.24321032E+01</totfact>
</mgrwt>
</event>
<event>
13    1  0.1675423E-008  0.1805047E+03  0.7546771E-02  0.1392180E+00
          2   -1    0    0  502    0  0.00000000000E+00  0.00000000000E+00  0.25140194156E+04  0.25140194156E+04  0.00000000000E+00 0. -1.
          2   -1    0    0  503    0 -0.00000000000E+00 -0.00000000000E+00 -0.19427539585E+04  0.19427539585E+04  0.00000000000E+00 0. -1.
         24    2    1    2    0    0  0.64323386430E+01  0.18744203582E+03  0.14590117027E+04  0.14732296123E+04  0.80712145058E+02 0.  0.
         25    2    1    2    0    0 -0.70120420286E+02 -0.23163884048E+03 -0.11076901594E+04  0.11406913398E+04  0.12500327093E+03 0.  0.
         24    2    1    2    0    0 -0.60020626274E+02 -0.81699154970E+02  0.54509936359E+02  0.15626982958E+03  0.10569625809E+03 0.  0.
        -11    1    3    3    0    0  0.29046689433E+01  0.10206791516E+02  0.34821715393E+03  0.34837881966E+03  0.00000000000E+00 0.  1.
         12    1    3    3    0    0  0.35276696997E+01  0.17723524430E+03  0.11107945487E+04  0.11248507927E+04  0.00000000000E+00 0. -1.
        -11    1    5    5    0    0  0.18233406660E+02 -0.63076411216E+02  0.29929416816E+02  0.72158580649E+02  0.00000000000E+00 0.  1.
         12    1    5    5    0    0 -0.78254032934E+02 -0.18622743753E+02  0.24580519543E+02  0.84111248928E+02  0.00000000000E+00 0. -1.
          5    1    4    4  501    0 -0.95903469208E+02 -0.22330984549E+03 -0.10294537462E+04  0.10577626709E+04  0.47000000000E+01 0. -1.
         -5    1    4    4    0  501  0.25783048922E+02 -0.83289949893E+01 -0.78236413261E+02  0.82928668922E+02  0.47000000000E+01 0. -1.
          1    1    1    2  502    0  0.14091493959E+03  0.11409605377E+03  0.91698668582E+03  0.93474034451E+03  0.00000000000E+00 0. -1.
          1    1    1    2  503    0 -0.17206231677E+02  0.11799905856E+02 -0.75155270833E+03  0.75184224780E+03  0.00000000000E+00 0. -1.
<mgrwt>
<rscale>  0 0.61367652E+02</rscale>
<asrwt>0</asrwt>
<pdfrwt beam="1">  1        2 0.36970874E+00 0.18050472E+03</pdfrwt>
<pdfrwt beam="2">  1        2 0.28569911E+00 0.20863657E+02</pdfrwt>
<totfact> 0.86436622E+00</totfact>
</mgrwt>
</event>
<event>
13    1  0.1675423E-008  0.7772243E+02  0.7546771E-02  0.1377316E+00
         -3   -1    0    0    0  501 -0.00000000000E+00  0.00000000000E+00  0.15180772772E+03  0.15180772772E+03  0.00000000000E+00 0.  1.
          2   -1    0    0  503    0  0.00000000000E+00 -0.00000000000E+00 -0.23209956581E+04  0.23209956581E+04  0.00000000000E+00 0. -1.
         24    2    1    2    0    0 -0.16287767328E+02 -0.19826767141E+02 -0.14740345906E+03  0.17007302076E+03  0.80861984820E+02 0.  0.
         25    2    1    2    0    0  0.42277196571E+01  0.13705589063E+03 -0.12380252840E+04  0.12518538935E+04  0.12501750261E+03 0.  0.
         24    2    1    2    0    0  0.23400120014E+02 -0.95172122711E+02 -0.26913499192E+02  0.12864426082E+03  0.78865143414E+02 0.  0.
        -11    1    3    3    0    0  0.28103658508E+02 -0.22180587844E+02 -0.94008855927E+02  0.10059552222E+03  0.00000000000E+00 0.  1.
         12    1    3    3    0    0 -0.44391425837E+02  0.23538207027E+01 -0.53394603133E+02  0.69477498541E+02  0.00000000000E+00 0. -1.
        -13    1    5    5    0    0  0.37315896322E+02 -0.86773751261E+02  0.31046540406E+01  0.94508194898E+02  0.00000000000E+00 0.  1.
         14    1    5    5    0    0 -0.13915776308E+02 -0.83983714502E+01 -0.30018153233E+02  0.34136065924E+02  0.00000000000E+00 0. -1.
          5    1    4    4  502    0  0.62282149375E+02  0.70813888369E+02 -0.52874021901E+03  0.53710518720E+03  0.47000000000E+01 0. -1.
         -5    1    4    4    0  502 -0.58054429718E+02  0.66242002264E+02 -0.70928506503E+03  0.71474870630E+03  0.47000000000E+01 0. -1.
          1    1    1    2  503    0  0.67167300695E+01  0.54238198028E+02 -0.81983864791E+03  0.82165826546E+03  0.00000000000E+00 0. -1.
         -4    1    1    2    0  501 -0.18056802412E+02 -0.76295198809E+02  0.62992959846E+02  0.10057394526E+03  0.00000000000E+00 0.  1.
<mgrwt>
<rscale>  0 0.65174580E+02</rscale>
<asrwt>0</asrwt>
<pdfrwt beam="2">  1        2 0.34132289E+00 0.54652508E+02</pdfrwt>
<pdfrwt beam="1">  1       -3 0.22324666E-01 0.77722434E+02</pdfrwt>
<totfact> 0.72868551E+01</totfact>
</mgrwt>
</event>
<event>
13    1  0.1675423E-008  0.6258318E+02  0.7546771E-02  0.1419550E+00
          2   -1    0    0  503    0  0.00000000000E+00  0.00000000000E+00  0.40540802154E+03  0.40540802154E+03  0.00000000000E+00 0. -1.
          2   -1    0    0  502    0 -0.00000000000E+00 -0.00000000000E+00 -0.12554375058E+04  0.12554375058E+04  0.00000000000E+00 0. -1.
         24    2    1    2    0    0  0.84503245601E+02 -0.40652323548E+02 -0.65985365092E+02  0.13949026685E+03  0.79435862253E+02 0.  0.
         25    2    1    2    0    0  0.29196989556E+02  0.79503471607E+02 -0.79637254019E+03  0.81056040639E+03  0.12500273377E+03 0.  0.
         24    2    1    2    0    0 -0.38800850403E+02  0.28003693731E+02  0.43229522478E+02  0.10309575774E+03  0.80437744843E+02 0.  0.
        -13    1    5    5    0    0 -0.45662479347E+02  0.51405338943E+02  0.27365168372E+02  0.74002860296E+02  0.00000000000E+00 0.  1.
         14    1    5    5    0    0  0.68616289440E+01 -0.23401645212E+02  0.15864354106E+02  0.29092897443E+02  0.00000000000E+00 0. -1.
        -13    1    3    3    0    0  0.20522914541E+02 -0.11463507430E+02 -0.65042224448E+02  0.69159908799E+02  0.00000000000E+00 0.  1.
         14    1    3    3    0    0  0.63980331060E+02 -0.29188816118E+02 -0.94314064379E+00  0.70330358049E+02  0.00000000000E+00 0. -1.
          5    1    4    4  501    0  0.61259903561E+02 -0.32236193923E+01 -0.29031029964E+03  0.29675802867E+03  0.47000000000E+01 0.  1.
         -5    1    4    4    0  501 -0.32062914006E+02  0.82727090999E+02 -0.50606224055E+03  0.51380237772E+03  0.47000000000E+01 0.  1.
          1    1    1    2  502    0 -0.16082683525E+02 -0.45798419027E+02 -0.31403028118E+03  0.31775960315E+03  0.00000000000E+00 0. -1.
          1    1    1    2  503    0 -0.58816701229E+02 -0.21056422763E+02  0.28312917975E+03  0.28993949319E+03  0.00000000000E+00 0. -1.
<mgrwt>
<rscale>  0 0.55116225E+02</rscale>
<asrwt>0</asrwt>
<pdfrwt beam="1">  1        2 0.59618829E-01 0.62583185E+02</pdfrwt>
<pdfrwt beam="2">  1        2 0.18462316E+00 0.48540168E+02</pdfrwt>
<totfact> 0.28830739E+02</totfact>
</mgrwt>
</event>
<event>
13    1  0.1675423E-008  0.1954520E+03  0.7546771E-02  0.1298389E+00
          2   -1    0    0  502    0  0.00000000000E+00  0.00000000000E+00  0.34591171973E+04  0.34591171973E+04  0.00000000000E+00 0. -1.
          2   -1    0    0  503    0 -0.00000000000E+00 -0.00000000000E+00 -0.29706478975E+04  0.29706478975E+04  0.00000000000E+00 0. -1.
         24    2    1    2    0    0 -0.88789665176E+02 -0.16228919592E+02  0.27625712630E+02  0.12529744052E+03  0.82397124514E+02 0.  0.
         25    2    1    2    0    0  0.90328486830E+02 -0.32259059925E+02 -0.56460605569E+03  0.58617535145E+03  0.12498664747E+03 0.  0.
         24    2    1    2    0    0  0.81314655428E+02 -0.81127101805E+02  0.68934200315E+02  0.15577596920E+03  0.79501879059E+02 0.  0.
        -13    1    3    3    0    0  0.26748092354E+01  0.21779503679E+02 -0.16749717325E+01  0.22006974242E+02  0.00000000000E+00 0.  1.
         14    1    3    3    0    0 -0.91464474411E+02 -0.38008423272E+02  0.29300684362E+02  0.10329046627E+03  0.00000000000E+00 0. -1.
        -13    1    5    5    0    0  0.67576584460E+01 -0.46824191755E+02  0.54972991219E+02  0.72527240708E+02  0.00000000000E+00 0.  1.
         14    1    5    5    0    0  0.74556996982E+02 -0.34302910050E+02  0.13961209096E+02  0.83248728496E+02  0.00000000000E+00 0. -1.
          5    1    4    4  501    0  0.50636531421E+02  0.37538555306E+02 -0.37384914547E+03  0.37915494856E+03  0.47000000000E+01 0.  1.
         -5    1    4    4    0  501  0.39691955409E+02 -0.69797615231E+02 -0.19075691022E+03  0.20702040289E+03  0.47000000000E+01 0.  1.
          1    1    1    2  502    0 -0.96974806389E+02  0.17042172638E+03  0.32563641565E+04  0.32622622822E+04  0.00000000000E+00 0. -1.
          1    1    1    2  503    0  0.14121329307E+02 -0.40806645060E+02 -0.22998487139E+04  0.23002540514E+04  0.00000000000E+00 0. -1.
<mgrwt>
<rscale>  0 0.91868391E+02</rscale>
<asrwt>0</asrwt>
<pdfrwt beam="1">  1        2 0.50869370E+00 0.19545197E+03</pdfrwt>
<pdfrwt beam="2">  1        2 0.43685999E+00 0.43180947E+02</pdfrwt>
<totfact> 0.76687870E-01</totfact>
</mgrwt>
</event>
<event>
13    1  0.1675423E-008  0.9065181E+02  0.7546771E-02  0.1469470E+00
          4   -1    0    0  503    0 -0.00000000000E+00  0.00000000000E+00  0.17745314566E+04  0.17745314566E+04  0.00000000000E+00 0. -1.
          2   -1    0    0  502    0  0.00000000000E+00 -0.00000000000E+00 -0.11725107052E+04  0.11725107052E+04  0.00000000000E+00 0. -1.
         24    2    1    2    0    0 -0.72956337723E+02  0.10500856451E+03 -0.58808200253E+03  0.60957575424E+03  0.96916111279E+02 0.  0.
         25    2    1    2    0    0 -0.31007529856E+02  0.39045853902E+02 -0.21127864433E+03  0.25050611148E+03  0.12501440207E+03 0.  0.
         24    2    1    2    0    0  0.20895788390E+03 -0.18666105197E+03  0.47952700288E+03  0.56210754502E+03  0.86677564050E+02 0.  0.
        -11    1    5    5    0    0  0.11778096121E+03 -0.14304339707E+03  0.36513659794E+03  0.40946123556E+03  0.00000000000E+00 0.  1.
         12    1    5    5    0    0  0.91176922687E+02 -0.43617654902E+02  0.11439040494E+03  0.15264630946E+03  0.00000000000E+00 0. -1.
        -13    1    3    3    0    0  0.13216335206E+02  0.41599451114E+02 -0.88652136495E+02  0.98814913623E+02  0.00000000000E+00 0.  1.
         14    1    3    3    0    0 -0.86172672929E+02  0.63409113391E+02 -0.49942986604E+03  0.51076084062E+03  0.00000000000E+00 0. -1.
          5    1    4    4  501    0 -0.56753511569E+02  0.53327925971E+02 -0.20593212510E+03  0.22021570995E+03  0.47000000000E+01 0. -1.
         -5    1    4    4    0  501  0.25745981713E+02 -0.14282072068E+02 -0.53465192348E+01  0.30290401530E+02  0.47000000000E+01 0. -1.
          1    1    1    2  502    0 -0.22604513218E+02  0.48992813546E+01 -0.29937475411E+03  0.30026689856E+03  0.00000000000E+00 0. -1.
          3    1    1    2  503    0 -0.82389503101E+02  0.37707352211E+02  0.12212291495E+04  0.12245858526E+04  0.00000000000E+00 0. -1.
<mgrwt>
<rscale>  0 0.45789930E+02</rscale>
<asrwt>0</asrwt>
<pdfrwt beam="2">  1        2 0.17242804E+00 0.23129353E+02</pdfrwt>
<pdfrwt beam="1">  1        4 0.26096051E+00 0.90651810E+02</pdfrwt>
<totfact> 0.88420198E-01</totfact>
</mgrwt>
</event>
<event>
13    1  0.1675423E-008  0.7046673E+02  0.7546771E-02  0.1463231E+00
          2   -1    0    0  502    0  0.00000000000E+00  0.00000000000E+00  0.15318097934E+04  0.15318097934E+04  0.00000000000E+00 0. -1.
          2   -1    0    0  503    0 -0.00000000000E+00 -0.00000000000E+00 -0.27689848114E+04  0.27689848114E+04  0.00000000000E+00 0. -1.
         24    2    1    2    0    0 -0.50684265755E+02  0.11841678618E+02  0.48427225266E+03  0.49354981744E+03  0.79766455670E+02 0.  0.
         25    2    1    2    0    0  0.12547487501E+03  0.90271157257E+02  0.66858406070E+03  0.69751153626E+03  0.12499948363E+03 0.  0.
         24    2    1    2    0    0  0.12379725717E+02 -0.10978655320E+03 -0.12808210208E+04  0.12880613660E+04  0.79957802951E+02 0.  0.
        -11    1    3    3    0    0 -0.49405306986E+02  0.39986839794E+02  0.26713316259E+03  0.27459052837E+03  0.00000000000E+00 0.  1.
         12    1    3    3    0    0 -0.12789587690E+01 -0.28145161176E+02  0.21713909008E+03  0.21895928908E+03  0.00000000000E+00 0. -1.
        -13    1    5    5    0    0  0.25835699849E+02 -0.52058442183E+02 -0.30793335140E+03  0.31336961195E+03  0.00000000000E+00 0.  1.
         14    1    5    5    0    0 -0.13455974133E+02 -0.57728111016E+02 -0.97288766942E+03  0.97469175402E+03  0.00000000000E+00 0. -1.
          5    1    4    4  501    0  0.12113133999E+03  0.13772224506E+02  0.41541889369E+03  0.43296353533E+03  0.47000000000E+01 0.  1.
         -5    1    4    4    0  501  0.43435350206E+01  0.76498932751E+02  0.25316516701E+03  0.26454800093E+03  0.47000000000E+01 0.  1.
          1    1    1    2  502    0 -0.22862443794E+02 -0.21115388419E+02  0.35470215312E+03  0.35606483734E+03  0.00000000000E+00 0. -1.
          1    1    1    2  503    0 -0.64307891177E+02  0.28789105743E+02 -0.14639124636E+04  0.14656070478E+04  0.00000000000E+00 0. -1.
<mgrwt>
<rscale>  0 0.46829841E+02</rscale>
<asrwt>0</asrwt>
<pdfrwt beam="1">  1        2 0.22526615E+00 0.31121551E+02</pdfrwt>
<pdfrwt beam="2">  1        2 0.40720365E+00 0.70466731E+02</pdfrwt>
<totfact> 0.10673353E+01</totfact>
</mgrwt>
</event>
<event>
13    1  0.1675423E-008  0.1685566E+03  0.7546771E-02  0.1196136E+00
          2   -1    0    0  502    0  0.00000000000E+00  0.00000000000E+00  0.33514311117E+04  0.33514311117E+04  0.00000000000E+00 0. -1.
          4   -1    0    0  503    0 -0.00000000000E+00 -0.00000000000E+00 -0.53545317450E+03  0.53545317450E+03  0.00000000000E+00 0. -1.
         24    2    1    2    0    0 -0.18568152791E+01  0.15096814506E+03  0.42566887137E+02  0.17596934723E+03  0.79739843854E+02 0.  0.
         25    2    1    2    0    0 -0.15824787648E+02  0.26474767505E+03 -0.49159366266E+02  0.29727932334E+03  0.12496638527E+03 0.  0.
         24    2    1    2    0    0  0.13170697696E+03 -0.15040451562E+03  0.42686700036E+03  0.47779039437E+03  0.78102361441E+02 0.  0.
        -13    1    3    3    0    0  0.22871856477E+02  0.89117918625E+01 -0.30442810711E+01  0.24734783203E+02  0.00000000000E+00 0.  1.
         14    1    3    3    0    0 -0.24728671756E+02  0.14205635320E+03  0.45611168208E+02  0.15123456403E+03  0.00000000000E+00 0. -1.
        -13    1    5    5    0    0  0.19940447768E+02 -0.22739612104E+02  0.18198104071E+02  0.35297059475E+02  0.00000000000E+00 0.  1.
         14    1    5    5    0    0  0.11176652919E+03 -0.12766490352E+03  0.40866889629E+03  0.44249333490E+03  0.00000000000E+00 0. -1.
          5    1    4    4  501    0 -0.62401252286E+01  0.14364898087E+03 -0.89218641656E+02  0.16928090527E+03  0.47000000000E+01 0.  1.
         -5    1    4    4    0  501 -0.95846624192E+01  0.12109869418E+03  0.40059275390E+02  0.12799841808E+03  0.47000000000E+01 0.  1.
          1    1    1    2  502    0 -0.96106492613E+02 -0.10172191798E+03  0.26386769854E+04  0.26423852936E+04  0.00000000000E+00 0. -1.
          3    1    1    2  503    0 -0.17918881419E+02 -0.16358938651E+03 -0.24297356943E+03  0.29345992765E+03  0.00000000000E+00 0. -1.
<mgrwt>
<rscale>  0 0.15358444E+03</rscale>
<asrwt>0</asrwt>
<pdfrwt beam="1">  1        2 0.49285751E+00 0.13994215E+03</pdfrwt>
<pdfrwt beam="2">  1        4 0.78743115E-01 0.16855665E+03</pdfrwt>
<totfact> 0.13458745E+00</totfact>
</mgrwt>
</event>
<event>
13    1  0.1675423E-008  0.1723856E+03  0.7546771E-02  0.1365360E+00
          2   -1    0    0  502    0  0.00000000000E+00  0.00000000000E+00  0.19386021672E+04  0.19386021672E+04  0.00000000000E+00 0. -1.
          2   -1    0    0  503    0 -0.00000000000E+00 -0.00000000000E+00 -0.30905900433E+03  0.30905900433E+03  0.00000000000E+00 0. -1.
         24    2    1    2    0    0  0.96889024098E+01  0.10435942232E+03 -0.34511549526E+02  0.13729684060E+03  0.81698295775E+02 0.  0.
         25    2    1    2    0    0  0.91041033576E+02  0.49375919285E+02  0.79431403989E+03  0.81073958959E+03  0.12504973795E+03 0.  0.
         24    2    1    2    0    0 -0.37478840174E+02 -0.28567298312E+03  0.44679810338E+03  0.53910171681E+03  0.89377844814E+02 0.  0.
        -11    1    3    3    0    0  0.82799261156E+01 -0.39893606868E+01  0.15448720365E+02  0.17975959949E+02  0.00000000000E+00 0.  1.
         12    1    3    3    0    0  0.14089762942E+01  0.10834878300E+03 -0.49960269891E+02  0.11932088065E+03  0.00000000000E+00 0. -1.
        -13    1    5    5    0    0 -0.20459651491E+02 -0.20064143430E+03  0.37788103280E+03  0.42833358197E+03  0.00000000000E+00 0.  1.
         14    1    5    5    0    0 -0.17019188684E+02 -0.85031548825E+02  0.68917070575E+02  0.11076813484E+03  0.00000000000E+00 0. -1.
          5    1    4    4  501    0  0.10738518053E+03  0.61196044190E+02  0.47783962358E+03  0.49358821774E+03  0.47000000000E+01 0.  1.
         -5    1    4    4    0  501 -0.16344146950E+02 -0.11820124905E+02  0.31647441630E+03  0.31715137185E+03  0.47000000000E+01 0.  1.
          1    1    1    2  502    0 -0.27156164685E+02 -0.15265042041E+01  0.56303679043E+03  0.56369336955E+03  0.00000000000E+00 0. -1.
          1    1    1    2  503    0 -0.36094931126E+02  0.13346414572E+03 -0.14009422129E+03  0.19682965500E+03  0.00000000000E+00 0. -1.
<mgrwt>
<rscale>  0 0.68474251E+02</rscale>
<asrwt>0</asrwt>
<pdfrwt beam="1">  1        2 0.28508855E+00 0.27199035E+02</pdfrwt>
<pdfrwt beam="2">  1        2 0.45449854E-01 0.17238564E+03</pdfrwt>
<totfact> 0.19437547E+02</totfact>
</mgrwt>
</event>
<event>
13    1  0.1675423E-008  0.1595290E+03  0.7546771E-02  0.1301467E+00
          2   -1    0    0  503    0  0.00000000000E+00  0.00000000000E+00  0.84275157460E+03  0.84275157460E+03  0.00000000000E+00 0. -1.
         -1   -1    0    0    0  501 -0.00000000000E+00 -0.00000000000E+00 -0.89511105596E+03  0.89511105596E+03  0.00000000000E+00 0.  1.
         24    2    1    2    0    0 -0.78543812057E+02  0.38625209706E+02  0.64216387379E+02  0.13545849213E+03  0.81019883029E+02 0.  0.
         25    2    1    2    0    0  0.26043531649E+03  0.12742732782E+03 -0.37445323745E+03  0.48980052046E+03  0.12500017943E+03 0.  0.
         24    2    1    2    0    0 -0.90948906958E+02  0.16526738367E+02  0.70873626944E+02  0.13900566992E+03  0.75859531475E+02 0.  0.
        -11    1    3    3    0    0 -0.81955692847E+02  0.57227887166E+02  0.57908951064E+02  0.11552148403E+03  0.00000000000E+00 0.  1.
         12    1    3    3    0    0  0.34118807900E+01 -0.18602677460E+02  0.63074363155E+01  0.19937008103E+02  0.00000000000E+00 0. -1.
        -13    1    5    5    0    0 -0.45238084977E+02 -0.29741307937E+02  0.37884048822E+02  0.66077461250E+02  0.00000000000E+00 0.  1.
         14    1    5    5    0    0 -0.45710821981E+02  0.46268046304E+02  0.32989578123E+02  0.72928208669E+02  0.00000000000E+00 0. -1.
          5    1    4    4  502    0  0.14225208314E+03  0.54152885234E+02 -0.10025595088E+03  0.18232261468E+03  0.47000000000E+01 0.  1.
         -5    1    4    4    0  502  0.11818323335E+03  0.73274442585E+02 -0.27419728657E+03  0.30747790578E+03  0.47000000000E+01 0.  1.
          1    1    1    2  503    0 -0.44585037499E+02 -0.20483760019E+03  0.55954427220E+03  0.59752494557E+03  0.00000000000E+00 0. -1.
         -2    1    1    2    0  501 -0.46357559974E+02  0.22258324302E+02 -0.37254053044E+03  0.37607300247E+03  0.00000000000E+00 0.  1.
<mgrwt>
<rscale>  0 0.90574077E+02</rscale>
<asrwt>0</asrwt>
<pdfrwt beam="1">  1        2 0.12393406E+00 0.15952900E+03</pdfrwt>
<pdfrwt beam="2">  1       -1 0.13163398E+00 0.51424278E+02</pdfrwt>
<totfact> 0.24084352E+01</totfact>
</mgrwt>
</event>
<event>
13    1  0.1675423E-008  0.9114574E+02  0.7546771E-02  0.1327151E+00
          2   -1    0    0  503    0  0.00000000000E+00  0.00000000000E+00  0.15658561902E+04  0.15658561902E+04  0.00000000000E+00 0. -1.
          2   -1    0    0  502    0 -0.00000000000E+00 -0.00000000000E+00 -0.16404422285E+04  0.16404422285E+04  0.00000000000E+00 0. -1.
         24    2    1    2    0    0  0.13341088558E+03 -0.50960391252E+02  0.51139079949E+03  0.53704723379E+03  0.80645865682E+02 0.  0.
         25    2    1    2    0    0 -0.29330474444E+03  0.24754883486E+02 -0.33858472672E+03  0.46572902000E+03  0.12499370198E+03 0.  0.
         24    2    1    2    0    0 -0.55304962784E+01  0.15558072284E+02  0.52773576669E+03  0.53404319189E+03  0.80152675305E+02 0.  0.
        -13    1    5    5    0    0  0.23847003738E+02  0.32625597994E+02  0.17177282622E+03  0.17646249760E+03  0.00000000000E+00 0.  1.
         14    1    5    5    0    0 -0.29377500017E+02 -0.17067525710E+02  0.35596294047E+03  0.35758069429E+03  0.00000000000E+00 0. -1.
        -13    1    3    3    0    0 -0.10933400606E+02 -0.73769375325E+01  0.44457026587E+02  0.46372251068E+02  0.00000000000E+00 0.  1.
         14    1    3    3    0    0  0.14434428618E+03 -0.43583453720E+02  0.46693377291E+03  0.49067498272E+03  0.00000000000E+00 0. -1.
          5    1    4    4  501    0 -0.58316631372E+02 -0.21370913941E+02 -0.14482493985E+03  0.15765119301E+03  0.47000000000E+01 0.  1.
         -5    1    4    4    0  501 -0.23498811307E+03  0.46125797427E+02 -0.19375978687E+03  0.30807782698E+03  0.47000000000E+01 0.  1.
          1    1    1    2  502    0  0.63644107795E+02  0.32373677599E+02 -0.12151857971E+04  0.12172818691E+04  0.00000000000E+00 0. -1.
          1    1    1    2  503    0  0.10178024734E+03 -0.21726242116E+02  0.44005791931E+03  0.45219710381E+03  0.00000000000E+00 0. -1.
<mgrwt>
<rscale>  0 0.80673612E+02</rscale>
<asrwt>0</asrwt>
<pdfrwt beam="1">  1        2 0.23027297E+00 0.91145738E+02</pdfrwt>
<pdfrwt beam="2">  1        2 0.24124151E+00 0.71404674E+02</pdfrwt>
<totfact> 0.32807398E+01</totfact>
</mgrwt>
</event>
<event>
13    1  0.1675423E-008  0.8217629E+02  0.7546771E-02  0.1501110E+00
          2   -1    0    0  503    0  0.00000000000E+00  0.00000000000E+00  0.12312052195E+04  0.12312052195E+04  0.00000000000E+00 0. -1.
          2   -1    0    0  502    0 -0.00000000000E+00 -0.00000000000E+00 -0.17220655195E+04  0.17220655195E+04  0.00000000000E+00 0. -1.
         24    2    1    2    0    0  0.29368756239E+03 -0.90685555266E+02  0.53518549872E+03  0.62239695517E+03  0.80487250739E+02 0.  0.
         25    2    1    2    0    0 -0.31535197091E+03  0.36327278396E+02 -0.65866761224E+03  0.74177827489E+03  0.12500179591E+03 0.  0.
         24    2    1    2    0    0 -0.71502202377E+02  0.14412462425E+02  0.21294530093E+03  0.23872420885E+03  0.79518945452E+02 0.  0.
        -11    1    3    3    0    0  0.79926827825E+02 -0.46535983180E+02  0.10443824088E+03  0.13950355442E+03  0.00000000000E+00 0.  1.
         12    1    3    3    0    0  0.21376073456E+03 -0.44149572086E+02  0.43074725784E+03  0.48289340075E+03  0.00000000000E+00 0. -1.
        -13    1    5    5    0    0 -0.22359519781E+02  0.43699547548E+02  0.11906230755E+03  0.12878443873E+03  0.00000000000E+00 0.  1.
         14    1    5    5    0    0 -0.49142682596E+02 -0.29287085123E+02  0.93882993380E+02  0.10993977012E+03  0.00000000000E+00 0. -1.
          5    1    4    4  501    0 -0.19162240281E+03  0.72312083832E+02 -0.47571969678E+03  0.51795704709E+03  0.47000000000E+01 0.  1.
         -5    1    4    4    0  501 -0.12372956810E+03 -0.35984805436E+02 -0.18294791545E+03  0.22382122780E+03  0.47000000000E+01 0.  1.
          1    1    1    2  502    0  0.20324976908E+02  0.21426837924E+01 -0.96086440206E+03  0.96108173166E+03  0.00000000000E+00 0. -1.
          1    1    1    2  503    0  0.72841633990E+02  0.37803130652E+02  0.38054091468E+03  0.38928956842E+03  0.00000000000E+00 0. -1.
<mgrwt>
<rscale>  0 0.40981542E+02</rscale>
<asrwt>0</asrwt>
<pdfrwt beam="1">  1        2 0.18105959E+00 0.82176295E+02</pdfrwt>
<pdfrwt beam="2">  1        2 0.25324493E+00 0.20437607E+02</pdfrwt>
<totfact> 0.50384293E+01</totfact>
</mgrwt>
</event>
<event>
13    1  0.1675423E-008  0.1877931E+03  0.7546771E-02  0.1213668E+00
         -1   -1    0    0    0  501 -0.00000000000E+00  0.00000000000E+00  0.33177711149E+04  0.33177711149E+04  0.00000000000E+00 0.  1.
          2   -1    0    0  503    0  0.00000000000E+00 -0.00000000000E+00 -0.77912901489E+03  0.77912901489E+03  0.00000000000E+00 0. -1.
         24    2    1    2    0    0 -0.10582436675E+03  0.79267191289E+02 -0.62837055884E+02  0.16198343678E+03  0.69340132579E+02 0.  0.
         25    2    1    2    0    0 -0.53550985770E+02 -0.20570739085E+03  0.15564238992E+04  0.15758373992E+04  0.12499966393E+03 0.  0.
         24    2    1    2    0    0  0.94632393472E+02  0.74088131306E+02  0.56366535560E+01  0.14266917741E+03  0.76670602094E+02 0.  0.
        -13    1    5    5    0    0  0.10817155300E+03  0.67423130832E+02  0.47345677996E+01  0.12755147816E+03  0.00000000000E+00 0.  1.
         14    1    5    5    0    0 -0.13539159524E+02  0.66650004743E+01  0.90208575641E+00  0.15117699251E+02  0.00000000000E+00 0. -1.
        -13    1    3    3    0    0 -0.77248140914E+01 -0.12490631871E+02 -0.32815784526E+01  0.15048501401E+02  0.00000000000E+00 0.  1.
         14    1    3    3    0    0 -0.98099552664E+02  0.91757823160E+02 -0.59555477432E+02  0.14693493538E+03  0.00000000000E+00 0. -1.
          5    1    4    4  502    0 -0.79104995850E+02 -0.19016005956E+03  0.11515179273E+04  0.11698008700E+04  0.47000000000E+01 0.  1.
         -5    1    4    4    0  502  0.25554010080E+02 -0.15547331289E+02  0.40490597190E+03  0.40603652917E+03  0.47000000000E+01 0.  1.
          1    1    1    2  503    0 -0.26221438751E+02 -0.10063503273E+03 -0.57898407926E+03  0.58824955393E+03  0.00000000000E+00 0. -1.
         -2    1    1    2    0  501  0.90964397804E+02  0.15298710099E+03  0.16184026824E+04  0.16281605624E+04  0.00000000000E+00 0.  1.
<mgrwt>
<rscale>  0 0.13974818E+03</rscale>
<asrwt>0</asrwt>
<pdfrwt beam="2">  1        2 0.11457780E+00 0.10399507E+03</pdfrwt>
<pdfrwt beam="1">  1       -1 0.48790751E+00 0.18779309E+03</pdfrwt>
<totfact> 0.10898561E-01</totfact>
</mgrwt>
</event>
<event>
13    1  0.1675423E-008  0.2683362E+03  0.7546771E-02  0.1256875E+00
          2   -1    0    0  502    0  0.00000000000E+00  0.00000000000E+00  0.27357036983E+04  0.27357036983E+04  0.00000000000E+00 0. -1.
          2   -1    0    0  503    0 -0.00000000000E+00 -0.00000000000E+00 -0.11932444470E+04  0.11932444470E+04  0.00000000000E+00 0. -1.
         24    2    1    2    0    0 -0.65540956284E+02 -0.88533045146E+02  0.68647206139E+02  0.15180400753E+03  0.78729287799E+02 0.  0.
         25    2    1    2    0    0  0.20806187910E+02 -0.14522397813E+03  0.12137508857E+04  0.12289585213E+04  0.12499973285E+03 0.  0.
         24    2    1    2    0    0  0.20926953245E+02  0.64603139078E+01  0.85704937978E+02  0.12001222577E+03  0.81104407481E+02 0.  0.
        -11    1    3    3    0    0 -0.59758511637E+01  0.13542920470E+02  0.17786411513E+02  0.23140395988E+02  0.00000000000E+00 0.  1.
         12    1    3    3    0    0 -0.59565105120E+02 -0.10207596562E+03  0.50860794627E+02  0.12866361154E+03  0.00000000000E+00 0. -1.
        -13    1    5    5    0    0  0.40671411232E+02 -0.21732123125E+02  0.65489774283E+02  0.80095938741E+02  0.00000000000E+00 0.  1.
         14    1    5    5    0    0 -0.19744457988E+02  0.28192437032E+02  0.20215163694E+02  0.39916287030E+02  0.00000000000E+00 0. -1.
          5    1    4    4  501    0 -0.17639684811E+02 -0.15030329333E+03  0.10327964893E+04  0.10438356752E+04  0.47000000000E+01 0. -1.
         -5    1    4    4    0  501  0.38445872721E+02  0.50793152044E+01  0.18095439642E+03  0.18512284613E+03  0.47000000000E+01 0. -1.
          1    1    1    2  502    0  0.19209998648E+02 -0.42635641584E+02  0.12846641280E+04  0.12855149722E+04  0.00000000000E+00 0. -1.
          1    1    1    2  503    0  0.45978164806E+01  0.26993235095E+03 -0.11103079066E+04  0.11426584185E+04  0.00000000000E+00 0. -1.
<mgrwt>
<rscale>  0 0.11201934E+03</rscale>
<asrwt>0</asrwt>
<pdfrwt beam="1">  1        2 0.40230937E+00 0.46763468E+02</pdfrwt>
<pdfrwt beam="2">  1        2 0.17547712E+00 0.26833625E+03</pdfrwt>
<totfact> 0.15046018E+01</totfact>
</mgrwt>
</event>
<event>
13    1  0.1675423E-008  0.1485464E+03  0.7546771E-02  0.1347488E+00
          2   -1    0    0  503    0  0.00000000000E+00  0.00000000000E+00  0.31419594067E+04  0.31419594067E+04  0.00000000000E+00 0. -1.
          2   -1    0    0  502    0 -0.00000000000E+00 -0.00000000000E+00 -0.20270409978E+04  0.20270409978E+04  0.00000000000E+00 0. -1.
         24    2    1    2    0    0 -0.63909288853E+02  0.17103410895E+03  0.25372555329E+03  0.32325865323E+03  0.82355551561E+02 0.  0.
         25    2    1    2    0    0 -0.98477178849E+02 -0.43416461651E+02 -0.35732221925E+03  0.39355749594E+03  0.12500236134E+03 0.  0.
         24    2    1    2    0    0  0.15979675254E+02 -0.15929426978E+03 -0.22018780400E+03  0.28372640389E+03  0.79924894930E+02 0.  0.
        -11    1    3    3    0    0 -0.53546856606E+02  0.15924511864E+03  0.17350339566E+03  0.24151542802E+03  0.00000000000E+00 0.  1.
         12    1    3    3    0    0 -0.10362432248E+02  0.11788990306E+02  0.80222157625E+02  0.81743225215E+02  0.00000000000E+00 0. -1.
        -13    1    5    5    0    0  0.43398387536E+02 -0.13648310458E+03 -0.17897822537E+03  0.22922535425E+03  0.00000000000E+00 0.  1.
         14    1    5    5    0    0 -0.27418712281E+02 -0.22811165206E+02 -0.41209578629E+02  0.54501049641E+02  0.00000000000E+00 0. -1.
          5    1    4    4  501    0  0.88315272674E+01 -0.37172619795E+02 -0.19534731003E+03  0.19910414630E+03  0.47000000000E+01 0. -1.
         -5    1    4    4    0  501 -0.10730870612E+03 -0.62438418554E+01 -0.16197490923E+03  0.19445334964E+03  0.47000000000E+01 0. -1.
          1    1    1    2  502    0  0.13269008266E+02 -0.34226768966E+02 -0.13626622088E+04  0.13631565697E+04  0.00000000000E+00 0. -1.
          1    1    1    2  503    0  0.13313778418E+03  0.65903391449E+02  0.28013650877E+04  0.28053012817E+04  0.00000000000E+00 0. -1.
<mgrwt>
<rscale>  0 0.73844198E+02</rscale>
<asrwt>0</asrwt>
<pdfrwt beam="1">  1        2 0.46205285E+00 0.14854642E+03</pdfrwt>
<pdfrwt beam="2">  1        2 0.29809426E+00 0.36708831E+02</pdfrwt>
<totfact> 0.35306909E+00</totfact>
</mgrwt>
</event>
<event>
13    1  0.1675423E-008  0.1882146E+03  0.7546771E-02  0.1180201E+00
          2   -1    0    0  503    0  0.00000000000E+00  0.00000000000E+00  0.18620473482E+04  0.18620473482E+04  0.00000000000E+00 0. -1.
          2   -1    0    0  502    0 -0.00000000000E+00 -0.00000000000E+00 -0.31453054047E+04  0.31453054047E+04  0.00000000000E+00 0. -1.
         24    2    1    2    0    0 -0.59786453686E+02  0.62783722878E+02 -0.73702297735E+02  0.13871479012E+03  0.79331887683E+02 0.  0.
         25    2    1    2    0    0 -0.86146823979E+02 -0.36824058168E+03 -0.60352399942E+03  0.72311296829E+03  0.12501498214E+03 0.  0.
         24    2    1    2    0    0  0.92719042049E+02 -0.41758424985E+02  0.19924505408E+03  0.23761477968E+03  0.80134918316E+02 0.  0.
        -13    1    5    5    0    0  0.76035222738E+02 -0.64922427164E+02  0.16611276292E+03  0.19388070211E+03  0.00000000000E+00 0.  1.
         14    1    5    5    0    0  0.16683819312E+02  0.23164002179E+02  0.33132291156E+02  0.43734077571E+02  0.00000000000E+00 0. -1.
        -13    1    3    3    0    0 -0.58814420735E+02  0.11229001099E+02 -0.17368167724E+02  0.62344845835E+02  0.00000000000E+00 0.  1.
         14    1    3    3    0    0 -0.97203295156E+00  0.51554721779E+02 -0.56334130011E+02  0.76369944283E+02  0.00000000000E+00 0. -1.
          5    1    4    4  501    0 -0.62929595221E+02 -0.13440186260E+03 -0.33391781575E+03  0.36544109280E+03  0.47000000000E+01 0. -1.
         -5    1    4    4    0  501 -0.23217228758E+02 -0.23383871908E+03 -0.26960618367E+03  0.35767187550E+03  0.47000000000E+01 0. -1.
          1    1    1    2  502    0 -0.10773614259E+02  0.22305020400E+03 -0.23481411108E+04  0.23587357081E+04  0.00000000000E+00 0. -1.
          1    1    1    2  503    0  0.63987849875E+02  0.12416507979E+03  0.15428642974E+04  0.15491745067E+04  0.00000000000E+00 0. -1.
<mgrwt>
<rscale>  0 0.16776278E+03</rscale>
<asrwt>0</asrwt>
<pdfrwt beam="1">  1        2 0.27383050E+00 0.14953327E+03</pdfrwt>
<pdfrwt beam="2">  1        2 0.46254491E+00 0.18821463E+03</pdfrwt>
<totfact> 0.35045853E+00</totfact>
</mgrwt>
</event>
<event>
13    1  0.1675423E-008  0.1018894E+03  0.7546771E-02  0.1417267E+00
          2   -1    0    0  503    0  0.00000000000E+00  0.00000000000E+00  0.36195677469E+03  0.36195677469E+03  0.00000000000E+00 0. -1.
         -1   -1    0    0    0  501 -0.00000000000E+00 -0.00000000000E+00 -0.11506598773E+04  0.11506598773E+04  0.00000000000E+00 0.  1.
         24    2    1    2    0    0  0.61767661077E+02 -0.15286972438E+03  0.18798005216E+03  0.26435913200E+03  0.85818727999E+02 0.  0.
         25    2    1    2    0    0 -0.40667830664E+02  0.26764753214E+03 -0.11568126904E+03  0.31983869454E+03  0.12500224241E+03 0.  0.
         24    2    1    2    0    0  0.25853008060E+02  0.34442600143E+02 -0.33596889000E+03  0.34817718906E+03  0.80607624976E+02 0.  0.
        -11    1    5    5    0    0 -0.20891596078E+02  0.39182693159E+02 -0.16207005541E+03  0.16804298584E+03  0.00000000000E+00 0.  1.
         12    1    5    5    0    0  0.46744604138E+02 -0.47400930161E+01 -0.17389883460E+03  0.18013420323E+03  0.00000000000E+00 0. -1.
        -11    1    3    3    0    0  0.39733357088E+02 -0.13153313376E+02  0.25808952652E+02  0.49171651947E+02  0.00000000000E+00 0.  1.
         12    1    3    3    0    0  0.22034303989E+02 -0.13971641101E+03  0.16217109950E+03  0.21518748005E+03  0.00000000000E+00 0. -1.
          5    1    4    4  502    0 -0.64746997082E+02  0.21760711605E+03 -0.13084311518E+03  0.26208212716E+03  0.47000000000E+01 0. -1.
         -5    1    4    4    0  502  0.24079166418E+02  0.50040416087E+02  0.15161846135E+02  0.57756567382E+02  0.47000000000E+01 0. -1.
          1    1    1    2  503    0  0.18787055100E+02 -0.23828636899E+02  0.57645471736E+01  0.30886686127E+02  0.00000000000E+00 0. -1.
         -2    1    1    2    0  501 -0.65739893573E+02 -0.12539177100E+03 -0.53079754294E+03  0.54935495031E+03  0.00000000000E+00 0.  1.
<mgrwt>
<rscale>  0 0.55603326E+02</rscale>
<asrwt>0</asrwt>
<pdfrwt beam="1">  1        2 0.53228939E-01 0.30343984E+02</pdfrwt>
<pdfrwt beam="2">  1       -1 0.16921468E+00 0.10188938E+03</pdfrwt>
<totfact> 0.31368060E+01</totfact>
</mgrwt>
</event>
<event>
13    1  0.1675423E-008  0.1100885E+03  0.7546771E-02  0.1410731E+00
          2   -1    0    0  503    0  0.00000000000E+00  0.00000000000E+00  0.18120335229E+03  0.18120335229E+03  0.00000000000E+00 0. -1.
          2   -1    0    0  502    0 -0.00000000000E+00 -0.00000000000E+00 -0.26894041469E+04  0.26894041469E+04  0.00000000000E+00 0. -1.
         24    2    1    2    0    0  0.10760905244E+03  0.24283410276E+03 -0.18691930570E+03  0.33469799662E+03  0.80844371876E+02 0.  0.
         25    2    1    2    0    0 -0.14990822885E+03 -0.29301003758E+03 -0.17085661178E+04  0.17444626372E+04  0.12499741722E+03 0.  0.
         24    2    1    2    0    0 -0.75631046866E+02  0.42334249526E+02 -0.14853360957E+03  0.18957968997E+03  0.79787102606E+02 0.  0.
        -11    1    5    5    0    0 -0.86710517310E+02  0.40852725762E+02 -0.95228742216E+02  0.13511540385E+03  0.00000000000E+00 0.  1.
         12    1    5    5    0    0  0.11079470443E+02  0.14815237639E+01 -0.53304867358E+02  0.54464286115E+02  0.00000000000E+00 0. -1.
        -13    1    3    3    0    0  0.12124480782E+02  0.29048142573E+02 -0.61487966414E+02  0.69076534618E+02  0.00000000000E+00 0.  1.
         14    1    3    3    0    0  0.95484571662E+02  0.21378596019E+03 -0.12543133929E+03  0.26562146200E+03  0.00000000000E+00 0. -1.
          5    1    4    4  501    0  0.77796253188E+01 -0.17729908588E+02 -0.29747607343E+03  0.29814254392E+03  0.47000000000E+01 0.  1.
         -5    1    4    4    0  501 -0.15768785417E+03 -0.27528012900E+03 -0.14110900444E+04  0.14463200933E+04  0.47000000000E+01 0.  1.
          1    1    1    2  502    0 -0.28128983234E+01 -0.29410452286E+02 -0.47419263190E+03  0.47511213334E+03  0.00000000000E+00 0. -1.
          1    1    1    2  503    0  0.12074312160E+03  0.37252137584E+02  0.10010870391E+02  0.12675504208E+03  0.00000000000E+00 0. -1.
<mgrwt>
<rscale>  0 0.57030947E+02</rscale>
<asrwt>0</asrwt>
<pdfrwt beam="1">  1        2 0.26647551E-01 0.11008854E+03</pdfrwt>
<pdfrwt beam="2">  1        2 0.39550063E+00 0.29544663E+02</pdfrwt>
<totfact> 0.15292267E+02</totfact>
</mgrwt>
</event>
<event>
13    1  0.1675423E-008  0.6740908E+02  0.7546771E-02  0.1498000E+00
          2   -1    0    0  503    0  0.00000000000E+00  0.00000000000E+00  0.14392697116E+04  0.14392697116E+04  0.00000000000E+00 0. -1.
         -1   -1    0    0    0  501 -0.00000000000E+00 -0.00000000000E+00 -0.18086542682E+04  0.18086542682E+04  0.00000000000E+00 0.  1.
         24    2    1    2    0    0  0.23204247008E+02 -0.45787204880E+01  0.51853237504E+03  0.52525345909E+03  0.80349054519E+02 0.  0.
         25    2    1    2    0    0  0.14287923626E+03  0.37830939788E+02 -0.49288306168E+03  0.52953250996E+03  0.12500124181E+03 0.  0.
         24    2    1    2    0    0 -0.18137916245E+03  0.26741057757E+02  0.34197861082E+03  0.40191242702E+03  0.10474131944E+03 0.  0.
        -11    1    3    3    0    0  0.42466012860E+02 -0.16852768393E+02  0.46240840347E+03  0.46465999360E+03  0.00000000000E+00 0.  1.
         12    1    3    3    0    0 -0.19261765852E+02  0.12274047905E+02  0.56123971570E+02  0.60593465493E+02  0.00000000000E+00 0. -1.
        -13    1    5    5    0    0 -0.46102803963E+02 -0.37448804773E+02  0.73466169741E+02  0.94473062872E+02  0.00000000000E+00 0.  1.
         14    1    5    5    0    0 -0.13527635849E+03  0.64189862530E+02  0.26851244108E+03  0.30743936415E+03  0.00000000000E+00 0. -1.
          5    1    4    4  502    0  0.10724942692E+03 -0.32663800849E+02 -0.32760768186E+03  0.34629214065E+03  0.47000000000E+01 0. -1.
         -5    1    4    4    0  502  0.35629809349E+02  0.70494740638E+02 -0.16527537982E+03  0.18324036932E+03  0.47000000000E+01 0. -1.
          1    1    1    2  503    0 -0.24787509069E+02 -0.57838668325E+01  0.52589961808E+03  0.52651522487E+03  0.00000000000E+00 0. -1.
         -2    1    1    2    0  501  0.40083188246E+02 -0.54209410225E+02 -0.12629120989E+04  0.12647103588E+04  0.00000000000E+00 0.  1.
<mgrwt>
<rscale>  0 0.41422068E+02</rscale>
<asrwt>0</asrwt>
<pdfrwt beam="1">  1        2 0.21165731E+00 0.25453364E+02</pdfrwt>
<pdfrwt beam="2">  1       -1 0.26597857E+00 0.67409076E+02</pdfrwt>
<totfact> 0.16244866E+00</totfact>
</mgrwt>
</event>
<event>
13    1  0.1675423E-008  0.1956933E+03  0.7546771E-02  0.1270458E+00
          2   -1    0    0  502    0  0.00000000000E+00  0.00000000000E+00  0.36433432488E+04  0.36433432488E+04  0.00000000000E+00 0. -1.
          2   -1    0    0  503    0 -0.00000000000E+00 -0.00000000000E+00 -0.22095469324E+04  0.22095469324E+04  0.00000000000E+00 0. -1.
         24    2    1    2    0    0  0.51779051683E+03 -0.68304279500E+03  0.10318909267E+04  0.13437985972E+04  0.79632317929E+02 0.  0.
         25    2    1    2    0    0 -0.72001553156E+03  0.71343196832E+03 -0.80085755640E+03  0.12978452411E+04  0.12498761993E+03 0.  0.
         24    2    1    2    0    0  0.33565388042E+03  0.96388174574E+02 -0.68958289579E+03  0.77808745741E+03  0.89114048150E+02 0.  0.
        -11    1    5    5    0    0  0.13822797307E+03  0.31134493380E+01 -0.32389034257E+03  0.35216703440E+03  0.00000000000E+00 0.  1.
         12    1    5    5    0    0  0.19742590735E+03  0.93274725236E+02 -0.36569255322E+03  0.42592042301E+03  0.00000000000E+00 0. -1.
        -13    1    3    3    0    0  0.18374060309E+03 -0.21878680906E+03  0.39923804069E+03  0.49093715502E+03  0.00000000000E+00 0.  1.
         14    1    3    3    0    0  0.33404991374E+03 -0.46425598594E+03  0.63265288597E+03  0.85286144213E+03  0.00000000000E+00 0. -1.
          5    1    4    4  501    0 -0.29780215236E+03  0.30959508581E+03 -0.41739476214E+03  0.59897889493E+03  0.47000000000E+01 0. -1.
         -5    1    4    4    0  501 -0.42221337920E+03  0.40383688250E+03 -0.38346279425E+03  0.69886634618E+03  0.47000000000E+01 0. -1.
          1    1    1    2  502    0 -0.97353015026E+02 -0.16981032924E+03  0.21553535887E+04  0.21642232440E+04  0.00000000000E+00 0. -1.
          1    1    1    2  503    0 -0.36075850668E+02  0.43032981350E+02 -0.26300774668E+03  0.26893564155E+03  0.00000000000E+00 0. -1.
<mgrwt>
<rscale>  0 0.10482851E+03</rscale>
<asrwt>0</asrwt>
<pdfrwt beam="1">  1        2 0.53578577E+00 0.19569326E+03</pdfrwt>
<pdfrwt beam="2">  1        2 0.32493337E+00 0.56154292E+02</pdfrwt>
<totfact> 0.13388435E+00</totfact>
</mgrwt>
</event>
<event>
13    1  0.1675423E-008  0.1130024E+03  0.7546771E-02  0.1343548E+00
         -1   -1    0    0    0  501 -0.00000000000E+00  0.00000000000E+00  0.17861214083E+04  0.17861214083E+04  0.00000000000E+00 0.  1.
          2   -1    0    0  503    0  0.00000000000E+00 -0.00000000000E+00 -0.29832914113E+04  0.29832914113E+04  0.00000000000E+00 0. -1.
         24    2    1    2    0    0 -0.35710708352E+03 -0.30606180331E+03  0.23355433024E+03  0.52862310690E+03  0.60790356400E+02 0.  0.
         25    2    1    2    0    0  0.96972781583E+02  0.58918089085E+03  0.99565746047E+03  0.11676885717E+04  0.12499991764E+03 0.  0.
         24    2    1    2    0    0  0.22981900685E+03 -0.20651710498E+03  0.39936319155E+02  0.32174171655E+03  0.80353792819E+02 0.  0.
        -11    1    3    3    0    0 -0.12353340001E+03 -0.13427341725E+03  0.11301029256E+03  0.21461867981E+03  0.00000000000E+00 0.  1.
         12    1    3    3    0    0 -0.23357368352E+03 -0.17178838606E+03  0.12054403768E+03  0.31400442710E+03  0.00000000000E+00 0. -1.
        -13    1    5    5    0    0  0.70335060828E+02 -0.94458183739E+02 -0.16261765481E+02  0.11888571938E+03  0.00000000000E+00 0.  1.
         14    1    5    5    0    0  0.15948394602E+03 -0.11205892124E+03  0.56198084635E+02  0.20285599716E+03  0.00000000000E+00 0. -1.
          5    1    4    4  502    0  0.84527711540E+02  0.58833742940E+03  0.95468931440E+03  0.11246064387E+04  0.47000000000E+01 0. -1.
         -5    1    4    4    0  502  0.12445070043E+02  0.84346144482E+00  0.40968146075E+02  0.43082133053E+02  0.47000000000E+01 0. -1.
          1    1    1    2  503    0 -0.38821974896E+01 -0.11296367959E+03 -0.26032038073E+04  0.26056565251E+04  0.00000000000E+00 0. -1.
         -2    1    1    2    0  501  0.34197492580E+02  0.36361697032E+02  0.13688569454E+03  0.14570289935E+03  0.00000000000E+00 0.  1.
<mgrwt>
<rscale>  0 0.75104373E+02</rscale>
<asrwt>0</asrwt>
<pdfrwt beam="2">  1        2 0.43871932E+00 0.11300240E+03</pdfrwt>
<pdfrwt beam="1">  1       -1 0.26266492E+00 0.49916345E+02</pdfrwt>
<totfact> 0.26694679E-01</totfact>
</mgrwt>
</event>
<event>
13    1  0.1675423E-008  0.6903226E+02  0.7546771E-02  0.1448346E+00
          2   -1    0    0  502    0  0.00000000000E+00  0.00000000000E+00  0.14481531313E+04  0.14481531313E+04  0.00000000000E+00 0. -1.
          4   -1    0    0  503    0 -0.00000000000E+00 -0.00000000000E+00 -0.14376529948E+03  0.14376529948E+03  0.00000000000E+00 0. -1.
         24    2    1    2    0    0 -0.16157684865E+02 -0.64267822735E+01  0.53746448881E+03  0.54389856746E+03  0.81579413104E+02 0.  0.
         25    2    1    2    0    0  0.70631242875E+02 -0.19639166681E+02  0.63616132685E+02  0.15826018117E+03  0.12499921307E+03 0.  0.
         24    2    1    2    0    0  0.14779279554E+02 -0.31497262753E+01  0.14556416948E+03  0.16727051726E+03  0.81007102336E+02 0.  0.
        -11    1    5    5    0    0  0.36848164271E+02 -0.85008972186E+01  0.26787196462E+02  0.46342273983E+02  0.00000000000E+00 0.  1.
         12    1    5    5    0    0 -0.22068884716E+02  0.53511709432E+01  0.11877697302E+03  0.12092824328E+03  0.00000000000E+00 0. -1.
        -13    1    3    3    0    0 -0.30602035512E+01  0.31887845842E+02  0.11140332171E+03  0.11591764165E+03  0.00000000000E+00 0.  1.
         14    1    3    3    0    0 -0.13097481314E+02 -0.38314628115E+02  0.42606116710E+03  0.42798092581E+03  0.00000000000E+00 0. -1.
          5    1    4    4  501    0 -0.38391793627E+01  0.34821426943E+02  0.55135554496E+02  0.65492674721E+02  0.47000000000E+01 0.  1.
         -5    1    4    4    0  501  0.74470422237E+02 -0.54460593624E+02  0.84805781890E+01  0.92767506448E+02  0.47000000000E+01 0.  1.
          1    1    1    2  502    0 -0.68827259866E+02 -0.62005269016E+01  0.63434343907E+03  0.63809657335E+03  0.00000000000E+00 0. -1.
          3    1    1    2  503    0 -0.42557769844E+00  0.35416202132E+02 -0.76600398251E+02  0.84392591511E+02  0.00000000000E+00 0. -1.
<mgrwt>
<rscale>  0 0.49447315E+02</rscale>
<asrwt>0</asrwt>
<pdfrwt beam="1">  1        2 0.21296369E+00 0.69032258E+02</pdfrwt>
<pdfrwt beam="2">  1        4 0.21141957E-01 0.35418759E+02</pdfrwt>
<totfact> 0.15108055E+02</totfact>
</mgrwt>
</event>
<event>
13    1  0.1675423E-008  0.9941205E+02  0.7546771E-02  0.1352226E+00
         -3   -1    0    0    0  501 -0.00000000000E+00  0.00000000000E+00  0.16017505125E+04  0.16017505125E+04  0.00000000000E+00 0.  1.
          2   -1    0    0  503    0  0.00000000000E+00 -0.00000000000E+00 -0.79416679591E+03  0.79416679591E+03  0.00000000000E+00 0. -1.
         24    2    1    2    0    0 -0.85353391140E+02  0.27865656582E+03 -0.34286996564E+03  0.46058282572E+03  0.98193904894E+02 0.  0.
         25    2    1    2    0    0  0.68307504165E+02 -0.20394314717E+02  0.56425367471E+03  0.58231242621E+03  0.12499483629E+03 0.  0.
         24    2    1    2    0    0  0.74473940803E+02 -0.21563774277E+03 -0.19070837382E+03  0.30815372167E+03  0.80888987958E+02 0.  0.
        -11    1    5    5    0    0 -0.16225874876E+02 -0.49074156275E+02 -0.50832225778E+02  0.72494599848E+02  0.00000000000E+00 0.  1.
         12    1    5    5    0    0  0.90699815679E+02 -0.16656358649E+03 -0.13987614804E+03  0.23565912183E+03  0.00000000000E+00 0. -1.
        -13    1    3    3    0    0  0.10071427642E+02  0.12725673664E+03 -0.12541067818E+03  0.17895124721E+03  0.00000000000E+00 0.  1.
         14    1    3    3    0    0 -0.95424818782E+02  0.15139982919E+03 -0.21745928745E+03  0.28163157851E+03  0.00000000000E+00 0. -1.
          5    1    4    4  502    0  0.92975341838E+02 -0.34894311345E+01  0.52249890045E+03  0.53073890124E+03  0.47000000000E+01 0.  1.
         -5    1    4    4    0  502 -0.24667837673E+02 -0.16904883583E+02  0.41754774265E+02  0.51573524975E+02  0.47000000000E+01 0.  1.
          1    1    1    2  503    0 -0.18879233387E+02  0.49179450247E+02 -0.12595705570E+03  0.13652920443E+03  0.00000000000E+00 0. -1.
         -4    1    1    2    0  501 -0.38548820441E+02 -0.91803958584E+02  0.90286543704E+03  0.90833913037E+03  0.00000000000E+00 0.  1.
<mgrwt>
<rscale>  0 0.72366402E+02</rscale>
<asrwt>0</asrwt>
<pdfrwt beam="2">  1        2 0.11678923E+00 0.52678684E+02</pdfrwt>
<pdfrwt beam="1">  1       -3 0.23555155E+00 0.99412052E+02</pdfrwt>
<totfact> 0.25592627E+00</totfact>
</mgrwt>
</event>
<event>
13    1  0.1675423E-008  0.5267793E+02  0.7546771E-02  0.1519365E+00
          2   -1    0    0  502    0  0.00000000000E+00  0.00000000000E+00  0.25982527870E+04  0.25982527870E+04  0.00000000000E+00 0. -1.
          2   -1    0    0  503    0 -0.00000000000E+00 -0.00000000000E+00 -0.14146042614E+04  0.14146042614E+04  0.00000000000E+00 0. -1.
         24    2    1    2    0    0  0.15656807276E+03 -0.57699509251E+01  0.26078661329E+03  0.31512900979E+03  0.82157053257E+02 0.  0.
         25    2    1    2    0    0 -0.10053673140E+03  0.66639245852E+02  0.11202643281E+04  0.11336516247E+04  0.12500167175E+03 0.  0.
         24    2    1    2    0    0  0.18207407125E+02 -0.48404923938E+02  0.50918140472E+01  0.95489917822E+02  0.80111494180E+02 0.  0.
        -11    1    3    3    0    0  0.14192030371E+03 -0.83335862509E+00  0.16299646486E+03  0.21612476639E+03  0.00000000000E+00 0.  1.
         12    1    3    3    0    0  0.14647769056E+02 -0.49365923000E+01  0.97790148426E+02  0.99004243399E+02  0.00000000000E+00 0. -1.
        -13    1    5    5    0    0  0.67328206504E+00  0.54252995454E+01 -0.28928501334E+02  0.29440539623E+02  0.00000000000E+00 0.  1.
         14    1    5    5    0    0  0.17534125060E+02 -0.53830223483E+02  0.34020315381E+02  0.66049378199E+02  0.00000000000E+00 0. -1.
          5    1    4    4  501    0 -0.71823560510E+02  0.27303391498E+02  0.24033363576E+03  0.25236173543E+03  0.47000000000E+01 0.  1.
         -5    1    4    4    0  501 -0.28713170891E+02  0.39335854354E+02  0.87993069235E+03  0.88128988929E+03  0.47000000000E+01 0.  1.
          1    1    1    2  502    0 -0.47713803213E+02 -0.21958043320E+02  0.11322887074E+04  0.11335062768E+04  0.00000000000E+00 0. -1.
          1    1    1    2  503    0 -0.26524945273E+02  0.94936723303E+01 -0.13347829372E+04  0.13350802193E+04  0.00000000000E+00 0. -1.
<mgrwt>
<rscale>  0 0.38523771E+02</rscale>
<asrwt>0</asrwt>
<pdfrwt beam="1">  1        2 0.38209600E+00 0.52677931E+02</pdfrwt>
<pdfrwt beam="2">  1        2 0.20803004E+00 0.28172727E+02</pdfrwt>
<totfact> 0.15486758E+01</totfact>
</mgrwt>
</event>
<event>
13    1  0.1675423E-008  0.8487958E+02  0.7546771E-02  0.1395261E+00
          2   -1    0    0  502    0  0.00000000000E+00  0.00000000000E+00  0.18186709278E+04  0.18186709278E+04  0.00000000000E+00 0. -1.
          2   -1    0    0  503    0 -0.00000000000E+00 -0.00000000000E+00 -0.13692668472E+04  0.13692668472E+04  0.00000000000E+00 0. -1.
         24    2    1    2    0    0  0.24908077325E+03  0.64411254751E+02  0.51489284597E+03  0.58116871272E+03  0.80326760622E+02 0.  0.
         25    2    1    2    0    0 -0.32333255101E+03 -0.12019197072E+03  0.14032852549E+03  0.39281929528E+03  0.12499942125E+03 0.  0.
         24    2    1    2    0    0 -0.87340430005E+00 -0.29209707231E+02 -0.44297709730E+02  0.95372653485E+02  0.79244470557E+02 0.  0.
        -11    1    3    3    0    0  0.41999835261E+02 -0.84337552565E+01  0.42907472142E+02  0.60631390841E+02  0.00000000000E+00 0.  1.
         12    1    3    3    0    0  0.20708093798E+03  0.72845010007E+02  0.47198537383E+03  0.52053732187E+03  0.00000000000E+00 0. -1.
        -11    1    5    5    0    0  0.24028205382E+02  0.18668184623E+02 -0.17799332659E+02  0.35251553358E+02  0.00000000000E+00 0.  1.
         12    1    5    5    0    0 -0.24901609682E+02 -0.47877891854E+02 -0.26498377071E+02  0.60121100127E+02  0.00000000000E+00 0. -1.
          5    1    4    4  501    0 -0.62435154397E+02 -0.81484737881E+02  0.31777359915E+02  0.10756301230E+03  0.47000000000E+01 0.  1.
         -5    1    4    4    0  501 -0.26089739661E+03 -0.38707232844E+02  0.10855116557E+03  0.28525628298E+03  0.47000000000E+01 0.  1.
          1    1    1    2  502    0  0.32317577905E+02  0.78547602179E+02  0.97627326536E+03  0.97996104020E+03  0.00000000000E+00 0. -1.
          1    1    1    2  503    0  0.42807604157E+02  0.64428210256E+01 -0.11377928465E+04  0.11386160733E+04  0.00000000000E+00 0. -1.
<mgrwt>
<rscale>  0 0.60616948E+02</rscale>
<asrwt>0</asrwt>
<pdfrwt beam="1">  1        2 0.26745161E+00 0.84879584E+02</pdfrwt>
<pdfrwt beam="2">  1        2 0.20136277E+00 0.43289732E+02</pdfrwt>
<totfact> 0.35067112E+01</totfact>
</mgrwt>
</event>
<event>
13    1  0.1675423E-008  0.1061802E+03  0.7546771E-02  0.1426992E+00
          2   -1    0    0  502    0  0.00000000000E+00  0.00000000000E+00  0.87794009746E+03  0.87794009746E+03  0.00000000000E+00 0. -1.
          2   -1    0    0  503    0 -0.00000000000E+00 -0.00000000000E+00 -0.14971177810E+04  0.14971177810E+04  0.00000000000E+00 0. -1.
         24    2    1    2    0    0  0.27748224193E+02 -0.14247848463E+02  0.33612743800E+02  0.93287184680E+02  0.81238643194E+02 0.  0.
         25    2    1    2    0    0  0.60077618313E+02  0.86034606323E+02 -0.59822299041E+03  0.62008611198E+03  0.12499906521E+03 0.  0.
         24    2    1    2    0    0  0.49023435550E+02 -0.49327186844E+02  0.18085378897E+02  0.11070769905E+03  0.84217843141E+02 0.  0.
        -11    1    5    5    0    0  0.21041590762E+02 -0.52001731619E+02  0.44904706128E+02  0.71856532519E+02  0.00000000000E+00 0.  1.
         12    1    5    5    0    0  0.27981844789E+02  0.26745447751E+01 -0.26819327230E+02  0.38851166528E+02  0.00000000000E+00 0. -1.
        -13    1    3    3    0    0  0.39300863700E+02 -0.24274239378E+02 -0.98322775187E+01  0.47227854770E+02  0.00000000000E+00 0.  1.
         14    1    3    3    0    0 -0.11552639507E+02  0.10026390915E+02  0.43445021319E+02  0.46059329910E+02  0.00000000000E+00 0. -1.
          5    1    4    4  501    0  0.34756424529E+02  0.39691254456E+02 -0.53482185612E+03  0.53743828717E+03  0.47000000000E+01 0. -1.
         -5    1    4    4    0  501  0.25321193784E+02  0.46343351867E+02 -0.63401134290E+02  0.82647824812E+02  0.47000000000E+01 0. -1.
          1    1    1    2  502    0 -0.15618421063E+03 -0.35770830447E+01  0.73067753903E+03  0.74719205645E+03  0.00000000000E+00 0. -1.
          1    1    1    2  503    0  0.19334932578E+02 -0.18882487971E+02 -0.80333035482E+03  0.80378482627E+03  0.00000000000E+00 0. -1.
<mgrwt>
<rscale>  0 0.53568596E+02</rscale>
<asrwt>0</asrwt>
<pdfrwt beam="1">  1        2 0.12910884E+00 0.10618025E+03</pdfrwt>
<pdfrwt beam="2">  1        2 0.22016438E+00 0.27025691E+02</pdfrwt>
<totfact> 0.96545615E+01</totfact>
</mgrwt>
</event>
<event>
13    1  0.1675423E-008  0.7085197E+02  0.7546771E-02  0.1394705E+00
          2   -1    0    0  502    0  0.00000000000E+00  0.00000000000E+00  0.11841824079E+04  0.11841824079E+04  0.00000000000E+00 0. -1.
          2   -1    0    0  503    0 -0.00000000000E+00 -0.00000000000E+00 -0.13516230561E+04  0.13516230561E+04  0.00000000000E+00 0. -1.
         24    2    1    2    0    0 -0.31082277002E+02 -0.32744518620E+02  0.16855620239E+03  0.19412329264E+03  0.85054970098E+02 0.  0.
         25    2    1    2    0    0  0.30693885973E+02 -0.58911618795E+02 -0.45090370765E+03  0.47260073399E+03  0.12499842691E+03 0.  0.
         24    2    1    2    0    0 -0.19389107460E+02  0.54964364843E+01 -0.16787588444E+03  0.18751344988E+03  0.81073010346E+02 0.  0.
        -11    1    5    5    0    0  0.10353910395E+02  0.21062350913E+02 -0.14500719063E+03  0.14689421848E+03  0.00000000000E+00 0.  1.
         12    1    5    5    0    0 -0.29743017855E+02 -0.15565914429E+02 -0.22868693802E+02  0.40619231398E+02  0.00000000000E+00 0. -1.
        -13    1    3    3    0    0 -0.37858227577E+01 -0.37036000470E+01 -0.99231702827E+01  0.11248040528E+02  0.00000000000E+00 0.  1.
         14    1    3    3    0    0 -0.27296454244E+02 -0.29040918573E+02  0.17847937267E+03  0.18287525211E+03  0.00000000000E+00 0. -1.
          5    1    4    4  501    0  0.39912201843E+02 -0.32347878927E+02 -0.54028600459E+02  0.74703070852E+02  0.47000000000E+01 0.  1.
         -5    1    4    4    0  501 -0.92183158702E+01 -0.26563739868E+02 -0.39687510719E+03  0.39789766314E+03  0.47000000000E+01 0.  1.
          1    1    1    2  502    0 -0.33714302728E+02  0.39708710548E+02  0.97968757203E+03  0.98107144220E+03  0.00000000000E+00 0. -1.
          1    1    1    2  503    0  0.53491801217E+02  0.46450990383E+02 -0.69690483049E+03  0.70049654536E+03  0.00000000000E+00 0. -1.
<mgrwt>
<rscale>  0 0.60751340E+02</rscale>
<asrwt>0</asrwt>
<pdfrwt beam="1">  1        2 0.17414447E+00 0.52090651E+02</pdfrwt>
<pdfrwt beam="2">  1        2 0.19876810E+00 0.70851971E+02</pdfrwt>
<totfact> 0.73292114E+01</totfact>
</mgrwt>
</event>
<event>
13    1  0.1675423E-008  0.5463842E+02  0.7546771E-02  0.1485863E+00
          2   -1    0    0  502    0  0.00000000000E+00  0.00000000000E+00  0.13099767296E+04  0.13099767296E+04  0.00000000000E+00 0. -1.
          4   -1    0    0  503    0 -0.00000000000E+00 -0.00000000000E+00 -0.29348820399E+03  0.29348820399E+03  0.00000000000E+00 0. -1.
         24    2    1    2    0    0  0.14769770321E+03 -0.12988817468E+03  0.68331051583E+03  0.71556706183E+03  0.80233468493E+02 0.  0.
         25    2    1    2    0    0 -0.12175965245E+03  0.85349056027E+02  0.35771856030E+03  0.40704347458E+03  0.12494777901E+03 0.  0.
         24    2    1    2    0    0 -0.28738965101E+02 -0.43946680759E+02 -0.87481624618E+02  0.12916464265E+03  0.79203733503E+02 0.  0.
        -11    1    3    3    0    0  0.15253130974E+02 -0.17074501265E+02  0.21992541027E+02  0.31746944086E+02  0.00000000000E+00 0.  1.
         12    1    3    3    0    0  0.13244457223E+03 -0.11281367342E+03  0.66131797481E+03  0.68382011774E+03  0.00000000000E+00 0. -1.
        -13    1    5    5    0    0  0.34413460672E+01 -0.57806364962E+02 -0.40987690725E+02  0.70946525524E+02  0.00000000000E+00 0.  1.
         14    1    5    5    0    0 -0.32180311168E+02  0.13859684204E+02 -0.46493933893E+02  0.58218117128E+02  0.00000000000E+00 0. -1.
          5    1    4    4  501    0 -0.19502203507E+02  0.34438786349E+02  0.23872211554E+03  0.24202624733E+03  0.47000000000E+01 0. -1.
         -5    1    4    4    0  501 -0.10225744894E+03  0.50910269678E+02  0.11899644476E+03  0.16501722725E+03  0.47000000000E+01 0. -1.
          1    1    1    2  502    0 -0.11132783694E+01  0.34147395372E+02  0.20068034084E+03  0.20356788352E+03  0.00000000000E+00 0. -1.
          3    1    1    2  503    0  0.39141927136E+01  0.54338404044E+02 -0.13773926677E+03  0.14812187100E+03  0.00000000000E+00 0. -1.
<mgrwt>
<rscale>  0 0.43205916E+02</rscale>
<asrwt>0</asrwt>
<pdfrwt beam="1">  1        2 0.19264364E+00 0.34165538E+02</pdfrwt>
<pdfrwt beam="2">  1        4 0.43160030E-01 0.54638424E+02</pdfrwt>
<totfact> 0.53097532E+01</totfact>
</mgrwt>
</event>
<event>
13    1  0.1675423E-008  0.2354167E+03  0.7546771E-02  0.1322054E+00
          2   -1    0    0  503    0  0.00000000000E+00  0.00000000000E+00  0.22974389675E+04  0.22974389675E+04  0.00000000000E+00 0. -1.
         -3   -1    0    0    0  501 -0.00000000000E+00 -0.00000000000E+00 -0.91299934611E+03  0.91299934611E+03  0.00000000000E+00 0.  1.
         24    2    1    2    0    0  0.49544997991E+02 -0.28432237320E+02  0.49974781700E+03  0.50678852247E+03  0.61835483078E+02 0.  0.
         25    2    1    2    0    0 -0.10143812071E+03 -0.41019047737E+03  0.10383756655E+04  0.11280100314E+04  0.12504674426E+03 0.  0.
         24    2    1    2    0    0 -0.82202360103E+02  0.22355349995E+03 -0.25508530407E+03  0.35731188744E+03  0.76615123856E+02 0.  0.
        -13    1    5    5    0    0 -0.77931336352E+02  0.22961684120E+03 -0.24418024592E+03  0.34412378506E+03  0.00000000000E+00 0.  1.
         14    1    5    5    0    0 -0.42710237505E+01 -0.60633412469E+01 -0.10905058157E+02  0.13188102379E+02  0.00000000000E+00 0. -1.
        -13    1    3    3    0    0  0.56584889586E+02 -0.36451657440E+02  0.47622735366E+03  0.48096056536E+03  0.00000000000E+00 0.  1.
         14    1    3    3    0    0 -0.70398915946E+01  0.80194201201E+01  0.23520463345E+02  0.25827957115E+02  0.00000000000E+00 0. -1.
          5    1    4    4  502    0 -0.41456892435E+01 -0.17113384830E+01  0.97013638849E+02  0.97230918649E+02  0.47000000000E+01 0. -1.
         -5    1    4    4    0  502 -0.97292431463E+02 -0.40847913888E+03  0.94136202662E+03  0.10307791128E+04  0.47000000000E+01 0. -1.
          1    1    1    2  503    0 -0.77680053365E+01  0.27861330261E+02  0.63482264284E+03  0.63548122199E+03  0.00000000000E+00 0. -1.
         -4    1    1    2    0  501  0.14186348815E+03  0.18720788447E+03 -0.53342119987E+03  0.58284665029E+03  0.00000000000E+00 0.  1.
<mgrwt>
<rscale>  0 0.82517776E+02</rscale>
<asrwt>0</asrwt>
<pdfrwt beam="1">  1        2 0.33785867E+00 0.28923963E+02</pdfrwt>
<pdfrwt beam="2">  1       -3 0.13426461E+00 0.23541668E+03</pdfrwt>
<totfact> 0.21428530E+00</totfact>
</mgrwt>
</event>
<event>
13    1  0.1675423E-008  0.4688774E+02  0.7546771E-02  0.1484260E+00
          2   -1    0    0  503    0  0.00000000000E+00  0.00000000000E+00  0.84531027202E+03  0.84531027202E+03  0.00000000000E+00 0. -1.
          2   -1    0    0  502    0 -0.00000000000E+00 -0.00000000000E+00 -0.21904978341E+04  0.21904978341E+04  0.00000000000E+00 0. -1.
         24    2    1    2    0    0  0.31696710151E+02 -0.41826852343E+01  0.20652151553E+03  0.22488852014E+03  0.83075470646E+02 0.  0.
         25    2    1    2    0    0 -0.16201523166E+02  0.54906096302E+01 -0.48519520265E+03  0.50132953576E+03  0.12499713036E+03 0.  0.
         24    2    1    2    0    0 -0.14603386831E+02 -0.81266822664E+01  0.23341121154E+02  0.82454662666E+02  0.77295935127E+02 0.  0.
        -11    1    3    3    0    0  0.29551543663E+02 -0.40958062971E+02  0.14024853014E+03  0.14906544489E+03  0.00000000000E+00 0.  1.
         12    1    3    3    0    0  0.21451664881E+01  0.36775377736E+02  0.66272985390E+02  0.75823075244E+02  0.00000000000E+00 0. -1.
        -11    1    5    5    0    0 -0.19359708721E+02 -0.70535946457E+01 -0.25830500157E+02  0.33041886410E+02  0.00000000000E+00 0.  1.
         12    1    5    5    0    0  0.47563218901E+01 -0.10730876208E+01  0.49171621311E+02  0.49412776256E+02  0.00000000000E+00 0. -1.
          5    1    4    4  501    0  0.48662781349E+02 -0.24300791183E+02 -0.20431782571E+03  0.21148630841E+03  0.47000000000E+01 0.  1.
         -5    1    4    4    0  501 -0.64864304515E+02  0.29791400813E+02 -0.28087737694E+03  0.28984322735E+03  0.47000000000E+01 0.  1.
          1    1    1    2  502    0  0.44884806042E+01  0.46720881304E+02 -0.16574498353E+04  0.16581142734E+04  0.00000000000E+00 0. -1.
          1    1    1    2  503    0 -0.53802807589E+01 -0.39902123433E+02  0.56759483918E+03  0.56902111414E+03  0.00000000000E+00 0. -1.
<mgrwt>
<rscale>  0 0.43449410E+02</rscale>
<asrwt>0</asrwt>
<pdfrwt beam="1">  1        2 0.12431034E+00 0.40263220E+02</pdfrwt>
<pdfrwt beam="2">  1        2 0.32213203E+00 0.46887737E+02</pdfrwt>
<totfact> 0.47617990E+01</totfact>
</mgrwt>
</event>
<event>
13    1  0.1675423E-008  0.1925373E+03  0.7546771E-02  0.1293627E+00
          2   -1    0    0  503    0  0.00000000000E+00  0.00000000000E+00  0.25334849533E+04  0.25334849533E+04  0.00000000000E+00 0. -1.
          2   -1    0    0  502    0 -0.00000000000E+00 -0.00000000000E+00 -0.19077625332E+04  0.19077625332E+04  0.00000000000E+00 0. -1.
         24    2    1    2    0    0 -0.93586136472E+02  0.50849039631E+03  0.14408794736E+04  0.15329777356E+04  0.81032292695E+02 0.  0.
         25    2    1    2    0    0 -0.30676286623E+02 -0.38570653729E+03 -0.12086801530E+04  0.12752443509E+04  0.12501949730E+03 0.  0.
         24    2    1    2    0    0  0.41669792164E+02  0.59031102541E+02 -0.17777173947E+03  0.20821474084E+03  0.80805595741E+02 0.  0.
        -13    1    3    3    0    0 -0.43715576964E+02  0.97840731167E+02  0.36133497351E+03  0.37689099674E+03  0.00000000000E+00 0.  1.
         14    1    3    3    0    0 -0.49870559509E+02  0.41064966515E+03  0.10795445001E+04  0.11560867389E+04  0.00000000000E+00 0. -1.
        -13    1    5    5    0    0  0.52866593606E+02  0.49727206068E+01 -0.91503764519E+02  0.10579481836E+03  0.00000000000E+00 0.  1.
         14    1    5    5    0    0 -0.11196801441E+02  0.54058381934E+02 -0.86267974953E+02  0.10241992249E+03  0.00000000000E+00 0. -1.
          5    1    4    4  501    0  0.25212694662E+02 -0.10666795036E+03 -0.49270696637E+03  0.50477319295E+03  0.47000000000E+01 0.  1.
         -5    1    4    4    0  501 -0.55888981285E+02 -0.27903858693E+03 -0.71597318663E+03  0.77047115792E+03  0.47000000000E+01 0.  1.
          1    1    1    2  502    0 -0.35193744629E+02 -0.29332169913E+02 -0.41618988540E+03  0.41870394859E+03  0.00000000000E+00 0. -1.
          1    1    1    2  503    0  0.11778637556E+03 -0.15248279165E+03  0.98748472443E+03  0.10061067105E+04  0.00000000000E+00 0. -1.
<mgrwt>
<rscale>  0 0.93920271E+02</rscale>
<asrwt>0</asrwt>
<pdfrwt beam="1">  1        2 0.37257132E+00 0.19253733E+03</pdfrwt>
<pdfrwt beam="2">  1        2 0.28055331E+00 0.45814581E+02</pdfrwt>
<totfact> 0.79372027E+00</totfact>
</mgrwt>
</event>
<event>
13    1  0.1675423E-008  0.5420085E+02  0.7546771E-02  0.1457014E+00
          2   -1    0    0  502    0  0.00000000000E+00  0.00000000000E+00  0.15814045451E+04  0.15814045451E+04  0.00000000000E+00 0. -1.
          2   -1    0    0  503    0 -0.00000000000E+00 -0.00000000000E+00 -0.10054577069E+04  0.10054577069E+04  0.00000000000E+00 0. -1.
         24    2    1    2    0    0 -0.26120461666E+03  0.12208400199E+03  0.34050540035E+03  0.45846612860E+03  0.10542726451E+03 0.  0.
         25    2    1    2    0    0  0.71783908664E+02 -0.51113442367E+02  0.55777802845E+03  0.57836581213E+03  0.12500068037E+03 0.  0.
         24    2    1    2    0    0  0.22394178237E+03 -0.10487909438E+03 -0.49786964567E+03  0.56148245841E+03  0.78986205720E+02 0.  0.
        -11    1    5    5    0    0  0.16718080273E+03 -0.78169238775E+02 -0.28478558356E+03  0.33935627192E+03  0.00000000000E+00 0.  1.
         12    1    5    5    0    0  0.56760979635E+02 -0.26709855606E+02 -0.21308406212E+03  0.22212618649E+03  0.00000000000E+00 0. -1.
        -13    1    3    3    0    0 -0.12426950780E+03  0.11465628221E+03  0.17170329635E+03  0.24097924308E+03  0.00000000000E+00 0.  1.
         14    1    3    3    0    0 -0.13693510886E+03  0.74277197889E+01  0.16880210400E+03  0.21748688552E+03  0.00000000000E+00 0. -1.
          5    1    4    4  501    0  0.10172444147E+03 -0.62576121628E+02  0.40936617598E+03  0.42645795693E+03  0.47000000000E+01 0.  1.
         -5    1    4    4    0  501 -0.29940532806E+02  0.11462679261E+02  0.14841185246E+03  0.15190785520E+03  0.47000000000E+01 0.  1.
          1    1    1    2  502    0  0.26375666272E+01  0.54183176434E+02  0.57966865131E+03  0.58220144166E+03  0.00000000000E+00 0. -1.
          1    1    1    2  503    0 -0.37158640996E+02 -0.20274641680E+02 -0.40413559628E+03  0.40634641118E+03  0.00000000000E+00 0. -1.
<mgrwt>
<rscale>  0 0.47899060E+02</rscale>
<asrwt>0</asrwt>
<pdfrwt beam="1">  1        2 0.23255949E+00 0.54200850E+02</pdfrwt>
<pdfrwt beam="2">  1        2 0.14786143E+00 0.42329962E+02</pdfrwt>
<totfact> 0.72852395E+01</totfact>
</mgrwt>
</event>
<event>
13    1  0.1675423E-008  0.9705343E+02  0.7546771E-02  0.1384183E+00
          2   -1    0    0  502    0  0.00000000000E+00  0.00000000000E+00  0.11624524171E+04  0.11624524171E+04  0.00000000000E+00 0. -1.
          2   -1    0    0  503    0 -0.00000000000E+00 -0.00000000000E+00 -0.32784296450E+04  0.32784296450E+04  0.00000000000E+00 0. -1.
         24    2    1    2    0    0 -0.33938111389E+03 -0.36214470911E+01  0.26734203470E+03  0.44134437762E+03  0.90113488392E+02 0.  0.
         25    2    1    2    0    0 -0.89821793534E+02  0.18814093788E+03 -0.68677601475E+03  0.72852709394E+03  0.12500186023E+03 0.  0.
         24    2    1    2    0    0  0.45817006367E+03 -0.63222447869E+02 -0.68096169546E+03  0.82699908853E+03  0.79383730022E+02 0.  0.
        -11    1    5    5    0    0  0.32297967046E+03 -0.18785092824E+02 -0.42488239252E+03  0.53403538714E+03  0.00000000000E+00 0.  1.
         12    1    5    5    0    0  0.13519039320E+03 -0.44437355046E+02 -0.25607930294E+03  0.29296370139E+03  0.00000000000E+00 0. -1.
        -13    1    3    3    0    0 -0.18882498175E+03  0.29571979136E+02  0.18743024068E+03  0.26769286655E+03  0.00000000000E+00 0.  1.
         14    1    3    3    0    0 -0.15055613214E+03 -0.33193426227E+02  0.79911794022E+02  0.17365151106E+03  0.00000000000E+00 0. -1.
          5    1    4    4  501    0 -0.76736040478E+02  0.12575906679E+03 -0.61501363110E+03  0.63242993227E+03  0.47000000000E+01 0.  1.
         -5    1    4    4    0  501 -0.13085753056E+02  0.62381871087E+02 -0.71762383650E+02  0.96097161667E+02  0.47000000000E+01 0.  1.
          1    1    1    2  502    0  0.44644270310E+01 -0.96902141856E+02  0.71067200639E+03  0.71726191651E+03  0.00000000000E+00 0. -1.
          1    1    1    2  503    0 -0.33431583276E+02 -0.24394901063E+02 -0.17262535588E+04  0.17267495855E+04  0.00000000000E+00 0. -1.
<mgrwt>
<rscale>  0 0.63376895E+02</rscale>
<asrwt>0</asrwt>
<pdfrwt beam="1">  1        2 0.17094889E+00 0.97053429E+02</pdfrwt>
<pdfrwt beam="2">  1        2 0.48212200E+00 0.41385770E+02</pdfrwt>
<totfact> 0.88852238E+00</totfact>
</mgrwt>
</event>
<event>
13    1  0.1675423E-008  0.1027251E+03  0.7546771E-02  0.1350441E+00
          4   -1    0    0  503    0  0.00000000000E+00  0.00000000000E+00  0.20785151275E+04  0.20785151275E+04  0.00000000000E+00 0. -1.
         -1   -1    0    0    0  501 -0.00000000000E+00 -0.00000000000E+00 -0.24294629976E+04  0.24294629976E+04  0.00000000000E+00 0.  1.
         24    2    1    2    0    0  0.41074945331E+01 -0.76438141523E+02  0.12502142302E+04  0.12545915428E+04  0.71446881159E+02 0.  0.
         25    2    1    2    0    0 -0.16612197599E+02  0.24088623137E+03 -0.10060406247E+02  0.27208207080E+03  0.12500119961E+03 0.  0.
         24    2    1    2    0    0 -0.41767521379E+02 -0.67580325920E+02  0.23457825519E+03  0.25877661304E+03  0.75011674792E+02 0.  0.
        -11    1    3    3    0    0 -0.12134386961E+02 -0.83029559012E+02  0.88872440491E+03  0.89267699584E+03  0.00000000000E+00 0.  1.
         12    1    3    3    0    0  0.16241881494E+02  0.65914174893E+01  0.36148982527E+03  0.36191454692E+03  0.00000000000E+00 0. -1.
        -11    1    5    5    0    0 -0.59062553903E+01 -0.70785317018E+01 -0.39987696172E+01  0.10048861739E+02  0.00000000000E+00 0.  1.
         12    1    5    5    0    0 -0.35861265989E+02 -0.60501794218E+02  0.23857702481E+03  0.24872775130E+03  0.00000000000E+00 0. -1.
          5    1    4    4  502    0 -0.66845732753E+02  0.13272150622E+03 -0.28285748879E+02  0.15134570952E+03  0.47000000000E+01 0. -1.
         -5    1    4    4    0  502  0.50233535155E+02  0.10816472515E+03  0.18225342632E+02  0.12073636128E+03  0.47000000000E+01 0. -1.
          3    1    1    2  503    0 -0.31821447676E+02 -0.40823359182E+02  0.44576554696E+03  0.44876059770E+03  0.00000000000E+00 0. -1.
         -2    1    1    2    0  501  0.86093672120E+02 -0.56044404742E+02 -0.22714454962E+04  0.22737673007E+04  0.00000000000E+00 0.  1.
<mgrwt>
<rscale>  0 0.72918491E+02</rscale>
<asrwt>0</asrwt>
<pdfrwt beam="1">  1        4 0.30566399E+00 0.51760518E+02</pdfrwt>
<pdfrwt beam="2">  1       -1 0.35727397E+00 0.10272514E+03</pdfrwt>
<totfact> 0.28489106E-03</totfact>
</mgrwt>
</event>
<event>
13    1  0.1675423E-008  0.9097799E+02  0.7546771E-02  0.1435130E+00
         -3   -1    0    0    0  501 -0.00000000000E+00  0.00000000000E+00  0.18141319435E+03  0.18141319435E+03  0.00000000000E+00 0.  1.
          2   -1    0    0  503    0  0.00000000000E+00 -0.00000000000E+00 -0.26155459493E+04  0.26155459493E+04  0.00000000000E+00 0. -1.
         24    2    1    2    0    0  0.16560256938E+03  0.75971895695E+02 -0.55871278218E+03  0.59313711040E+03  0.80347488035E+02 0.  0.
         25    2    1    2    0    0 -0.66368188272E+02 -0.17868960834E+03 -0.58906981819E+03  0.63163570372E+03  0.12500279586E+03 0.  0.
         24    2    1    2    0    0 -0.73137006724E+02  0.12339193088E+02 -0.22272217005E+03  0.24829242221E+03  0.80886862097E+02 0.  0.
        -11    1    5    5    0    0  0.11648839826E+02  0.21389995234E+02 -0.44769686921E+02  0.50966187148E+02  0.00000000000E+00 0.  1.
         12    1    5    5    0    0 -0.84785846549E+02 -0.90508021469E+01 -0.17795248313E+03  0.19732623507E+03  0.00000000000E+00 0. -1.
        -13    1    3    3    0    0  0.64344764333E+02  0.69086440221E+02 -0.21644931638E+03  0.23614294713E+03  0.00000000000E+00 0.  1.
         14    1    3    3    0    0  0.10125780505E+03  0.68854554744E+01 -0.34226346581E+03  0.35699416327E+03  0.00000000000E+00 0. -1.
          5    1    4    4  502    0 -0.77309613545E+01 -0.12197667921E+02 -0.23967374277E+03  0.24015441666E+03  0.47000000000E+01 0.  1.
         -5    1    4    4    0  502 -0.58637226918E+02 -0.16649194041E+03 -0.34939607542E+03  0.39148128706E+03  0.47000000000E+01 0.  1.
          1    1    1    2  503    0 -0.29652252467E+02 -0.54831611882E+00 -0.11776439670E+04  0.11780173470E+04  0.00000000000E+00 0. -1.
         -4    1    1    2    0  501  0.35548780826E+01  0.90926835671E+02  0.11401598247E+03  0.14587656036E+03  0.00000000000E+00 0.  1.
<mgrwt>
<rscale>  0 0.51943848E+02</rscale>
<asrwt>0</asrwt>
<pdfrwt beam="2">  1        2 0.38463911E+00 0.29657322E+02</pdfrwt>
<pdfrwt beam="1">  1       -3 0.26678411E-01 0.90977985E+02</pdfrwt>
<totfact> 0.42583495E+01</totfact>
</mgrwt>
</event>
<event>
13    1  0.1675423E-008  0.9456957E+02  0.7546771E-02  0.1385616E+00
          2   -1    0    0  503    0  0.00000000000E+00  0.00000000000E+00  0.32334207793E+04  0.32334207793E+04  0.00000000000E+00 0. -1.
          2   -1    0    0  502    0 -0.00000000000E+00 -0.00000000000E+00 -0.84300501803E+03  0.84300501803E+03  0.00000000000E+00 0. -1.
         24    2    1    2    0    0 -0.36208969691E+03 -0.25883347298E+02  0.94725338471E+03  0.10188849100E+04  0.95176618519E+02 0.  0.
         25    2    1    2    0    0  0.44244296346E+03  0.13036716619E+02  0.21763051051E+03  0.50883470983E+03  0.12499596363E+03 0.  0.
         24    2    1    2    0    0 -0.84208603076E+02 -0.39805080998E+02  0.11851832790E+04  0.11933929534E+04  0.10417198741E+03 0.  0.
        -11    1    5    5    0    0 -0.10276894589E+03 -0.43662856497E+02  0.80136016743E+03  0.80910198320E+03  0.00000000000E+00 0.  1.
         12    1    5    5    0    0  0.18560342810E+02  0.38577754995E+01  0.38382311159E+03  0.38429097016E+03  0.00000000000E+00 0. -1.
        -13    1    3    3    0    0 -0.19805241789E+03 -0.13368648225E+02  0.64377304463E+03  0.67368183439E+03  0.00000000000E+00 0.  1.
         14    1    3    3    0    0 -0.16403727903E+03 -0.12514699074E+02  0.30348034008E+03  0.34520307562E+03  0.00000000000E+00 0. -1.
          5    1    4    4  501    0 -0.67993792232E+01 -0.60349690734E+01  0.58443889935E+01  0.11785554389E+02  0.47000000000E+01 0. -1.
         -5    1    4    4    0  501  0.44924234268E+03  0.19071685692E+02  0.21178612152E+03  0.49704915544E+03  0.47000000000E+01 0. -1.
          1    1    1    2  502    0  0.11627900482E+02  0.93908659371E+02 -0.65343982126E+03  0.66025574165E+03  0.00000000000E+00 0. -1.
          1    1    1    2  503    0 -0.77725639544E+01 -0.41256947694E+02  0.69378840823E+03  0.69505748243E+03  0.00000000000E+00 0. -1.
<mgrwt>
<rscale>  0 0.63010218E+02</rscale>
<asrwt>0</asrwt>
<pdfrwt beam="1">  1        2 0.47550305E+00 0.41982716E+02</pdfrwt>
<pdfrwt beam="2">  1        2 0.12397133E+00 0.94569573E+02</pdfrwt>
<totfact> 0.14342188E+01</totfact>
</mgrwt>
</event>
<event>
13    1  0.1675423E-008  0.1109175E+03  0.7546771E-02  0.1346198E+00
          2   -1    0    0  503    0  0.00000000000E+00  0.00000000000E+00  0.15335796426E+04  0.15335796426E+04  0.00000000000E+00 0. -1.
          2   -1    0    0  502    0 -0.00000000000E+00 -0.00000000000E+00 -0.22682444748E+04  0.22682444748E+04  0.00000000000E+00 0. -1.
         24    2    1    2    0    0  0.14206517310E+02  0.13466403763E+03  0.53391948222E+02  0.16598710679E+03  0.79779642279E+02 0.  0.
         25    2    1    2    0    0 -0.11038188199E+03 -0.44072426628E+02 -0.22475009860E+03  0.28330976770E+03  0.12500111599E+03 0.  0.
         24    2    1    2    0    0 -0.41160364031E+02 -0.12676069391E+03  0.14788744604E+03  0.21463332485E+03  0.80214202934E+02 0.  0.
        -11    1    5    5    0    0  0.23210781875E+02 -0.44301893109E+02  0.59117676792E+02  0.77435765881E+02  0.00000000000E+00 0.  1.
         12    1    5    5    0    0 -0.64371145906E+02 -0.82458800803E+02  0.88769769248E+02  0.13719755897E+03  0.00000000000E+00 0. -1.
        -13    1    3    3    0    0 -0.53568779963E+01 -0.87430241275E+01  0.11292963225E+02  0.15253446534E+02  0.00000000000E+00 0.  1.
         14    1    3    3    0    0  0.19563395306E+02  0.14340706176E+03  0.42098984997E+02  0.15073366026E+03  0.00000000000E+00 0. -1.
          5    1    4    4  501    0  0.23204881996E+02  0.86181592085E+01 -0.57756176018E+02  0.63012737480E+02  0.47000000000E+01 0.  1.
         -5    1    4    4    0  501 -0.13358676399E+03 -0.52690585836E+02 -0.16699392258E+03  0.22029703022E+03  0.47000000000E+01 0.  1.
          1    1    1    2  502    0  0.26746258560E+02  0.41900069299E+02 -0.19216952923E+04  0.19223381010E+04  0.00000000000E+00 0. -1.
          1    1    1    2  503    0  0.11058947015E+03 -0.57309863870E+01  0.12105011644E+04  0.12155558170E+04  0.00000000000E+00 0. -1.
<mgrwt>
<rscale>  0 0.74253544E+02</rscale>
<asrwt>0</asrwt>
<pdfrwt beam="1">  1        2 0.22552642E+00 0.11091746E+03</pdfrwt>
<pdfrwt beam="2">  1        2 0.33356536E+00 0.49708934E+02</pdfrwt>
<totfact> 0.17633546E+01</totfact>
</mgrwt>
</event>
<event>
13    1  0.1675423E-008  0.4281134E+02  0.7546771E-02  0.1510205E+00
          2   -1    0    0  503    0  0.00000000000E+00  0.00000000000E+00  0.21408764340E+04  0.21408764340E+04  0.00000000000E+00 0. -1.
          2   -1    0    0  502    0 -0.00000000000E+00 -0.00000000000E+00 -0.16010339287E+04  0.16010339287E+04  0.00000000000E+00 0. -1.
         24    2    1    2    0    0 -0.17435298969E+02  0.52729778748E+01  0.74529105401E+03  0.75073844128E+03  0.88417521321E+02 0.  0.
         25    2    1    2    0    0 -0.11837594767E+03 -0.10650464574E+03 -0.89252553675E+03  0.91519461945E+03  0.12499301252E+03 0.  0.
         24    2    1    2    0    0  0.12106705600E+03  0.25876214659E+02 -0.77555662445E+02  0.16658860249E+03  0.80062920049E+02 0.  0.
        -13    1    3    3    0    0 -0.22355220031E+02 -0.18982975770E+02  0.83785294918E+02  0.88769842155E+02  0.00000000000E+00 0.  1.
         14    1    3    3    0    0  0.49199210619E+01  0.24255953645E+02  0.66150575909E+03  0.66196859912E+03  0.00000000000E+00 0. -1.
        -13    1    5    5    0    0  0.44024217883E+02  0.37503230307E+02 -0.17169328365E+01  0.57858205140E+02  0.00000000000E+00 0.  1.
         14    1    5    5    0    0  0.77042838121E+02 -0.11627015648E+02 -0.75838729609E+02  0.10873039735E+03  0.00000000000E+00 0. -1.
          5    1    4    4  501    0  0.16697374272E+02 -0.40404569226E+02 -0.11242053930E+03  0.12071370750E+03  0.47000000000E+01 0. -1.
         -5    1    4    4    0  501 -0.13507332195E+03 -0.66100076516E+02 -0.78010499745E+03  0.79448091195E+03  0.47000000000E+01 0. -1.
          1    1    1    2  502    0 -0.36172988323E+01  0.36693249017E+02 -0.57144119239E+03  0.57262947508E+03  0.00000000000E+00 0. -1.
          1    1    1    2  503    0  0.18361489471E+02  0.38662204190E+02  0.13360738429E+04  0.13367592244E+04  0.00000000000E+00 0. -1.
<mgrwt>
<rscale>  0 0.39730368E+02</rscale>
<asrwt>0</asrwt>
<pdfrwt beam="1">  1        2 0.31483477E+00 0.42811344E+02</pdfrwt>
<pdfrwt beam="2">  1        2 0.23544617E+00 0.36871118E+02</pdfrwt>
<totfact> 0.20998333E+01</totfact>
</mgrwt>
</event>
<event>
13    1  0.1675423E-008  0.5215069E+02  0.7546771E-02  0.1491226E+00
          2   -1    0    0  502    0  0.00000000000E+00  0.00000000000E+00  0.15210855151E+04  0.15210855151E+04  0.00000000000E+00 0. -1.
          2   -1    0    0  503    0 -0.00000000000E+00 -0.00000000000E+00 -0.16600327864E+04  0.16600327864E+04  0.00000000000E+00 0. -1.
         24    2    1    2    0    0  0.46276483303E+02 -0.35345316353E+02  0.17366906377E+03  0.19982454061E+03  0.79863001584E+02 0.  0.
         25    2    1    2    0    0  0.55918866821E+02 -0.16056694226E+02 -0.27011407321E+01  0.13790998057E+03  0.12500851765E+03 0.  0.
         24    2    1    2    0    0 -0.59940188027E+02  0.29063637306E+02 -0.87763221720E+03  0.88382724571E+03  0.80465958307E+02 0.  0.
        -11    1    5    5    0    0 -0.94309285797E+01 -0.77282467549E+01 -0.16951891179E+02  0.20881446940E+02  0.00000000000E+00 0.  1.
         12    1    5    5    0    0 -0.50509259448E+02  0.36791884061E+02 -0.86068032602E+03  0.86294579877E+03  0.00000000000E+00 0. -1.
        -11    1    3    3    0    0  0.73528763057E+01  0.15478172866E+02  0.10322718398E+03  0.10463981144E+03  0.00000000000E+00 0.  1.
         12    1    3    3    0    0  0.38923606997E+02 -0.50823489219E+02  0.70441879786E+02  0.95184729163E+02  0.00000000000E+00 0. -1.
          5    1    4    4  501    0 -0.79053608662E+01 -0.20977965737E+02  0.49911474592E+02  0.54916437183E+02  0.47000000000E+01 0.  1.
         -5    1    4    4    0  501  0.63824227688E+02  0.49212715111E+01 -0.52612615324E+02  0.82993543390E+02  0.47000000000E+01 0.  1.
          1    1    1    2  502    0  0.87816171022E+01  0.33343085901E+02  0.12624218273E+04  0.12628926115E+04  0.00000000000E+00 0. -1.
          1    1    1    2  503    0 -0.51036779199E+02 -0.11004712629E+02 -0.69470480443E+03  0.69666392316E+03  0.00000000000E+00 0. -1.
<mgrwt>
<rscale>  0 0.42404736E+02</rscale>
<asrwt>0</asrwt>
<pdfrwt beam="1">  1        2 0.22368905E+00 0.34480113E+02</pdfrwt>
<pdfrwt beam="2">  1        2 0.24412247E+00 0.52150688E+02</pdfrwt>
<totfact> 0.37669319E+01</totfact>
</mgrwt>
</event>
<event>
13    1  0.1675423E-008  0.5314963E+02  0.7546771E-02  0.1495058E+00
          2   -1    0    0  502    0  0.00000000000E+00  0.00000000000E+00  0.20454065446E+04  0.20454065446E+04  0.00000000000E+00 0. -1.
          2   -1    0    0  503    0 -0.00000000000E+00 -0.00000000000E+00 -0.53937493887E+03  0.53937493887E+03  0.00000000000E+00 0. -1.
         24    2    1    2    0    0  0.46547700131E+02  0.68873611673E+02  0.72167552102E+03  0.73089829919E+03  0.80538831360E+02 0.  0.
         25    2    1    2    0    0 -0.95365992275E+02  0.46429882942E+02  0.17172957799E+03  0.23741470680E+03  0.12499715411E+03 0.  0.
         24    2    1    2    0    0  0.17576101107E+02 -0.47293433878E+02 -0.48749661814E+03  0.49659148925E+03  0.80028534142E+02 0.  0.
        -11    1    3    3    0    0  0.37830816541E+02 -0.67458633931E+01  0.19498782052E+03  0.19873833929E+03  0.00000000000E+00 0.  1.
         12    1    3    3    0    0  0.87168835904E+01  0.75619475066E+02  0.52668770049E+03  0.53215995990E+03  0.00000000000E+00 0. -1.
        -11    1    5    5    0    0 -0.29206852826E+02 -0.13490625325E+02 -0.10667140579E+03  0.11141735070E+03  0.00000000000E+00 0.  1.
         12    1    5    5    0    0  0.46782953932E+02 -0.33802808553E+02 -0.38082521235E+03  0.38517413855E+03  0.00000000000E+00 0. -1.
          5    1    4    4  501    0 -0.67597423080E+02 -0.92802781016E+01  0.16864591349E+02  0.70441746216E+02  0.47000000000E+01 0.  1.
         -5    1    4    4    0  501 -0.27768569196E+02  0.55710161044E+02  0.15486498664E+03  0.16697296058E+03  0.47000000000E+01 0.  1.
          1    1    1    2  502    0  0.39066678178E+02 -0.36008204020E+02  0.10799303003E+04  0.10812364449E+04  0.00000000000E+00 0. -1.
          1    1    1    2  503    0 -0.78244871404E+01 -0.32001856717E+02  0.20192824568E+02  0.38640543427E+02  0.00000000000E+00 0. -1.
<mgrwt>
<rscale>  0 0.41844823E+02</rscale>
<asrwt>0</asrwt>
<pdfrwt beam="1">  1        2 0.30079508E+00 0.53149635E+02</pdfrwt>
<pdfrwt beam="2">  1        2 0.79319845E-01 0.32944521E+02</pdfrwt>
<totfact> 0.90100366E+01</totfact>
</mgrwt>
</event>
<event>
13    1  0.1675423E-008  0.1369294E+03  0.7546771E-02  0.1294523E+00
          2   -1    0    0  502    0  0.00000000000E+00  0.00000000000E+00  0.25649345761E+04  0.25649345761E+04  0.00000000000E+00 0. -1.
          2   -1    0    0  503    0 -0.00000000000E+00 -0.00000000000E+00 -0.82995979487E+03  0.82995979487E+03  0.00000000000E+00 0. -1.
         24    2    1    2    0    0  0.11664897162E+03  0.42239341575E+02  0.17473314840E+04  0.17535219108E+04  0.79250437850E+02 0.  0.
         25    2    1    2    0    0 -0.11867580692E+01 -0.74646795139E+02  0.39779140532E+02  0.15092901761E+03  0.12499454354E+03 0.  0.
         24    2    1    2    0    0 -0.45382023525E+02 -0.22568067811E+02 -0.31421925927E+03  0.32822667444E+03  0.80188285754E+02 0.  0.
        -13    1    3    3    0    0  0.39355194209E+02  0.39572225993E+01  0.20503252332E+03  0.20881289841E+03  0.00000000000E+00 0.  1.
         14    1    3    3    0    0  0.77293777409E+02  0.38282118976E+02  0.15422989607E+04  0.15447090123E+04  0.00000000000E+00 0. -1.
        -13    1    5    5    0    0 -0.10371313971E+02  0.29977362991E+02 -0.10421780973E+03  0.10893832342E+03  0.00000000000E+00 0.  1.
         14    1    5    5    0    0 -0.35010709555E+02 -0.52545430801E+02 -0.21000144954E+03  0.21928835102E+03  0.00000000000E+00 0. -1.
          5    1    4    4  501    0 -0.84747312719E+01 -0.56133398269E+02 -0.39329168095E+02  0.69221766334E+02  0.47000000000E+01 0. -1.
         -5    1    4    4    0  501  0.72879732026E+01 -0.18513396870E+02  0.79108308627E+02  0.81707251275E+02  0.47000000000E+01 0. -1.
          1    1    1    2  502    0 -0.79004858002E+02  0.11823413289E+03  0.70272495205E+03  0.71696822524E+03  0.00000000000E+00 0. -1.
          1    1    1    2  503    0  0.89246679791E+01 -0.63258611516E+02 -0.44064153611E+03  0.44524854292E+03  0.00000000000E+00 0. -1.
<mgrwt>
<rscale>  0 0.93529367E+02</rscale>
<asrwt>0</asrwt>
<pdfrwt beam="1">  1        2 0.37719626E+00 0.13692938E+03</pdfrwt>
<pdfrwt beam="2">  1        2 0.12205291E+00 0.63885066E+02</pdfrwt>
<totfact> 0.27445339E+01</totfact>
</mgrwt>
</event>
<event>
13    1  0.1675423E-008  0.2251883E+03  0.7546771E-02  0.1212631E+00
          2   -1    0    0  502    0  0.00000000000E+00  0.00000000000E+00  0.13932120263E+04  0.13932120263E+04  0.00000000000E+00 0. -1.
          2   -1    0    0  503    0 -0.00000000000E+00 -0.00000000000E+00 -0.17330278063E+04  0.17330278063E+04  0.00000000000E+00 0. -1.
         24    2    1    2    0    0  0.75404144503E+02 -0.43971384780E+02 -0.18611608959E+02  0.12049945623E+03  0.80959615087E+02 0.  0.
         25    2    1    2    0    0  0.21030397279E+03 -0.76662056153E+02 -0.67652479638E+02  0.26515409020E+03  0.12500000689E+03 0.  0.
         24    2    1    2    0    0  0.32696275359E+02  0.10054875790E+02 -0.76260062883E+02  0.11516346398E+03  0.79226758710E+02 0.  0.
        -11    1    3    3    0    0 -0.12482883654E+02 -0.17653221657E+02  0.10785543326E+02  0.24161675522E+02  0.00000000000E+00 0.  1.
         12    1    3    3    0    0  0.87887028158E+02 -0.26318163123E+02 -0.29397152285E+02  0.96337780704E+02  0.00000000000E+00 0. -1.
        -11    1    5    5    0    0  0.37953399944E+02  0.40267628946E+02 -0.53548054513E+02  0.77002186011E+02  0.00000000000E+00 0.  1.
         12    1    5    5    0    0 -0.52571245850E+01 -0.30212753155E+02 -0.22712008370E+02  0.38161277971E+02  0.00000000000E+00 0. -1.
          5    1    4    4  501    0  0.15058594062E+02 -0.30591689995E+02 -0.53988700303E+02  0.64027201346E+02  0.47000000000E+01 0.  1.
         -5    1    4    4    0  501  0.19524537873E+03 -0.46070366159E+02 -0.13663779335E+02  0.20112688885E+03  0.47000000000E+01 0.  1.
          1    1    1    2  502    0 -0.20601094455E+03  0.91217188441E+02  0.12113406619E+04  0.12321149638E+04  0.00000000000E+00 0. -1.
          1    1    1    2  503    0 -0.11239344811E+03  0.19361376702E+02 -0.13886322905E+04  0.13933078584E+04  0.00000000000E+00 0. -1.
<mgrwt>
<rscale>  0 0.14052014E+03</rscale>
<asrwt>0</asrwt>
<pdfrwt beam="1">  1        2 0.20488412E+00 0.22518835E+03</pdfrwt>
<pdfrwt beam="2">  1        2 0.25485703E+00 0.87686191E+02</pdfrwt>
<totfact> 0.33260141E+01</totfact>
</mgrwt>
</event>
<event>
13    1  0.1675423E-008  0.2202995E+02  0.7546771E-02  0.1714264E+00
         -1   -1    0    0    0  501 -0.00000000000E+00  0.00000000000E+00  0.28503739110E+03  0.28503739110E+03  0.00000000000E+00 0.  1.
          2   -1    0    0  503    0  0.00000000000E+00 -0.00000000000E+00 -0.10973209396E+04  0.10973209396E+04  0.00000000000E+00 0. -1.
         24    2    1    2    0    0  0.42527261416E+02  0.57629106532E+02 -0.43374439070E+02  0.11614967972E+03  0.80496734408E+02 0.  0.
         25    2    1    2    0    0 -0.15492381620E+03 -0.21870913588E+02 -0.17722025283E+03  0.26739649071E+03  0.12495655062E+03 0.  0.
         24    2    1    2    0    0  0.11157723762E+03 -0.22441839214E+02  0.28759821685E+02  0.14269239298E+03  0.81122595912E+02 0.  0.
        -11    1    5    5    0    0  0.33843299127E+02  0.28445453863E+02  0.22413494056E+02  0.49566898804E+02  0.00000000000E+00 0.  1.
         12    1    5    5    0    0  0.77733938495E+02 -0.50887293077E+02  0.63463276285E+01  0.93125494174E+02  0.00000000000E+00 0. -1.
        -11    1    3    3    0    0  0.29089950631E+01  0.66289909325E+02 -0.19815324262E+02  0.69249270077E+02  0.00000000000E+00 0.  1.
         12    1    3    3    0    0  0.39618266353E+02 -0.86608027930E+01 -0.23559114808E+02  0.46900409639E+02  0.00000000000E+00 0. -1.
          5    1    4    4  502    0 -0.36295616097E+02  0.22798753435E+02 -0.12136397324E+03  0.12879619135E+03  0.47000000000E+01 0. -1.
         -5    1    4    4    0  502 -0.11862820010E+03 -0.44669667023E+02 -0.55856279589E+02  0.13860029935E+03  0.47000000000E+01 0. -1.
          1    1    1    2  503    0 -0.20226885909E+02 -0.66405610152E+01 -0.73709488512E+03  0.73740226039E+03  0.00000000000E+00 0. -1.
         -2    1    1    2    0  501  0.21046203068E+02 -0.66757927139E+01  0.11664620685E+03  0.11871750690E+03  0.00000000000E+00 0.  1.
<mgrwt>
<rscale>  0 0.21656337E+02</rscale>
<asrwt>0</asrwt>
<pdfrwt beam="2">  1        2 0.16137072E+00 0.21289057E+02</pdfrwt>
<pdfrwt beam="1">  1       -1 0.41917264E-01 0.22029953E+02</pdfrwt>
<totfact> 0.18168876E+02</totfact>
</mgrwt>
</event>
<event>
13    1  0.1675423E-008  0.9849802E+02  0.7546771E-02  0.1411645E+00
          2   -1    0    0  503    0  0.00000000000E+00  0.00000000000E+00  0.55204497631E+03  0.55204497631E+03  0.00000000000E+00 0. -1.
          2   -1    0    0  502    0 -0.00000000000E+00 -0.00000000000E+00 -0.19369218238E+04  0.19369218238E+04  0.00000000000E+00 0. -1.
         24    2    1    2    0    0 -0.71849317084E+02  0.76026153000E+02  0.13380563920E+03  0.19008413162E+03  0.85356474302E+02 0.  0.
         25    2    1    2    0    0 -0.15530369429E+02  0.57941228394E+02 -0.50310487445E+03  0.52186027681E+03  0.12500102197E+03 0.  0.
         24    2    1    2    0    0  0.44701042627E+02 -0.51766538529E+02  0.58617554628E+02  0.12113910985E+03  0.80998200606E+02 0.  0.
        -11    1    5    5    0    0 -0.90745361580E+01 -0.42882562548E+02  0.40587411757E+01  0.44019708735E+02  0.00000000000E+00 0.  1.
         12    1    5    5    0    0  0.53775578785E+02 -0.88839759807E+01  0.54558813453E+02  0.77119401115E+02  0.00000000000E+00 0. -1.
        -11    1    3    3    0    0 -0.48102496447E+02  0.80664099331E+02  0.57703163102E+02  0.11022795524E+03  0.00000000000E+00 0.  1.
         12    1    3    3    0    0 -0.23746820637E+02 -0.46379463307E+01  0.76102476100E+02  0.79856176374E+02  0.00000000000E+00 0. -1.
          5    1    4    4  501    0 -0.98037899347E+01  0.61932556173E+01 -0.43884203185E+03  0.43902037496E+03  0.47000000000E+01 0. -1.
         -5    1    4    4    0  501 -0.57265794939E+01  0.51747972777E+02 -0.64262842600E+02  0.82839901848E+02  0.47000000000E+01 0. -1.
          1    1    1    2  502    0 -0.29296126020E+02 -0.14721577850E+02 -0.13564685574E+04  0.13568647445E+04  0.00000000000E+00 0. -1.
          1    1    1    2  503    0  0.71974769906E+02 -0.67479265015E+02  0.28227339045E+03  0.29901853733E+03  0.00000000000E+00 0. -1.
<mgrwt>
<rscale>  0 0.56828297E+02</rscale>
<asrwt>0</asrwt>
<pdfrwt beam="1">  1        2 0.81183085E-01 0.98498022E+02</pdfrwt>
<pdfrwt beam="2">  1        2 0.28484144E+00 0.32787007E+02</pdfrwt>
<totfact> 0.10263869E+02</totfact>
</mgrwt>
</event>
<event>
13    1  0.1675423E-008  0.2263080E+03  0.7546771E-02  0.1189521E+00
          2   -1    0    0  502    0  0.00000000000E+00  0.00000000000E+00  0.13470706363E+04  0.13470706363E+04  0.00000000000E+00 0. -1.
          2   -1    0    0  503    0 -0.00000000000E+00 -0.00000000000E+00 -0.57324669293E+03  0.57324669293E+03  0.00000000000E+00 0. -1.
         24    2    1    2    0    0  0.33690114416E+03 -0.14377998984E+03  0.40297097705E+03  0.55041856579E+03  0.79999517558E+02 0.  0.
         25    2    1    2    0    0 -0.30096096408E+03  0.24736834064E+03 -0.87339037203E+02  0.41835572555E+03  0.12499923131E+03 0.  0.
         24    2    1    2    0    0 -0.16710741046E+03  0.32251892145E+02  0.53107715960E+02  0.19480955176E+03  0.78519174650E+02 0.  0.
        -11    1    3    3    0    0  0.69820130795E+02  0.35238886291E+01  0.77065463708E+02  0.10404976767E+03  0.00000000000E+00 0.  1.
         12    1    3    3    0    0  0.26708101337E+03 -0.14730387847E+03  0.32590551334E+03  0.44636879813E+03  0.00000000000E+00 0. -1.
        -13    1    5    5    0    0 -0.14737225689E+03  0.49329418018E+02  0.61881328697E+02  0.16727603661E+03  0.00000000000E+00 0.  1.
         14    1    5    5    0    0 -0.19735153564E+02 -0.17077525873E+02 -0.87736127379E+01  0.27533515152E+02  0.00000000000E+00 0. -1.
          5    1    4    4  501    0 -0.52427981286E+02  0.90456787943E+01  0.20938625465E+02  0.57367530564E+02  0.47000000000E+01 0. -1.
         -5    1    4    4    0  501 -0.24853298280E+03  0.23832266184E+03 -0.10827766267E+03  0.36098819499E+03  0.47000000000E+01 0. -1.
          1    1    1    2  502    0  0.21981913511E+03 -0.67242676547E+02  0.53669796933E+03  0.58385506762E+03  0.00000000000E+00 0. -1.
          1    1    1    2  503    0 -0.88651904730E+02 -0.68597566395E+02 -0.13161368181E+03  0.17287841845E+03  0.00000000000E+00 0. -1.
<mgrwt>
<rscale>  0 0.15927173E+03</rscale>
<asrwt>0</asrwt>
<pdfrwt beam="1">  1        2 0.19809862E+00 0.22630797E+03</pdfrwt>
<pdfrwt beam="2">  1        2 0.84300984E-01 0.11209276E+03</pdfrwt>
<totfact> 0.16057476E+02</totfact>
</mgrwt>
</event>
<event>
13    1  0.1675423E-008  0.3044767E+03  0.7546771E-02  0.1212698E+00
          2   -1    0    0  503    0  0.00000000000E+00  0.00000000000E+00  0.19267318690E+04  0.19267318690E+04  0.00000000000E+00 0. -1.
          2   -1    0    0  502    0 -0.00000000000E+00 -0.00000000000E+00 -0.38697410999E+04  0.38697410999E+04  0.00000000000E+00 0. -1.
         24    2    1    2    0    0  0.59840268258E+02 -0.81179175451E+02 -0.15767080745E+03  0.20449556495E+03  0.82385898862E+02 0.  0.
         25    2    1    2    0    0 -0.10728031814E+03  0.13792187780E+03  0.16986582697E+03  0.27388262448E+03  0.12500312709E+03 0.  0.
         24    2    1    2    0    0 -0.37210400587E+02  0.25764389988E+03 -0.18216340465E+04  0.18419502699E+04  0.81640701525E+02 0.  0.
        -11    1    3    3    0    0  0.52737177531E+02 -0.81993365346E+02 -0.16661766664E+03  0.19304291930E+03  0.00000000000E+00 0.  1.
         12    1    3    3    0    0  0.71030907278E+01  0.81418989542E+00  0.89468591911E+01  0.11452645653E+02  0.00000000000E+00 0. -1.
        -13    1    5    5    0    0 -0.23308640171E+02  0.75737904138E+02 -0.82149577526E+03  0.82530893101E+03  0.00000000000E+00 0.  1.
         14    1    5    5    0    0 -0.13901760416E+02  0.18190599574E+03 -0.10001382713E+04  0.10166413389E+04  0.00000000000E+00 0. -1.
          5    1    4    4  501    0 -0.10321049861E+03  0.90967937287E+02  0.52515990140E+02  0.14733496482E+03  0.47000000000E+01 0.  1.
         -5    1    4    4    0  501 -0.40698195314E+01  0.46953940513E+02  0.11734983683E+03  0.12654765966E+03  0.47000000000E+01 0.  1.
          1    1    1    2  502    0  0.28723195459E+02 -0.34712695031E+03 -0.17874118872E+04  0.18210336065E+04  0.00000000000E+00 0. -1.
          1    1    1    2  503    0  0.55927255009E+02  0.32740348081E+02  0.16538416833E+04  0.16551109032E+04  0.00000000000E+00 0. -1.
<mgrwt>
<rscale>  0 0.14047011E+03</rscale>
<asrwt>0</asrwt>
<pdfrwt beam="1">  1        2 0.28334292E+00 0.64805773E+02</pdfrwt>
<pdfrwt beam="2">  1        2 0.56907957E+00 0.30447674E+03</pdfrwt>
<totfact> 0.11837211E+00</totfact>
</mgrwt>
</event>
<event>
13    1  0.1675423E-008  0.1590252E+03  0.7546771E-02  0.1235901E+00
          2   -1    0    0  502    0  0.00000000000E+00  0.00000000000E+00  0.15043033128E+04  0.15043033128E+04  0.00000000000E+00 0. -1.
          4   -1    0    0  503    0 -0.00000000000E+00 -0.00000000000E+00 -0.21803238108E+04  0.21803238108E+04  0.00000000000E+00 0. -1.
         24    2    1    2    0    0  0.31368607753E+02  0.10981824419E+00  0.15488111311E+02  0.85697909591E+02  0.78232017128E+02 0.  0.
         25    2    1    2    0    0  0.47673713713E+02  0.31092775256E+03  0.37795070574E+02  0.34059772678E+03  0.12501797406E+03 0.  0.
         24    2    1    2    0    0  0.17544420748E+02 -0.63318342913E+02 -0.29020380210E+03  0.30787481426E+03  0.79067283075E+02 0.  0.
        -11    1    5    5    0    0  0.27226338704E+02 -0.73653507164E+02 -0.17507807037E+03  0.19188132625E+03  0.00000000000E+00 0.  1.
         12    1    5    5    0    0 -0.96819179556E+01  0.10335164251E+02 -0.11512573173E+03  0.11599348801E+03  0.00000000000E+00 0. -1.
        -11    1    3    3    0    0  0.25583948893E+01  0.36832972296E+02  0.14230899418E+01  0.36949132839E+02  0.00000000000E+00 0.  1.
         12    1    3    3    0    0  0.28810212864E+02 -0.36723154052E+02  0.14065021369E+02  0.48748776753E+02  0.00000000000E+00 0. -1.
          5    1    4    4  501    0  0.47902124829E+02  0.28029314355E+03  0.73078194027E+02  0.29363476008E+03  0.47000000000E+01 0. -1.
         -5    1    4    4    0  501 -0.22841111570E+00  0.30634609008E+02 -0.35283123453E+02  0.46962966701E+02  0.47000000000E+01 0. -1.
          1    1    1    2  502    0 -0.11761125189E+03 -0.66246698272E+02  0.12471026502E+04  0.12543867233E+04  0.00000000000E+00 0. -1.
          3    1    1    2  503    0  0.21024509680E+02 -0.18147252962E+03 -0.16862025279E+04  0.16960699497E+04  0.00000000000E+00 0. -1.
<mgrwt>
<rscale>  0 0.12446952E+03</rscale>
<asrwt>0</asrwt>
<pdfrwt beam="1">  1        2 0.22122108E+00 0.97422709E+02</pdfrwt>
<pdfrwt beam="2">  1        4 0.32063585E+00 0.15902515E+03</pdfrwt>
<totfact> 0.23874279E-01</totfact>
</mgrwt>
</event>
<event>
13    1  0.1675423E-008  0.6064316E+03  0.7546771E-02  0.1223454E+00
          2   -1    0    0  502    0  0.00000000000E+00  0.00000000000E+00  0.75851311373E+03  0.75851311373E+03  0.00000000000E+00 0. -1.
          2   -1    0    0  503    0 -0.00000000000E+00 -0.00000000000E+00 -0.12385850729E+04  0.12385850729E+04  0.00000000000E+00 0. -1.
         24    2    1    2    0    0 -0.24519864372E+03 -0.44522118153E+03  0.40086491534E+03  0.65251560073E+03  0.82095392548E+02 0.  0.
         25    2    1    2    0    0  0.76585215570E+02 -0.82707742702E+02 -0.12265002395E+03  0.20826497137E+03  0.12500161589E+03 0.  0.
         24    2    1    2    0    0 -0.91402623325E+02 -0.55511145289E+02 -0.27786696994E+02  0.13583597045E+03  0.79015084229E+02 0.  0.
        -11    1    5    5    0    0 -0.45990076512E+02  0.16716387857E+01 -0.40992108163E+02  0.61629817827E+02  0.00000000000E+00 0.  1.
         12    1    5    5    0    0 -0.45412546813E+02 -0.57182784074E+02  0.13205411169E+02  0.74206152620E+02  0.00000000000E+00 0. -1.
        -11    1    3    3    0    0 -0.88972497259E+01  0.42481568713E+00  0.12687244238E+01  0.89972875200E+01  0.00000000000E+00 0.  1.
         12    1    3    3    0    0 -0.23630139400E+03 -0.44564599722E+03  0.39959619092E+03  0.64351831321E+03  0.00000000000E+00 0. -1.
          5    1    4    4  501    0  0.13696959780E+02  0.26685159133E+02 -0.60142175881E+02  0.67371178889E+02  0.47000000000E+01 0.  1.
         -5    1    4    4    0  501  0.62888255789E+02 -0.10939290184E+03 -0.62507848071E+02  0.14089379248E+03  0.47000000000E+01 0.  1.
          1    1    1    2  502    0  0.29021594941E+02 -0.13410469877E+01  0.84312648406E+01  0.30251241408E+02  0.00000000000E+00 0. -1.
          1    1    1    2  503    0  0.23099445654E+03  0.58478111651E+03 -0.73893141842E+03  0.97023040269E+03  0.00000000000E+00 0. -1.
<mgrwt>
<rscale>  0 0.13273429E+03</rscale>
<asrwt>0</asrwt>
<pdfrwt beam="1">  1        2 0.11154605E+00 0.29052562E+02</pdfrwt>
<pdfrwt beam="2">  1        2 0.18214486E+00 0.60643157E+03</pdfrwt>
<totfact> 0.13152042E+02</totfact>
</mgrwt>
</event>
<event>
13    1  0.1675423E-008  0.7271768E+02  0.7546771E-02  0.1424335E+00
          2   -1    0    0  503    0  0.00000000000E+00  0.00000000000E+00  0.10613446724E+04  0.10613446724E+04  0.00000000000E+00 0. -1.
         -3   -1    0    0    0  501 -0.00000000000E+00 -0.00000000000E+00 -0.53179626049E+03  0.53179626049E+03  0.00000000000E+00 0.  1.
         24    2    1    2    0    0 -0.58711229575E+02 -0.46477656919E+01  0.13681706396E+03  0.16937920746E+03  0.80633719529E+02 0.  0.
         25    2    1    2    0    0  0.41495009513E+02  0.36126604517E+02  0.21116152891E+03  0.25148002933E+03  0.12500418590E+03 0.  0.
         24    2    1    2    0    0 -0.41624676458E+02 -0.91553097832E+02 -0.17326639512E+03  0.21579070475E+03  0.80186040981E+02 0.  0.
        -11    1    3    3    0    0 -0.18486166943E+02  0.28118752343E+02  0.10067420758E+03  0.10614941674E+03  0.00000000000E+00 0.  1.
         12    1    3    3    0    0 -0.40225062632E+02 -0.32766518035E+02  0.36142856385E+02  0.63229790728E+02  0.00000000000E+00 0. -1.
        -13    1    5    5    0    0 -0.17168575177E+02  0.81187978885E+01 -0.66863182858E+01  0.20134093100E+02  0.00000000000E+00 0.  1.
         14    1    5    5    0    0 -0.24456101282E+02 -0.99671895720E+02 -0.16658007683E+03  0.19565661165E+03  0.00000000000E+00 0. -1.
          5    1    4    4  502    0 -0.34940315634E+02  0.31113956272E+02  0.32863492557E+02  0.57367264834E+02  0.47000000000E+01 0.  1.
         -5    1    4    4    0  502  0.76435325147E+02  0.50126482448E+01  0.17829803635E+03  0.19411276449E+03  0.47000000000E+01 0.  1.
          1    1    1    2  503    0  0.19802707629E+02  0.69958393463E+02  0.65228699444E+03  0.65632663146E+03  0.00000000000E+00 0. -1.
         -4    1    1    2    0  501  0.39038188892E+02 -0.98841344565E+01 -0.29745078024E+03  0.30016435993E+03  0.00000000000E+00 0.  1.
<mgrwt>
<rscale>  0 0.54114175E+02</rscale>
<asrwt>0</asrwt>
<pdfrwt beam="1">  1        2 0.15608010E+00 0.72717676E+02</pdfrwt>
<pdfrwt beam="2">  1       -3 0.78205332E-01 0.40270042E+02</pdfrwt>
<totfact> 0.25266199E+01</totfact>
</mgrwt>
</event>
<event>
13    1  0.1675423E-008  0.1991280E+03  0.7546771E-02  0.1310345E+00
          2   -1    0    0  502    0  0.00000000000E+00  0.00000000000E+00  0.52167457177E+03  0.52167457177E+03  0.00000000000E+00 0. -1.
          2   -1    0    0  503    0 -0.00000000000E+00 -0.00000000000E+00 -0.18567380797E+04  0.18567380797E+04  0.00000000000E+00 0. -1.
         24    2    1    2    0    0 -0.39585377438E+02 -0.35039276889E+02  0.23372412075E+03  0.24980078865E+03  0.70560019560E+02 0.  0.
         25    2    1    2    0    0 -0.20588409170E+03 -0.12808415006E+03 -0.35464079603E+03  0.44742504399E+03  0.12500106827E+03 0.  0.
         24    2    1    2    0    0  0.70273325084E+02  0.31388107530E+02 -0.14562442793E+03  0.18470061851E+03  0.83572070425E+02 0.  0.
        -11    1    5    5    0    0  0.75801832894E+02  0.45517873026E+02 -0.86622626190E+02  0.12377913396E+03  0.00000000000E+00 0.  1.
         12    1    5    5    0    0 -0.55285078098E+01 -0.14129765496E+02 -0.59001801742E+02  0.60921484555E+02  0.00000000000E+00 0. -1.
        -13    1    3    3    0    0  0.97652446879E+01  0.14214009771E+02  0.31757197984E+02  0.36137483329E+02  0.00000000000E+00 0.  1.
         14    1    3    3    0    0 -0.49350622126E+02 -0.49253286660E+02  0.20196692276E+03  0.21366330532E+03  0.00000000000E+00 0. -1.
          5    1    4    4  501    0 -0.92577616806E+01  0.17985330497E+02 -0.65725904397E+01  0.21782268236E+02  0.47000000000E+01 0.  1.
         -5    1    4    4    0  501 -0.19662633002E+03 -0.14606948056E+03 -0.34806820559E+03  0.42564277575E+03  0.47000000000E+01 0.  1.
          1    1    1    2  502    0  0.37783910162E+02 -0.39483237389E+01  0.20495706646E+03  0.20844810438E+03  0.00000000000E+00 0. -1.
          1    1    1    2  503    0  0.13741223390E+03  0.13568364316E+03 -0.12734794712E+04  0.12880380959E+04  0.00000000000E+00 0. -1.
<mgrwt>
<rscale>  0 0.86975881E+02</rscale>
<asrwt>0</asrwt>
<pdfrwt beam="1">  1        2 0.76716850E-01 0.37989645E+02</pdfrwt>
<pdfrwt beam="2">  1        2 0.27304971E+00 0.19912805E+03</pdfrwt>
<totfact> 0.10043245E+02</totfact>
</mgrwt>
</event>
<event>
13    1  0.1675423E-008  0.2352806E+03  0.7546771E-02  0.1207272E+00
          2   -1    0    0  503    0  0.00000000000E+00  0.00000000000E+00  0.27391464316E+04  0.27391464316E+04  0.00000000000E+00 0. -1.
          2   -1    0    0  502    0 -0.00000000000E+00 -0.00000000000E+00 -0.37716112337E+04  0.37716112337E+04  0.00000000000E+00 0. -1.
         24    2    1    2    0    0  0.10263387997E+04  0.10022159146E+04 -0.29290355747E+03  0.14652513971E+04  0.57974921815E+02 0.  0.
         25    2    1    2    0    0 -0.24727994876E+03 -0.54752821986E+03  0.23857440395E+03  0.65839499956E+03  0.12502681561E+03 0.  0.
         24    2    1    2    0    0 -0.66050880108E+03 -0.20321462346E+03  0.21020926450E+02  0.69626331204E+03  0.82296177645E+02 0.  0.
        -13    1    3    3    0    0  0.18826507401E+03  0.19069873077E+03 -0.32334342987E+02  0.26991712385E+03  0.00000000000E+00 0.  1.
         14    1    3    3    0    0  0.83807372569E+03  0.81151718378E+03 -0.26056921449E+03  0.11953342732E+04  0.00000000000E+00 0. -1.
        -13    1    5    5    0    0 -0.40515805896E+03 -0.15156578808E+03  0.43564975480E+02  0.43476792424E+03  0.00000000000E+00 0.  1.
         14    1    5    5    0    0 -0.25535074212E+03 -0.51648835386E+02 -0.22544049029E+02  0.26149538781E+03  0.00000000000E+00 0. -1.
          5    1    4    4  501    0 -0.23340391427E+03 -0.54251695214E+03  0.21175481058E+03  0.62742666532E+03  0.47000000000E+01 0. -1.
         -5    1    4    4    0  501 -0.13876034486E+02 -0.50112677272E+01  0.26819593362E+02  0.30968334236E+02  0.47000000000E+01 0. -1.
          1    1    1    2  502    0 -0.15963076319E+03 -0.17267137333E+03 -0.23376298800E+04  0.23494277686E+04  0.00000000000E+00 0. -1.
          1    1    1    2  503    0  0.41080713334E+02 -0.78801697898E+02  0.13384733050E+04  0.13414201880E+04  0.00000000000E+00 0. -1.
<mgrwt>
<rscale>  0 0.14459829E+03</rscale>
<asrwt>0</asrwt>
<pdfrwt beam="1">  1        2 0.40281565E+00 0.88866938E+02</pdfrwt>
<pdfrwt beam="2">  1        2 0.55464871E+00 0.23528060E+03</pdfrwt>
<totfact> 0.55679428E-01</totfact>
</mgrwt>
</event>
<event>
13    1  0.1675423E-008  0.1798453E+03  0.7546771E-02  0.1309853E+00
          2   -1    0    0  502    0  0.00000000000E+00  0.00000000000E+00  0.13457365780E+04  0.13457365780E+04  0.00000000000E+00 0. -1.
          4   -1    0    0  503    0 -0.00000000000E+00 -0.00000000000E+00 -0.63468275126E+03  0.63468275126E+03  0.00000000000E+00 0. -1.
         24    2    1    2    0    0 -0.13057246410E+03  0.60939010167E+02  0.25166567555E+03  0.30086270006E+03  0.80125031665E+02 0.  0.
         25    2    1    2    0    0  0.76261603794E+01 -0.18825354837E+03 -0.20414249011E+03  0.30462806105E+03  0.12500616992E+03 0.  0.
         24    2    1    2    0    0 -0.76101835998E+01  0.18336228955E+02  0.62317841769E+02  0.10681286637E+03  0.84447278419E+02 0.  0.
        -11    1    5    5    0    0 -0.21658617707E+02 -0.15920542025E+02  0.64342848183E+02  0.69732069320E+02  0.00000000000E+00 0.  1.
         12    1    5    5    0    0  0.14048434107E+02  0.34256770979E+02 -0.20250064141E+01  0.37080797048E+02  0.00000000000E+00 0. -1.
        -11    1    3    3    0    0 -0.46905304611E+02  0.64706483400E+02  0.14104842132E+03  0.16211629699E+03  0.00000000000E+00 0.  1.
         12    1    3    3    0    0 -0.83667159487E+02 -0.37674732334E+01  0.11061725423E+03  0.13874640307E+03  0.00000000000E+00 0. -1.
          5    1    4    4  501    0  0.56198368399E+02 -0.16015298343E+03 -0.15395833339E+03  0.22919967960E+03  0.47000000000E+01 0.  1.
         -5    1    4    4    0  501 -0.48572208020E+02 -0.28100564936E+02 -0.50184156729E+02  0.75428381450E+02  0.47000000000E+01 0.  1.
          1    1    1    2  502    0  0.16326178273E+03  0.13572732935E+03  0.92120081847E+03  0.94535034013E+03  0.00000000000E+00 0. -1.
          3    1    1    2  503    0 -0.32705295414E+02 -0.26749020107E+02 -0.31998801893E+03  0.32276536165E+03  0.00000000000E+00 0. -1.
<mgrwt>
<rscale>  0 0.87170196E+02</rscale>
<asrwt>0</asrwt>
<pdfrwt beam="1">  1        2 0.19790244E+00 0.17984531E+03</pdfrwt>
<pdfrwt beam="2">  1        4 0.93335699E-01 0.42250993E+02</pdfrwt>
<totfact> 0.89639084E+00</totfact>
</mgrwt>
</event>
<event>
13    1  0.1675423E-008  0.2598980E+03  0.7546771E-02  0.1232731E+00
          2   -1    0    0  503    0  0.00000000000E+00  0.00000000000E+00  0.47628677341E+04  0.47628677341E+04  0.00000000000E+00 0. -1.
          2   -1    0    0  502    0 -0.00000000000E+00 -0.00000000000E+00 -0.14757562283E+04  0.14757562283E+04  0.00000000000E+00 0. -1.
         24    2    1    2    0    0 -0.57751022098E+02  0.10702604107E+03 -0.10758121305E+02  0.15736580580E+03  0.99290007762E+02 0.  0.
         25    2    1    2    0    0  0.11265293871E+02  0.87273247005E+02 -0.54758860178E+03  0.56852687638E+03  0.12500402346E+03 0.  0.
         24    2    1    2    0    0  0.26627783357E+02  0.44136140471E+01 -0.21722643249E+02  0.86904569546E+02  0.79699511559E+02 0.  0.
        -11    1    3    3    0    0 -0.67345372705E+02  0.46281752799E+02  0.25961175694E+02  0.85740203583E+02  0.00000000000E+00 0.  1.
         12    1    3    3    0    0  0.95943506078E+01  0.60744288274E+02 -0.36719296999E+02  0.71625602222E+02  0.00000000000E+00 0. -1.
        -13    1    5    5    0    0  0.15009310620E+01 -0.36273180020E+02 -0.84035008738E+01  0.37264127653E+02  0.00000000000E+00 0.  1.
         14    1    5    5    0    0  0.25126852295E+02  0.40686794067E+02 -0.13319142375E+02  0.49640441893E+02  0.00000000000E+00 0. -1.
          5    1    4    4  501    0  0.68241985134E+01  0.14558424319E+02 -0.67738829493E+00  0.16765030835E+02  0.47000000000E+01 0.  1.
         -5    1    4    4    0  501  0.44410953580E+01  0.72714822686E+02 -0.54691121348E+03  0.55176184554E+03  0.47000000000E+01 0.  1.
          1    1    1    2  502    0  0.11653726463E+00  0.61579191573E+02 -0.77443347081E+03  0.77687786114E+03  0.00000000000E+00 0. -1.
          1    1    1    2  503    0  0.19741407604E+02 -0.26029209370E+03  0.46416143430E+04  0.46489488496E+04  0.00000000000E+00 0. -1.
<mgrwt>
<rscale>  0 0.12650826E+03</rscale>
<asrwt>0</asrwt>
<pdfrwt beam="1">  1        2 0.70042172E+00 0.25989804E+03</pdfrwt>
<pdfrwt beam="2">  1        2 0.21702298E+00 0.61579302E+02</pdfrwt>
<totfact> 0.40973536E-01</totfact>
</mgrwt>
</event>
<event>
13    1  0.1675423E-008  0.4784490E+02  0.7546771E-02  0.1525923E+00
          2   -1    0    0  502    0  0.00000000000E+00  0.00000000000E+00  0.15477805811E+04  0.15477805811E+04  0.00000000000E+00 0. -1.
          2   -1    0    0  503    0 -0.00000000000E+00 -0.00000000000E+00 -0.19768436502E+04  0.19768436502E+04  0.00000000000E+00 0. -1.
         24    2    1    2    0    0 -0.26097804614E+02 -0.12785258349E+01  0.39921969405E+03  0.40802635680E+03  0.80164915593E+02 0.  0.
         25    2    1    2    0    0  0.13197866794E+03 -0.61393022672E+01 -0.40642608299E+02  0.18637522135E+03  0.12501136628E+03 0.  0.
         24    2    1    2    0    0 -0.10005467450E+03 -0.35315477845E+02  0.24397826694E+03  0.27811718582E+03  0.81028719889E+02 0.  0.
        -11    1    3    3    0    0 -0.48600171566E+02 -0.22158121497E+02  0.23954780813E+03  0.24543046145E+03  0.00000000000E+00 0.  1.
         12    1    3    3    0    0  0.22502366952E+02  0.20879595663E+02  0.15967188591E+03  0.16259589535E+03  0.00000000000E+00 0. -1.
        -13    1    5    5    0    0 -0.88910930249E+02 -0.56782049932E+02  0.16795061767E+03  0.19833498100E+03  0.00000000000E+00 0.  1.
         14    1    5    5    0    0 -0.11143744247E+02  0.21466572087E+02  0.76027649265E+02  0.79782204819E+02  0.00000000000E+00 0. -1.
          5    1    4    4  501    0  0.15116081282E+03 -0.65737359564E+01 -0.55948616932E+02  0.16138507699E+03  0.47000000000E+01 0. -1.
         -5    1    4    4    0  501 -0.19182144881E+02  0.43443368919E+00  0.15306008633E+02  0.24990144360E+02  0.47000000000E+01 0. -1.
          1    1    1    2  502    0 -0.34099377852E+02  0.33663365449E+02  0.80941527964E+03  0.81083234066E+03  0.00000000000E+00 0. -1.
          1    1    1    2  503    0  0.28273189021E+02  0.90699404980E+01 -0.18410337014E+04  0.18412731266E+04  0.00000000000E+00 0. -1.
<mgrwt>
<rscale>  0 0.37691226E+02</rscale>
<asrwt>0</asrwt>
<pdfrwt beam="1">  1        2 0.22761479E+00 0.47844895E+02</pdfrwt>
<pdfrwt beam="2">  1        2 0.29071230E+00 0.29692373E+02</pdfrwt>
<totfact> 0.26997240E+01</totfact>
</mgrwt>
</event>
<event>
13    1  0.1675423E-008  0.7844669E+02  0.7546771E-02  0.1505206E+00
          2   -1    0    0  503    0  0.00000000000E+00  0.00000000000E+00  0.17954435277E+04  0.17954435277E+04  0.00000000000E+00 0. -1.
          2   -1    0    0  502    0 -0.00000000000E+00 -0.00000000000E+00 -0.15303323896E+04  0.15303323896E+04  0.00000000000E+00 0. -1.
         24    2    1    2    0    0  0.15683273615E+03  0.13456804752E+02  0.12087806827E+03  0.21348549304E+03  0.78657203282E+02 0.  0.
         25    2    1    2    0    0 -0.21925841409E+03 -0.83460909208E+02 -0.22758710806E+03  0.34994362780E+03  0.12499870146E+03 0.  0.
         24    2    1    2    0    0  0.41316354082E+01  0.34719733925E+02 -0.41086586415E+02  0.96413625095E+02  0.79905877042E+02 0.  0.
        -11    1    3    3    0    0  0.11284022312E+03  0.44737602001E+02  0.91662736322E+02  0.15210662779E+03  0.00000000000E+00 0.  1.
         12    1    3    3    0    0  0.43992513035E+02 -0.31280797248E+02  0.29215331948E+02  0.61378865258E+02  0.00000000000E+00 0. -1.
        -13    1    5    5    0    0 -0.11420565941E+02 -0.11724824039E+02 -0.44401579919E+02  0.47322311065E+02  0.00000000000E+00 0.  1.
         14    1    5    5    0    0  0.15552201349E+02  0.46444557964E+02  0.33149935047E+01  0.49091314031E+02  0.00000000000E+00 0. -1.
          5    1    4    4  501    0 -0.14765091595E+03 -0.39241734382E+02 -0.21636454530E+03  0.26490831086E+03  0.47000000000E+01 0.  1.
         -5    1    4    4    0  501 -0.71607498145E+02 -0.44219174826E+02 -0.11222562760E+02  0.85035316944E+02  0.47000000000E+01 0.  1.
          1    1    1    2  502    0  0.31717696418E+01 -0.20574652673E+02 -0.11254167141E+04  0.11256092381E+04  0.00000000000E+00 0. -1.
          1    1    1    2  503    0  0.55122272889E+02  0.55859023204E+02  0.15383234784E+04  0.15403239334E+04  0.00000000000E+00 0. -1.
<mgrwt>
<rscale>  0 0.40411376E+02</rscale>
<asrwt>0</asrwt>
<pdfrwt beam="1">  1        2 0.26403581E+00 0.78446687E+02</pdfrwt>
<pdfrwt beam="2">  1        2 0.22504888E+00 0.20817696E+02</pdfrwt>
<totfact> 0.32420584E+01</totfact>
</mgrwt>
</event>
<event>
13    1  0.1675423E-008  0.1133327E+03  0.7546771E-02  0.1254829E+00
         -3   -1    0    0    0  501 -0.00000000000E+00  0.00000000000E+00  0.45883675202E+03  0.45883675202E+03  0.00000000000E+00 0.  1.
          2   -1    0    0  503    0  0.00000000000E+00 -0.00000000000E+00 -0.17419916984E+04  0.17419916984E+04  0.00000000000E+00 0. -1.
         24    2    1    2    0    0 -0.43393913722E+02  0.12148893583E+03 -0.62206901046E+02  0.16394898299E+03  0.79793340642E+02 0.  0.
         25    2    1    2    0    0  0.34558845272E+02  0.28380254677E+02  0.66041793820E+02  0.14829069145E+03  0.12501543104E+03 0.  0.
         24    2    1    2    0    0 -0.42522816413E+01  0.16225571796E+02 -0.86818479364E+02  0.11945018939E+03  0.80309079861E+02 0.  0.
        -11    1    3    3    0    0 -0.63409738591E+02  0.10962993293E+03 -0.42899114037E+02  0.13371556053E+03  0.00000000000E+00 0.  1.
         12    1    3    3    0    0  0.20015824869E+02  0.11859002900E+02 -0.19307787009E+02  0.30233422468E+02  0.00000000000E+00 0. -1.
        -13    1    5    5    0    0  0.33542520971E+02 -0.77566422706E+01 -0.53620206236E+02  0.63721210984E+02  0.00000000000E+00 0.  1.
         14    1    5    5    0    0 -0.37794802612E+02  0.23982214067E+02 -0.33198273128E+02  0.55728978411E+02  0.00000000000E+00 0. -1.
          5    1    4    4  502    0 -0.20953249385E+02  0.25354585530E+02  0.83469332996E+02  0.89839374542E+02  0.47000000000E+01 0.  1.
         -5    1    4    4    0  502  0.55512094657E+02  0.30256691476E+01 -0.17427539176E+02  0.58451316912E+02  0.47000000000E+01 0.  1.
          1    1    1    2  503    0 -0.99619157714E+02 -0.15763289706E+03 -0.14672904585E+04  0.14790920852E+04  0.00000000000E+00 0. -1.
         -4    1    1    2    0  501  0.11270650780E+03 -0.84618652443E+01  0.26711909873E+03  0.29004650139E+03  0.00000000000E+00 0.  1.
<mgrwt>
<rscale>  0 0.11315900E+03</rscale>
<asrwt>0</asrwt>
<pdfrwt beam="2">  1        2 0.25617525E+00 0.11333265E+03</pdfrwt>
<pdfrwt beam="1">  1       -3 0.67475993E-01 0.11298561E+03</pdfrwt>
<totfact> 0.15759651E+01</totfact>
</mgrwt>
</event>
<event>
13    1  0.1675423E-008  0.1214043E+03  0.7546771E-02  0.1335487E+00
          2   -1    0    0  503    0  0.00000000000E+00  0.00000000000E+00  0.15840942726E+04  0.15840942726E+04  0.00000000000E+00 0. -1.
         -1   -1    0    0    0  501 -0.00000000000E+00 -0.00000000000E+00 -0.88168671187E+03  0.88168671187E+03  0.00000000000E+00 0.  1.
         24    2    1    2    0    0 -0.50529724329E+02 -0.77856018273E+02  0.15858774604E+03  0.20019155636E+03  0.79446670317E+02 0.  0.
         25    2    1    2    0    0 -0.12402256333E+02  0.32491634684E+02 -0.40611776303E+03  0.42633989919E+03  0.12499819962E+03 0.  0.
         24    2    1    2    0    0 -0.28869582442E+02  0.78325664430E+02 -0.14724600825E+03  0.18767651087E+03  0.81072333690E+02 0.  0.
        -11    1    5    5    0    0  0.22182059930E+02  0.49253306404E+02 -0.93860480363E+02  0.10829460628E+03  0.00000000000E+00 0.  1.
         12    1    5    5    0    0 -0.51051642371E+02  0.29072358026E+02 -0.53385527885E+02  0.79381904598E+02  0.00000000000E+00 0. -1.
        -11    1    3    3    0    0  0.15304402140E+01  0.13962944262E+02  0.34708658578E+02  0.37443250927E+02  0.00000000000E+00 0.  1.
         12    1    3    3    0    0 -0.52060164543E+02 -0.91818962534E+02  0.12387908746E+03  0.16274830544E+03  0.00000000000E+00 0. -1.
          5    1    4    4  502    0  0.38293861105E+02 -0.29796661447E+01 -0.42547627438E+02  0.57512510024E+02  0.47000000000E+01 0. -1.
         -5    1    4    4    0  502 -0.50696117438E+02  0.35471300829E+02 -0.36357013559E+03  0.36882738916E+03  0.47000000000E+01 0. -1.
          1    1    1    2  503    0  0.13781626990E+03 -0.13852484709E+02  0.13686151920E+04  0.13756063243E+04  0.00000000000E+00 0. -1.
         -2    1    1    2    0  501 -0.46014706794E+02 -0.19108796132E+02 -0.27143160602E+03  0.27596669379E+03  0.00000000000E+00 0.  1.
<mgrwt>
<rscale>  0 0.77774863E+02</rscale>
<asrwt>0</asrwt>
<pdfrwt beam="1">  1        2 0.23295504E+00 0.12140426E+03</pdfrwt>
<pdfrwt beam="2">  1       -1 0.12965981E+00 0.49824686E+02</pdfrwt>
<totfact> 0.99863081E+00</totfact>
</mgrwt>
</event>
<event>
13    1  0.1675423E-008  0.1757779E+03  0.7546771E-02  0.1224979E+00
          2   -1    0    0  503    0  0.00000000000E+00  0.00000000000E+00  0.55394034857E+03  0.55394034857E+03  0.00000000000E+00 0. -1.
          2   -1    0    0  502    0 -0.00000000000E+00 -0.00000000000E+00 -0.12513978084E+04  0.12513978084E+04  0.00000000000E+00 0. -1.
         24    2    1    2    0    0  0.15935435690E+03  0.12666440960E+03  0.26502788200E+02  0.22064856775E+03  0.80905555711E+02 0.  0.
         25    2    1    2    0    0  0.11944421966E+03 -0.10707866882E+03 -0.14727850333E+02  0.20389735726E+03  0.12499783916E+03 0.  0.
         24    2    1    2    0    0 -0.90665617923E+02 -0.96758826305E+01 -0.14114603129E+03  0.18666910015E+03  0.81297440445E+02 0.  0.
        -11    1    3    3    0    0  0.12360880567E+03  0.63599320050E+02  0.44494651108E+02  0.14595815950E+03  0.00000000000E+00 0.  1.
         12    1    3    3    0    0  0.35745551237E+02  0.63065089547E+02 -0.17991862908E+02  0.74690408244E+02  0.00000000000E+00 0. -1.
        -13    1    5    5    0    0 -0.87334532485E+01  0.29915236023E+02 -0.36018339237E+02  0.47628933574E+02  0.00000000000E+00 0.  1.
         14    1    5    5    0    0 -0.81932164674E+02 -0.39591118654E+02 -0.10512769205E+03  0.13904016657E+03  0.00000000000E+00 0. -1.
          5    1    4    4  501    0  0.11499806067E+03 -0.40717023657E+02  0.27275365274E+02  0.12509382688E+03  0.47000000000E+01 0. -1.
         -5    1    4    4    0  501  0.44461589931E+01 -0.66361645162E+02 -0.42003215607E+02  0.78803530376E+02  0.47000000000E+01 0. -1.
          1    1    1    2  502    0 -0.17290267645E+03 -0.10737682024E+03 -0.86116355846E+03  0.88488857574E+03  0.00000000000E+00 0. -1.
          1    1    1    2  503    0 -0.15230282194E+02  0.97466962091E+02  0.29307719204E+03  0.30923455610E+03  0.00000000000E+00 0. -1.
<mgrwt>
<rscale>  0 0.13168312E+03</rscale>
<asrwt>0</asrwt>
<pdfrwt beam="1">  1        2 0.81461816E-01 0.98649735E+02</pdfrwt>
<pdfrwt beam="2">  1        2 0.18402909E+00 0.17577792E+03</pdfrwt>
<totfact> 0.19086718E+02</totfact>
</mgrwt>
</event>
<event>
13    1  0.1675423E-008  0.9959689E+02  0.7546771E-02  0.1444715E+00
          2   -1    0    0  502    0  0.00000000000E+00  0.00000000000E+00  0.18292404700E+04  0.18292404700E+04  0.00000000000E+00 0. -1.
          2   -1    0    0  503    0 -0.00000000000E+00 -0.00000000000E+00 -0.97653480011E+03  0.97653480011E+03  0.00000000000E+00 0. -1.
         24    2    1    2    0    0 -0.68491134997E+01 -0.16742340741E+02  0.90131111640E+02  0.12219326561E+03  0.80500686621E+02 0.  0.
         25    2    1    2    0    0  0.12234107022E+03 -0.57684403533E+02 -0.11558110779E+03  0.21743801082E+03  0.12500187279E+03 0.  0.
         24    2    1    2    0    0 -0.42779877713E+02  0.82522408007E+01 -0.31741736972E+03  0.33058582225E+03  0.81455397943E+02 0.  0.
        -11    1    3    3    0    0  0.18829314182E+02 -0.22339676282E+02  0.96262965681E+00  0.29232359891E+02  0.00000000000E+00 0.  1.
         12    1    3    3    0    0 -0.25678427682E+02  0.55973355409E+01  0.89168481983E+02  0.92960905721E+02  0.00000000000E+00 0. -1.
        -13    1    5    5    0    0 -0.41789796784E+02 -0.28252743061E+02 -0.12611912977E+03  0.13583313108E+03  0.00000000000E+00 0.  1.
         14    1    5    5    0    0 -0.99008092842E+00  0.36504983862E+02 -0.19129823995E+03  0.19475269116E+03  0.00000000000E+00 0. -1.
          5    1    4    4  501    0  0.12872895241E+03 -0.15360275948E+02 -0.50096426607E+02  0.13906409754E+03  0.47000000000E+01 0. -1.
         -5    1    4    4    0  501 -0.63878821884E+01 -0.42324127585E+02 -0.65484681178E+02  0.78373913286E+02  0.47000000000E+01 0. -1.
          1    1    1    2  502    0 -0.96116205932E+02  0.75566284627E+02  0.16629814707E+04  0.16674699278E+04  0.00000000000E+00 0. -1.
          1    1    1    2  503    0  0.23404126924E+02 -0.93917811532E+01 -0.46740843495E+03  0.46808824357E+03  0.00000000000E+00 0. -1.
<mgrwt>
<rscale>  0 0.50116428E+02</rscale>
<asrwt>0</asrwt>
<pdfrwt beam="1">  1        2 0.26900595E+00 0.99596886E+02</pdfrwt>
<pdfrwt beam="2">  1        2 0.14360806E+00 0.25218222E+02</pdfrwt>
<totfact> 0.55851913E+01</totfact>
</mgrwt>
</event>
<event>
13    1  0.1675423E-008  0.2659051E+03  0.7546771E-02  0.1202953E+00
          2   -1    0    0  502    0  0.00000000000E+00  0.00000000000E+00  0.75678141446E+03  0.75678141446E+03  0.00000000000E+00 0. -1.
          2   -1    0    0  503    0 -0.00000000000E+00 -0.00000000000E+00 -0.36135542417E+04  0.36135542417E+04  0.00000000000E+00 0. -1.
         24    2    1    2    0    0  0.75624315514E+00  0.22931248695E+02  0.15194239309E+03  0.17368572840E+03  0.80955712336E+02 0.  0.
         25    2    1    2    0    0 -0.25273395553E+03  0.23984949393E+03  0.16086699966E+03  0.40361538749E+03  0.12499982968E+03 0.  0.
         24    2    1    2    0    0  0.37442764978E+03  0.37529101679E+02 -0.11049805175E+04  0.11699376472E+04  0.78534425970E+02 0.  0.
        -11    1    3    3    0    0 -0.25396721939E+02  0.96965271998E+01  0.10345406722E+02  0.29086828037E+02  0.00000000000E+00 0.  1.
         12    1    3    3    0    0  0.26152965094E+02  0.13234721495E+02  0.14159698637E+03  0.14459890036E+03  0.00000000000E+00 0. -1.
        -13    1    5    5    0    0  0.12237855813E+03 -0.22839803769E+02 -0.39331242134E+03  0.41254433568E+03  0.00000000000E+00 0.  1.
         14    1    5    5    0    0  0.25204909165E+03  0.60368905448E+02 -0.71166809614E+03  0.75739331157E+03  0.00000000000E+00 0. -1.
          5    1    4    4  501    0 -0.97497023796E+02  0.18725682419E+02  0.33472916737E+02  0.10487538789E+03  0.47000000000E+01 0.  1.
         -5    1    4    4    0  501 -0.15523693173E+03  0.22112381152E+03  0.12739408292E+03  0.29873999959E+03  0.47000000000E+01 0.  1.
          1    1    1    2  502    0  0.31651653656E+02 -0.84513136682E+02  0.26423035321E+03  0.27921672050E+03  0.00000000000E+00 0. -1.
          1    1    1    2  503    0 -0.15410159106E+03 -0.21579670763E+03 -0.23288320558E+04  0.23438801726E+04  0.00000000000E+00 0. -1.
<mgrwt>
<rscale>  0 0.14799953E+03</rscale>
<asrwt>0</asrwt>
<pdfrwt beam="1">  1        2 0.11129138E+00 0.82374727E+02</pdfrwt>
<pdfrwt beam="2">  1        2 0.53140503E+00 0.26590510E+03</pdfrwt>
<totfact> 0.71462723E+00</totfact>
</mgrwt>
</event>
<event>
13    1  0.1675423E-008  0.7685859E+02  0.7546771E-02  0.1339281E+00
          4   -1    0    0  503    0 -0.00000000000E+00  0.00000000000E+00  0.97598368213E+03  0.97598368213E+03  0.00000000000E+00 0. -1.
          2   -1    0    0  502    0  0.00000000000E+00 -0.00000000000E+00 -0.20747375613E+04  0.20747375613E+04  0.00000000000E+00 0. -1.
         24    2    1    2    0    0  0.15749295487E+03  0.69396837301E+02 -0.10869953146E+04  0.11038736493E+04  0.85780345550E+02 0.  0.
         25    2    1    2    0    0 -0.20284054928E+03 -0.35074643242E+02  0.11030047325E+03  0.26488799729E+03  0.12499975071E+03 0.  0.
         24    2    1    2    0    0  0.32528484329E+02 -0.48331985369E+02 -0.55308194815E+02  0.11215852547E+03  0.78271676359E+02 0.  0.
        -11    1    3    3    0    0 -0.58258043021E+01 -0.10659680214E+01 -0.15167640147E+03  0.15179198611E+03  0.00000000000E+00 0.  1.
         12    1    3    3    0    0  0.16331875917E+03  0.70462805322E+02 -0.93531891316E+03  0.95208166317E+03  0.00000000000E+00 0. -1.
        -13    1    5    5    0    0  0.54685479058E+02 -0.16505176683E+02 -0.22612536325E+02  0.61434919029E+02  0.00000000000E+00 0.  1.
         14    1    5    5    0    0 -0.22156994729E+02 -0.31826808686E+02 -0.32695658490E+02  0.50723606443E+02  0.00000000000E+00 0. -1.
          5    1    4    4  501    0 -0.20090367947E+03 -0.30413151283E+02  0.13184576711E+03  0.24226564862E+03  0.47000000000E+01 0.  1.
         -5    1    4    4    0  501 -0.19368698088E+01 -0.46614919587E+01 -0.21545293860E+02  0.22622348672E+02  0.47000000000E+01 0.  1.
          1    1    1    2  502    0 -0.46106902888E+02  0.62240505379E+02 -0.81450494567E+03  0.81817970735E+03  0.00000000000E+00 0. -1.
          3    1    1    2  503    0  0.58926012966E+02 -0.48230714069E+02  0.74775410270E+03  0.75162136404E+03  0.00000000000E+00 0. -1.
<mgrwt>
<rscale>  0 0.76502335E+02</rscale>
<asrwt>0</asrwt>
<pdfrwt beam="2">  1        2 0.30510846E+00 0.76858592E+02</pdfrwt>
<pdfrwt beam="1">  1        4 0.14352701E+00 0.76147730E+02</pdfrwt>
<totfact> 0.16010697E+00</totfact>
</mgrwt>
</event>
<event>
13    1  0.1675423E-008  0.8906205E+02  0.7546771E-02  0.1334455E+00
          2   -1    0    0  503    0  0.00000000000E+00  0.00000000000E+00  0.85200013297E+03  0.85200013297E+03  0.00000000000E+00 0. -1.
          2   -1    0    0  502    0 -0.00000000000E+00 -0.00000000000E+00 -0.23981294479E+04  0.23981294479E+04  0.00000000000E+00 0. -1.
         24    2    1    2    0    0  0.93345085383E+02  0.63992618809E+01  0.35399428194E+03  0.37517898672E+03  0.81811153981E+02 0.  0.
         25    2    1    2    0    0  0.24660280164E+02  0.87083935192E+02 -0.94770104871E+03  0.96018398734E+03  0.12499708249E+03 0.  0.
         24    2    1    2    0    0 -0.20666491571E+02 -0.13421030957E+01  0.87512316298E+02  0.12120794446E+03  0.81265338138E+02 0.  0.
        -11    1    3    3    0    0  0.46508610361E+02  0.42625191877E+02  0.21583843506E+03  0.22486926840E+03  0.00000000000E+00 0.  1.
         12    1    3    3    0    0  0.46836475021E+02 -0.36225929996E+02  0.13815584687E+03  0.15030971832E+03  0.00000000000E+00 0. -1.
        -13    1    5    5    0    0 -0.29395590615E+02 -0.36430720232E+02  0.58006165466E+02  0.74538670207E+02  0.00000000000E+00 0.  1.
         14    1    5    5    0    0  0.87290990436E+01  0.35088617137E+02  0.29506150832E+02  0.46669274256E+02  0.00000000000E+00 0. -1.
          5    1    4    4  501    0  0.48486892738E+02  0.10825841275E+03 -0.65071061175E+03  0.66145086964E+03  0.47000000000E+01 0. -1.
         -5    1    4    4    0  501 -0.23826612574E+02 -0.21174477562E+02 -0.29699043697E+03  0.29873311771E+03  0.47000000000E+01 0. -1.
          1    1    1    2  502    0 -0.68076192682E+02 -0.78986846564E+01 -0.14106266268E+04  0.14122904225E+04  0.00000000000E+00 0. -1.
          1    1    1    2  503    0 -0.29262681293E+02 -0.84242409320E+02  0.37069176235E+03  0.38126823985E+03  0.00000000000E+00 0. -1.
<mgrwt>
<rscale>  0 0.78126052E+02</rscale>
<asrwt>0</asrwt>
<pdfrwt beam="1">  1        2 0.12529414E+00 0.89062054E+02</pdfrwt>
<pdfrwt beam="2">  1        2 0.35266609E+00 0.68532892E+02</pdfrwt>
<totfact> 0.34723527E+01</totfact>
</mgrwt>
</event>
<event>
13    1  0.1675423E-008  0.1648877E+03  0.7546771E-02  0.1193044E+00
          2   -1    0    0  503    0  0.00000000000E+00  0.00000000000E+00  0.23263137411E+04  0.23263137411E+04  0.00000000000E+00 0. -1.
          2   -1    0    0  502    0 -0.00000000000E+00 -0.00000000000E+00 -0.26799742094E+04  0.26799742094E+04  0.00000000000E+00 0. -1.
         24    2    1    2    0    0 -0.14218879616E+03  0.18283070757E+03  0.72783897615E+03  0.76827821677E+03  0.82807739869E+02 0.  0.
         25    2    1    2    0    0 -0.82778784344E+01 -0.33099940353E+03  0.11687767344E+03  0.37271280327E+03  0.12500125904E+03 0.  0.
         24    2    1    2    0    0  0.19770154870E+02  0.43023592049E+01  0.24365375828E+02  0.85348684071E+02  0.79255012555E+02 0.  0.
        -13    1    3    3    0    0 -0.10002694228E+02  0.62614038493E+02  0.25616237212E+03  0.26389341143E+03  0.00000000000E+00 0.  1.
         14    1    3    3    0    0 -0.13218610194E+03  0.12021666908E+03  0.47167660403E+03  0.50438480534E+03  0.00000000000E+00 0. -1.
        -13    1    5    5    0    0  0.25255665185E+02 -0.33454233250E+02  0.21444678012E+02  0.47084058463E+02  0.00000000000E+00 0.  1.
         14    1    5    5    0    0 -0.54855103157E+01  0.37756592455E+02  0.29206978154E+01  0.38264625608E+02  0.00000000000E+00 0. -1.
          5    1    4    4  501    0 -0.17077320583E+02 -0.49711159482E+01  0.29947657218E+02  0.35146821263E+02  0.47000000000E+01 0. -1.
         -5    1    4    4    0  501  0.87994421488E+01 -0.32602828758E+03  0.86930016222E+02  0.33756598200E+03  0.47000000000E+01 0. -1.
          1    1    1    2  502    0 -0.76428824178E+02 -0.12674067188E+03 -0.24763904570E+04  0.24808091943E+04  0.00000000000E+00 0. -1.
          1    1    1    2  503    0  0.20712534391E+03  0.27060700863E+03  0.12536479632E+04  0.12991390521E+04  0.00000000000E+00 0. -1.
<mgrwt>
<rscale>  0 0.15620968E+03</rscale>
<asrwt>0</asrwt>
<pdfrwt beam="1">  1        2 0.34210496E+00 0.16488770E+03</pdfrwt>
<pdfrwt beam="2">  1        2 0.39411385E+00 0.14798839E+03</pdfrwt>
<totfact> 0.37647630E+00</totfact>
</mgrwt>
</event>
<event>
13    1  0.1675423E-008  0.4295287E+02  0.7546771E-02  0.1540543E+00
          2   -1    0    0  503    0  0.00000000000E+00  0.00000000000E+00  0.28839872819E+04  0.28839872819E+04  0.00000000000E+00 0. -1.
          2   -1    0    0  502    0 -0.00000000000E+00 -0.00000000000E+00 -0.94025802215E+03  0.94025802215E+03  0.00000000000E+00 0. -1.
         24    2    1    2    0    0 -0.44889808510E+03 -0.21065469010E+03  0.18555628934E+04  0.19224648084E+04  0.82899932699E+02 0.  0.
         25    2    1    2    0    0  0.43936876301E+03  0.38606534690E+03  0.58579718751E+03  0.83718200337E+03  0.12499599946E+03 0.  0.
         24    2    1    2    0    0  0.22639691254E+02 -0.11359143967E+03  0.14631076787E+03  0.20201525391E+03  0.77380561075E+02 0.  0.
        -11    1    5    5    0    0  0.48672875371E+02 -0.84610476640E+02  0.85314465038E+02  0.12964003818E+03  0.00000000000E+00 0.  1.
         12    1    5    5    0    0 -0.26033184117E+02 -0.28980963028E+02  0.60996302832E+02  0.72375215733E+02  0.00000000000E+00 0. -1.
        -13    1    3    3    0    0 -0.29259908645E+03 -0.10395651180E+03  0.12517783001E+04  0.12897170598E+04  0.00000000000E+00 0.  1.
         14    1    3    3    0    0 -0.15629899866E+03 -0.10669817830E+03  0.60378459332E+03  0.63274774860E+03  0.00000000000E+00 0. -1.
          5    1    4    4  501    0  0.22872902271E+03  0.24136951784E+03  0.25461392742E+03  0.41883953015E+03  0.47000000000E+01 0. -1.
         -5    1    4    4    0  501  0.21063974030E+03  0.14469582906E+03  0.33118326009E+03  0.41834247322E+03  0.47000000000E+01 0. -1.
          1    1    1    2  502    0 -0.22252924730E+02 -0.20187870891E+02 -0.74879501356E+03  0.74939756814E+03  0.00000000000E+00 0. -1.
          1    1    1    2  503    0  0.91425555675E+01 -0.41631346241E+02  0.10485342456E+03  0.11318567027E+03  0.00000000000E+00 0. -1.
<mgrwt>
<rscale>  0 0.35924201E+02</rscale>
<asrwt>0</asrwt>
<pdfrwt beam="1">  1        2 0.42411578E+00 0.42952872E+02</pdfrwt>
<pdfrwt beam="2">  1        2 0.13827324E+00 0.30045678E+02</pdfrwt>
<totfact> 0.19917359E+01</totfact>
</mgrwt>
</event>
<event>
13    1  0.1675423E-008  0.1176074E+03  0.7546771E-02  0.1284514E+00
          2   -1    0    0  503    0  0.00000000000E+00  0.00000000000E+00  0.21645303770E+04  0.21645303770E+04  0.00000000000E+00 0. -1.
          2   -1    0    0  502    0 -0.00000000000E+00 -0.00000000000E+00 -0.65455367219E+03  0.65455367219E+03  0.00000000000E+00 0. -1.
         24    2    1    2    0    0 -0.12613024529E+03 -0.20438979336E+02  0.52371975435E+02  0.16096704103E+03  0.82710179745E+02 0.  0.
         25    2    1    2    0    0  0.29045401231E+03 -0.44908123788E+01  0.15532781381E+03  0.35232685369E+03  0.12499512560E+03 0.  0.
         24    2    1    2    0    0 -0.11804768479E+03 -0.75046191088E+02 -0.32602140226E+03  0.36384537069E+03  0.80785595010E+02 0.  0.
        -13    1    5    5    0    0 -0.63770367850E+02  0.22226191886E+01 -0.16865710566E+03  0.18032420565E+03  0.00000000000E+00 0.  1.
         14    1    5    5    0    0 -0.54277316938E+02 -0.77268810276E+02 -0.15736429660E+03  0.18352116504E+03  0.00000000000E+00 0. -1.
        -13    1    3    3    0    0 -0.65502030130E+02  0.15585389418E+02  0.59801421597E+02  0.90053485993E+02  0.00000000000E+00 0.  1.
         14    1    3    3    0    0 -0.60628215155E+02 -0.36024368754E+02 -0.74294461622E+01  0.70913555032E+02  0.00000000000E+00 0. -1.
          5    1    4    4  501    0  0.63074344201E+02  0.42630684314E+02  0.66661687849E+01  0.76565501028E+02  0.47000000000E+01 0. -1.
         -5    1    4    4    0  501  0.22737966811E+03 -0.47121496692E+02  0.14866164502E+03  0.27576135266E+03  0.47000000000E+01 0. -1.
          1    1    1    2  502    0 -0.80715123298E+02 -0.12621473308E+02 -0.14409586472E+03  0.16564374708E+03  0.00000000000E+00 0. -1.
          1    1    1    2  503    0  0.34439041063E+02  0.11259745611E+03  0.17723941825E+04  0.17763010367E+04  0.00000000000E+00 0. -1.
<mgrwt>
<rscale>  0 0.98020652E+02</rscale>
<asrwt>0</asrwt>
<pdfrwt beam="1">  1        2 0.31831329E+00 0.11760736E+03</pdfrwt>
<pdfrwt beam="2">  1        2 0.96257893E-01 0.81695977E+02</pdfrwt>
<totfact> 0.57718002E+01</totfact>
</mgrwt>
</event>
<event>
13    1  0.1675423E-008  0.1220200E+03  0.7546771E-02  0.1346050E+00
          2   -1    0    0  502    0  0.00000000000E+00  0.00000000000E+00  0.87213550158E+03  0.87213550158E+03  0.00000000000E+00 0. -1.
          4   -1    0    0  503    0 -0.00000000000E+00 -0.00000000000E+00 -0.85641789435E+03  0.85641789435E+03  0.00000000000E+00 0. -1.
         24    2    1    2    0    0 -0.37560431316E+02  0.16170247527E+03  0.30274476599E+03  0.35448344063E+03  0.80284742254E+02 0.  0.
         25    2    1    2    0    0  0.30109061225E+01 -0.67518706642E+01 -0.24314669099E+03  0.27350673685E+03  0.12502387152E+03 0.  0.
         24    2    1    2    0    0 -0.12828017649E+01 -0.87100567735E+02  0.44089156455E+03  0.45916401872E+03  0.94117319987E+02 0.  0.
        -11    1    3    3    0    0  0.83955364483E+01  0.69030772413E+02  0.18562975938E+03  0.19822749592E+03  0.00000000000E+00 0.  1.
         12    1    3    3    0    0 -0.45955967764E+02  0.92671702860E+02  0.11711500661E+03  0.15625594471E+03  0.00000000000E+00 0. -1.
        -13    1    5    5    0    0 -0.20723285039E+02 -0.41255479315E+02  0.36801195156E+03  0.37089656996E+03  0.00000000000E+00 0.  1.
         14    1    5    5    0    0  0.19440483274E+02 -0.45845088420E+02  0.72879612984E+02  0.88267448762E+02  0.00000000000E+00 0. -1.
          5    1    4    4  501    0  0.54504962690E+02  0.27206247699E+02 -0.14683039226E+03  0.15903529471E+03  0.47000000000E+01 0. -1.
         -5    1    4    4    0  501 -0.51494056568E+02 -0.33958118364E+02 -0.96316298725E+02  0.11447144214E+03  0.47000000000E+01 0. -1.
          1    1    1    2  502    0 -0.28190993398E+02  0.35387101787E+02  0.64538116068E+02  0.78817177742E+02  0.00000000000E+00 0. -1.
          3    1    1    2  503    0  0.64023320357E+02 -0.10323713866E+03 -0.54931014839E+03  0.56258202199E+03  0.00000000000E+00 0. -1.
<mgrwt>
<rscale>  0 0.74300877E+02</rscale>
<asrwt>0</asrwt>
<pdfrwt beam="1">  1        2 0.12825522E+00 0.45243553E+02</pdfrwt>
<pdfrwt beam="2">  1        4 0.12594381E+00 0.12202004E+03</pdfrwt>
<totfact> 0.92763626E+00</totfact>
</mgrwt>
</event>
<event>
13    1  0.1675423E-008  0.1293975E+03  0.7546771E-02  0.1283635E+00
          2   -1    0    0  502    0  0.00000000000E+00  0.00000000000E+00  0.35082145721E+04  0.35082145721E+04  0.00000000000E+00 0. -1.
          2   -1    0    0  503    0 -0.00000000000E+00 -0.00000000000E+00 -0.46575738405E+03  0.46575738405E+03  0.00000000000E+00 0. -1.
         24    2    1    2    0    0 -0.34809577825E+02  0.13345639901E+03  0.25237342282E+03  0.29878598777E+03  0.80983978629E+02 0.  0.
         25    2    1    2    0    0  0.93003798768E+01  0.34426561236E+02  0.64021767082E+02  0.14489963466E+03  0.12500172911E+03 0.  0.
         24    2    1    2    0    0 -0.90322148318E+01 -0.69908251483E+02  0.40136286872E+02  0.11140784992E+03  0.76367813699E+02 0.  0.
        -11    1    3    3    0    0 -0.10484487552E+02  0.12238917560E+03  0.23940874027E+03  0.26908284914E+03  0.00000000000E+00 0.  1.
         12    1    3    3    0    0 -0.24325090273E+02  0.11067223414E+02  0.12964682553E+02  0.29703138632E+02  0.00000000000E+00 0. -1.
        -13    1    5    5    0    0  0.23429265773E+02 -0.64392021406E+02  0.38137915679E+02  0.78420428000E+02  0.00000000000E+00 0.  1.
         14    1    5    5    0    0 -0.32461480605E+02 -0.55162300770E+01  0.19983711934E+01  0.32987421918E+02  0.00000000000E+00 0. -1.
          5    1    4    4  501    0 -0.28839862820E+02  0.31603968759E+01  0.85865599323E+02  0.90756360345E+02  0.47000000000E+01 0. -1.
         -5    1    4    4    0  501  0.38140242697E+02  0.31266164361E+02 -0.21843832240E+02  0.54143274317E+02  0.47000000000E+01 0. -1.
          1    1    1    2  502    0  0.10577542228E+03 -0.74920929330E+02  0.30471857438E+04  0.30499413999E+04  0.00000000000E+00 0. -1.
          1    1    1    2  503    0 -0.71234009498E+02 -0.23053779439E+02 -0.36126003247E+03  0.36893708395E+03  0.00000000000E+00 0. -1.
<mgrwt>
<rscale>  0 0.98428663E+02</rscale>
<asrwt>0</asrwt>
<pdfrwt beam="1">  1        2 0.51591389E+00 0.12939750E+03</pdfrwt>
<pdfrwt beam="2">  1        2 0.68493735E-01 0.74871629E+02</pdfrwt>
<totfact> 0.16024114E+01</totfact>
</mgrwt>
</event>
<event>
13    1  0.1675423E-008  0.1455963E+03  0.7546771E-02  0.1344891E+00
          2   -1    0    0  503    0  0.00000000000E+00  0.00000000000E+00  0.24892002224E+04  0.24892002224E+04  0.00000000000E+00 0. -1.
          2   -1    0    0  502    0 -0.00000000000E+00 -0.00000000000E+00 -0.84834879529E+03  0.84834879529E+03  0.00000000000E+00 0. -1.
         24    2    1    2    0    0  0.91057835719E+02 -0.54774969649E+02  0.75935432356E+03  0.77094287037E+03  0.80262655881E+02 0.  0.
         25    2    1    2    0    0  0.94120341257E+02  0.20715332921E+03 -0.34689011230E+03  0.43328221438E+03  0.12501834603E+03 0.  0.
         24    2    1    2    0    0 -0.28127950590E+01 -0.12786855799E+03 -0.44426124262E+02  0.15748412302E+03  0.80431887635E+02 0.  0.
        -13    1    3    3    0    0  0.42153289700E+02 -0.70196804545E+02  0.47135053878E+03  0.47840967967E+03  0.00000000000E+00 0.  1.
         14    1    3    3    0    0  0.48904546019E+02  0.15421834896E+02  0.28800378478E+03  0.29253319070E+03  0.00000000000E+00 0. -1.
        -13    1    5    5    0    0 -0.70393225406E+00 -0.13783596659E+02 -0.41073633695E+02  0.43330433212E+02  0.00000000000E+00 0.  1.
         14    1    5    5    0    0 -0.21088628049E+01 -0.11408496133E+03 -0.33524905670E+01  0.11415368981E+03  0.00000000000E+00 0. -1.
          5    1    4    4  501    0  0.10553645143E+03  0.10507011732E+03 -0.15151983988E+03  0.21250417410E+03  0.47000000000E+01 0.  1.
         -5    1    4    4    0  501 -0.11416110176E+02  0.10208321189E+03 -0.19537027243E+03  0.22077804028E+03  0.47000000000E+01 0.  1.
          1    1    1    2  502    0  0.15147051526E+02  0.35173973960E+02 -0.34389357038E+03  0.34601940605E+03  0.00000000000E+00 0. -1.
          1    1    1    2  503    0 -0.19751243344E+03 -0.59683775531E+02  0.16167069105E+04  0.16298204038E+04  0.00000000000E+00 0. -1.
<mgrwt>
<rscale>  0 0.74671713E+02</rscale>
<asrwt>0</asrwt>
<pdfrwt beam="1">  1        2 0.36605885E+00 0.14559626E+03</pdfrwt>
<pdfrwt beam="2">  1        2 0.12475718E+00 0.38296757E+02</pdfrwt>
<totfact> 0.29558063E+01</totfact>
</mgrwt>
</event>
<event>
13    1  0.1675423E-008  0.6344697E+02  0.7546771E-02  0.1458961E+00
          2   -1    0    0  503    0  0.00000000000E+00  0.00000000000E+00  0.20313090670E+04  0.20313090670E+04  0.00000000000E+00 0. -1.
         -1   -1    0    0    0  501 -0.00000000000E+00 -0.00000000000E+00 -0.13176355476E+04  0.13176355476E+04  0.00000000000E+00 0.  1.
         24    2    1    2    0    0  0.56910138071E+02 -0.12042672614E+03  0.90081124820E+03  0.91411232043E+03  0.79994182843E+02 0.  0.
         25    2    1    2    0    0  0.32730497700E+02  0.78699323501E+02 -0.85980867901E+03  0.87301752676E+03  0.12499507402E+03 0.  0.
         24    2    1    2    0    0 -0.13651475338E+02  0.33366076306E+02  0.71592389161E+02  0.11380980364E+03  0.80793213775E+02 0.  0.
        -13    1    5    5    0    0 -0.32186427517E+02  0.42198598556E+02  0.17389873574E+02  0.55848863366E+02  0.00000000000E+00 0.  1.
         14    1    5    5    0    0  0.18534952179E+02 -0.88325222496E+01  0.54202515587E+02  0.57960940275E+02  0.00000000000E+00 0. -1.
        -13    1    3    3    0    0  0.34890312447E+01 -0.62544705743E+02  0.59621179838E+03  0.59949355467E+03  0.00000000000E+00 0.  1.
         14    1    3    3    0    0  0.53421106827E+02 -0.57882020399E+02  0.30459944982E+03  0.31461876576E+03  0.00000000000E+00 0. -1.
          5    1    4    4  502    0  0.67652320336E+01  0.10623342407E+02 -0.66245742325E+03  0.66259380573E+03  0.47000000000E+01 0. -1.
         -5    1    4    4    0  502  0.25965265667E+02  0.68075981094E+02 -0.19735125576E+03  0.21042372103E+03  0.47000000000E+01 0. -1.
          1    1    1    2  503    0 -0.52685629155E+02  0.35343159391E+02  0.10228067656E+04  0.10247724597E+04  0.00000000000E+00 0. -1.
         -2    1    1    2    0  501 -0.23303531278E+02 -0.26981833056E+02 -0.42172820460E+03  0.42323250399E+03  0.00000000000E+00 0.  1.
<mgrwt>
<rscale>  0 0.47560689E+02</rscale>
<asrwt>0</asrwt>
<pdfrwt beam="1">  1        2 0.29872192E+00 0.63446970E+02</pdfrwt>
<pdfrwt beam="2">  1       -1 0.19376993E+00 0.35652123E+02</pdfrwt>
<totfact> 0.23453780E+00</totfact>
</mgrwt>
</event>
<event>
13    1  0.1675423E-008  0.1781822E+03  0.7546771E-02  0.1241801E+00
          2   -1    0    0  502    0  0.00000000000E+00  0.00000000000E+00  0.10405018942E+04  0.10405018942E+04  0.00000000000E+00 0. -1.
          2   -1    0    0  503    0 -0.00000000000E+00 -0.00000000000E+00 -0.24292823073E+04  0.24292823073E+04  0.00000000000E+00 0. -1.
         24    2    1    2    0    0  0.31526711793E+02 -0.18533335283E+03  0.39854552211E+03  0.44772093727E+03  0.79203025489E+02 0.  0.
         25    2    1    2    0    0 -0.12081435563E+03 -0.92779540830E+02 -0.11429627538E+04  0.11598250663E+04  0.12500470468E+03 0.  0.
         24    2    1    2    0    0 -0.14244835615E+02  0.25986055767E+03  0.74969455449E+01  0.27185023635E+03  0.78204360737E+02 0.  0.
        -11    1    3    3    0    0  0.56607145223E+02 -0.13970223163E+03  0.31625822530E+03  0.35034318530E+03  0.00000000000E+00 0.  1.
         12    1    3    3    0    0 -0.25080433429E+02 -0.45631121201E+02  0.82287296803E+02  0.97377751967E+02  0.00000000000E+00 0. -1.
        -13    1    5    5    0    0 -0.13370858090E+02  0.17304408415E+01 -0.14746789261E+01  0.13562778089E+02  0.00000000000E+00 0.  1.
         14    1    5    5    0    0 -0.87397752506E+00  0.25813011683E+03  0.89716244710E+01  0.25828745826E+03  0.00000000000E+00 0. -1.
          5    1    4    4  501    0 -0.45676008437E+02 -0.96929278123E+02 -0.44236985764E+03  0.45518651523E+03  0.47000000000E+01 0.  1.
         -5    1    4    4    0  501 -0.75138347190E+02  0.41497372925E+01 -0.70059289617E+03  0.70463855111E+03  0.47000000000E+01 0.  1.
          1    1    1    2  502    0  0.16289281760E+03  0.74653451906E+02  0.45058496935E+03  0.48490619970E+03  0.00000000000E+00 0. -1.
          1    1    1    2  503    0 -0.59360338147E+02 -0.56401115910E+02 -0.11024450962E+04  0.11054817619E+04  0.00000000000E+00 0. -1.
<mgrwt>
<rscale>  0 0.12078905E+03</rscale>
<asrwt>0</asrwt>
<pdfrwt beam="1">  1        2 0.15301499E+00 0.17818218E+03</pdfrwt>
<pdfrwt beam="2">  1        2 0.35724740E+00 0.81882450E+02</pdfrwt>
<totfact> 0.24496452E+01</totfact>
</mgrwt>
</event>
<event>
13    1  0.1675423E-008  0.9390065E+02  0.7546771E-02  0.1435179E+00
          2   -1    0    0  502    0  0.00000000000E+00  0.00000000000E+00  0.20563901120E+04  0.20563901120E+04  0.00000000000E+00 0. -1.
          2   -1    0    0  503    0 -0.00000000000E+00 -0.00000000000E+00 -0.52912311312E+03  0.52912311312E+03  0.00000000000E+00 0. -1.
         24    2    1    2    0    0  0.61666577804E+02 -0.15502808461E+03  0.13465346315E+04  0.13594495094E+04  0.84326631418E+02 0.  0.
         25    2    1    2    0    0  0.43533597222E+02  0.18123344604E+03 -0.99219154613E+02  0.24537732521E+03  0.12499942014E+03 0.  0.
         24    2    1    2    0    0 -0.95070115484E+02  0.68295363187E+02  0.12658992704E+03  0.19015963875E+03  0.80206577597E+02 0.  0.
        -11    1    5    5    0    0 -0.20310372330E+02 -0.89800258436E+01 -0.22831413869E+01  0.22324086161E+02  0.00000000000E+00 0.  1.
         12    1    5    5    0    0 -0.74759743154E+02  0.77275389031E+02  0.12887306843E+03  0.16783555259E+03  0.00000000000E+00 0. -1.
        -13    1    3    3    0    0 -0.16571495408E+02 -0.28362551969E+02  0.39201891576E+03  0.39339277971E+03  0.00000000000E+00 0.  1.
         14    1    3    3    0    0  0.78238073212E+02 -0.12666553265E+03  0.95451571578E+03  0.96605672966E+03  0.00000000000E+00 0. -1.
          5    1    4    4  501    0  0.21110697819E+02 -0.13900308827E+02 -0.23456039892E+02  0.34801665985E+02  0.47000000000E+01 0.  1.
         -5    1    4    4    0  501  0.22422899403E+02  0.19513375487E+03 -0.75763114721E+02  0.21057565923E+03  0.47000000000E+01 0.  1.
          1    1    1    2  502    0  0.27457052427E+02 -0.84356885572E+01  0.46456969264E+03  0.46545681850E+03  0.00000000000E+00 0. -1.
          1    1    1    2  503    0 -0.37587111969E+02 -0.86065036060E+02 -0.31120809774E+03  0.32506993327E+03  0.00000000000E+00 0. -1.
<mgrwt>
<rscale>  0 0.51934318E+02</rscale>
<asrwt>0</asrwt>
<pdfrwt beam="1">  1        2 0.30241031E+00 0.28723694E+02</pdfrwt>
<pdfrwt beam="2">  1        2 0.77812223E-01 0.93900647E+02</pdfrwt>
<totfact> 0.96507868E+01</totfact>
</mgrwt>
</event>
<event>
13    1  0.1675423E-008  0.1403910E+03  0.7546771E-02  0.1229473E+00
          2   -1    0    0  502    0  0.00000000000E+00  0.00000000000E+00  0.19146272575E+04  0.19146272575E+04  0.00000000000E+00 0. -1.
          2   -1    0    0  503    0 -0.00000000000E+00 -0.00000000000E+00 -0.74215970724E+03  0.74215970724E+03  0.00000000000E+00 0. -1.
         24    2    1    2    0    0  0.36320300354E+02  0.46727028101E+00  0.62271981785E+03  0.62894444312E+03  0.80447239992E+02 0.  0.
         25    2    1    2    0    0  0.23233592663E+03 -0.17018351837E+03 -0.15632647801E+02  0.31434302874E+03  0.12499898924E+03 0.  0.
         24    2    1    2    0    0 -0.10460381420E+02  0.67283411919E+02 -0.12654260469E+03  0.16542689144E+03  0.81954551511E+02 0.  0.
        -13    1    3    3    0    0  0.56297374429E+02  0.11912476488E+02  0.30428002238E+03  0.30967343038E+03  0.00000000000E+00 0.  1.
         14    1    3    3    0    0 -0.19977074075E+02 -0.11445206207E+02  0.31843979547E+03  0.31927101274E+03  0.00000000000E+00 0. -1.
        -13    1    5    5    0    0 -0.41496999100E+02  0.12282218948E+02 -0.55341465334E+02  0.70253338866E+02  0.00000000000E+00 0.  1.
         14    1    5    5    0    0  0.31036617680E+02  0.55001192971E+02 -0.71201139353E+02  0.95173552578E+02  0.00000000000E+00 0. -1.
          5    1    4    4  501    0  0.13827054357E+03 -0.72333591917E+02 -0.65994015818E+02  0.16949392869E+03  0.47000000000E+01 0. -1.
         -5    1    4    4    0  501  0.94065383065E+02 -0.97849926450E+02  0.50361368017E+02  0.14484910005E+03  0.47000000000E+01 0. -1.
          1    1    1    2  502    0 -0.18861435407E+03 -0.16596247109E+01  0.11026595542E+04  0.11186761021E+04  0.00000000000E+00 0. -1.
          1    1    1    2  503    0 -0.69581491492E+02  0.10409246088E+03 -0.41073656926E+03  0.42939649940E+03  0.00000000000E+00 0. -1.
<mgrwt>
<rscale>  0 0.12864976E+03</rscale>
<asrwt>0</asrwt>
<pdfrwt beam="1">  1        2 0.28156283E+00 0.11789048E+03</pdfrwt>
<pdfrwt beam="2">  1        2 0.10914113E+00 0.14039099E+03</pdfrwt>
<totfact> 0.65000037E+01</totfact>
</mgrwt>
</event>
<event>
13    1  0.1675423E-008  0.1240196E+03  0.7546771E-02  0.1302716E+00
          2   -1    0    0  503    0  0.00000000000E+00  0.00000000000E+00  0.67208373779E+03  0.67208373779E+03  0.00000000000E+00 0. -1.
          2   -1    0    0  502    0 -0.00000000000E+00 -0.00000000000E+00 -0.13107162160E+04  0.13107162160E+04  0.00000000000E+00 0. -1.
         24    2    1    2    0    0  0.63064578013E+02  0.36230015770E+01  0.72078441183E+02  0.12475571402E+03  0.79865007081E+02 0.  0.
         25    2    1    2    0    0 -0.26617094319E+03 -0.10631981524E+03 -0.24901215876E+03  0.39972772851E+03  0.12499731045E+03 0.  0.
         24    2    1    2    0    0  0.14702254309E+03  0.54835658179E+02 -0.15654609979E+03  0.23619072898E+03  0.81589224240E+02 0.  0.
        -11    1    5    5    0    0  0.46899065632E+02  0.45613913744E+02 -0.10367150114E+03  0.12258846452E+03  0.00000000000E+00 0.  1.
         12    1    5    5    0    0  0.10012347746E+03  0.92217444350E+01 -0.52874598651E+02  0.11360226446E+03  0.00000000000E+00 0. -1.
        -13    1    3    3    0    0  0.51693876014E+02 -0.34337161885E+02  0.47172219105E+02  0.77952009332E+02  0.00000000000E+00 0.  1.
         14    1    3    3    0    0  0.11370701999E+02  0.37960163462E+02  0.24906222078E+02  0.46803704685E+02  0.00000000000E+00 0. -1.
          5    1    4    4  501    0 -0.19667182314E+03 -0.22737921012E+02 -0.19624980925E+03  0.27880619918E+03  0.47000000000E+01 0. -1.
         -5    1    4    4    0  501 -0.69499120055E+02 -0.83581894228E+02 -0.52762349506E+02  0.12092152933E+03  0.47000000000E+01 0. -1.
          1    1    1    2  502    0  0.11956934664E+03  0.32180039742E+02 -0.75624652062E+03  0.76631663402E+03  0.00000000000E+00 0. -1.
          1    1    1    2  503    0 -0.63485524553E+02  0.15681115742E+02  0.45109385984E+03  0.45580914822E+03  0.00000000000E+00 0. -1.
<mgrwt>
<rscale>  0 0.90055951E+02</rscale>
<asrwt>0</asrwt>
<pdfrwt beam="1">  1        2 0.98835845E-01 0.65393495E+02</pdfrwt>
<pdfrwt beam="2">  1        2 0.19275238E+00 0.12401959E+03</pdfrwt>
<totfact> 0.14783105E+02</totfact>
</mgrwt>
</event>
<event>
13    1  0.1675423E-008  0.2718271E+02  0.7546771E-02  0.1675787E+00
          2   -1    0    0  503    0  0.00000000000E+00  0.00000000000E+00  0.21472372205E+03  0.21472372205E+03  0.00000000000E+00 0. -1.
          2   -1    0    0  502    0 -0.00000000000E+00 -0.00000000000E+00 -0.69095627628E+03  0.69095627628E+03  0.00000000000E+00 0. -1.
         24    2    1    2    0    0  0.38514996487E+02  0.65015079123E+01  0.60865610531E+01  0.88888422401E+02  0.79614262868E+02 0.  0.
         25    2    1    2    0    0 -0.71403284225E+02 -0.36215231616E+02 -0.20794937354E+03  0.25549426527E+03  0.12499762251E+03 0.  0.
         24    2    1    2    0    0  0.26388237308E+02  0.41991170463E+01 -0.10008982479E+03  0.13591568049E+03  0.87983677602E+02 0.  0.
        -11    1    5    5    0    0 -0.90392975720E+01  0.27501013877E+02 -0.86766062190E+02  0.91467831574E+02  0.00000000000E+00 0.  1.
         12    1    5    5    0    0  0.35427534880E+02 -0.23301896831E+02 -0.13323762603E+02  0.44447848919E+02  0.00000000000E+00 0. -1.
        -13    1    3    3    0    0  0.63466706222E+02  0.54156409484E+01  0.48786251449E+01  0.63883902111E+02  0.00000000000E+00 0.  1.
         14    1    3    3    0    0 -0.24951709735E+02  0.10858669639E+01  0.12079359082E+01  0.25004520290E+02  0.00000000000E+00 0. -1.
          5    1    4    4  501    0  0.16871461708E+02  0.30887639718E+02 -0.69568203029E+02  0.78105808875E+02  0.47000000000E+01 0. -1.
         -5    1    4    4    0  501 -0.88274745933E+02 -0.67102871334E+02 -0.13838117051E+03  0.17738845640E+03  0.47000000000E+01 0. -1.
          1    1    1    2  502    0  0.23795410370E+02  0.13270287968E+02 -0.29831135354E+03  0.29955297653E+03  0.00000000000E+00 0. -1.
          1    1    1    2  503    0 -0.17295359940E+02  0.12244318690E+02  0.12403143659E+03  0.12582865364E+03  0.00000000000E+00 0. -1.
<mgrwt>
<rscale>  0 0.24000524E+02</rscale>
<asrwt>0</asrwt>
<pdfrwt beam="1">  1        2 0.31577018E-01 0.21190866E+02</pdfrwt>
<pdfrwt beam="2">  1        2 0.10161122E+00 0.27182708E+02</pdfrwt>
<totfact> 0.11528619E+03</totfact>
</mgrwt>
</event>
<event>
13    1  0.1675423E-008  0.1922377E+03  0.7546771E-02  0.1313578E+00
          4   -1    0    0  503    0 -0.00000000000E+00  0.00000000000E+00  0.80309621627E+03  0.80309621627E+03  0.00000000000E+00 0. -1.
          2   -1    0    0  502    0  0.00000000000E+00 -0.00000000000E+00 -0.10557392708E+04  0.10557392708E+04  0.00000000000E+00 0. -1.
         24    2    1    2    0    0 -0.10755522869E+03 -0.52573809106E+02 -0.20255621919E+03  0.24862376888E+03  0.80328226040E+02 0.  0.
         25    2    1    2    0    0  0.16282753663E+03  0.17773298797E+03  0.31757791436E+03  0.41783516944E+03  0.12501470088E+03 0.  0.
         24    2    1    2    0    0  0.58222794277E+02 -0.34761340930E+02  0.11761424938E+03  0.15870403033E+03  0.82192536093E+02 0.  0.
        -11    1    3    3    0    0 -0.67980406164E+02 -0.46471088898E+02 -0.18931493176E+03  0.20644864038E+03  0.00000000000E+00 0.  1.
         12    1    3    3    0    0 -0.39574822523E+02 -0.61027202079E+01 -0.13241287428E+02  0.42175128505E+02  0.00000000000E+00 0. -1.
        -11    1    5    5    0    0 -0.52580298227E+01 -0.21270712850E+02 -0.26257840672E+01  0.22067733112E+02  0.00000000000E+00 0.  1.
         12    1    5    5    0    0  0.63480824100E+02 -0.13490628081E+02  0.12024003344E+03  0.13663629722E+03  0.00000000000E+00 0. -1.
          5    1    4    4  501    0  0.12986240683E+03  0.18931765757E+03  0.23757313224E+03  0.33040657279E+03  0.47000000000E+01 0. -1.
         -5    1    4    4    0  501  0.32965129796E+02 -0.11584669594E+02  0.80004782113E+02  0.87428596655E+02  0.47000000000E+01 0. -1.
          1    1    1    2  502    0 -0.14274574483E+03 -0.65802513989E+02 -0.74995592348E+03  0.76625074596E+03  0.00000000000E+00 0. -1.
          3    1    1    2  503    0  0.29250642608E+02 -0.24595323947E+02  0.26467692443E+03  0.26742177244E+03  0.00000000000E+00 0. -1.
<mgrwt>
<rscale>  0 0.85713043E+02</rscale>
<asrwt>0</asrwt>
<pdfrwt beam="2">  1        2 0.15525577E+00 0.19223771E+03</pdfrwt>
<pdfrwt beam="1">  1        4 0.11810239E+00 0.38216882E+02</pdfrwt>
<totfact> 0.75067640E+00</totfact>
</mgrwt>
</event>
<event>
13    1  0.1675423E-008  0.1947597E+03  0.7546771E-02  0.1300876E+00
          2   -1    0    0  503    0  0.00000000000E+00  0.00000000000E+00  0.18196727268E+04  0.18196727268E+04  0.00000000000E+00 0. -1.
         -3   -1    0    0    0  501 -0.00000000000E+00 -0.00000000000E+00 -0.67475594672E+03  0.67475594672E+03  0.00000000000E+00 0.  1.
         24    2    1    2    0    0 -0.11146920022E+03 -0.46388010224E+02  0.12041276807E+03  0.18800320286E+03  0.79175371683E+02 0.  0.
         25    2    1    2    0    0 -0.30196947374E+02 -0.85323034274E+02  0.36198797783E+03  0.39350086966E+03  0.12496304459E+03 0.  0.
         24    2    1    2    0    0  0.32802097204E+02  0.12490500371E+02  0.50553625430E+02  0.10535360245E+03  0.85508609655E+02 0.  0.
        -11    1    3    3    0    0 -0.59651910625E+01 -0.21010350230E+02  0.59900528881E+02  0.63758071501E+02  0.00000000000E+00 0.  1.
         12    1    3    3    0    0 -0.10550400915E+03 -0.25377659994E+02  0.60512239187E+02  0.12424513136E+03  0.00000000000E+00 0. -1.
        -13    1    5    5    0    0  0.18144800487E+02 -0.34302789361E+02  0.63241832144E+01  0.39318067551E+02  0.00000000000E+00 0.  1.
         14    1    5    5    0    0  0.14657296717E+02  0.46793289732E+02  0.44229442216E+02  0.66035534901E+02  0.00000000000E+00 0. -1.
          5    1    4    4  502    0 -0.84683284291E+00  0.15116845134E+02 -0.82050565477E+00  0.15874487777E+02  0.47000000000E+01 0.  1.
         -5    1    4    4    0  502 -0.29350114531E+02 -0.10043987941E+03  0.36280848349E+03  0.37762638188E+03  0.47000000000E+01 0.  1.
          1    1    1    2  503    0 -0.97681227124E+01 -0.41210048111E+02  0.11927313060E+04  0.11934829922E+04  0.00000000000E+00 0. -1.
         -4    1    1    2    0  501  0.11863217310E+03  0.16043059224E+03 -0.58076889732E+03  0.61408800633E+03  0.00000000000E+00 0.  1.
<mgrwt>
<rscale>  0 0.90820955E+02</rscale>
<asrwt>0</asrwt>
<pdfrwt beam="1">  1        2 0.26759893E+00 0.42351910E+02</pdfrwt>
<pdfrwt beam="2">  1       -3 0.99228816E-01 0.19475971E+03</pdfrwt>
<totfact> 0.69236601E+00</totfact>
</mgrwt>
</event>
<event>
13    1  0.1675423E-008  0.1256678E+03  0.7546771E-02  0.1302348E+00
          2   -1    0    0  502    0  0.00000000000E+00  0.00000000000E+00  0.17517769588E+04  0.17517769588E+04  0.00000000000E+00 0. -1.
          2   -1    0    0  503    0 -0.00000000000E+00 -0.00000000000E+00 -0.21606929363E+04  0.21606929363E+04  0.00000000000E+00 0. -1.
         24    2    1    2    0    0  0.48951174662E+03  0.51503086264E+02  0.23693230726E+03  0.55425478818E+03  0.93739714236E+02 0.  0.
         25    2    1    2    0    0 -0.18239140387E+03 -0.32178278276E+03 -0.20064774541E+03  0.43896657271E+03  0.12498540206E+03 0.  0.
         24    2    1    2    0    0 -0.45341090192E+03  0.14911150245E+03 -0.30397250568E+03  0.57356225735E+03  0.93587887581E+02 0.  0.
        -11    1    5    5    0    0 -0.14104103386E+03  0.65208862093E+02 -0.14755768883E+03  0.21428495155E+03  0.00000000000E+00 0.  1.
         12    1    5    5    0    0 -0.31236986807E+03  0.83902640354E+02 -0.15641481685E+03  0.35927730580E+03  0.00000000000E+00 0. -1.
        -13    1    3    3    0    0  0.31626422113E+03 -0.36660617623E+01  0.17902270789E+03  0.36343586438E+03  0.00000000000E+00 0.  1.
         14    1    3    3    0    0  0.17324752549E+03  0.55169148027E+02  0.57909599370E+02  0.19081892380E+03  0.00000000000E+00 0. -1.
          5    1    4    4  501    0 -0.76373990123E+02 -0.35080099105E+02 -0.34005596732E+02  0.90785848730E+02  0.47000000000E+01 0. -1.
         -5    1    4    4    0  501 -0.10601741375E+03 -0.28670268366E+03 -0.16664214868E+03  0.34818072398E+03  0.47000000000E+01 0. -1.
          1    1    1    2  502    0  0.47470244159E+02  0.44041823879E+02  0.10981135859E+04  0.11000211606E+04  0.00000000000E+00 0. -1.
          1    1    1    2  503    0  0.98820315016E+02  0.77126370173E+02 -0.12393416196E+04  0.12456651162E+04  0.00000000000E+00 0. -1.
<mgrwt>
<rscale>  0 0.90208176E+02</rscale>
<asrwt>0</asrwt>
<pdfrwt beam="1">  1        2 0.25761426E+00 0.64754199E+02</pdfrwt>
<pdfrwt beam="2">  1        2 0.31774896E+00 0.12566776E+03</pdfrwt>
<totfact> 0.14623223E+01</totfact>
</mgrwt>
</event>
<event>
13    1  0.1675423E-008  0.9677810E+02  0.7546771E-02  0.1312453E+00
          2   -1    0    0  503    0  0.00000000000E+00  0.00000000000E+00  0.87498500967E+03  0.87498500967E+03  0.00000000000E+00 0. -1.
          2   -1    0    0  502    0 -0.00000000000E+00 -0.00000000000E+00 -0.23800692553E+04  0.23800692553E+04  0.00000000000E+00 0. -1.
         24    2    1    2    0    0  0.12209485882E+03  0.30616711199E+03  0.88761565427E+02  0.35099615161E+03  0.81695948098E+02 0.  0.
         25    2    1    2    0    0 -0.27298500235E+03 -0.23900634155E+03 -0.42848918798E+03  0.57521636281E+03  0.12500414801E+03 0.  0.
         24    2    1    2    0    0  0.75126014985E+02  0.53507327081E+02  0.17187629183E+03  0.21221869600E+03  0.83596429705E+02 0.  0.
        -11    1    5    5    0    0  0.52217769479E+01  0.46307393217E+02  0.10644743302E+03  0.11620110850E+03  0.00000000000E+00 0.  1.
         12    1    5    5    0    0  0.69904238037E+02  0.71999338640E+01  0.65428858809E+02  0.96017587494E+02  0.00000000000E+00 0. -1.
        -11    1    3    3    0    0  0.12909898124E+03  0.24055102876E+03  0.63160932819E+02  0.28021535973E+03  0.00000000000E+00 0.  1.
         12    1    3    3    0    0 -0.70041224214E+01  0.65616083236E+02  0.25600632608E+02  0.70780791886E+02  0.00000000000E+00 0. -1.
          5    1    4    4  501    0 -0.86557959246E+02 -0.56986961013E+02 -0.21356845579E+03  0.23743076748E+03  0.47000000000E+01 0.  1.
         -5    1    4    4    0  501 -0.18642704310E+03 -0.18201938054E+03 -0.21492073219E+03  0.33778559533E+03  0.47000000000E+01 0.  1.
          1    1    1    2  502    0  0.85786470038E+02 -0.44637505313E+02 -0.17217851197E+04  0.17244987166E+04  0.00000000000E+00 0. -1.
          1    1    1    2  503    0 -0.10022341495E+02 -0.76030592208E+02  0.38455220472E+03  0.39212433798E+03  0.00000000000E+00 0. -1.
<mgrwt>
<rscale>  0 0.86149579E+02</rscale>
<asrwt>0</asrwt>
<pdfrwt beam="1">  1        2 0.12867426E+00 0.76688319E+02</pdfrwt>
<pdfrwt beam="2">  1        2 0.35001019E+00 0.96778102E+02</pdfrwt>
<totfact> 0.33015808E+01</totfact>
</mgrwt>
</event>
<event>
13    1  0.1675423E-008  0.2352035E+03  0.7546771E-02  0.1203471E+00
         -3   -1    0    0    0  501 -0.00000000000E+00  0.00000000000E+00  0.10335827878E+04  0.10335827878E+04  0.00000000000E+00 0.  1.
          2   -1    0    0  503    0  0.00000000000E+00 -0.00000000000E+00 -0.51578205941E+04  0.51578205941E+04  0.00000000000E+00 0. -1.
         24    2    1    2    0    0  0.62394141686E+02  0.31443509230E+02 -0.34766108309E+04  0.34782272078E+04  0.79749084798E+02 0.  0.
         25    2    1    2    0    0 -0.39586522987E+02  0.42781376662E+03  0.21565984117E+03  0.49671334505E+03  0.12499307319E+03 0.  0.
         24    2    1    2    0    0 -0.22362143366E+02  0.99389838480E+02 -0.89118116005E+02  0.15847820012E+03  0.82431158338E+02 0.  0.
        -11    1    3    3    0    0  0.14247374744E+02  0.94969852781E+00 -0.24460963098E+04  0.24461379860E+04  0.00000000000E+00 0.  1.
         12    1    3    3    0    0  0.48146766941E+02  0.30493810702E+02 -0.10305145211E+04  0.10320892219E+04  0.00000000000E+00 0. -1.
        -13    1    5    5    0    0 -0.53048739710E+02  0.63878432318E+02 -0.66491633947E+02  0.10637556244E+03  0.00000000000E+00 0.  1.
         14    1    5    5    0    0  0.30686596345E+02  0.35511406162E+02 -0.22626482057E+02  0.52102637679E+02  0.00000000000E+00 0. -1.
          5    1    4    4  502    0 -0.14897698846E+02  0.21541564109E+02 -0.13237148582E+02  0.29720237512E+02  0.47000000000E+01 0.  1.
         -5    1    4    4    0  502 -0.24688824141E+02  0.40627220251E+03  0.22889698976E+03  0.46699310754E+03  0.47000000000E+01 0.  1.
          1    1    1    2  503    0  0.90888819613E+02 -0.54334443204E+03 -0.13587149625E+04  0.14661481162E+04  0.00000000000E+00 0. -1.
         -4    1    1    2    0  501 -0.91334294945E+02 -0.15302682295E+02  0.58454626189E+03  0.59183651273E+03  0.00000000000E+00 0.  1.
<mgrwt>
<rscale>  0 0.14758584E+03</rscale>
<asrwt>0</asrwt>
<pdfrwt beam="2">  1        2 0.75850302E+00 0.23520351E+03</pdfrwt>
<pdfrwt beam="1">  1       -3 0.15199747E+00 0.92607373E+02</pdfrwt>
<totfact> 0.13176718E-02</totfact>
</mgrwt>
</event>
<event>
13    1  0.1675423E-008  0.2833479E+03  0.7546771E-02  0.1208610E+00
          2   -1    0    0  502    0  0.00000000000E+00  0.00000000000E+00  0.18354816603E+04  0.18354816603E+04  0.00000000000E+00 0. -1.
          2   -1    0    0  503    0 -0.00000000000E+00 -0.00000000000E+00 -0.10053507236E+04  0.10053507236E+04  0.00000000000E+00 0. -1.
         24    2    1    2    0    0 -0.67458250297E+02 -0.83910313291E+02  0.50650243837E+03  0.52381657066E+03  0.79041276635E+02 0.  0.
         25    2    1    2    0    0  0.27465385600E+03  0.33920293921E+03 -0.42171314075E+02  0.45595705728E+03  0.12500017510E+03 0.  0.
         24    2    1    2    0    0 -0.35832952690E+02 -0.77573887284E+01 -0.51436096417E+01  0.88291362370E+02  0.80154415789E+02 0.  0.
        -11    1    3    3    0    0 -0.49950463970E+02 -0.16226834664E+02  0.11923611380E+03  0.13029048257E+03  0.00000000000E+00 0.  1.
         12    1    3    3    0    0 -0.17507786327E+02 -0.67683478627E+02  0.38726632456E+03  0.39352608808E+03  0.00000000000E+00 0. -1.
        -13    1    5    5    0    0 -0.25626564690E+02 -0.43437041348E+02 -0.80306889862E+01  0.51068477014E+02  0.00000000000E+00 0.  1.
         14    1    5    5    0    0 -0.10206388000E+02  0.35679652620E+02  0.28870793445E+01  0.37222885356E+02  0.00000000000E+00 0. -1.
          5    1    4    4  501    0  0.21237414503E+02 -0.11849481718E+01  0.16774981881E+02  0.27494033790E+02  0.47000000000E+01 0.  1.
         -5    1    4    4    0  501  0.25341644149E+03  0.34038788738E+03 -0.58946295955E+02  0.42846302349E+03  0.47000000000E+01 0.  1.
          1    1    1    2  502    0  0.24368925953E+02 -0.68537658584E+02  0.10454536496E+04  0.10479811967E+04  0.00000000000E+00 0. -1.
          1    1    1    2  503    0 -0.19573157896E+03 -0.17899757860E+03 -0.67451022756E+03  0.72478619691E+03  0.00000000000E+00 0. -1.
<mgrwt>
<rscale>  0 0.14356536E+03</rscale>
<asrwt>0</asrwt>
<pdfrwt beam="1">  1        2 0.26992377E+00 0.72741015E+02</pdfrwt>
<pdfrwt beam="2">  1        2 0.14784570E+00 0.28334789E+03</pdfrwt>
<totfact> 0.49046694E+01</totfact>
</mgrwt>
</event>
<event>
13    1  0.1675423E-008  0.1298691E+03  0.7546771E-02  0.1312984E+00
         -3   -1    0    0    0  501 -0.00000000000E+00  0.00000000000E+00  0.20024145605E+04  0.20024145605E+04  0.00000000000E+00 0.  1.
          2   -1    0    0  503    0  0.00000000000E+00 -0.00000000000E+00 -0.18798254728E+04  0.18798254728E+04  0.00000000000E+00 0. -1.
         24    2    1    2    0    0  0.14519083041E+03 -0.57445219313E+03 -0.21410494334E+03  0.63500610418E+03  0.79474059650E+02 0.  0.
         25    2    1    2    0    0  0.19625443854E+03  0.46291291480E+03 -0.52493333152E+03  0.73756806552E+03  0.12508987726E+03 0.  0.
         24    2    1    2    0    0 -0.16062336901E+03  0.96681833407E+02 -0.13569922115E+03  0.25191133387E+03  0.99487677274E+02 0.  0.
        -11    1    5    5    0    0 -0.15352596695E+03  0.46653453092E+02 -0.11446562256E+03  0.19710186697E+03  0.00000000000E+00 0.  1.
         12    1    5    5    0    0 -0.70974020545E+01  0.50028380316E+02 -0.21233598585E+02  0.54809466899E+02  0.00000000000E+00 0. -1.
        -11    1    3    3    0    0  0.88137978826E+02 -0.42489994468E+03 -0.18760502141E+03  0.47276200182E+03  0.00000000000E+00 0.  1.
         12    1    3    3    0    0  0.57052851581E+02 -0.14955224845E+03 -0.26499921923E+02  0.16224410236E+03  0.00000000000E+00 0. -1.
          5    1    4    4  502    0  0.20735289363E+03  0.37265762650E+03 -0.44549030371E+03  0.61672735450E+03  0.47000000000E+01 0. -1.
         -5    1    4    4    0  502 -0.11098455092E+02  0.90255288307E+02 -0.79443027807E+02  0.12084071102E+03  0.47000000000E+01 0. -1.
          1    1    1    2  503    0 -0.51402202867E+02  0.24342356106E+02 -0.62633680487E+03  0.62891376984E+03  0.00000000000E+00 0. -1.
         -4    1    1    2    0  501 -0.12941969707E+03 -0.94849111907E+01  0.16236633886E+04  0.16288407598E+04  0.00000000000E+00 0.  1.
<mgrwt>
<rscale>  0 0.85943428E+02</rscale>
<asrwt>0</asrwt>
<pdfrwt beam="2">  1        2 0.27644492E+00 0.56874746E+02</pdfrwt>
<pdfrwt beam="1">  1       -3 0.29447273E+00 0.12986911E+03</pdfrwt>
<totfact> 0.33702962E-01</totfact>
</mgrwt>
</event>
<event>
13    1  0.1675423E-008  0.5410005E+02  0.7546771E-02  0.1491701E+00
          2   -1    0    0  503    0  0.00000000000E+00  0.00000000000E+00  0.14420359817E+04  0.14420359817E+04  0.00000000000E+00 0. -1.
         -1   -1    0    0    0  501 -0.00000000000E+00 -0.00000000000E+00 -0.13646034386E+04  0.13646034386E+04  0.00000000000E+00 0.  1.
         24    2    1    2    0    0  0.14519253446E+03 -0.80744307884E+02  0.26612448953E+03  0.32663058576E+03  0.90910837153E+02 0.  0.
         25    2    1    2    0    0 -0.19960282086E+03 -0.50683231532E+02 -0.23818634247E+03  0.33877678102E+03  0.12500759003E+03 0.  0.
         24    2    1    2    0    0  0.27230352367E+02  0.13112465535E+03 -0.20352947065E+03  0.25667518326E+03  0.80763462938E+02 0.  0.
        -11    1    3    3    0    0  0.12436282406E+03 -0.21364503396E+02  0.16923517519E+03  0.21109973599E+03  0.00000000000E+00 0.  1.
         12    1    3    3    0    0  0.20829710399E+02 -0.59379804489E+02  0.96889314339E+02  0.11553084977E+03  0.00000000000E+00 0. -1.
        -11    1    5    5    0    0  0.16878521007E+02  0.43710930736E+02 -0.15997601795E+02  0.49512152048E+02  0.00000000000E+00 0.  1.
         12    1    5    5    0    0  0.10351831359E+02  0.87413724619E+02 -0.18753186886E+03  0.20716303121E+03  0.00000000000E+00 0. -1.
          5    1    4    4  502    0 -0.18657529168E+01 -0.42400817909E+02 -0.36621826759E+02  0.56254409503E+02  0.47000000000E+01 0. -1.
         -5    1    4    4    0  502 -0.19773706794E+03 -0.82824136228E+01 -0.20156451571E+03  0.28252237152E+03  0.47000000000E+01 0. -1.
          1    1    1    2  503    0 -0.19911322919E+02 -0.26476625267E+02  0.10676337822E+04  0.10681476328E+04  0.00000000000E+00 0. -1.
         -2    1    1    2    0  501  0.47091256946E+02  0.26779509329E+02 -0.81460991556E+03  0.81640923753E+03  0.00000000000E+00 0.  1.
<mgrwt>
<rscale>  0 0.42334775E+02</rscale>
<asrwt>0</asrwt>
<pdfrwt beam="1">  1        2 0.21206412E+00 0.33128122E+02</pdfrwt>
<pdfrwt beam="2">  1       -1 0.20067698E+00 0.54100054E+02</pdfrwt>
<totfact> 0.40941425E+00</totfact>
</mgrwt>
</event>
<event>
13    1  0.1675423E-008  0.4651059E+02  0.7546771E-02  0.1522419E+00
          2   -1    0    0  502    0  0.00000000000E+00  0.00000000000E+00  0.31149865771E+04  0.31149865771E+04  0.00000000000E+00 0. -1.
          2   -1    0    0  503    0 -0.00000000000E+00 -0.00000000000E+00 -0.71236882593E+03  0.71236882593E+03  0.00000000000E+00 0. -1.
         24    2    1    2    0    0  0.33617245299E+02  0.26391263380E+02  0.97601222420E+03  0.98033548475E+03  0.81432075374E+02 0.  0.
         25    2    1    2    0    0 -0.90415165799E+02 -0.86164427477E+02  0.31910716676E+02  0.17954723442E+03  0.12497881733E+03 0.  0.
         24    2    1    2    0    0 -0.89227032518E+01  0.21817755773E+02  0.40208891282E+03  0.41180917480E+03  0.85765223390E+02 0.  0.
        -13    1    5    5    0    0  0.34947467276E+02  0.27775849736E+02  0.20735932483E+03  0.21211014331E+03  0.00000000000E+00 0.  1.
         14    1    5    5    0    0 -0.43870170528E+02 -0.59580939638E+01  0.19472958798E+03  0.19969903150E+03  0.00000000000E+00 0. -1.
        -13    1    3    3    0    0  0.32219611977E+01 -0.24534657130E+02  0.50473578002E+03  0.50534200110E+03  0.00000000000E+00 0.  1.
         14    1    3    3    0    0  0.30395284101E+02  0.50925920510E+02  0.47127644418E+03  0.47499348365E+03  0.00000000000E+00 0. -1.
          5    1    4    4  501    0  0.56746452209E+00 -0.38768705199E+02 -0.38649847947E+02  0.54947568327E+02  0.47000000000E+01 0. -1.
         -5    1    4    4    0  501 -0.90982630321E+02 -0.47395722278E+02  0.70560564622E+02  0.12459966609E+03  0.47000000000E+01 0. -1.
          1    1    1    2  502    0  0.43598622286E+02  0.15863200309E+02  0.16234161563E+04  0.16240789690E+04  0.00000000000E+00 0. -1.
          1    1    1    2  503    0  0.22122001466E+02  0.22092208016E+02 -0.63081025883E+03  0.63158454006E+03  0.00000000000E+00 0. -1.
<mgrwt>
<rscale>  0 0.38132861E+02</rscale>
<asrwt>0</asrwt>
<pdfrwt beam="1">  1        2 0.45808626E+00 0.46510585E+02</pdfrwt>
<pdfrwt beam="2">  1        2 0.10476012E+00 0.31264174E+02</pdfrwt>
<totfact> 0.20517078E+01</totfact>
</mgrwt>
</event>
<event>
13    1  0.1675423E-008  0.8310050E+02  0.7546771E-02  0.1342102E+00
          2   -1    0    0  503    0  0.00000000000E+00  0.00000000000E+00  0.19784557881E+04  0.19784557881E+04  0.00000000000E+00 0. -1.
          2   -1    0    0  502    0 -0.00000000000E+00 -0.00000000000E+00 -0.45119827942E+04  0.45119827942E+04  0.00000000000E+00 0. -1.
         24    2    1    2    0    0 -0.25030590944E+02 -0.68760034856E+02  0.16347555762E+03  0.19744568739E+03  0.83102759603E+02 0.  0.
         25    2    1    2    0    0 -0.23787900375E+02 -0.13419960400E+03  0.43365428915E+03  0.47144284314E+03  0.12500765548E+03 0.  0.
         24    2    1    2    0    0 -0.49363364322E+02  0.19288607819E+03  0.25509663100E+02  0.21498474475E+03  0.76979975761E+02 0.  0.
        -11    1    3    3    0    0 -0.42475475947E+02 -0.68097533847E+02  0.84407955959E+02  0.11647378762E+03  0.00000000000E+00 0.  1.
         12    1    3    3    0    0  0.17444885003E+02 -0.66250100911E+00  0.79067601663E+02  0.80971899774E+02  0.00000000000E+00 0. -1.
        -13    1    5    5    0    0 -0.58054431510E+02  0.16845774718E+03 -0.60909903966E+00  0.17818165058E+03  0.00000000000E+00 0.  1.
         14    1    5    5    0    0  0.86910671875E+01  0.24428331013E+02  0.26118762140E+02  0.36803094172E+02  0.00000000000E+00 0. -1.
          5    1    4    4  501    0  0.18451942148E+01 -0.26954868658E+01  0.21422507062E+03  0.21430151953E+03  0.47000000000E+01 0.  1.
         -5    1    4    4    0  501 -0.25633094590E+02 -0.13150411713E+03  0.21942921853E+03  0.25714132361E+03  0.47000000000E+01 0.  1.
          1    1    1    2  502    0  0.54266590362E+02  0.62942969035E+02 -0.43800075520E+04  0.43807959135E+04  0.00000000000E+00 0. -1.
          1    1    1    2  503    0  0.43915265280E+02 -0.52869408370E+02  0.12238410360E+04  0.12257693936E+04  0.00000000000E+00 0. -1.
<mgrwt>
<rscale>  0 0.75574098E+02</rscale>
<asrwt>0</asrwt>
<pdfrwt beam="1">  1        2 0.29094938E+00 0.68729360E+02</pdfrwt>
<pdfrwt beam="2">  1        2 0.66352688E+00 0.83100501E+02</pdfrwt>
<totfact> 0.49736673E-01</totfact>
</mgrwt>
</event>
<event>
13    1  0.1675423E-008  0.1590572E+03  0.7546771E-02  0.1287714E+00
          2   -1    0    0  503    0  0.00000000000E+00  0.00000000000E+00  0.20604784341E+04  0.20604784341E+04  0.00000000000E+00 0. -1.
         -1   -1    0    0    0  501 -0.00000000000E+00 -0.00000000000E+00 -0.73391666450E+03  0.73391666450E+03  0.00000000000E+00 0.  1.
         24    2    1    2    0    0 -0.16680106993E+03  0.29290260872E+02  0.62549772126E+02  0.19657958214E+03  0.77785228748E+02 0.  0.
         25    2    1    2    0    0 -0.30867129096E+02 -0.17233593350E+03  0.79055999662E+03  0.81930619339E+03  0.12500030657E+03 0.  0.
         24    2    1    2    0    0  0.33344437877E+02 -0.64837262273E+00 -0.24783360484E+02  0.92811409714E+02  0.82990787994E+02 0.  0.
        -13    1    5    5    0    0 -0.22600200921E+02  0.18052489546E+02 -0.25183945699E+00  0.28926197185E+02  0.00000000000E+00 0.  1.
         14    1    5    5    0    0  0.55944638797E+02 -0.18700862169E+02 -0.24531521027E+02  0.63885212529E+02  0.00000000000E+00 0. -1.
        -13    1    3    3    0    0  0.56116655941E+01  0.63073743046E+01  0.13388201504E+02  0.15827750973E+02  0.00000000000E+00 0.  1.
         14    1    3    3    0    0 -0.17241273552E+03  0.22982886568E+02  0.49161570621E+02  0.18075183117E+03  0.00000000000E+00 0. -1.
          5    1    4    4  502    0  0.19817989507E+02 -0.12119516967E+03  0.31190215270E+03  0.33524030891E+03  0.47000000000E+01 0.  1.
         -5    1    4    4    0  502 -0.50685118603E+02 -0.51140763829E+02  0.47865784392E+03  0.48406588448E+03  0.47000000000E+01 0.  1.
          1    1    1    2  503    0 -0.53654382284E+02 -0.23592593310E+02  0.10593228887E+04  0.10609431585E+04  0.00000000000E+00 0. -1.
         -2    1    1    2    0  501  0.21797814343E+03  0.16728663856E+03 -0.56108752728E+03  0.62475475487E+03  0.00000000000E+00 0.  1.
<mgrwt>
<rscale>  0 0.96554175E+02</rscale>
<asrwt>0</asrwt>
<pdfrwt beam="1">  1        2 0.30301153E+00 0.58612313E+02</pdfrwt>
<pdfrwt beam="2">  1       -1 0.10792892E+00 0.15905717E+03</pdfrwt>
<totfact> 0.91177222E+00</totfact>
</mgrwt>
</event>
<event>
13    1  0.1675423E-008  0.6902896E+02  0.7546771E-02  0.1395357E+00
          2   -1    0    0  503    0  0.00000000000E+00  0.00000000000E+00  0.33791206644E+03  0.33791206644E+03  0.00000000000E+00 0. -1.
          2   -1    0    0  502    0 -0.00000000000E+00 -0.00000000000E+00 -0.27900746015E+04  0.27900746015E+04  0.00000000000E+00 0. -1.
         24    2    1    2    0    0 -0.34034517157E+02 -0.16374546342E+02  0.13306532225E+03  0.16120931670E+03  0.82798488396E+02 0.  0.
         25    2    1    2    0    0  0.29087108849E+00  0.31495699869E+02 -0.51916099256E+03  0.53492494894E+03  0.12499800433E+03 0.  0.
         24    2    1    2    0    0  0.12655286836E+02 -0.65875330536E+01 -0.74692961849E+02  0.11459170568E+03  0.85724375676E+02 0.  0.
        -11    1    5    5    0    0 -0.24063645304E+02  0.18600548464E+02 -0.34927026509E+01  0.30614349581E+02  0.00000000000E+00 0.  1.
         12    1    5    5    0    0  0.36718932140E+02 -0.25188081518E+02 -0.71200259198E+02  0.83977356102E+02  0.00000000000E+00 0. -1.
        -11    1    3    3    0    0  0.34027991774E+01 -0.39677673561E+02  0.32504585311E+02  0.51404716590E+02  0.00000000000E+00 0.  1.
         12    1    3    3    0    0 -0.37437316335E+02  0.23303127219E+02  0.10056073694E+03  0.10980460011E+03  0.00000000000E+00 0. -1.
          5    1    4    4  501    0 -0.40638095063E+01 -0.16046595487E+02 -0.41714548200E+01  0.17705897598E+02  0.47000000000E+01 0. -1.
         -5    1    4    4    0  501  0.43546805948E+01  0.47542295356E+02 -0.51498953774E+03  0.51721905134E+03  0.47000000000E+01 0. -1.
          1    1    1    2  502    0  0.66474073541E+02  0.19201074199E+02 -0.21494051439E+04  0.21505185320E+04  0.00000000000E+00 0. -1.
          1    1    1    2  503    0 -0.45385714308E+02 -0.27734694672E+02  0.15803124098E+03  0.16674216466E+03  0.00000000000E+00 0. -1.
<mgrwt>
<rscale>  0 0.60593610E+02</rscale>
<asrwt>0</asrwt>
<pdfrwt beam="1">  1        2 0.49692953E-01 0.53189062E+02</pdfrwt>
<pdfrwt beam="2">  1        2 0.41030507E+00 0.69028958E+02</pdfrwt>
<totfact> 0.61262936E+01</totfact>
</mgrwt>
</event>
<event>
13    1  0.1675423E-008  0.1128955E+03  0.7546771E-02  0.1424397E+00
          2   -1    0    0  502    0  0.00000000000E+00  0.00000000000E+00  0.18728431459E+04  0.18728431459E+04  0.00000000000E+00 0. -1.
          2   -1    0    0  503    0 -0.00000000000E+00 -0.00000000000E+00 -0.38914040784E+03  0.38914040784E+03  0.00000000000E+00 0. -1.
         24    2    1    2    0    0 -0.10193038302E+03  0.99361682116E+02  0.56743630211E+02  0.17590993167E+03  0.86382391928E+02 0.  0.
         25    2    1    2    0    0 -0.36933434107E+02 -0.54249001264E+02 -0.15489615583E+03  0.20957726368E+03  0.12499111036E+03 0.  0.
         24    2    1    2    0    0 -0.22697084158E+02 -0.63909350593E+02  0.67008727527E+03  0.67822088372E+03  0.79793783709E+02 0.  0.
        -13    1    5    5    0    0 -0.51016420354E+02 -0.51139670660E+02  0.51616679538E+03  0.52119679749E+03  0.00000000000E+00 0.  1.
         14    1    5    5    0    0  0.28319336196E+02 -0.12769679933E+02  0.15392047989E+03  0.15702408624E+03  0.00000000000E+00 0. -1.
        -13    1    3    3    0    0 -0.50767744700E+02  0.16915189802E+02 -0.14606877081E+02  0.55469346544E+02  0.00000000000E+00 0.  1.
         14    1    3    3    0    0 -0.51162638322E+02  0.82446492314E+02  0.71350507292E+02  0.12044058513E+03  0.00000000000E+00 0. -1.
          5    1    4    4  501    0 -0.77597789887E+02 -0.29098329936E+02 -0.57504978160E+02  0.10098040559E+03  0.47000000000E+01 0.  1.
         -5    1    4    4    0  501  0.40664355780E+02 -0.25150671328E+02 -0.97391177670E+02  0.10859685809E+03  0.47000000000E+01 0.  1.
          1    1    1    2  502    0  0.13573653074E+03  0.21093145664E+02  0.10493343991E+04  0.10582872992E+04  0.00000000000E+00 0. -1.
          1    1    1    2  503    0  0.25824370546E+02 -0.22964759224E+01 -0.13756641068E+03  0.13998817544E+03  0.00000000000E+00 0. -1.
<mgrwt>
<rscale>  0 0.54101396E+02</rscale>
<asrwt>0</asrwt>
<pdfrwt beam="1">  1        2 0.27541811E+00 0.11289553E+03</pdfrwt>
<pdfrwt beam="2">  1        2 0.57226531E-01 0.25926278E+02</pdfrwt>
<totfact> 0.13990448E+02</totfact>
</mgrwt>
</event>
<event>
13    1  0.1675423E-008  0.9983022E+02  0.7546771E-02  0.1313326E+00
          2   -1    0    0  503    0  0.00000000000E+00  0.00000000000E+00  0.21592269341E+04  0.21592269341E+04  0.00000000000E+00 0. -1.
          2   -1    0    0  502    0 -0.00000000000E+00 -0.00000000000E+00 -0.40976514127E+04  0.40976514127E+04  0.00000000000E+00 0. -1.
         24    2    1    2    0    0  0.30303273470E+02 -0.13240242853E+03  0.48728276911E+03  0.51030322073E+03  0.67202593333E+02 0.  0.
         25    2    1    2    0    0 -0.41083925153E+03 -0.15333590838E+03  0.76453126564E+02  0.46235448702E+03  0.12500319882E+03 0.  0.
         24    2    1    2    0    0  0.53902709252E+03  0.28531938399E+03  0.59752496851E+02  0.61815481876E+03  0.81164411699E+02 0.  0.
        -11    1    5    5    0    0  0.38177742727E+03  0.21190213561E+03  0.67396920703E+01  0.43669433532E+03  0.00000000000E+00 0.  1.
         12    1    5    5    0    0  0.15724966524E+03  0.73417248381E+02  0.53012804781E+02  0.18146048344E+03  0.00000000000E+00 0. -1.
        -11    1    3    3    0    0  0.28152447465E+02 -0.12603492317E+03  0.35347729008E+03  0.37632905384E+03  0.00000000000E+00 0.  1.
         12    1    3    3    0    0  0.21508260047E+01 -0.63675053637E+01  0.13380547903E+03  0.13397416690E+03  0.00000000000E+00 0. -1.
          5    1    4    4  501    0 -0.10925539896E+03 -0.61255420313E+02  0.76781720855E+02  0.14699146703E+03  0.47000000000E+01 0.  1.
         -5    1    4    4    0  501 -0.30158385256E+03 -0.92080488065E+02 -0.32859429137E+00  0.31536302000E+03  0.47000000000E+01 0.  1.
          1    1    1    2  502    0 -0.65210110035E+02 -0.34470145802E+02 -0.36112549933E+04  0.36120081916E+04  0.00000000000E+00 0. -1.
          1    1    1    2  503    0 -0.93281004427E+02  0.34889098728E+02  0.10493421222E+04  0.10540576286E+04  0.00000000000E+00 0. -1.
<mgrwt>
<rscale>  0 0.85810750E+02</rscale>
<asrwt>0</asrwt>
<pdfrwt beam="1">  1        2 0.31753338E+00 0.99830218E+02</pdfrwt>
<pdfrwt beam="2">  1        2 0.60259578E+00 0.73760080E+02</pdfrwt>
<totfact> 0.80951428E-01</totfact>
</mgrwt>
</event>
<event>
13    1  0.1675423E-008  0.9660308E+02  0.7546771E-02  0.1342732E+00
          2   -1    0    0  503    0  0.00000000000E+00  0.00000000000E+00  0.26040523800E+04  0.26040523800E+04  0.00000000000E+00 0. -1.
          2   -1    0    0  502    0 -0.00000000000E+00 -0.00000000000E+00 -0.21765816186E+04  0.21765816186E+04  0.00000000000E+00 0. -1.
         24    2    1    2    0    0  0.24325353388E+03 -0.48921422864E+03 -0.24087169338E+03  0.60544745374E+03  0.10022276846E+03 0.  0.
         25    2    1    2    0    0 -0.23227933341E+03  0.60376077066E+03 -0.49288798935E+02  0.66070769507E+03  0.12499806279E+03 0.  0.
         24    2    1    2    0    0  0.24853179206E+02 -0.24750759146E+03 -0.30952707573E+03  0.40570391128E+03  0.83132212023E+02 0.  0.
        -13    1    5    5    0    0  0.17610342859E+01 -0.19167254627E+01 -0.40967667678E+02  0.41050272511E+02  0.00000000000E+00 0.  1.
         14    1    5    5    0    0  0.23092144920E+02 -0.24559086600E+03 -0.26855940805E+03  0.36465363877E+03  0.00000000000E+00 0. -1.
        -13    1    3    3    0    0  0.17749316320E+03 -0.26092749225E+03 -0.16468361930E+03  0.35596021359E+03  0.00000000000E+00 0.  1.
         14    1    3    3    0    0  0.65760370673E+02 -0.22828673639E+03 -0.76188074086E+02  0.24948724014E+03  0.00000000000E+00 0. -1.
          5    1    4    4  501    0 -0.22757938218E+03  0.45007927929E+03 -0.25086796006E+02  0.50499026740E+03  0.47000000000E+01 0.  1.
         -5    1    4    4    0  501 -0.46999512251E+01  0.15368149137E+03 -0.24202002929E+02  0.15571742766E+03  0.47000000000E+01 0.  1.
          1    1    1    2  502    0 -0.45780280411E+02  0.36903970605E+02 -0.10388489700E+04  0.10405118546E+04  0.00000000000E+00 0. -1.
          1    1    1    2  503    0  0.99529007337E+01  0.96057078839E+02  0.20660072995E+04  0.20682630839E+04  0.00000000000E+00 0. -1.
<mgrwt>
<rscale>  0 0.75369127E+02</rscale>
<asrwt>0</asrwt>
<pdfrwt beam="1">  1        2 0.38294888E+00 0.96603083E+02</pdfrwt>
<pdfrwt beam="2">  1        2 0.32008553E+00 0.58802526E+02</pdfrwt>
<totfact> 0.58118611E+00</totfact>
</mgrwt>
</event>
<event>
13    1  0.1675423E-008  0.1158404E+03  0.7546771E-02  0.1364659E+00
          2   -1    0    0  502    0  0.00000000000E+00  0.00000000000E+00  0.18537196092E+04  0.18537196092E+04  0.00000000000E+00 0. -1.
          2   -1    0    0  503    0 -0.00000000000E+00 -0.00000000000E+00 -0.97393084947E+03  0.97393084947E+03  0.00000000000E+00 0. -1.
         24    2    1    2    0    0 -0.21811116114E+02 -0.19917542089E+02  0.13152008531E+03  0.15640149724E+03  0.79318738204E+02 0.  0.
         25    2    1    2    0    0  0.16274376999E+03 -0.71592810769E+02 -0.37696050023E+03  0.43512207781E+03  0.12498375351E+03 0.  0.
         24    2    1    2    0    0 -0.72142588859E+01  0.99369744249E+02  0.14785360637E+03  0.19474893318E+03  0.78358576129E+02 0.  0.
        -13    1    5    5    0    0 -0.39835463783E+02  0.76054846546E+02  0.11064116564E+03  0.14004524766E+03  0.00000000000E+00 0.  1.
         14    1    5    5    0    0  0.32621204897E+02  0.23314897703E+02  0.37212440725E+02  0.54703685512E+02  0.00000000000E+00 0. -1.
        -13    1    3    3    0    0 -0.73393413225E+01  0.16236001631E+02 -0.14207333796E+01  0.17874343718E+02  0.00000000000E+00 0.  1.
         14    1    3    3    0    0 -0.14471774791E+02 -0.36153543721E+02  0.13294081869E+03  0.13852715352E+03  0.00000000000E+00 0. -1.
          5    1    4    4  501    0  0.52861206226E+02 -0.49775443868E+02 -0.27189939140E+03  0.28146628747E+03  0.47000000000E+01 0.  1.
         -5    1    4    4    0  501  0.10988256376E+03 -0.21817366900E+02 -0.10506110882E+03  0.15365579034E+03  0.47000000000E+01 0.  1.
          1    1    1    2  502    0 -0.12709870711E+03 -0.48030606721E+02  0.15055340233E+04  0.15116526439E+04  0.00000000000E+00 0. -1.
          1    1    1    2  503    0 -0.66196878743E+01  0.40171215330E+02 -0.52815845500E+03  0.52972530655E+03  0.00000000000E+00 0. -1.
<mgrwt>
<rscale>  0 0.68674654E+02</rscale>
<asrwt>0</asrwt>
<pdfrwt beam="1">  1        2 0.27260583E+00 0.11584040E+03</pdfrwt>
<pdfrwt beam="2">  1        2 0.14322512E+00 0.40712981E+02</pdfrwt>
<totfact> 0.52503239E+01</totfact>
</mgrwt>
</event>
<event>
13    1  0.1675423E-008  0.1237234E+03  0.7546771E-02  0.1332497E+00
          2   -1    0    0  503    0  0.00000000000E+00  0.00000000000E+00  0.24194805949E+04  0.24194805949E+04  0.00000000000E+00 0. -1.
         -1   -1    0    0    0  501 -0.00000000000E+00 -0.00000000000E+00 -0.11096516703E+04  0.11096516703E+04  0.00000000000E+00 0.  1.
         24    2    1    2    0    0 -0.11891573902E+02 -0.21146710383E+02  0.30678289346E+03  0.31841405513E+03  0.81750681323E+02 0.  0.
         25    2    1    2    0    0 -0.12802067915E+03 -0.68356564894E+02 -0.55088767772E+03  0.58322998590E+03  0.12497227184E+03 0.  0.
         24    2    1    2    0    0 -0.25137818415E+02  0.86852041935E+02  0.52111570427E+02  0.13613319571E+03  0.87415353910E+02 0.  0.
        -13    1    5    5    0    0  0.29404536229E+02  0.91240110861E+01  0.11686712143E+02  0.32931042647E+02  0.00000000000E+00 0.  1.
         14    1    5    5    0    0 -0.54542354644E+02  0.77728030849E+02  0.40424858284E+02  0.10320215306E+03  0.00000000000E+00 0. -1.
        -13    1    3    3    0    0 -0.22835891113E+02  0.19767641648E+02  0.52001556562E+02  0.60136506916E+02  0.00000000000E+00 0.  1.
         14    1    3    3    0    0  0.10944317211E+02 -0.40914352030E+02  0.25478133689E+03  0.25827754821E+03  0.00000000000E+00 0. -1.
          5    1    4    4  502    0 -0.40008693888E+02 -0.57838197465E+02 -0.41484974864E+03  0.42079491040E+03  0.47000000000E+01 0. -1.
         -5    1    4    4    0  502 -0.88011985259E+02 -0.10518367429E+02 -0.13603792909E+03  0.16243507550E+03  0.47000000000E+01 0. -1.
          1    1    1    2  503    0  0.18024849017E+03 -0.45177609689E+02  0.19909782674E+04  0.19996312150E+04  0.00000000000E+00 0. -1.
         -2    1    1    2    0  501 -0.15198418710E+02  0.47828843031E+02 -0.48915612902E+03  0.49172381345E+03  0.00000000000E+00 0.  1.
<mgrwt>
<rscale>  0 0.78798035E+02</rscale>
<asrwt>0</asrwt>
<pdfrwt beam="1">  1        2 0.35580597E+00 0.12372345E+03</pdfrwt>
<pdfrwt beam="2">  1       -1 0.16318407E+00 0.50185557E+02</pdfrwt>
<totfact> 0.21926739E+00</totfact>
</mgrwt>
</event>
<event>
13    1  0.1675423E-008  0.1561931E+03  0.7546771E-02  0.1278687E+00
          2   -1    0    0  503    0  0.00000000000E+00  0.00000000000E+00  0.24806981824E+04  0.24806981824E+04  0.00000000000E+00 0. -1.
          2   -1    0    0  502    0 -0.00000000000E+00 -0.00000000000E+00 -0.81618505224E+03  0.81618505224E+03  0.00000000000E+00 0. -1.
         24    2    1    2    0    0 -0.99549709463E+02 -0.43529633891E+03  0.14323026098E+04  0.15025106876E+04  0.81575442826E+02 0.  0.
         25    2    1    2    0    0  0.11580277165E+03  0.16859772261E+03 -0.53737563316E+03  0.58841332923E+03  0.12498880317E+03 0.  0.
         24    2    1    2    0    0  0.80913157344E+02  0.32781969169E+03  0.39721334226E+03  0.52800351176E+03  0.83645560952E+02 0.  0.
        -13    1    3    3    0    0 -0.70220439607E+02 -0.13544738938E+03  0.46849459437E+03  0.49271096028E+03  0.00000000000E+00 0.  1.
         14    1    3    3    0    0 -0.29329269856E+02 -0.29984894953E+03  0.96380801542E+03  0.10097997273E+04  0.00000000000E+00 0. -1.
        -13    1    5    5    0    0  0.93593907268E+02  0.23609877131E+03  0.31057857096E+03  0.40120007232E+03  0.00000000000E+00 0.  1.
         14    1    5    5    0    0 -0.12680749925E+02  0.91720920386E+02  0.86634771300E+02  0.12680343944E+03  0.00000000000E+00 0. -1.
          5    1    4    4  501    0  0.13113035109E+03  0.11607876306E+03 -0.32680326130E+03  0.37079901538E+03  0.47000000000E+01 0. -1.
         -5    1    4    4    0  501 -0.15327579444E+02  0.52518959551E+02 -0.21057237186E+03  0.21761431385E+03  0.47000000000E+01 0. -1.
          1    1    1    2  502    0  0.57033047718E+02 -0.31205428009E+02 -0.13337574083E+03  0.14837666768E+03  0.00000000000E+00 0. -1.
          1    1    1    2  503    0 -0.15419926725E+03 -0.29915647390E+02  0.50574855208E+03  0.52957903840E+03  0.00000000000E+00 0. -1.
<mgrwt>
<rscale>  0 0.10076909E+03</rscale>
<asrwt>0</asrwt>
<pdfrwt beam="1">  1        2 0.36480855E+00 0.15619308E+03</pdfrwt>
<pdfrwt beam="2">  1        2 0.12002721E+00 0.65011901E+02</pdfrwt>
<totfact> 0.30367899E+01</totfact>
</mgrwt>
</event>
<event>
13    1  0.1675423E-008  0.1336841E+03  0.7546771E-02  0.1250385E+00
          2   -1    0    0  502    0  0.00000000000E+00  0.00000000000E+00  0.11199514624E+04  0.11199514624E+04  0.00000000000E+00 0. -1.
          2   -1    0    0  503    0 -0.00000000000E+00 -0.00000000000E+00 -0.55154099384E+03  0.55154099384E+03  0.00000000000E+00 0. -1.
         24    2    1    2    0    0 -0.67980047157E+02 -0.11047434536E+01  0.17285610436E+02  0.10649667332E+03  0.80126411568E+02 0.  0.
         25    2    1    2    0    0  0.32493325685E+02 -0.12854204256E+03 -0.23577071437E+03  0.29797918573E+03  0.12499956983E+03 0.  0.
         24    2    1    2    0    0 -0.11132322598E+01 -0.63921599416E+01 -0.18839229040E+02  0.85758981145E+02  0.83412153200E+02 0.  0.
        -11    1    5    5    0    0 -0.19979604259E+02  0.26390857626E+02 -0.31676718658E+02  0.45815679167E+02  0.00000000000E+00 0.  1.
         12    1    5    5    0    0  0.18866371999E+02 -0.32783017568E+02  0.12837489618E+02  0.39943301978E+02  0.00000000000E+00 0. -1.
        -13    1    3    3    0    0 -0.59395929763E+02  0.30443378391E+02 -0.49974657720E+01  0.66930190680E+02  0.00000000000E+00 0.  1.
         14    1    3    3    0    0 -0.85841173941E+01 -0.31548121844E+02  0.22283076208E+02  0.39566482641E+02  0.00000000000E+00 0. -1.
          5    1    4    4  501    0  0.60438747673E+02 -0.12643215197E+02 -0.95608189302E+02  0.11391096950E+03  0.47000000000E+01 0.  1.
         -5    1    4    4    0  501 -0.27945421989E+02 -0.11589882736E+03 -0.14016252507E+03  0.18406821623E+03  0.47000000000E+01 0.  1.
          1    1    1    2  502    0 -0.83327870149E+02  0.10997134904E+03  0.96801289737E+03  0.97779660514E+03  0.00000000000E+00 0. -1.
          1    1    1    2  503    0  0.11992782388E+03  0.26067596919E+02 -0.16227809586E+03  0.20346101087E+03  0.00000000000E+00 0. -1.
<mgrwt>
<rscale>  0 0.11568766E+03</rscale>
<asrwt>0</asrwt>
<pdfrwt beam="1">  1        2 0.16469874E+00 0.13368413E+03</pdfrwt>
<pdfrwt beam="2">  1        2 0.81108970E-01 0.10011386E+03</pdfrwt>
<totfact> 0.22959028E+02</totfact>
</mgrwt>
</event>
<event>
13    1  0.1675423E-008  0.7516814E+02  0.7546771E-02  0.1378875E+00
          2   -1    0    0  502    0  0.00000000000E+00  0.00000000000E+00  0.55656068458E+03  0.55656068458E+03  0.00000000000E+00 0. -1.
          2   -1    0    0  503    0 -0.00000000000E+00 -0.00000000000E+00 -0.32916882296E+04  0.32916882296E+04  0.00000000000E+00 0. -1.
         24    2    1    2    0    0 -0.21681331424E+02 -0.21197783412E+02  0.10276165668E+03  0.13776521801E+03  0.86601795913E+02 0.  0.
         25    2    1    2    0    0  0.16413504087E+03  0.13388360011E+03 -0.17083344836E+04  0.17259483188E+04  0.12500304582E+03 0.  0.
         24    2    1    2    0    0 -0.38267603713E+02 -0.15124002742E+03  0.67313764540E+02  0.18868686961E+03  0.82058737976E+02 0.  0.
        -13    1    5    5    0    0 -0.16308317321E+02  0.39844990103E+01  0.17361787677E+02  0.24150965147E+02  0.00000000000E+00 0.  1.
         14    1    5    5    0    0 -0.21959286392E+02 -0.15522452643E+03  0.49951976863E+02  0.16453590446E+03  0.00000000000E+00 0. -1.
        -13    1    3    3    0    0 -0.35975322569E+02  0.19747308725E+02  0.77184333879E+02  0.87416253821E+02  0.00000000000E+00 0.  1.
         14    1    3    3    0    0  0.14293991145E+02 -0.40945092137E+02  0.25577322800E+02  0.50348964186E+02  0.00000000000E+00 0. -1.
          5    1    4    4  501    0  0.32734148306E+02  0.82220373439E+02 -0.38366833810E+03  0.39377048890E+03  0.47000000000E+01 0. -1.
         -5    1    4    4    0  501  0.13140089256E+03  0.51663226670E+02 -0.13246661455E+04  0.13321778299E+04  0.47000000000E+01 0. -1.
          1    1    1    2  502    0 -0.29615038055E+02  0.47285358886E+02  0.29593981093E+03  0.30115332862E+03  0.00000000000E+00 0. -1.
          1    1    1    2  503    0 -0.74571067674E+02 -0.87311481614E+01 -0.14928082936E+04  0.14946951791E+04  0.00000000000E+00 0. -1.
<mgrwt>
<rscale>  0 0.64760493E+02</rscale>
<asrwt>0</asrwt>
<pdfrwt beam="1">  1        2 0.81847160E-01 0.55793867E+02</pdfrwt>
<pdfrwt beam="2">  1        2 0.48407179E+00 0.75168144E+02</pdfrwt>
<totfact> 0.19498442E+01</totfact>
</mgrwt>
</event>
<event>
13    1  0.1675423E-008  0.3576093E+02  0.7546771E-02  0.1556105E+00
          2   -1    0    0  503    0  0.00000000000E+00  0.00000000000E+00  0.44871103368E+03  0.44871103368E+03  0.00000000000E+00 0. -1.
          2   -1    0    0  502    0 -0.00000000000E+00 -0.00000000000E+00 -0.36328752078E+04  0.36328752078E+04  0.00000000000E+00 0. -1.
         24    2    1    2    0    0 -0.30684928198E+03 -0.15796885140E+03 -0.16824201538E+03  0.39057804208E+03  0.71660249385E+02 0.  0.
         25    2    1    2    0    0  0.35957210984E+03  0.29531582451E+03 -0.24877358621E+04  0.25339609334E+04  0.12499901572E+03 0.  0.
         24    2    1    2    0    0 -0.86340111943E+02 -0.13491401906E+03 -0.33256111468E+03  0.37780302552E+03  0.80509773507E+02 0.  0.
        -11    1    3    3    0    0 -0.17104461554E+03 -0.12451327998E+03 -0.86397351624E+02  0.22852640934E+03  0.00000000000E+00 0.  1.
         12    1    3    3    0    0 -0.13580466644E+03 -0.33455571427E+02 -0.81844663760E+02  0.16205163274E+03  0.00000000000E+00 0. -1.
        -11    1    5    5    0    0 -0.63748247736E+02 -0.27393727343E+02 -0.13137312365E+03  0.14857036381E+03  0.00000000000E+00 0.  1.
         12    1    5    5    0    0 -0.22591864207E+02 -0.10752029172E+03 -0.20118799103E+03  0.22923266171E+03  0.00000000000E+00 0. -1.
          5    1    4    4  501    0  0.30571709865E+03  0.21397898840E+03 -0.21593002019E+04  0.21913122561E+04  0.47000000000E+01 0.  1.
         -5    1    4    4    0  501  0.53855011193E+02  0.81336836107E+02 -0.32843566022E+03  0.34264867728E+03  0.47000000000E+01 0.  1.
          1    1    1    2  502    0  0.11512216412E+02 -0.30551131208E+02 -0.48578874829E+03  0.48688459691E+03  0.00000000000E+00 0. -1.
          1    1    1    2  503    0  0.22105067672E+02  0.28118177170E+02  0.29016356640E+03  0.29235964354E+03  0.00000000000E+00 0. -1.
<mgrwt>
<rscale>  0 0.34169120E+02</rscale>
<asrwt>0</asrwt>
<pdfrwt beam="1">  1        2 0.65986915E-01 0.35760930E+02</pdfrwt>
<pdfrwt beam="2">  1        2 0.53424637E+00 0.32648166E+02</pdfrwt>
<totfact> 0.18491449E+01</totfact>
</mgrwt>
</event>
<event>
13    1  0.1675423E-008  0.1213039E+03  0.7546771E-02  0.1377437E+00
          2   -1    0    0  502    0  0.00000000000E+00  0.00000000000E+00  0.54737024826E+03  0.54737024826E+03  0.00000000000E+00 0. -1.
          4   -1    0    0  503    0 -0.00000000000E+00 -0.00000000000E+00 -0.20077876021E+04  0.20077876021E+04  0.00000000000E+00 0. -1.
         24    2    1    2    0    0  0.38173670772E+02 -0.82126279696E+01 -0.10742939238E+03  0.13911522623E+03  0.79292467641E+02 0.  0.
         25    2    1    2    0    0 -0.27522761752E+02 -0.12991536121E+03 -0.13648948216E+03  0.22778513045E+03  0.12498473275E+03 0.  0.
         24    2    1    2    0    0 -0.14377218306E+02  0.60836131141E+02 -0.40457696371E+03  0.41724623594E+03  0.80648388600E+02 0.  0.
        -13    1    3    3    0    0 -0.29226598255E+01  0.66926997488E+01 -0.92696164539E+02  0.92983402232E+02  0.00000000000E+00 0.  1.
         14    1    3    3    0    0  0.41096330597E+02 -0.14905327718E+02 -0.14733227837E+02  0.46131823998E+02  0.00000000000E+00 0. -1.
        -13    1    5    5    0    0  0.32894395168E+02  0.15718983065E+02 -0.15872134408E+03  0.16285451400E+03  0.00000000000E+00 0.  1.
         14    1    5    5    0    0 -0.47271613474E+02  0.45117148075E+02 -0.24585561963E+03  0.25439172195E+03  0.00000000000E+00 0. -1.
          5    1    4    4  501    0 -0.29736280175E+02 -0.14539603969E+03 -0.79339626447E+02  0.16834821366E+03  0.47000000000E+01 0. -1.
         -5    1    4    4    0  501  0.22135184230E+01  0.15480678480E+02 -0.57149855714E+02  0.59436916795E+02  0.47000000000E+01 0. -1.
          1    1    1    2  502    0 -0.23818231496E+02 -0.25621543330E+02  0.47670576657E+03  0.47798761440E+03  0.00000000000E+00 0. -1.
          3    1    1    2  503    0  0.27544540782E+02  0.10291340137E+03 -0.12886272821E+04  0.12930236433E+04  0.00000000000E+00 0. -1.
<mgrwt>
<rscale>  0 0.65142204E+02</rscale>
<asrwt>0</asrwt>
<pdfrwt beam="1">  1        2 0.80495626E-01 0.34982448E+02</pdfrwt>
<pdfrwt beam="2">  1        4 0.29526288E+00 0.12130388E+03</pdfrwt>
<totfact> 0.13094992E+00</totfact>
</mgrwt>
</event>
<event>
13    1  0.1675423E-008  0.1983265E+03  0.7546771E-02  0.1317392E+00
          2   -1    0    0  502    0  0.00000000000E+00  0.00000000000E+00  0.17809477983E+04  0.17809477983E+04  0.00000000000E+00 0. -1.
          4   -1    0    0  503    0 -0.00000000000E+00 -0.00000000000E+00 -0.52184956976E+03  0.52184956976E+03  0.00000000000E+00 0. -1.
         24    2    1    2    0    0  0.72209447127E+02 -0.10345066157E+02  0.90230530978E+01  0.10604560351E+03  0.76439714079E+02 0.  0.
         25    2    1    2    0    0  0.56683494153E+02  0.13647659315E+03 -0.38162473653E+02  0.19727961166E+03  0.12499596710E+03 0.  0.
         24    2    1    2    0    0 -0.11806069341E+03  0.40427779596E+02  0.16327603737E+03  0.22035840404E+03  0.79536338601E+02 0.  0.
        -11    1    3    3    0    0  0.27733944081E+02 -0.42495364913E+02  0.57415606748E+01  0.51068514883E+02  0.00000000000E+00 0.  1.
         12    1    3    3    0    0  0.44475503046E+02  0.32150298757E+02  0.32814924230E+01  0.54977088627E+02  0.00000000000E+00 0. -1.
        -13    1    5    5    0    0 -0.11343530813E+03  0.59282624962E+02  0.13470471439E+03  0.18581538912E+03  0.00000000000E+00 0.  1.
         14    1    5    5    0    0 -0.46253852747E+01 -0.18854845366E+02  0.28571322983E+02  0.34543014919E+02  0.00000000000E+00 0. -1.
          5    1    4    4  501    0 -0.20890701368E+02  0.48693404053E+02 -0.57635863585E+02  0.78431191328E+02  0.47000000000E+01 0.  1.
         -5    1    4    4    0  501  0.77574195521E+02  0.87783189098E+02  0.19473389932E+02  0.11884842033E+03  0.47000000000E+01 0.  1.
          1    1    1    2  502    0 -0.48764005864E+01 -0.20185461815E+03  0.14440127545E+04  0.14580610074E+04  0.00000000000E+00 0. -1.
          3    1    1    2  503    0 -0.59558472843E+01  0.35295311555E+02 -0.31905114274E+03  0.32105274149E+03  0.00000000000E+00 0. -1.
<mgrwt>
<rscale>  0 0.84255306E+02</rscale>
<asrwt>0</asrwt>
<pdfrwt beam="1">  1        2 0.26190409E+00 0.19832651E+03</pdfrwt>
<pdfrwt beam="2">  1        4 0.76742585E-01 0.35794289E+02</pdfrwt>
<totfact> 0.80453742E+00</totfact>
</mgrwt>
</event>
<event>
13    1  0.1675423E-008  0.9573838E+02  0.7546771E-02  0.1319600E+00
          2   -1    0    0  503    0  0.00000000000E+00  0.00000000000E+00  0.19541775077E+04  0.19541775077E+04  0.00000000000E+00 0. -1.
          2   -1    0    0  502    0 -0.00000000000E+00 -0.00000000000E+00 -0.15258988906E+04  0.15258988906E+04  0.00000000000E+00 0. -1.
         24    2    1    2    0    0  0.91841179448E+02 -0.88276667943E+02  0.18942036303E+03  0.24259563943E+03  0.82127936741E+02 0.  0.
         25    2    1    2    0    0 -0.50548714076E+02  0.62065563989E+02 -0.50462769813E+03  0.52600371062E+03  0.12499393244E+03 0.  0.
         24    2    1    2    0    0 -0.63264313843E+02  0.34907002144E+02 -0.17189331509E+02  0.11321227392E+03  0.85443979570E+02 0.  0.
        -11    1    3    3    0    0  0.57182897544E+02 -0.11742650780E+02  0.12062162874E+03  0.13400504072E+03  0.00000000000E+00 0.  1.
         12    1    3    3    0    0  0.34658281904E+02 -0.76534017163E+02  0.68798734294E+02  0.10859059871E+03  0.00000000000E+00 0. -1.
        -11    1    5    5    0    0 -0.56733986252E+02 -0.17246433267E+02 -0.75713440650E+01  0.59778841636E+02  0.00000000000E+00 0.  1.
         12    1    5    5    0    0 -0.65303275911E+01  0.52153435411E+02 -0.96179874440E+01  0.53433432288E+02  0.00000000000E+00 0. -1.
          5    1    4    4  501    0 -0.28151857737E+02 -0.14001610240E+02 -0.35655663753E+03  0.35797108535E+03  0.47000000000E+01 0.  1.
         -5    1    4    4    0  501 -0.22396856339E+02  0.76067174229E+02 -0.14807106060E+03  0.16803262527E+03  0.47000000000E+01 0.  1.
          1    1    1    2  502    0 -0.71790741308E+02  0.11447157657E+02 -0.91598435377E+03  0.91886467138E+03  0.00000000000E+00 0. -1.
          1    1    1    2  503    0  0.93762589778E+02 -0.20143055847E+02  0.16766596375E+04  0.16794001030E+04  0.00000000000E+00 0. -1.
<mgrwt>
<rscale>  0 0.83426345E+02</rscale>
<asrwt>0</asrwt>
<pdfrwt beam="1">  1        2 0.28737904E+00 0.95738381E+02</pdfrwt>
<pdfrwt beam="2">  1        2 0.22439690E+00 0.72697648E+02</pdfrwt>
<totfact> 0.24054305E+01</totfact>
</mgrwt>
</event>
<event>
13    1  0.1675423E-008  0.9855145E+02  0.7546771E-02  0.1298173E+00
          2   -1    0    0  502    0  0.00000000000E+00  0.00000000000E+00  0.19832039770E+04  0.19832039770E+04  0.00000000000E+00 0. -1.
          2   -1    0    0  503    0 -0.00000000000E+00 -0.00000000000E+00 -0.35207443506E+04  0.35207443506E+04  0.00000000000E+00 0. -1.
         24    2    1    2    0    0 -0.41646683754E+03 -0.31149109229E+03 -0.12216814034E+04  0.13302273585E+04  0.80796326820E+02 0.  0.
         25    2    1    2    0    0  0.28203437983E+03  0.21419838567E+03 -0.21984696700E+03  0.43518173564E+03  0.12500445714E+03 0.  0.
         24    2    1    2    0    0  0.11383758100E+03  0.16745377588E+03  0.17879515413E+03  0.28098344071E+03  0.77357772158E+02 0.  0.
        -11    1    3    3    0    0 -0.23906319878E+03 -0.22364470766E+03 -0.80006478693E+03  0.86444886000E+03  0.00000000000E+00 0.  1.
         12    1    3    3    0    0 -0.17740363877E+03 -0.87846384628E+02 -0.42161661646E+03  0.46577849845E+03  0.00000000000E+00 0. -1.
        -11    1    5    5    0    0  0.70730136402E+02  0.10787478941E+03  0.62379248061E+02  0.14328605296E+03  0.00000000000E+00 0.  1.
         12    1    5    5    0    0  0.43107444599E+02  0.59578986468E+02  0.11641590606E+03  0.13769738775E+03  0.00000000000E+00 0. -1.
          5    1    4    4  501    0 -0.21956679537E+00 -0.59792503460E+01  0.78257762568E+01  0.10914779810E+02  0.47000000000E+01 0.  1.
         -5    1    4    4    0  501  0.28225394663E+03  0.22017763602E+03 -0.22767274326E+03  0.42426695583E+03  0.47000000000E+01 0.  1.
          1    1    1    2  502    0  0.94812042312E+02 -0.27090484171E+02  0.15888586658E+04  0.15919155372E+04  0.00000000000E+00 0. -1.
          1    1    1    2  503    0 -0.74217165598E+02 -0.43070585089E+02 -0.18636658232E+04  0.18656402556E+04  0.00000000000E+00 0. -1.
<mgrwt>
<rscale>  0 0.91960028E+02</rscale>
<asrwt>0</asrwt>
<pdfrwt beam="1">  1        2 0.29164765E+00 0.98551454E+02</pdfrwt>
<pdfrwt beam="2">  1        2 0.51775651E+00 0.85809457E+02</pdfrwt>
<totfact> 0.22129255E+00</totfact>
</mgrwt>
</event>
<event>
13    1  0.1675423E-008  0.1005223E+03  0.7546771E-02  0.1368419E+00
          2   -1    0    0  502    0  0.00000000000E+00  0.00000000000E+00  0.23967389757E+04  0.23967389757E+04  0.00000000000E+00 0. -1.
          4   -1    0    0  503    0 -0.00000000000E+00 -0.00000000000E+00 -0.10010758798E+04  0.10010758798E+04  0.00000000000E+00 0. -1.
         24    2    1    2    0    0 -0.90464284816E+01  0.76552133104E+02  0.54473845101E+03  0.55593349990E+03  0.79874960686E+02 0.  0.
         25    2    1    2    0    0  0.18919981063E+02 -0.20403139153E+03 -0.77688478447E+02  0.25228460736E+03  0.12500099604E+03 0.  0.
         24    2    1    2    0    0 -0.31892684962E+02 -0.47935689971E+02  0.18300265461E+03  0.20997012314E+03  0.85337607713E+02 0.  0.
        -13    1    5    5    0    0 -0.92302511601E+01  0.22127502832E+02  0.20435199162E+02  0.31502718659E+02  0.00000000000E+00 0.  1.
         14    1    5    5    0    0 -0.22662433802E+02 -0.70063192804E+02  0.16256745545E+03  0.17846740449E+03  0.00000000000E+00 0. -1.
        -13    1    3    3    0    0 -0.13429380897E+02 -0.73485325293E+01  0.21901470582E+03  0.21954906187E+03  0.00000000000E+00 0.  1.
         14    1    3    3    0    0  0.43829524152E+01  0.83900665634E+02  0.32572374519E+03  0.33638443803E+03  0.00000000000E+00 0. -1.
          5    1    4    4  501    0  0.61305130476E-01 -0.78140074757E+02 -0.95696034099E+02  0.12363533469E+03  0.47000000000E+01 0.  1.
         -5    1    4    4    0  501  0.18858675932E+02 -0.12589131678E+03  0.18007555652E+02  0.12864927267E+03  0.47000000000E+01 0.  1.
          1    1    1    2  502    0  0.29244211151E+02  0.13052083523E+03  0.15591201296E+04  0.15648471142E+04  0.00000000000E+00 0. -1.
          3    1    1    2  503    0 -0.72250787701E+01  0.44894113168E+02 -0.81350966089E+03  0.81477951098E+03  0.00000000000E+00 0. -1.
<mgrwt>
<rscale>  0 0.67608636E+02</rscale>
<asrwt>0</asrwt>
<pdfrwt beam="1">  1        2 0.35246161E+00 0.10052229E+03</pdfrwt>
<pdfrwt beam="2">  1        4 0.14721704E+00 0.45471784E+02</pdfrwt>
<totfact> 0.10006702E+00</totfact>
</mgrwt>
</event>
<event>
13    1  0.1675423E-008  0.1231682E+03  0.7546771E-02  0.1319749E+00
          2   -1    0    0  503    0  0.00000000000E+00  0.00000000000E+00  0.13088289790E+04  0.13088289790E+04  0.00000000000E+00 0. -1.
          2   -1    0    0  502    0 -0.00000000000E+00 -0.00000000000E+00 -0.34150720832E+03  0.34150720832E+03  0.00000000000E+00 0. -1.
         24    2    1    2    0    0 -0.16769295483E+02 -0.28089470035E+02 -0.31698859045E+02  0.92571778879E+02  0.80588392355E+02 0.  0.
         25    2    1    2    0    0 -0.34617358119E+02  0.80321038126E+02  0.84369290447E+02  0.17433166437E+03  0.12499408539E+03 0.  0.
         24    2    1    2    0    0 -0.26916164098E+01  0.75565564953E+02  0.11289790051E+03  0.15902772020E+03  0.82622517793E+02 0.  0.
        -13    1    5    5    0    0 -0.24096362833E+01  0.93177153262E+02  0.10263336235E+03  0.13864124676E+03  0.00000000000E+00 0.  1.
         14    1    5    5    0    0 -0.28198012648E+00 -0.17611588308E+02  0.10264538166E+02  0.20386473439E+02  0.00000000000E+00 0. -1.
        -13    1    3    3    0    0 -0.28544973417E+02 -0.45824609837E+02 -0.42491276459E+02  0.68703849596E+02  0.00000000000E+00 0.  1.
         14    1    3    3    0    0  0.11775677934E+02  0.17735139803E+02  0.10792417415E+02  0.23867929284E+02  0.00000000000E+00 0. -1.
          5    1    4    4  501    0 -0.94446843170E+01  0.10353782059E+03  0.92029757852E+02  0.13892749435E+03  0.47000000000E+01 0.  1.
         -5    1    4    4    0  501 -0.25172673802E+02 -0.23216782466E+02 -0.76604674048E+01  0.35404170026E+02  0.47000000000E+01 0.  1.
          1    1    1    2  502    0  0.56426300949E+02 -0.82548819873E+00 -0.20349086653E+03  0.21117088253E+03  0.00000000000E+00 0. -1.
          1    1    1    2  503    0 -0.23480309373E+01 -0.12697164485E+03  0.10052443053E+04  0.10132341414E+04  0.00000000000E+00 0. -1.
<mgrwt>
<rscale>  0 0.83370683E+02</rscale>
<asrwt>0</asrwt>
<pdfrwt beam="1">  1        2 0.19247485E+00 0.12316822E+03</pdfrwt>
<pdfrwt beam="2">  1        2 0.50221649E-01 0.56432339E+02</pdfrwt>
<totfact> 0.30365012E+02</totfact>
</mgrwt>
</event>
<event>
13    1  0.1675423E-008  0.7696817E+02  0.7546771E-02  0.1353665E+00
          2   -1    0    0  503    0  0.00000000000E+00  0.00000000000E+00  0.71171114428E+03  0.71171114428E+03  0.00000000000E+00 0. -1.
          2   -1    0    0  502    0 -0.00000000000E+00 -0.00000000000E+00 -0.16502608260E+04  0.16502608260E+04  0.00000000000E+00 0. -1.
         24    2    1    2    0    0  0.94448875561E+02  0.12903003744E+02  0.27479753054E+02  0.12903148493E+03  0.82503997927E+02 0.  0.
         25    2    1    2    0    0 -0.26032881439E+03 -0.42873831195E+02 -0.20979751341E+03  0.35951223023E+03  0.12499916018E+03 0.  0.
         24    2    1    2    0    0  0.13212653852E+03  0.18281030730E+02  0.41934244325E+02  0.16470911709E+03  0.87057418640E+02 0.  0.
        -13    1    5    5    0    0  0.18714476135E+02 -0.28080884991E+02  0.22739921072E+02  0.40692403827E+02  0.00000000000E+00 0.  1.
         14    1    5    5    0    0  0.11341206239E+03  0.46361915721E+02  0.19194323253E+02  0.12401671327E+03  0.00000000000E+00 0. -1.
        -13    1    3    3    0    0  0.29364572003E+02 -0.34405671180E+02  0.14696827741E+02  0.47560751087E+02  0.00000000000E+00 0.  1.
         14    1    3    3    0    0  0.65084303558E+02  0.47308674924E+02  0.12782925313E+02  0.81470733839E+02  0.00000000000E+00 0. -1.
          5    1    4    4  501    0 -0.22663493367E+03  0.12216944096E+02 -0.15780710149E+03  0.27647390142E+03  0.47000000000E+01 0.  1.
         -5    1    4    4    0  501 -0.33693880718E+02 -0.55090775291E+02 -0.51990411927E+02  0.83038328815E+02  0.47000000000E+01 0.  1.
          1    1    1    2  502    0  0.14060177297E+02  0.75953500949E+02 -0.12497630084E+04  0.12521478347E+04  0.00000000000E+00 0. -1.
          1    1    1    2  503    0  0.19693223013E+02 -0.64263704228E+02  0.45159684267E+03  0.45657130333E+03  0.00000000000E+00 0. -1.
<mgrwt>
<rscale>  0 0.71925626E+02</rscale>
<asrwt>0</asrwt>
<pdfrwt beam="1">  1        2 0.10466340E+00 0.67213441E+02</pdfrwt>
<pdfrwt beam="2">  1        2 0.24268541E+00 0.76968171E+02</pdfrwt>
<totfact> 0.97327564E+01</totfact>
</mgrwt>
</event>
<event>
13    1  0.1675423E-008  0.6039249E+02  0.7546771E-02  0.1533559E+00
          2   -1    0    0  503    0  0.00000000000E+00  0.00000000000E+00  0.28418400399E+04  0.28418400399E+04  0.00000000000E+00 0. -1.
          2   -1    0    0  502    0 -0.00000000000E+00 -0.00000000000E+00 -0.68727963595E+03  0.68727963595E+03  0.00000000000E+00 0. -1.
         24    2    1    2    0    0 -0.14798346810E+03  0.65145879689E+02  0.18911225858E+04  0.18996916511E+04  0.79628151764E+02 0.  0.
         25    2    1    2    0    0  0.26267916129E+03 -0.67765440881E+02 -0.25570212327E+02  0.29978483107E+03  0.12499844970E+03 0.  0.
         24    2    1    2    0    0 -0.90808003162E+02 -0.55146664778E+02  0.33830880147E+03  0.36341241710E+03  0.79551817548E+02 0.  0.
        -13    1    3    3    0    0 -0.20001003000E+02 -0.18210701744E+02  0.33581466995E+03  0.33690230384E+03  0.00000000000E+00 0.  1.
         14    1    3    3    0    0 -0.12798246510E+03  0.83356581433E+02  0.15553079158E+04  0.15627893473E+04  0.00000000000E+00 0. -1.
        -13    1    5    5    0    0  0.59675702825E+01  0.12080819640E+02  0.21216776942E+02  0.25133836198E+02  0.00000000000E+00 0.  1.
         14    1    5    5    0    0 -0.96775573444E+02 -0.67227484418E+02  0.31709202453E+03  0.33827858090E+03  0.00000000000E+00 0. -1.
          5    1    4    4  501    0  0.22731433727E+03 -0.42245320747E+02  0.25277613458E+02  0.23263173213E+03  0.47000000000E+01 0.  1.
         -5    1    4    4    0  501  0.35364824020E+02 -0.25520120133E+02 -0.50847825785E+02  0.67153098935E+02  0.47000000000E+01 0.  1.
          1    1    1    2  502    0 -0.22212685248E+02 -0.26245731363E+01 -0.50552715186E+03  0.50602173178E+03  0.00000000000E+00 0. -1.
          1    1    1    2  503    0 -0.16750047762E+01  0.60390799107E+02  0.45622638093E+03  0.46020904480E+03  0.00000000000E+00 0. -1.
<mgrwt>
<rscale>  0 0.36753382E+02</rscale>
<asrwt>0</asrwt>
<pdfrwt beam="1">  1        2 0.41791765E+00 0.60392491E+02</pdfrwt>
<pdfrwt beam="2">  1        2 0.10107054E+00 0.22367203E+02</pdfrwt>
<totfact> 0.28500519E+01</totfact>
</mgrwt>
</event>
<event>
13    1  0.1675423E-008  0.9705861E+02  0.7546771E-02  0.1401283E+00
          2   -1    0    0  503    0  0.00000000000E+00  0.00000000000E+00  0.26663902566E+04  0.26663902566E+04  0.00000000000E+00 0. -1.
          2   -1    0    0  502    0 -0.00000000000E+00 -0.00000000000E+00 -0.21945051628E+04  0.21945051628E+04  0.00000000000E+00 0. -1.
         24    2    1    2    0    0 -0.21446067914E+03  0.67268533367E+02 -0.24460381775E+03  0.34195905347E+03  0.81157427972E+02 0.  0.
         25    2    1    2    0    0  0.29816166522E+03 -0.45149483680E+03 -0.82012583467E+03  0.99044321759E+03  0.12499366506E+03 0.  0.
         24    2    1    2    0    0 -0.17367768703E+03  0.42454406562E+03  0.17210506389E+03  0.50111449916E+03  0.10532799071E+03 0.  0.
        -13    1    3    3    0    0 -0.15834178412E+03  0.85120889689E+02 -0.17663735805E+03  0.25202865456E+03  0.00000000000E+00 0.  1.
         14    1    3    3    0    0 -0.56118895022E+02 -0.17852356322E+02 -0.67966459704E+02  0.89930398918E+02  0.00000000000E+00 0. -1.
        -13    1    5    5    0    0 -0.11734094242E+03  0.34138807731E+03  0.91707782833E+02  0.37245809634E+03  0.00000000000E+00 0.  1.
         14    1    5    5    0    0 -0.56336744614E+02  0.83155988308E+02  0.80397281056E+02  0.12865640282E+03  0.00000000000E+00 0. -1.
          5    1    4    4  501    0  0.16759317246E+03 -0.21865874740E+03 -0.52187313659E+03  0.59014640554E+03  0.47000000000E+01 0. -1.
         -5    1    4    4    0  501  0.13056849276E+03 -0.23283608939E+03 -0.29825269808E+03  0.40029681205E+03  0.47000000000E+01 0. -1.
          1    1    1    2  502    0  0.21795856428E+02  0.28765761448E+02 -0.82996957112E+03  0.83075388496E+03  0.00000000000E+00 0. -1.
          1    1    1    2  503    0  0.68180844523E+02 -0.69083523639E+02  0.21944792535E+04  0.21966247642E+04  0.00000000000E+00 0. -1.
<mgrwt>
<rscale>  0 0.59185297E+02</rscale>
<asrwt>0</asrwt>
<pdfrwt beam="1">  1        2 0.39211622E+00 0.97058608E+02</pdfrwt>
<pdfrwt beam="2">  1        2 0.32272135E+00 0.36090558E+02</pdfrwt>
<totfact> 0.56324592E+00</totfact>
</mgrwt>
</event>
<event>
13    1  0.1675423E-008  0.1465882E+03  0.7546771E-02  0.1379234E+00
         -3   -1    0    0    0  501 -0.00000000000E+00  0.00000000000E+00  0.20839389145E+03  0.20839389145E+03  0.00000000000E+00 0.  1.
          2   -1    0    0  503    0  0.00000000000E+00 -0.00000000000E+00 -0.27131729371E+04  0.27131729371E+04  0.00000000000E+00 0. -1.
         24    2    1    2    0    0 -0.29587773228E+03 -0.92077617988E+02 -0.50665011542E+03  0.59949247819E+03  0.81700500380E+02 0.  0.
         25    2    1    2    0    0  0.18894208511E+03 -0.31068866122E+02  0.12629783852E+02  0.22901682168E+03  0.12499922881E+03 0.  0.
         24    2    1    2    0    0  0.79209736022E+02  0.23795263750E+01 -0.19911094148E+03  0.22915370014E+03  0.81156680817E+02 0.  0.
        -13    1    5    5    0    0  0.30624625153E+02  0.41119305122E+02 -0.87888790214E+02  0.10175020572E+03  0.00000000000E+00 0.  1.
         14    1    5    5    0    0  0.48585110869E+02 -0.38739778747E+02 -0.11122215127E+03  0.12740349441E+03  0.00000000000E+00 0. -1.
        -13    1    3    3    0    0 -0.12237961082E+03 -0.21311518737E+02 -0.27343394350E+03  0.30032827279E+03  0.00000000000E+00 0.  1.
         14    1    3    3    0    0 -0.17349812146E+03 -0.70766099252E+02 -0.23321617192E+03  0.29916420541E+03  0.00000000000E+00 0. -1.
          5    1    4    4  502    0  0.49608145965E+01  0.21107600252E+02  0.29576710501E+02  0.36973129079E+02  0.47000000000E+01 0. -1.
         -5    1    4    4    0  502  0.18398127052E+03 -0.52176466374E+02 -0.16946926649E+02  0.19204369260E+03  0.47000000000E+01 0. -1.
          1    1    1    2  503    0  0.14589677880E+02  0.14608877848E+03 -0.18260537390E+04  0.18319462458E+04  0.00000000000E+00 0. -1.
         -4    1    1    2    0  501  0.13136233264E+02 -0.25321820746E+02  0.14405966339E+02  0.31957582769E+02  0.00000000000E+00 0.  1.
<mgrwt>
<rscale>  0 0.64665553E+02</rscale>
<asrwt>0</asrwt>
<pdfrwt beam="2">  1        2 0.39899601E+00 0.14658823E+03</pdfrwt>
<pdfrwt beam="1">  1       -3 0.30646161E-01 0.28526395E+02</pdfrwt>
<totfact> 0.20920722E+01</totfact>
</mgrwt>
</event>
<event>
13    1  0.1675423E-008  0.1747978E+03  0.7546771E-02  0.1247750E+00
          2   -1    0    0  503    0  0.00000000000E+00  0.00000000000E+00  0.14050478143E+04  0.14050478143E+04  0.00000000000E+00 0. -1.
          2   -1    0    0  502    0 -0.00000000000E+00 -0.00000000000E+00 -0.38109092874E+04  0.38109092874E+04  0.00000000000E+00 0. -1.
         24    2    1    2    0    0  0.11621478072E+02 -0.53248467881E+03 -0.59132695670E+01  0.53956014525E+03  0.86111507170E+02 0.  0.
         25    2    1    2    0    0 -0.74427974363E+02  0.42044526127E+03  0.26234400301E+03  0.51649075723E+03  0.12499834119E+03 0.  0.
         24    2    1    2    0    0  0.12089454993E+03 -0.14610610585E+03 -0.24131714128E+03  0.31757184704E+03  0.81580812611E+02 0.  0.
        -13    1    5    5    0    0  0.15028522187E+02 -0.21386213770E+02 -0.93514891895E+02  0.97099235964E+02  0.00000000000E+00 0.  1.
         14    1    5    5    0    0  0.10586602775E+03 -0.12471989208E+03 -0.14780224939E+03  0.22047261108E+03  0.00000000000E+00 0. -1.
        -13    1    3    3    0    0  0.34547128176E+02 -0.48499509779E+03 -0.12711001689E+02  0.48639008883E+03  0.00000000000E+00 0.  1.
         14    1    3    3    0    0 -0.22925650104E+02 -0.47489581020E+02  0.67977321216E+01  0.53170056424E+02  0.00000000000E+00 0. -1.
          5    1    4    4  501    0 -0.26007400898E+02  0.24517696995E+03  0.21829849433E+03  0.32933942084E+03  0.47000000000E+01 0.  1.
         -5    1    4    4    0  501 -0.48420573466E+02  0.17526829132E+03  0.44045508675E+02  0.18715133639E+03  0.47000000000E+01 0.  1.
          1    1    1    2  502    0 -0.13503895230E+03  0.27422188513E+03 -0.31219936918E+04  0.31369217033E+04  0.00000000000E+00 0. -1.
          1    1    1    2  503    0  0.76950898663E+02 -0.16076361732E+02  0.70101862667E+03  0.70541264884E+03  0.00000000000E+00 0. -1.
<mgrwt>
<rscale>  0 0.11722309E+03</rscale>
<asrwt>0</asrwt>
<pdfrwt beam="1">  1        2 0.20662468E+00 0.78612278E+02</pdfrwt>
<pdfrwt beam="2">  1        2 0.56042782E+00 0.17479780E+03</pdfrwt>
<totfact> 0.24998948E+00</totfact>
</mgrwt>
</event>
<event>
13    1  0.1675423E-008  0.1000712E+03  0.7546771E-02  0.1304248E+00
          2   -1    0    0  503    0  0.00000000000E+00  0.00000000000E+00  0.18973742680E+04  0.18973742680E+04  0.00000000000E+00 0. -1.
          2   -1    0    0  502    0 -0.00000000000E+00 -0.00000000000E+00 -0.65324063012E+03  0.65324063012E+03  0.00000000000E+00 0. -1.
         24    2    1    2    0    0  0.36947767827E+02  0.19488408008E+02  0.61450306445E+03  0.62096974463E+03  0.79021971152E+02 0.  0.
         25    2    1    2    0    0  0.10050854441E+03 -0.46299392890E+02  0.71779990427E+02  0.18172423237E+03  0.12500291327E+03 0.  0.
         24    2    1    2    0    0  0.38257435255E+02 -0.14369734544E+01  0.31323733028E+03  0.32557029686E+03  0.80079316139E+02 0.  0.
        -13    1    3    3    0    0  0.57535172949E+02  0.29735926670E+02  0.39617392837E+03  0.40143281254E+03  0.00000000000E+00 0.  1.
         14    1    3    3    0    0 -0.20587405122E+02 -0.10247518663E+02  0.21832913608E+03  0.21953693209E+03  0.00000000000E+00 0. -1.
        -13    1    5    5    0    0  0.89060741341E+00  0.28377902222E+02  0.20868732454E+03  0.21060982394E+03  0.00000000000E+00 0.  1.
         14    1    5    5    0    0  0.37366827842E+02 -0.29814875676E+02  0.10455000574E+03  0.11496047292E+03  0.00000000000E+00 0. -1.
          5    1    4    4  501    0  0.57571486864E+02  0.39675003895E+02  0.38241512518E+02  0.79831605981E+02  0.47000000000E+01 0.  1.
         -5    1    4    4    0  501  0.42937057542E+02 -0.85974396785E+02  0.33538477909E+02  0.10189262639E+03  0.47000000000E+01 0.  1.
          1    1    1    2  502    0 -0.99965311401E+02  0.27874604760E+01 -0.58268365911E+03  0.59120307849E+03  0.00000000000E+00 0. -1.
          1    1    1    2  503    0 -0.75748436087E+02  0.25460497861E+02  0.82729691180E+03  0.83114754574E+03  0.00000000000E+00 0. -1.
<mgrwt>
<rscale>  0 0.89425821E+02</rscale>
<asrwt>0</asrwt>
<pdfrwt beam="1">  1        2 0.27902563E+00 0.79912843E+02</pdfrwt>
<pdfrwt beam="2">  1        2 0.96064799E-01 0.10007124E+03</pdfrwt>
<totfact> 0.80629817E+01</totfact>
</mgrwt>
</event>
<event>
13    1  0.1675423E-008  0.1094140E+03  0.7546771E-02  0.1359529E+00
          2   -1    0    0  503    0  0.00000000000E+00  0.00000000000E+00  0.28581385766E+04  0.28581385766E+04  0.00000000000E+00 0. -1.
          2   -1    0    0  502    0 -0.00000000000E+00 -0.00000000000E+00 -0.17855272665E+04  0.17855272665E+04  0.00000000000E+00 0. -1.
         24    2    1    2    0    0  0.45129746213E+02 -0.21428756199E+02  0.19575625881E+03  0.21763536381E+03  0.80924366730E+02 0.  0.
         25    2    1    2    0    0  0.10052043007E+03  0.33649870993E+02 -0.27877302336E+03  0.32338096520E+03  0.12499671765E+03 0.  0.
         24    2    1    2    0    0  0.72627623602E+01  0.97316910320E+00  0.64745520496E+03  0.65256577385E+03  0.81179751121E+02 0.  0.
        -11    1    5    5    0    0 -0.72990157659E+01  0.39338912373E+02  0.28494336907E+03  0.28773868220E+03  0.00000000000E+00 0.  1.
         12    1    5    5    0    0  0.14561778126E+02 -0.38365743269E+02  0.36251183590E+03  0.36482709165E+03  0.00000000000E+00 0. -1.
        -13    1    3    3    0    0 -0.21711279489E+02 -0.88610898163E+01  0.27425887002E+02  0.36084315812E+02  0.00000000000E+00 0.  1.
         14    1    3    3    0    0  0.66841025702E+02 -0.12567666383E+02  0.16833037181E+03  0.18155104799E+03  0.00000000000E+00 0. -1.
          5    1    4    4  501    0  0.70139167870E+02  0.59104333940E+02 -0.83679156754E+02  0.12424619284E+03  0.47000000000E+01 0. -1.
         -5    1    4    4    0  501  0.30381262198E+02 -0.25454462947E+02 -0.19509386661E+03  0.19913477236E+03  0.47000000000E+01 0. -1.
          1    1    1    2  502    0 -0.11021909775E+03  0.10165852768E+01 -0.14686341880E+04  0.14727646319E+04  0.00000000000E+00 0. -1.
          1    1    1    2  503    0 -0.42693840888E+02 -0.14210869173E+02  0.19768070577E+04  0.19773191084E+04  0.00000000000E+00 0. -1.
<mgrwt>
<rscale>  0 0.70166106E+02</rscale>
<asrwt>0</asrwt>
<pdfrwt beam="1">  1        2 0.42031450E+00 0.44996809E+02</pdfrwt>
<pdfrwt beam="2">  1        2 0.26257754E+00 0.10941403E+03</pdfrwt>
<totfact> 0.69847270E+00</totfact>
</mgrwt>
</event>
<event>
13    1  0.1675423E-008  0.1522692E+03  0.7546771E-02  0.1363334E+00
          2   -1    0    0  502    0  0.00000000000E+00  0.00000000000E+00  0.11653481320E+04  0.11653481320E+04  0.00000000000E+00 0. -1.
          2   -1    0    0  503    0 -0.00000000000E+00 -0.00000000000E+00 -0.30814982043E+04  0.30814982043E+04  0.00000000000E+00 0. -1.
         24    2    1    2    0    0  0.14855173881E+03  0.16622171914E+02 -0.67445303380E+02  0.18403019801E+03  0.83512448940E+02 0.  0.
         25    2    1    2    0    0 -0.26141890556E+03  0.57804635966E+02 -0.14171565584E+04  0.14476322323E+04  0.12500059593E+03 0.  0.
         24    2    1    2    0    0  0.35495057472E+02  0.50379600652E+02 -0.67846905108E+02  0.12102001726E+03  0.79023026890E+02 0.  0.
        -11    1    5    5    0    0  0.25246238722E+02 -0.17006746362E+02 -0.11346399384E+02  0.32486039623E+02  0.00000000000E+00 0.  1.
         12    1    5    5    0    0  0.10248818750E+02  0.67386347014E+02 -0.56500505724E+02  0.88533977639E+02  0.00000000000E+00 0. -1.
        -11    1    3    3    0    0  0.12913414218E+02  0.25495599539E+02 -0.33292997848E+02  0.43877164543E+02  0.00000000000E+00 0.  1.
         12    1    3    3    0    0  0.13563832460E+03 -0.88734276247E+01 -0.34152305532E+02  0.14015303347E+03  0.00000000000E+00 0. -1.
          5    1    4    4  501    0 -0.18577087113E+03  0.47727052963E+01 -0.68948699454E+03  0.71410643528E+03  0.47000000000E+01 0.  1.
         -5    1    4    4    0  501 -0.75648034435E+02  0.53031930670E+02 -0.72766956385E+03  0.73352579705E+03  0.47000000000E+01 0.  1.
          1    1    1    2  502    0  0.52064714184E+02 -0.14325416035E+03  0.10596057069E+04  0.10705123741E+04  0.00000000000E+00 0. -1.
          1    1    1    2  503    0  0.25307395091E+02  0.18447751822E+02 -0.14233070124E+04  0.14236515147E+04  0.00000000000E+00 0. -1.
<mgrwt>
<rscale>  0 0.69055662E+02</rscale>
<asrwt>0</asrwt>
<pdfrwt beam="1">  1        2 0.17137473E+00 0.15226916E+03</pdfrwt>
<pdfrwt beam="2">  1        2 0.45316149E+00 0.31317468E+02</pdfrwt>
<totfact> 0.11547810E+01</totfact>
</mgrwt>
</event>
<event>
13    1  0.1675423E-008  0.1409108E+03  0.7546771E-02  0.1216645E+00
         -1   -1    0    0    0  501 -0.00000000000E+00  0.00000000000E+00  0.51506850852E+03  0.51506850852E+03  0.00000000000E+00 0.  1.
          2   -1    0    0  503    0  0.00000000000E+00 -0.00000000000E+00 -0.23996437068E+04  0.23996437068E+04  0.00000000000E+00 0. -1.
         24    2    1    2    0    0  0.12476166657E+03 -0.80535418314E+02 -0.15456400966E+03  0.22948515514E+03  0.81987659429E+02 0.  0.
         25    2    1    2    0    0 -0.76346415402E+02 -0.32988543308E+02 -0.29371443035E+03  0.32986435466E+03  0.12500122698E+03 0.  0.
         24    2    1    2    0    0 -0.52570185149E+02  0.56806992984E+02  0.20964049483E+03  0.23757676735E+03  0.80640712387E+02 0.  0.
        -11    1    5    5    0    0  0.20177366960E+02  0.25650741221E+02  0.61510854879E+02  0.69632405750E+02  0.00000000000E+00 0.  1.
         12    1    5    5    0    0 -0.72747552109E+02  0.31156251762E+02  0.14812963995E+03  0.16794436160E+03  0.00000000000E+00 0. -1.
        -11    1    3    3    0    0  0.88190621551E+02 -0.72670121451E+02 -0.62808076046E+02  0.13039703485E+03  0.00000000000E+00 0.  1.
         12    1    3    3    0    0  0.36571045014E+02 -0.78652968631E+01 -0.91755933617E+02  0.99088120288E+02  0.00000000000E+00 0. -1.
          5    1    4    4  502    0  0.32137978597E+02 -0.24467339587E+02 -0.67703576520E+02  0.78976988093E+02  0.47000000000E+01 0. -1.
         -5    1    4    4    0  502 -0.10848439400E+03 -0.85212037206E+01 -0.22601085383E+03  0.25088736657E+03  0.47000000000E+01 0. -1.
          1    1    1    2  503    0 -0.21030018428E+03  0.10846812832E+03 -0.18209040620E+04  0.18362143408E+04  0.00000000000E+00 0. -1.
         -2    1    1    2    0  501  0.21445511826E+03 -0.51751159683E+02  0.17496680884E+03  0.28157159742E+03  0.00000000000E+00 0.  1.
<mgrwt>
<rscale>  0 0.13756356E+03</rscale>
<asrwt>0</asrwt>
<pdfrwt beam="2">  1        2 0.35288878E+00 0.14091078E+03</pdfrwt>
<pdfrwt beam="1">  1       -1 0.75745369E-01 0.13429584E+03</pdfrwt>
<totfact> 0.12075349E+01</totfact>
</mgrwt>
</event>
<event>
13    1  0.1675423E-008  0.3891562E+02  0.7546771E-02  0.1537986E+00
          2   -1    0    0  503    0  0.00000000000E+00  0.00000000000E+00  0.10257656840E+04  0.10257656840E+04  0.00000000000E+00 0. -1.
         -1   -1    0    0    0  501 -0.00000000000E+00 -0.00000000000E+00 -0.30450108341E+03  0.30450108341E+03  0.00000000000E+00 0.  1.
         24    2    1    2    0    0  0.48774388538E+02 -0.77676140275E+02  0.29708353264E+03  0.32120409838E+03  0.80628305839E+02 0.  0.
         25    2    1    2    0    0 -0.65983852209E+02  0.90749407842E+02  0.61506472061E+01  0.16807222328E+03  0.12498447104E+03 0.  0.
         24    2    1    2    0    0 -0.46616284302E+02 -0.12022641290E+02  0.17288845993E+02  0.97235597411E+02  0.82693623348E+02 0.  0.
        -11    1    5    5    0    0 -0.19482411651E+02 -0.17040376335E+02  0.48867851207E+02  0.55299237526E+02  0.00000000000E+00 0.  1.
         12    1    5    5    0    0 -0.27133872651E+02  0.50177350453E+01 -0.31579005215E+02  0.41936359885E+02  0.00000000000E+00 0. -1.
        -13    1    3    3    0    0 -0.12391604145E+02 -0.55719008412E+02  0.13422055797E+03  0.14585375529E+03  0.00000000000E+00 0.  1.
         14    1    3    3    0    0  0.61165992683E+02 -0.21957131863E+02  0.16286297468E+03  0.17535034309E+03  0.00000000000E+00 0. -1.
          5    1    4    4  502    0  0.98486667296E+01  0.12549231818E+02  0.48372041570E+02  0.51150990814E+02  0.47000000000E+01 0.  1.
         -5    1    4    4    0  502 -0.75832518939E+02  0.78200176023E+02 -0.42221394364E+02  0.11692123246E+03  0.47000000000E+01 0.  1.
          1    1    1    2  503    0  0.34530248997E+02 -0.17747992651E+02  0.56992396074E+03  0.57124482525E+03  0.00000000000E+00 0. -1.
         -2    1    1    2    0  501  0.29295498977E+02  0.16697366374E+02 -0.16918238604E+03  0.17251002304E+03  0.00000000000E+00 0.  1.
<mgrwt>
<rscale>  0 0.36224700E+02</rscale>
<asrwt>0</asrwt>
<pdfrwt beam="1">  1        2 0.15084789E+00 0.38915621E+02</pdfrwt>
<pdfrwt beam="2">  1       -1 0.44779572E-01 0.33719850E+02</pdfrwt>
<totfact> 0.17222204E+02</totfact>
</mgrwt>
</event>
<event>
13    1  0.1675423E-008  0.2128895E+03  0.7546771E-02  0.1210459E+00
          2   -1    0    0  503    0  0.00000000000E+00  0.00000000000E+00  0.13131446137E+04  0.13131446137E+04  0.00000000000E+00 0. -1.
          2   -1    0    0  502    0 -0.00000000000E+00 -0.00000000000E+00 -0.17797543571E+04  0.17797543571E+04  0.00000000000E+00 0. -1.
         24    2    1    2    0    0  0.94552097491E+02 -0.19183483685E+02  0.19325021378E+02  0.12544728281E+03  0.77816830608E+02 0.  0.
         25    2    1    2    0    0 -0.37208775932E+03  0.19325827244E+02  0.23513857908E+03  0.45797109044E+03  0.12499832027E+03 0.  0.
         24    2    1    2    0    0 -0.29011141218E+02 -0.39268846046E+02 -0.57935971359E+03  0.58676045355E+03  0.79034571798E+02 0.  0.
        -11    1    3    3    0    0  0.40943006087E+02 -0.47677255224E+02  0.48308535646E+01  0.63030052826E+02  0.00000000000E+00 0.  1.
         12    1    3    3    0    0  0.53609091405E+02  0.28493771539E+02  0.14494167813E+02  0.62417229980E+02  0.00000000000E+00 0. -1.
        -11    1    5    5    0    0 -0.27805194969E+02  0.83107838208E+01 -0.40448021856E+03  0.40551996893E+03  0.00000000000E+00 0.  1.
         12    1    5    5    0    0 -0.12059462492E+01 -0.47579629867E+02 -0.17487949502E+03  0.18124048462E+03  0.00000000000E+00 0. -1.
          5    1    4    4  501    0 -0.31473645039E+02  0.23285382461E+02  0.67772775902E+02  0.78409428782E+02  0.47000000000E+01 0.  1.
         -5    1    4    4    0  501 -0.34061411428E+03 -0.39595552171E+01  0.16736580318E+03  0.37956166165E+03  0.47000000000E+01 0.  1.
          1    1    1    2  502    0  0.11243486700E+03  0.74980900198E+02 -0.10167516070E+04  0.10256936994E+04  0.00000000000E+00 0. -1.
          1    1    1    2  503    0  0.19411193604E+03 -0.35854397711E+02  0.87503797670E+03  0.89702644455E+03  0.00000000000E+00 0. -1.
<mgrwt>
<rscale>  0 0.14215481E+03</rscale>
<asrwt>0</asrwt>
<pdfrwt beam="1">  1        2 0.19310950E+00 0.21288948E+03</pdfrwt>
<pdfrwt beam="2">  1        2 0.26172858E+00 0.94922451E+02</pdfrwt>
<totfact> 0.34678105E+01</totfact>
</mgrwt>
</event>
<event>
13    1  0.1675423E-008  0.1677963E+03  0.7546771E-02  0.1274257E+00
          2   -1    0    0  503    0  0.00000000000E+00  0.00000000000E+00  0.81409458071E+03  0.81409458071E+03  0.00000000000E+00 0. -1.
          2   -1    0    0  502    0 -0.00000000000E+00 -0.00000000000E+00 -0.41600032419E+04  0.41600032419E+04  0.00000000000E+00 0. -1.
         24    2    1    2    0    0 -0.20486437873E+02  0.48872936083E+02  0.41236950630E+02  0.10412810986E+03  0.79585923043E+02 0.  0.
         25    2    1    2    0    0  0.14956018961E+03 -0.13636865854E+03 -0.20860712572E+03  0.31639682884E+03  0.12500143620E+03 0.  0.
         24    2    1    2    0    0  0.69333243094E+02  0.13040974742E+03 -0.20190646568E+04  0.20259690927E+04  0.78197667716E+02 0.  0.
        -13    1    3    3    0    0  0.12021625863E+02 -0.28933825254E+01 -0.16112331624E+02  0.20310056160E+02  0.00000000000E+00 0.  1.
         14    1    3    3    0    0 -0.32508063737E+02  0.51766318609E+02  0.57349282254E+02  0.83818053695E+02  0.00000000000E+00 0. -1.
        -13    1    5    5    0    0  0.74777387242E+02  0.13848123961E+03 -0.19037758845E+04  0.19102699626E+04  0.00000000000E+00 0.  1.
         14    1    5    5    0    0 -0.54441441479E+01 -0.80714921931E+01 -0.11528877229E+03  0.11569913010E+03  0.00000000000E+00 0. -1.
          5    1    4    4  501    0  0.37204374105E+02 -0.19806538327E+02  0.10725125179E+02  0.43744516493E+02  0.47000000000E+01 0. -1.
         -5    1    4    4    0  501  0.11235581551E+03 -0.11656212022E+03 -0.21933225089E+03  0.27265231235E+03  0.47000000000E+01 0. -1.
          1    1    1    2  502    0 -0.14464017742E+03 -0.76011210931E+02 -0.18384507850E+04  0.18456976388E+04  0.00000000000E+00 0. -1.
          1    1    1    2  503    0 -0.53766817414E+02  0.33097185975E+02  0.67897695568E+03  0.68190615243E+03  0.00000000000E+00 0. -1.
<mgrwt>
<rscale>  0 0.10292800E+03</rscale>
<asrwt>0</asrwt>
<pdfrwt beam="1">  1        2 0.11971979E+00 0.63137108E+02</pdfrwt>
<pdfrwt beam="2">  1        2 0.61176518E+00 0.16779631E+03</pdfrwt>
<totfact> 0.31066416E+00</totfact>
</mgrwt>
</event>
<event>
13    1  0.1675423E-008  0.6356015E+02  0.7546771E-02  0.1477786E+00
          2   -1    0    0  503    0  0.00000000000E+00  0.00000000000E+00  0.19188968917E+04  0.19188968917E+04  0.00000000000E+00 0. -1.
          2   -1    0    0  502    0 -0.00000000000E+00 -0.00000000000E+00 -0.11117641602E+04  0.11117641602E+04  0.00000000000E+00 0. -1.
         24    2    1    2    0    0  0.29433444223E+02  0.30965019611E+03  0.37928139945E+03  0.49611231449E+03  0.74320098376E+02 0.  0.
         25    2    1    2    0    0 -0.30858816057E+03 -0.79875846793E+02 -0.32144744603E+03  0.46964002119E+03  0.12500594065E+03 0.  0.
         24    2    1    2    0    0  0.24949113134E+03 -0.15766577986E+03 -0.24957673415E+03  0.39479253388E+03  0.80425591824E+02 0.  0.
        -11    1    3    3    0    0  0.48000866891E+02  0.24666907392E+03  0.27186199841E+03  0.37021434525E+03  0.00000000000E+00 0.  1.
         12    1    3    3    0    0 -0.18567422668E+02  0.62981122196E+02  0.10741940104E+03  0.12589796923E+03  0.00000000000E+00 0. -1.
        -13    1    5    5    0    0  0.20928849097E+03 -0.13094488849E+03 -0.24240663355E+03  0.34599019099E+03  0.00000000000E+00 0.  1.
         14    1    5    5    0    0  0.40202640374E+02 -0.26720891370E+02 -0.71701005999E+01  0.48802342887E+02  0.00000000000E+00 0. -1.
          5    1    4    4  501    0 -0.48255730244E+02  0.32850723507E+02 -0.59312770208E+02  0.83353945594E+02  0.47000000000E+01 0.  1.
         -5    1    4    4    0  501 -0.26033243032E+03 -0.11272657030E+03 -0.26213467583E+03  0.38628607560E+03  0.47000000000E+01 0.  1.
          1    1    1    2  502    0 -0.15215547278E+02 -0.27111801056E+02 -0.33414169200E+03  0.33558491171E+03  0.00000000000E+00 0. -1.
          1    1    1    2  503    0  0.44879132278E+02 -0.44996768406E+02  0.13330172042E+04  0.13345312706E+04  0.00000000000E+00 0. -1.
<mgrwt>
<rscale>  0 0.44452887E+02</rscale>
<asrwt>0</asrwt>
<pdfrwt beam="1">  1        2 0.28219072E+00 0.63560155E+02</pdfrwt>
<pdfrwt beam="2">  1        2 0.16349473E+00 0.31089590E+02</pdfrwt>
<totfact> 0.44433790E+01</totfact>
</mgrwt>
</event>
<event>
13    1  0.1675423E-008  0.2141597E+03  0.7546771E-02  0.1310002E+00
          2   -1    0    0  502    0  0.00000000000E+00  0.00000000000E+00  0.19345704712E+04  0.19345704712E+04  0.00000000000E+00 0. -1.
          2   -1    0    0  503    0 -0.00000000000E+00 -0.00000000000E+00 -0.41783764728E+04  0.41783764728E+04  0.00000000000E+00 0. -1.
         24    2    1    2    0    0 -0.87579898443E+02 -0.13903925318E+03 -0.50956551625E+02  0.18805486214E+03  0.75933579443E+02 0.  0.
         25    2    1    2    0    0  0.11882015052E+03 -0.29955362578E+03 -0.86864469865E+03  0.93488944314E+03  0.12499622202E+03 0.  0.
         24    2    1    2    0    0  0.78553463726E+02  0.17774488511E+03 -0.27121926221E+04  0.27203128020E+04  0.79680803260E+02 0.  0.
        -11    1    3    3    0    0 -0.56352490441E+02 -0.58594012798E+02  0.10702347516E+02  0.81996352096E+02  0.00000000000E+00 0.  1.
         12    1    3    3    0    0 -0.31227408002E+02 -0.80445240380E+02 -0.61658899141E+02  0.10605851005E+03  0.00000000000E+00 0. -1.
        -13    1    5    5    0    0 -0.64041845766E+01  0.26236451340E+02 -0.16419633462E+03  0.16640252781E+03  0.00000000000E+00 0.  1.
         14    1    5    5    0    0  0.84957648303E+02  0.15150843377E+03 -0.25479962875E+04  0.25539102742E+04  0.00000000000E+00 0. -1.
          5    1    4    4  501    0  0.48233233143E+02 -0.54093301633E+02 -0.34115744685E+03  0.34880227007E+03  0.47000000000E+01 0. -1.
         -5    1    4    4    0  501  0.70586917379E+02 -0.24546032415E+03 -0.52748725180E+03  0.58608717307E+03  0.47000000000E+01 0. -1.
          1    1    1    2  502    0 -0.10240585793E+03  0.29550254548E+03  0.18147288901E+04  0.18414802900E+04  0.00000000000E+00 0. -1.
          1    1    1    2  503    0 -0.73878578731E+01 -0.34654551630E+02 -0.42674101925E+03  0.42820954672E+03  0.00000000000E+00 0. -1.
<mgrwt>
<rscale>  0 0.87111334E+02</rscale>
<asrwt>0</asrwt>
<pdfrwt beam="1">  1        2 0.28449566E+00 0.21415972E+03</pdfrwt>
<pdfrwt beam="2">  1        2 0.61446712E+00 0.35433295E+02</pdfrwt>
<totfact> 0.10112115E+00</totfact>
</mgrwt>
</event>
<event>
13    1  0.1675423E-008  0.1599760E+03  0.7546771E-02  0.1254466E+00
          2   -1    0    0  503    0  0.00000000000E+00  0.00000000000E+00  0.61078498035E+03  0.61078498035E+03  0.00000000000E+00 0. -1.
          2   -1    0    0  502    0 -0.00000000000E+00 -0.00000000000E+00 -0.75564005600E+03  0.75564005600E+03  0.00000000000E+00 0. -1.
         24    2    1    2    0    0  0.85621686512E+02 -0.19234504904E+02 -0.12331766007E+02  0.12215029127E+03  0.84068911165E+02 0.  0.
         25    2    1    2    0    0  0.36747940015E+02  0.11724371404E+03 -0.12625182433E+03  0.21601589360E+03  0.12500737403E+03 0.  0.
         24    2    1    2    0    0  0.30833164421E+02 -0.16998043623E+02  0.44983012796E+02  0.98281936678E+02  0.79976559826E+02 0.  0.
        -11    1    5    5    0    0 -0.25518128618E+02  0.25047549553E+01  0.40614792433E+01  0.25960437192E+02  0.00000000000E+00 0.  1.
         12    1    5    5    0    0  0.56351293039E+02 -0.19502798579E+02  0.40921533553E+02  0.72321499486E+02  0.00000000000E+00 0. -1.
        -13    1    3    3    0    0  0.63390180692E+02  0.16810551120E+02 -0.34764906407E+02  0.74226062502E+02  0.00000000000E+00 0.  1.
         14    1    3    3    0    0  0.22231505820E+02 -0.36045056024E+02  0.22433140400E+02  0.47924228768E+02  0.00000000000E+00 0. -1.
          5    1    4    4  501    0  0.34430798511E+02  0.21246913458E+01 -0.87932207670E+02  0.94573555210E+02  0.47000000000E+01 0.  1.
         -5    1    4    4    0  501  0.23171415031E+01  0.11511902270E+03 -0.38319616664E+02  0.12144233839E+03  0.47000000000E+01 0.  1.
          1    1    1    2  502    0 -0.83102912000E+02 -0.15225729227E+03 -0.46920486091E+03  0.50024152020E+03  0.00000000000E+00 0. -1.
          1    1    1    2  503    0 -0.70099878947E+02  0.71246126757E+02  0.41795036281E+03  0.42973539461E+03  0.00000000000E+00 0. -1.
<mgrwt>
<rscale>  0 0.11336303E+03</rscale>
<asrwt>0</asrwt>
<pdfrwt beam="1">  1        2 0.89821321E-01 0.80331914E+02</pdfrwt>
<pdfrwt beam="2">  1        2 0.11112354E+00 0.15997597E+03</pdfrwt>
<totfact> 0.34158873E+02</totfact>
</mgrwt>
</event>
<event>
13    1  0.1675423E-008  0.7932911E+02  0.7546771E-02  0.1354686E+00
          2   -1    0    0  503    0  0.00000000000E+00  0.00000000000E+00  0.34170801325E+04  0.34170801325E+04  0.00000000000E+00 0. -1.
          2   -1    0    0  502    0 -0.00000000000E+00 -0.00000000000E+00 -0.17610243009E+04  0.17610243009E+04  0.00000000000E+00 0. -1.
         24    2    1    2    0    0  0.13560013065E+03  0.55137595922E+02  0.94538076638E+03  0.95992678192E+03  0.79291130012E+02 0.  0.
         25    2    1    2    0    0 -0.24159546304E+03  0.10582851856E+03  0.19476053241E+03  0.35088401988E+03  0.12497954760E+03 0.  0.
         24    2    1    2    0    0  0.11728935293E+03 -0.20958156821E+02  0.38956923214E+03  0.41552328028E+03  0.81849698717E+02 0.  0.
        -11    1    3    3    0    0  0.52876671873E+01  0.15173211557E+02  0.26493887444E+02  0.30985671611E+02  0.00000000000E+00 0.  1.
         12    1    3    3    0    0  0.13031246346E+03  0.39964384364E+02  0.91888687894E+03  0.92894111031E+03  0.00000000000E+00 0. -1.
        -11    1    5    5    0    0 -0.77247663742E+00  0.15274148486E+02  0.16283777457E+02  0.22339600274E+02  0.00000000000E+00 0.  1.
         12    1    5    5    0    0  0.11806182956E+03 -0.36232305307E+02  0.37328545468E+03  0.39318368001E+03  0.00000000000E+00 0. -1.
          5    1    4    4  501    0 -0.18965054979E+02 -0.11703585407E+02 -0.11388966238E+02  0.25464598439E+02  0.47000000000E+01 0. -1.
         -5    1    4    4    0  501 -0.22263040806E+03  0.11753210397E+03  0.20614949865E+03  0.32541942144E+03  0.47000000000E+01 0. -1.
          1    1    1    2  502    0 -0.21851570306E+02 -0.76224919901E+02 -0.16611824119E+04  0.16630738815E+04  0.00000000000E+00 0. -1.
          1    1    1    2  503    0  0.10557549769E+02 -0.63783037759E+02  0.17875277126E+04  0.17886964698E+04  0.00000000000E+00 0. -1.
<mgrwt>
<rscale>  0 0.71614928E+02</rscale>
<asrwt>0</asrwt>
<pdfrwt beam="1">  1        2 0.50251178E+00 0.64650891E+02</pdfrwt>
<pdfrwt beam="2">  1        2 0.25897416E+00 0.79329114E+02</pdfrwt>
<totfact> 0.34939224E+00</totfact>
</mgrwt>
</event>
<event>
13    1  0.1675423E-008  0.5343976E+02  0.7546771E-02  0.1461786E+00
          2   -1    0    0  502    0  0.00000000000E+00  0.00000000000E+00  0.57236978947E+03  0.57236978947E+03  0.00000000000E+00 0. -1.
          2   -1    0    0  503    0 -0.00000000000E+00 -0.00000000000E+00 -0.83494758030E+03  0.83494758030E+03  0.00000000000E+00 0. -1.
         24    2    1    2    0    0 -0.76873471163E+02  0.95308093080E+02  0.17895526052E+03  0.23087842089E+03  0.79288692702E+02 0.  0.
         25    2    1    2    0    0  0.20774575090E+03 -0.94729413097E+02 -0.14921743326E+03  0.30004541736E+03  0.12501780420E+03 0.  0.
         24    2    1    2    0    0 -0.41252122520E+02 -0.26195198522E+02 -0.42273083970E+02  0.10215633838E+03  0.79126340774E+02 0.  0.
        -11    1    5    5    0    0 -0.80949254866E+01 -0.50969497529E+02 -0.23665379546E+02  0.56775590583E+02  0.00000000000E+00 0.  1.
         12    1    5    5    0    0 -0.33157197033E+02  0.24774299008E+02 -0.18607704424E+02  0.45380747794E+02  0.00000000000E+00 0. -1.
        -13    1    3    3    0    0  0.46511280973E+01  0.38589841169E+02  0.20688696244E+02  0.44032158547E+02  0.00000000000E+00 0.  1.
         14    1    3    3    0    0 -0.81524599261E+02  0.56718251910E+02  0.15826656427E+03  0.18684626234E+03  0.00000000000E+00 0. -1.
          5    1    4    4  501    0  0.18232640405E+03 -0.90918615234E+02 -0.17099750465E+03  0.26602884958E+03  0.47000000000E+01 0.  1.
         -5    1    4    4    0  501  0.25419346849E+02 -0.38107978625E+01  0.21780071382E+02  0.34016567787E+02  0.47000000000E+01 0.  1.
          1    1    1    2  502    0 -0.52683107293E+02  0.67664051552E+01  0.25855365886E+03  0.26395319384E+03  0.00000000000E+00 0. -1.
          1    1    1    2  503    0 -0.36937049926E+02  0.18850113384E+02 -0.50859619297E+03  0.51028399930E+03  0.00000000000E+00 0. -1.
<mgrwt>
<rscale>  0 0.47075363E+02</rscale>
<asrwt>0</asrwt>
<pdfrwt beam="1">  1        2 0.84172029E-01 0.53439758E+02</pdfrwt>
<pdfrwt beam="2">  1        2 0.12278641E+00 0.41468933E+02</pdfrwt>
<totfact> 0.34369884E+02</totfact>
</mgrwt>
</event>
<event>
13    1  0.1675423E-008  0.1398356E+03  0.7546771E-02  0.1277184E+00
          2   -1    0    0  503    0  0.00000000000E+00  0.00000000000E+00  0.15295819630E+04  0.15295819630E+04  0.00000000000E+00 0. -1.
          2   -1    0    0  502    0 -0.00000000000E+00 -0.00000000000E+00 -0.17280767157E+04  0.17280767157E+04  0.00000000000E+00 0. -1.
         24    2    1    2    0    0  0.97963014525E+02  0.12245321008E+03 -0.15863136163E+03  0.23667491509E+03  0.79117416964E+02 0.  0.
         25    2    1    2    0    0 -0.27543078678E+03 -0.18329017320E+03 -0.26711075482E+03  0.44320505633E+03  0.12500064286E+03 0.  0.
         24    2    1    2    0    0 -0.27267616023E+02  0.47199942407E+02 -0.51096729383E+02  0.10894686895E+03  0.79291784274E+02 0.  0.
        -11    1    3    3    0    0  0.35488714245E+02  0.72213186535E+01 -0.68859836267E+02  0.77802784864E+02  0.00000000000E+00 0.  1.
         12    1    3    3    0    0  0.62474300281E+02  0.11523189142E+03 -0.89771525365E+02  0.15887213023E+03  0.00000000000E+00 0. -1.
        -13    1    5    5    0    0 -0.40932772612E+02  0.62658546650E+02 -0.34241430309E+02  0.82304683291E+02  0.00000000000E+00 0.  1.
         14    1    5    5    0    0  0.13665156589E+02 -0.15458604244E+02 -0.16855299074E+02  0.26642185658E+02  0.00000000000E+00 0. -1.
          5    1    4    4  501    0 -0.73870187424E+02 -0.11008042802E+03 -0.62006857719E+02  0.14642897810E+03  0.47000000000E+01 0.  1.
         -5    1    4    4    0  501 -0.20156059936E+03 -0.73209745174E+02 -0.20510389710E+03  0.29677607822E+03  0.47000000000E+01 0.  1.
          1    1    1    2  502    0  0.13775946888E+03 -0.17037744270E+02 -0.10898509276E+04  0.10986550871E+04  0.00000000000E+00 0. -1.
          1    1    1    2  503    0  0.66975919400E+02  0.30674764983E+02  0.13681950207E+04  0.13701767512E+04  0.00000000000E+00 0. -1.
<mgrwt>
<rscale>  0 0.10149464E+03</rscale>
<asrwt>0</asrwt>
<pdfrwt beam="1">  1        2 0.22493852E+00 0.73666240E+02</pdfrwt>
<pdfrwt beam="2">  1        2 0.25412893E+00 0.13983559E+03</pdfrwt>
<totfact> 0.29730181E+01</totfact>
</mgrwt>
</event>
<event>
13    1  0.1675423E-008  0.8768653E+02  0.7546771E-02  0.1309108E+00
          2   -1    0    0  503    0  0.00000000000E+00  0.00000000000E+00  0.10124459614E+04  0.10124459614E+04  0.00000000000E+00 0. -1.
          2   -1    0    0  502    0 -0.00000000000E+00 -0.00000000000E+00 -0.21934196438E+04  0.21934196438E+04  0.00000000000E+00 0. -1.
         24    2    1    2    0    0 -0.52932097584E+03 -0.26011193136E+03 -0.16900276529E+03  0.61638081289E+03  0.59367158653E+02 0.  0.
         25    2    1    2    0    0  0.62462979428E+02  0.44042417508E+03  0.10062991596E+03  0.47289055680E+03  0.12499608368E+03 0.  0.
         24    2    1    2    0    0  0.39044471257E+03 -0.14403208889E+03 -0.10935674793E+04  0.11729790573E+04  0.82448292816E+02 0.  0.
        -11    1    5    5    0    0  0.26210600037E+03 -0.66087378460E+02 -0.77526651314E+03  0.82103913635E+03  0.00000000000E+00 0.  1.
         12    1    5    5    0    0  0.12833871219E+03 -0.77944710431E+02 -0.31830096616E+03  0.35193992099E+03  0.00000000000E+00 0. -1.
        -11    1    3    3    0    0 -0.16909033418E+03 -0.10777414085E+03 -0.75354303622E+02  0.21420802418E+03  0.00000000000E+00 0.  1.
         12    1    3    3    0    0 -0.36023064165E+03 -0.15233779052E+03 -0.93648461664E+02  0.40217278871E+03  0.00000000000E+00 0. -1.
          5    1    4    4  501    0  0.59966875044E+02  0.13134778882E+03  0.74824388318E+02  0.16269310624E+03  0.47000000000E+01 0. -1.
         -5    1    4    4    0  501  0.24961043842E+01  0.30907638626E+03  0.25805527638E+02  0.31019745057E+03  0.47000000000E+01 0. -1.
          1    1    1    2  502    0  0.60190774327E+01 -0.87820230512E+02 -0.47311182852E+03  0.48123115492E+03  0.00000000000E+00 0. -1.
          1    1    1    2  503    0  0.70394206406E+02  0.51540075692E+02  0.45407847477E+03  0.46238402324E+03  0.00000000000E+00 0. -1.
<mgrwt>
<rscale>  0 0.87465583E+02</rscale>
<asrwt>0</asrwt>
<pdfrwt beam="1">  1        2 0.14888911E+00 0.87245193E+02</pdfrwt>
<pdfrwt beam="2">  1        2 0.32256171E+00 0.87686530E+02</pdfrwt>
<totfact> 0.33973912E+01</totfact>
</mgrwt>
</event>
<event>
13    1  0.1675423E-008  0.6894754E+02  0.7546771E-02  0.1507457E+00
          2   -1    0    0  503    0  0.00000000000E+00  0.00000000000E+00  0.24969281258E+04  0.24969281258E+04  0.00000000000E+00 0. -1.
          2   -1    0    0  502    0 -0.00000000000E+00 -0.00000000000E+00 -0.11652035334E+04  0.11652035334E+04  0.00000000000E+00 0. -1.
         24    2    1    2    0    0 -0.59474986681E+01 -0.83884119810E+01  0.13569661863E+03  0.15436472528E+03  0.72863968518E+02 0.  0.
         25    2    1    2    0    0  0.88301896113E+02 -0.31349516224E+02 -0.70111884317E+03  0.71831474900E+03  0.12501371668E+03 0.  0.
         24    2    1    2    0    0 -0.64563804260E+02 -0.45769939147E+02 -0.13056689100E+02  0.11325635401E+03  0.79957191312E+02 0.  0.
        -11    1    3    3    0    0 -0.25999382520E+02  0.13785536251E+02  0.11316567325E+03  0.11692937400E+03  0.00000000000E+00 0.  1.
         12    1    3    3    0    0  0.20051883852E+02 -0.22173948232E+02  0.22530945379E+02  0.37435351286E+02  0.00000000000E+00 0. -1.
        -11    1    5    5    0    0  0.11540105204E+02 -0.13107858305E+02 -0.24040661569E+02  0.29714363296E+02  0.00000000000E+00 0.  1.
         12    1    5    5    0    0 -0.76103909463E+02 -0.32662080842E+02  0.10983972468E+02  0.83541990709E+02  0.00000000000E+00 0. -1.
          5    1    4    4  501    0  0.92563207878E+02 -0.50257364042E+02 -0.32512818278E+03  0.34179551684E+03  0.47000000000E+01 0. -1.
         -5    1    4    4    0  501 -0.42613117653E+01  0.18907847818E+02 -0.37599066039E+03  0.37651923216E+03  0.47000000000E+01 0. -1.
          1    1    1    2  502    0 -0.16400964719E+02  0.16585528548E+02 -0.38212238202E+03  0.38283362737E+03  0.00000000000E+00 0. -1.
          1    1    1    2  503    0 -0.13896284659E+01  0.68922338803E+02  0.22923258881E+04  0.22933622036E+04  0.00000000000E+00 0. -1.
<mgrwt>
<rscale>  0 0.40102678E+02</rscale>
<asrwt>0</asrwt>
<pdfrwt beam="1">  1        2 0.36719531E+00 0.68947543E+02</pdfrwt>
<pdfrwt beam="2">  1        2 0.17135346E+00 0.23325338E+02</pdfrwt>
<totfact> 0.22313342E+01</totfact>
</mgrwt>
</event>
<event>
13    1  0.1675423E-008  0.8691395E+02  0.7546771E-02  0.1416879E+00
          2   -1    0    0  502    0  0.00000000000E+00  0.00000000000E+00  0.13445967299E+04  0.13445967299E+04  0.00000000000E+00 0. -1.
          2   -1    0    0  503    0 -0.00000000000E+00 -0.00000000000E+00 -0.17872510112E+04  0.17872510112E+04  0.00000000000E+00 0. -1.
         24    2    1    2    0    0 -0.69243974539E+02 -0.21159105018E+03  0.74808183559E+03  0.78394016817E+03  0.73282017023E+02 0.  0.
         25    2    1    2    0    0  0.24894361813E+03  0.19133302097E+03 -0.31447733114E+03  0.46163833930E+03  0.12503085453E+03 0.  0.
         24    2    1    2    0    0 -0.81673331622E+02 -0.21382578870E+02 -0.78805274724E+00  0.11684634700E+03  0.80775615153E+02 0.  0.
        -11    1    3    3    0    0 -0.62815754716E+02 -0.86543795965E+02  0.29133224228E+03  0.31033872310E+03  0.00000000000E+00 0.  1.
         12    1    3    3    0    0 -0.64282198225E+01 -0.12504725422E+03  0.45674959330E+03  0.47360144508E+03  0.00000000000E+00 0. -1.
        -13    1    5    5    0    0 -0.35873686277E+02 -0.33638098545E+02  0.32473075294E+02  0.58931686383E+02  0.00000000000E+00 0.  1.
         14    1    5    5    0    0 -0.45799645345E+02  0.12255519675E+02 -0.33261128041E+02  0.57914660620E+02  0.00000000000E+00 0. -1.
          5    1    4    4  501    0  0.15675283801E+03  0.56359525137E+02 -0.20793355618E+03  0.26647007728E+03  0.47000000000E+01 0.  1.
         -5    1    4    4    0  501  0.92190780121E+02  0.13497349584E+03 -0.10654377496E+03  0.19516826202E+03  0.47000000000E+01 0.  1.
          1    1    1    2  502    0 -0.32288666511E+02 -0.15180079992E+02  0.44483373670E+03  0.44626230640E+03  0.00000000000E+00 0. -1.
          1    1    1    2  503    0 -0.65737645461E+02  0.56820688070E+02 -0.13203044696E+04  0.13231605803E+04  0.00000000000E+00 0. -1.
<mgrwt>
<rscale>  0 0.55686668E+02</rscale>
<asrwt>0</asrwt>
<pdfrwt beam="1">  1        2 0.19773481E+00 0.35679025E+02</pdfrwt>
<pdfrwt beam="2">  1        2 0.26283103E+00 0.86913950E+02</pdfrwt>
<totfact> 0.37776164E+01</totfact>
</mgrwt>
</event>
<event>
13    1  0.1675423E-008  0.5719555E+02  0.7546771E-02  0.1423494E+00
          2   -1    0    0  503    0  0.00000000000E+00  0.00000000000E+00  0.32052478149E+04  0.32052478149E+04  0.00000000000E+00 0. -1.
          2   -1    0    0  502    0 -0.00000000000E+00 -0.00000000000E+00 -0.31488251233E+04  0.31488251233E+04  0.00000000000E+00 0. -1.
         24    2    1    2    0    0 -0.21848321259E+03 -0.58889776099E+03  0.10787717876E+04  0.12502540178E+04  0.69649495048E+02 0.  0.
         25    2    1    2    0    0  0.75539163040E+03 -0.84006734098E+02 -0.31301864021E+03  0.83143251636E+03  0.12500285397E+03 0.  0.
         24    2    1    2    0    0 -0.50393857337E+03  0.56933824423E+03  0.13813224096E+03  0.77702261145E+03  0.81138773909E+02 0.  0.
        -11    1    5    5    0    0 -0.29350538588E+03  0.27234659881E+03  0.82515362870E+02  0.40881152935E+03  0.00000000000E+00 0.  1.
         12    1    5    5    0    0 -0.21043318750E+03  0.29699164542E+03  0.55616878094E+02  0.36821108210E+03  0.00000000000E+00 0. -1.
        -13    1    3    3    0    0 -0.18149688152E+03 -0.40828002807E+03  0.73447572676E+03  0.85970244418E+03  0.00000000000E+00 0.  1.
         14    1    3    3    0    0 -0.36986331073E+02 -0.18061773291E+03  0.34429606087E+03  0.39055157362E+03  0.00000000000E+00 0. -1.
          5    1    4    4  501    0  0.99630016863E+02  0.29458384393E+02 -0.30077238900E+02  0.10826202922E+03  0.47000000000E+01 0. -1.
         -5    1    4    4    0  501  0.65576161354E+03 -0.11346511849E+03 -0.28294140131E+03  0.72317048714E+03  0.47000000000E+01 0. -1.
          1    1    1    2  502    0 -0.16101498725E+02  0.48948749362E+02 -0.21704902919E+04  0.21711018736E+04  0.00000000000E+00 0. -1.
          1    1    1    2  503    0 -0.16868345708E+02  0.54617501493E+02  0.13230275952E+04  0.13242619190E+04  0.00000000000E+00 0. -1.
<mgrwt>
<rscale>  0 0.54288392E+02</rscale>
<asrwt>0</asrwt>
<pdfrwt beam="1">  1        2 0.47135997E+00 0.57195546E+02</pdfrwt>
<pdfrwt beam="2">  1        2 0.46306252E+00 0.51529005E+02</pdfrwt>
<totfact> 0.10320090E+00</totfact>
</mgrwt>
</event>
<event>
13    1  0.1675423E-008  0.1045637E+03  0.7546771E-02  0.1336858E+00
          2   -1    0    0  503    0  0.00000000000E+00  0.00000000000E+00  0.96521560852E+03  0.96521560852E+03  0.00000000000E+00 0. -1.
          2   -1    0    0  502    0 -0.00000000000E+00 -0.00000000000E+00 -0.28228432053E+04  0.28228432053E+04  0.00000000000E+00 0. -1.
         24    2    1    2    0    0  0.18894341876E+03  0.68843204764E+02  0.60394556015E+02  0.22514715866E+03  0.81269541163E+02 0.  0.
         25    2    1    2    0    0 -0.93937335941E+01 -0.76972130541E+02 -0.72171311065E+03  0.73655120659E+03  0.12499965889E+03 0.  0.
         24    2    1    2    0    0 -0.22330542020E+02 -0.24866294454E+02 -0.17583527197E+03  0.19567195917E+03  0.79072669302E+02 0.  0.
        -11    1    5    5    0    0  0.22980247304E+02 -0.12347828057E+02 -0.19916986804E+02  0.32821440968E+02  0.00000000000E+00 0.  1.
         12    1    5    5    0    0 -0.45310789324E+02 -0.12518466397E+02 -0.15591828516E+03  0.16285051820E+03  0.00000000000E+00 0. -1.
        -13    1    3    3    0    0  0.14949462100E+03  0.57042957016E+02  0.80733698127E+02  0.17922184763E+03  0.00000000000E+00 0.  1.
         14    1    3    3    0    0  0.39448797758E+02  0.11800247748E+02 -0.20339142112E+02  0.45925311031E+02  0.00000000000E+00 0. -1.
          5    1    4    4  501    0 -0.49002462511E+01 -0.62498072282E+02 -0.71734358412E+03  0.72009300033E+03  0.47000000000E+01 0.  1.
         -5    1    4    4    0  501 -0.44934873430E+01 -0.14474058259E+02 -0.43695265373E+01  0.16458206256E+02  0.47000000000E+01 0.  1.
          1    1    1    2  502    0 -0.53906649834E+02  0.19016544077E+02 -0.18217559756E+04  0.18226525698E+04  0.00000000000E+00 0. -1.
          1    1    1    2  503    0 -0.10331249331E+03  0.13978676154E+02  0.80128220539E+03  0.80803591958E+03  0.00000000000E+00 0. -1.
<mgrwt>
<rscale>  0 0.77311892E+02</rscale>
<asrwt>0</asrwt>
<pdfrwt beam="1">  1        2 0.14194347E+00 0.10456374E+03</pdfrwt>
<pdfrwt beam="2">  1        2 0.41512401E+00 0.57162539E+02</pdfrwt>
<totfact> 0.18654412E+01</totfact>
</mgrwt>
</event>
<event>
13    1  0.1675423E-008  0.1193697E+03  0.7546771E-02  0.1405844E+00
          2   -1    0    0  502    0  0.00000000000E+00  0.00000000000E+00  0.59267339272E+03  0.59267339272E+03  0.00000000000E+00 0. -1.
          2   -1    0    0  503    0 -0.00000000000E+00 -0.00000000000E+00 -0.19942488614E+04  0.19942488614E+04  0.00000000000E+00 0. -1.
         24    2    1    2    0    0 -0.17398086487E+02  0.50545502152E+02  0.45217634088E+03  0.46217845257E+03  0.79296516731E+02 0.  0.
         25    2    1    2    0    0  0.50898463872E+02 -0.37057833713E+03 -0.81557792301E+03  0.90593178893E+03  0.12500440042E+03 0.  0.
         24    2    1    2    0    0 -0.95322846797E+01  0.18737103034E+03 -0.32865549241E+03  0.38689022131E+03  0.80441551415E+02 0.  0.
        -13    1    3    3    0    0  0.98423223482E+01  0.43767823020E+01  0.51321497675E+01  0.11931743115E+02  0.00000000000E+00 0.  1.
         14    1    3    3    0    0 -0.27240408835E+02  0.46168719850E+02  0.44704419112E+03  0.45024670946E+03  0.00000000000E+00 0. -1.
        -13    1    5    5    0    0 -0.31369819040E+02  0.60599131517E+02 -0.16625777974E+03  0.17971635877E+03  0.00000000000E+00 0.  1.
         14    1    5    5    0    0  0.21837534361E+02  0.12677189882E+03 -0.16239771267E+03  0.20717386254E+03  0.00000000000E+00 0. -1.
          5    1    4    4  501    0  0.84317450526E+02 -0.26023110614E+03 -0.63760142101E+03  0.69382081487E+03  0.47000000000E+01 0.  1.
         -5    1    4    4    0  501 -0.33418986654E+02 -0.11034723099E+03 -0.17797650200E+03  0.21211097407E+03  0.47000000000E+01 0.  1.
          1    1    1    2  502    0  0.15014924550E+02  0.23999363675E+02  0.53335159420E+02  0.60382585622E+02  0.00000000000E+00 0. -1.
          1    1    1    2  503    0 -0.38983017255E+02  0.10866244096E+03 -0.76285355356E+03  0.77153920567E+03  0.00000000000E+00 0. -1.
<mgrwt>
<rscale>  0 0.58131521E+02</rscale>
<asrwt>0</asrwt>
<pdfrwt beam="1">  1        2 0.87157854E-01 0.28309317E+02</pdfrwt>
<pdfrwt beam="2">  1        2 0.29327188E+00 0.11936967E+03</pdfrwt>
<totfact> 0.79363009E+01</totfact>
</mgrwt>
</event>
<event>
13    1  0.1675423E-008  0.8116304E+02  0.7546771E-02  0.1439959E+00
          2   -1    0    0  503    0  0.00000000000E+00  0.00000000000E+00  0.35931371843E+04  0.35931371843E+04  0.00000000000E+00 0. -1.
         -3   -1    0    0    0  501 -0.00000000000E+00 -0.00000000000E+00 -0.67072987919E+03  0.67072987919E+03  0.00000000000E+00 0.  1.
         24    2    1    2    0    0 -0.95068754955E+02  0.14326810668E+03  0.19910407699E+04  0.19995725003E+04  0.66955342499E+02 0.  0.
         25    2    1    2    0    0 -0.85156206391E+02 -0.20606242542E+03 -0.27063118980E+03  0.37226272304E+03  0.12499996568E+03 0.  0.
         24    2    1    2    0    0  0.12108211299E+03  0.10365821182E+03  0.83347041891E+03  0.85230692684E+03  0.79675939752E+02 0.  0.
        -11    1    5    5    0    0  0.21684959410E+02 -0.17528763554E+01  0.38323352535E+02  0.44068008687E+02  0.00000000000E+00 0.  1.
         12    1    5    5    0    0  0.99397153577E+02  0.10541108817E+03  0.79514706637E+03  0.80823891815E+03  0.00000000000E+00 0. -1.
        -13    1    3    3    0    0 -0.39723756077E+01  0.48131969419E+02  0.36057544671E+03  0.36379543568E+03  0.00000000000E+00 0.  1.
         14    1    3    3    0    0 -0.91096379347E+02  0.95136137265E+02  0.16304653232E+04  0.16357770646E+04  0.00000000000E+00 0. -1.
          5    1    4    4  502    0 -0.48521702565E+02 -0.71836842270E+01 -0.82071109546E+02  0.95727310424E+02  0.47000000000E+01 0.  1.
         -5    1    4    4    0  502 -0.36634503826E+02 -0.19887874119E+03 -0.18856008025E+03  0.27653541262E+03  0.47000000000E+01 0.  1.
          1    1    1    2  503    0  0.15892324510E+02  0.27845587038E+02  0.69884286144E+03  0.69957793539E+03  0.00000000000E+00 0. -1.
         -4    1    1    2    0  501  0.43250523848E+02 -0.68709480124E+02 -0.33031555537E+03  0.34014697792E+03  0.00000000000E+00 0.  1.
<mgrwt>
<rscale>  0 0.51011885E+02</rscale>
<asrwt>0</asrwt>
<pdfrwt beam="1">  1        2 0.52840252E+00 0.32061545E+02</pdfrwt>
<pdfrwt beam="2">  1       -3 0.98636749E-01 0.81163038E+02</pdfrwt>
<totfact> 0.95754966E-01</totfact>
</mgrwt>
</event>
<event>
13    1  0.1675423E-008  0.8881147E+02  0.7546771E-02  0.1488801E+00
          2   -1    0    0  502    0  0.00000000000E+00  0.00000000000E+00  0.31352498882E+04  0.31352498882E+04  0.00000000000E+00 0. -1.
          2   -1    0    0  503    0 -0.00000000000E+00 -0.00000000000E+00 -0.10785882551E+04  0.10785882551E+04  0.00000000000E+00 0. -1.
         24    2    1    2    0    0 -0.55399203028E+03 -0.51802452788E+03  0.71902420173E+03  0.10475940671E+04  0.72117582010E+02 0.  0.
         25    2    1    2    0    0  0.37906691058E+03  0.65137804400E+03 -0.29344571690E+03  0.81836433417E+03  0.12499886306E+03 0.  0.
         24    2    1    2    0    0  0.14194165819E+03 -0.56364402093E+02  0.75735570002E+03  0.77672522987E+03  0.79937764597E+02 0.  0.
        -11    1    3    3    0    0 -0.40602703075E+03 -0.40523969216E+03  0.50782822187E+03  0.76613749466E+03  0.00000000000E+00 0.  1.
         12    1    3    3    0    0 -0.14796499953E+03 -0.11278483572E+03  0.21119597986E+03  0.28145657243E+03  0.00000000000E+00 0. -1.
        -11    1    5    5    0    0  0.54760156143E+02  0.17499947440E+02  0.28560103912E+03  0.29132949800E+03  0.00000000000E+00 0.  1.
         12    1    5    5    0    0  0.87181502046E+02 -0.73864349532E+02  0.47175466090E+03  0.48539573187E+03  0.00000000000E+00 0. -1.
          5    1    4    4  501    0  0.85975835395E+02  0.24211477433E+03 -0.62241982610E+02  0.26440038317E+03  0.47000000000E+01 0.  1.
         -5    1    4    4    0  501  0.29309107519E+03  0.40926326967E+03 -0.23120373429E+03  0.55396395100E+03  0.47000000000E+01 0.  1.
          1    1    1    2  502    0  0.15278487756E+02 -0.87503769507E+02  0.12205215270E+04  0.12237496229E+04  0.00000000000E+00 0. -1.
          1    1    1    2  503    0  0.17704973748E+02  0.10514655484E+02 -0.34679407869E+03  0.34740488927E+03  0.00000000000E+00 0. -1.
<mgrwt>
<rscale>  0 0.42764378E+02</rscale>
<asrwt>0</asrwt>
<pdfrwt beam="1">  1        2 0.46106616E+00 0.88811471E+02</pdfrwt>
<pdfrwt beam="2">  1        2 0.15861592E+00 0.20591845E+02</pdfrwt>
<totfact> 0.11243128E+01</totfact>
</mgrwt>
</event>
<event>
13    1  0.1675423E-008  0.1205495E+03  0.7546771E-02  0.1271511E+00
          2   -1    0    0  503    0  0.00000000000E+00  0.00000000000E+00  0.80216937426E+03  0.80216937426E+03  0.00000000000E+00 0. -1.
          2   -1    0    0  502    0 -0.00000000000E+00 -0.00000000000E+00 -0.14936268878E+04  0.14936268878E+04  0.00000000000E+00 0. -1.
         24    2    1    2    0    0 -0.45410048156E+03  0.37080096436E+03  0.27554833578E+03  0.65243817427E+03  0.77769424390E+02 0.  0.
         25    2    1    2    0    0  0.30858944515E+03 -0.46034881214E+03 -0.94260147116E+03  0.11005778950E+04  0.12500278042E+03 0.  0.
         24    2    1    2    0    0  0.58604906587E+02 -0.68427707839E+02 -0.79800892454E+02  0.14473516650E+03  0.80394027816E+02 0.  0.
        -11    1    5    5    0    0  0.49311374406E+02 -0.37462028398E+01 -0.12668238572E+02  0.51050268854E+02  0.00000000000E+00 0.  1.
         12    1    5    5    0    0  0.92935321810E+01 -0.64681504999E+02 -0.67132653881E+02  0.93684897644E+02  0.00000000000E+00 0. -1.
        -13    1    3    3    0    0 -0.18368082158E+02  0.30022655938E+02  0.33650286066E+02  0.48693819568E+02  0.00000000000E+00 0.  1.
         14    1    3    3    0    0 -0.43573239941E+03  0.34077830842E+03  0.24189804972E+03  0.60374435471E+03  0.00000000000E+00 0. -1.
          5    1    4    4  501    0  0.14168334245E+03 -0.22138163350E+03 -0.56820906225E+03  0.62607317911E+03  0.47000000000E+01 0.  1.
         -5    1    4    4    0  501  0.16690610271E+03 -0.23896717864E+03 -0.37439240891E+03  0.47450471593E+03  0.47000000000E+01 0.  1.
          1    1    1    2  502    0  0.56154505337E+01  0.11880563044E+03 -0.13947115572E+03  0.18329897541E+03  0.00000000000E+00 0. -1.
          1    1    1    2  503    0  0.81290679291E+02  0.39169925181E+02  0.19486766996E+03  0.21474605089E+03  0.00000000000E+00 0. -1.
<mgrwt>
<rscale>  0 0.10429696E+03</rscale>
<asrwt>0</asrwt>
<pdfrwt beam="1">  1        2 0.11796608E+00 0.90235567E+02</pdfrwt>
<pdfrwt beam="2">  1        2 0.21965101E+00 0.12054954E+03</pdfrwt>
<totfact> 0.96434704E+01</totfact>
</mgrwt>
</event>
<event>
13    1  0.1675423E-008  0.3501903E+02  0.7546771E-02  0.1575570E+00
          2   -1    0    0  503    0  0.00000000000E+00  0.00000000000E+00  0.19134490951E+04  0.19134490951E+04  0.00000000000E+00 0. -1.
          2   -1    0    0  502    0 -0.00000000000E+00 -0.00000000000E+00 -0.26661256677E+04  0.26661256677E+04  0.00000000000E+00 0. -1.
         24    2    1    2    0    0  0.31095023635E+03  0.67102180273E+03  0.56353209662E+03  0.93330391302E+03  0.80792703371E+02 0.  0.
         25    2    1    2    0    0  0.19883972000E+03 -0.39587582580E+03 -0.59166589322E+03  0.74963286304E+03  0.12500398576E+03 0.  0.
         24    2    1    2    0    0 -0.51985478859E+03 -0.26735739921E+03 -0.14812911026E+03  0.60899151977E+03  0.84849618228E+02 0.  0.
        -11    1    5    5    0    0 -0.12224538762E+03 -0.65342826726E+02 -0.73204236808E+02  0.15675611658E+03  0.00000000000E+00 0.  1.
         12    1    5    5    0    0 -0.39760940097E+03 -0.20201457249E+03 -0.74924873447E+02  0.45223540319E+03  0.00000000000E+00 0. -1.
        -13    1    3    3    0    0  0.21517934181E+03  0.49249353415E+03  0.45066042512E+03  0.70138922795E+03  0.00000000000E+00 0.  1.
         14    1    3    3    0    0  0.95770894541E+02  0.17852826858E+03  0.11287167150E+03  0.23191468507E+03  0.00000000000E+00 0. -1.
          5    1    4    4  501    0  0.85026440834E+02 -0.20573708971E+03 -0.19852361981E+03  0.29831353196E+03  0.47000000000E+01 0. -1.
         -5    1    4    4    0  501  0.11381327916E+03 -0.19013873609E+03 -0.39314227341E+03  0.45131933109E+03  0.47000000000E+01 0. -1.
          1    1    1    2  502    0 -0.23487302617E+02 -0.17845849666E+02 -0.14315195774E+04  0.14318234627E+04  0.00000000000E+00 0. -1.
          1    1    1    2  503    0  0.33552134859E+02  0.10057271952E+02  0.85510591163E+03  0.85582300424E+03  0.00000000000E+00 0. -1.
<mgrwt>
<rscale>  0 0.32140144E+02</rscale>
<asrwt>0</asrwt>
<pdfrwt beam="1">  1        2 0.28138958E+00 0.35019031E+02</pdfrwt>
<pdfrwt beam="2">  1        2 0.39207730E+00 0.29497928E+02</pdfrwt>
<totfact> 0.90845373E+00</totfact>
</mgrwt>
</event>
<event>
13    1  0.1675423E-008  0.1478749E+03  0.7546771E-02  0.1407251E+00
          2   -1    0    0  503    0  0.00000000000E+00  0.00000000000E+00  0.15136974172E+04  0.15136974172E+04  0.00000000000E+00 0. -1.
          2   -1    0    0  502    0 -0.00000000000E+00 -0.00000000000E+00 -0.25752872162E+04  0.25752872162E+04  0.00000000000E+00 0. -1.
         24    2    1    2    0    0 -0.13747528557E+03 -0.30560034523E+03  0.42956422090E+03  0.55036879991E+03  0.78034421207E+02 0.  0.
         25    2    1    2    0    0  0.11334650958E+03  0.34155106669E+03 -0.97387769150E+03  0.10457346029E+04  0.12497415468E+03 0.  0.
         24    2    1    2    0    0 -0.80293486755E+01 -0.20113965058E+03 -0.95696223235E+03  0.98085686989E+03  0.76038513944E+02 0.  0.
        -11    1    3    3    0    0 -0.59892745972E+02 -0.19438136283E+03  0.21037979335E+03  0.29262760069E+03  0.00000000000E+00 0.  1.
         12    1    3    3    0    0 -0.77582539596E+02 -0.11121898240E+03  0.21918442755E+03  0.25774119922E+03  0.00000000000E+00 0. -1.
        -11    1    5    5    0    0  0.20661622328E+02 -0.96167784004E+02 -0.58839608677E+03  0.59656106162E+03  0.00000000000E+00 0.  1.
         12    1    5    5    0    0 -0.28690971004E+02 -0.10497186657E+03 -0.36856614558E+03  0.38429580827E+03  0.00000000000E+00 0. -1.
          5    1    4    4  501    0  0.35964240470E+02  0.88007064594E+02 -0.12956863342E+03  0.16077559136E+03  0.47000000000E+01 0.  1.
         -5    1    4    4    0  501  0.77382269109E+02  0.25354400210E+03 -0.84430905808E+03  0.88495901156E+03  0.47000000000E+01 0.  1.
          1    1    1    2  502    0  0.12773906054E+02  0.18645682087E+02 -0.53032932010E+03  0.53081072134E+03  0.00000000000E+00 0. -1.
          1    1    1    2  503    0  0.19384218612E+02  0.14654324703E+03  0.97001522404E+03  0.98121363935E+03  0.00000000000E+00 0. -1.
<mgrwt>
<rscale>  0 0.57811902E+02</rscale>
<asrwt>0</asrwt>
<pdfrwt beam="1">  1        2 0.22260256E+00 0.14787493E+03</pdfrwt>
<pdfrwt beam="2">  1        2 0.37871870E+00 0.22601640E+02</pdfrwt>
<totfact> 0.14225372E+01</totfact>
</mgrwt>
</event>
<event>
13    1  0.1675423E-008  0.4088920E+02  0.7546771E-02  0.1503765E+00
          2   -1    0    0  503    0  0.00000000000E+00  0.00000000000E+00  0.30713590537E+04  0.30713590537E+04  0.00000000000E+00 0. -1.
          2   -1    0    0  502    0 -0.00000000000E+00 -0.00000000000E+00 -0.11229118206E+04  0.11229118206E+04  0.00000000000E+00 0. -1.
         24    2    1    2    0    0 -0.10280647430E+03  0.20320085705E+03  0.15046435324E+04  0.15236584067E+04  0.75650653246E+02 0.  0.
         25    2    1    2    0    0  0.21788024677E+03  0.52507036335E+02  0.18279148646E+03  0.31507099285E+03  0.12501284820E+03 0.  0.
         24    2    1    2    0    0 -0.83792792681E+02 -0.21933215140E+03  0.81295090808E+02  0.25795744899E+03  0.69320480074E+02 0.  0.
        -13    1    5    5    0    0 -0.16896664043E+02 -0.13616163359E+03  0.56475503841E+02  0.14837442587E+03  0.00000000000E+00 0.  1.
         14    1    5    5    0    0 -0.66896128638E+02 -0.83170517808E+02  0.24819586967E+02  0.10958302312E+03  0.00000000000E+00 0. -1.
        -13    1    3    3    0    0  0.36155680150E+01  0.67084727681E+02  0.41918476837E+03  0.42453421895E+03  0.00000000000E+00 0.  1.
         14    1    3    3    0    0 -0.10642204232E+03  0.13611612937E+03  0.10854587640E+04  0.10991241878E+04  0.00000000000E+00 0. -1.
          5    1    4    4  501    0  0.28626150530E+02  0.47636645869E+02  0.85716166943E+02  0.10226464589E+03  0.47000000000E+01 0.  1.
         -5    1    4    4    0  501  0.18925409624E+03  0.48703904666E+01  0.97075319520E+02  0.21280634696E+03  0.47000000000E+01 0.  1.
          1    1    1    2  502    0 -0.40176424754E+02  0.35620264452E+01 -0.95814145162E+03  0.95899002834E+03  0.00000000000E+00 0. -1.
          1    1    1    2  503    0  0.88954449701E+01 -0.39937768436E+02  0.11378585750E+04  0.11385939974E+04  0.00000000000E+00 0. -1.
<mgrwt>
<rscale>  0 0.40610661E+02</rscale>
<asrwt>0</asrwt>
<pdfrwt beam="1">  1        2 0.45167045E+00 0.40889199E+02</pdfrwt>
<pdfrwt beam="2">  1        2 0.16513409E+00 0.40334020E+02</pdfrwt>
<totfact> 0.12661734E+01</totfact>
</mgrwt>
</event>
<event>
13    1  0.1675423E-008  0.9025231E+02  0.7546771E-02  0.1478348E+00
          2   -1    0    0  502    0  0.00000000000E+00  0.00000000000E+00  0.14965861178E+04  0.14965861178E+04  0.00000000000E+00 0. -1.
          2   -1    0    0  503    0 -0.00000000000E+00 -0.00000000000E+00 -0.78236112595E+03  0.78236112595E+03  0.00000000000E+00 0. -1.
         24    2    1    2    0    0  0.17402612752E+02  0.32888425257E+01 -0.40062533400E+03  0.40867361391E+03  0.78738789954E+02 0.  0.
         25    2    1    2    0    0 -0.98074528473E+02  0.30348845326E+03  0.28414187430E+03  0.44504340158E+03  0.12491265016E+03 0.  0.
         24    2    1    2    0    0  0.11637972694E+03 -0.21313722025E+03 -0.64381422688E+01  0.25587863729E+03  0.80378553411E+02 0.  0.
        -11    1    3    3    0    0 -0.12918527566E+01  0.37290573975E+02 -0.26475093291E+03  0.26736737323E+03  0.00000000000E+00 0.  1.
         12    1    3    3    0    0  0.18694465508E+02 -0.34001731449E+02 -0.13587440109E+03  0.14130624068E+03  0.00000000000E+00 0. -1.
        -13    1    5    5    0    0  0.23509607538E+02 -0.77503414057E+02  0.31965275986E+02  0.87070429573E+02  0.00000000000E+00 0.  1.
         14    1    5    5    0    0  0.92870119399E+02 -0.13563380619E+03 -0.38403418255E+02  0.16880820771E+03  0.00000000000E+00 0. -1.
          5    1    4    4  501    0 -0.89877535584E+02  0.30823397646E+03  0.29024065538E+03  0.43283701745E+03  0.47000000000E+01 0.  1.
         -5    1    4    4    0  501 -0.81969928895E+01 -0.47455232006E+01 -0.60987810797E+01  0.12206384130E+02  0.47000000000E+01 0.  1.
          1    1    1    2  502    0  0.21434480168E+02 -0.40185660425E+01  0.98611274494E+03  0.98635385717E+03  0.00000000000E+00 0. -1.
          1    1    1    2  503    0 -0.57142291384E+02 -0.89621509494E+02 -0.14896615107E+03  0.18299773385E+03  0.00000000000E+00 0. -1.
<mgrwt>
<rscale>  0 0.44364581E+02</rscale>
<asrwt>0</asrwt>
<pdfrwt beam="1">  1        2 0.22008619E+00 0.21807930E+02</pdfrwt>
<pdfrwt beam="2">  1        2 0.11505311E+00 0.90252309E+02</pdfrwt>
<totfact> 0.11403889E+02</totfact>
</mgrwt>
</event>
<event>
13    1  0.1675423E-008  0.1269216E+03  0.7546771E-02  0.1304291E+00
          2   -1    0    0  502    0  0.00000000000E+00  0.00000000000E+00  0.22788434630E+04  0.22788434630E+04  0.00000000000E+00 0. -1.
          2   -1    0    0  503    0 -0.00000000000E+00 -0.00000000000E+00 -0.36314258317E+04  0.36314258317E+04  0.00000000000E+00 0. -1.
         24    2    1    2    0    0  0.40715565778E+02 -0.72845018915E+02  0.20957826646E+03  0.23911772355E+03  0.79310036360E+02 0.  0.
         25    2    1    2    0    0 -0.17646947442E+03  0.76322628768E+02 -0.74953551128E+03  0.78383015381E+03  0.12497843130E+03 0.  0.
         24    2    1    2    0    0 -0.21051146434E+01  0.40996796203E+02  0.72717676650E+02  0.11956643963E+03  0.85575137638E+02 0.  0.
        -11    1    5    5    0    0 -0.34967389600E+02 -0.17862941701E+01  0.49978246349E+02  0.61022408101E+02  0.00000000000E+00 0.  1.
         12    1    5    5    0    0  0.32862274957E+02  0.42783090373E+02  0.22739430301E+02  0.58544031529E+02  0.00000000000E+00 0. -1.
        -13    1    3    3    0    0 -0.82850800700E+01 -0.54789170264E+02  0.14991742368E+03  0.15983031519E+03  0.00000000000E+00 0.  1.
         14    1    3    3    0    0  0.49000645848E+02 -0.18055848651E+02  0.59660842776E+02  0.79287408362E+02  0.00000000000E+00 0. -1.
          5    1    4    4  501    0 -0.69470789698E+02 -0.32029799244E+02 -0.27080600148E+03  0.28144285228E+03  0.47000000000E+01 0. -1.
         -5    1    4    4    0  501 -0.10699868472E+03  0.10835242801E+03 -0.47872950980E+03  0.50238730153E+03  0.47000000000E+01 0. -1.
          1    1    1    2  502    0  0.16664692941E+03  0.11543921021E+02  0.19372604383E+04  0.19444491423E+04  0.00000000000E+00 0. -1.
          1    1    1    2  503    0 -0.28787906128E+02 -0.56018327076E+02 -0.28226032388E+04  0.28233058354E+04  0.00000000000E+00 0. -1.
<mgrwt>
<rscale>  0 0.89408279E+02</rscale>
<asrwt>0</asrwt>
<pdfrwt beam="1">  1        2 0.33512404E+00 0.12692159E+03</pdfrwt>
<pdfrwt beam="2">  1        2 0.53403321E+00 0.62982510E+02</pdfrwt>
<totfact> 0.14104021E+00</totfact>
</mgrwt>
</event>
<event>
13    1  0.1675423E-008  0.9278458E+02  0.7546771E-02  0.1322009E+00
          2   -1    0    0  502    0  0.00000000000E+00  0.00000000000E+00  0.27569327898E+04  0.27569327898E+04  0.00000000000E+00 0. -1.
          2   -1    0    0  503    0 -0.00000000000E+00 -0.00000000000E+00 -0.23203371051E+04  0.23203371051E+04  0.00000000000E+00 0. -1.
         24    2    1    2    0    0  0.51846330242E+02 -0.57929000969E+02 -0.38812763332E+02  0.11745845293E+03  0.79033198427E+02 0.  0.
         25    2    1    2    0    0  0.66775893064E+02  0.79379648285E+02 -0.12146547222E+03  0.20282681619E+03  0.12499883186E+03 0.  0.
         24    2    1    2    0    0 -0.84449524641E+01  0.65160170710E+02  0.85750267520E+03  0.86393695392E+03  0.82213486126E+02 0.  0.
        -13    1    3    3    0    0  0.57547438418E+02 -0.43411689964E+02  0.36948214428E+01  0.72179873923E+02  0.00000000000E+00 0.  1.
         14    1    3    3    0    0 -0.57011081758E+01 -0.14517311005E+02 -0.42507584775E+02  0.45278579004E+02  0.00000000000E+00 0. -1.
        -13    1    5    5    0    0  0.20773688251E+02 -0.10994834096E+02  0.17200783318E+03  0.17360624175E+03  0.00000000000E+00 0.  1.
         14    1    5    5    0    0 -0.29218640715E+02  0.76155004806E+02  0.68549484202E+03  0.69033071216E+03  0.00000000000E+00 0. -1.
          5    1    4    4  501    0  0.10263320693E+03  0.44338296937E+02 -0.79321108906E+02  0.13716190454E+03  0.47000000000E+01 0. -1.
         -5    1    4    4    0  501 -0.35857313867E+02  0.35041351349E+02 -0.42144363313E+02  0.65664911643E+02  0.47000000000E+01 0. -1.
          1    1    1    2  502    0 -0.73402490887E+02 -0.14616798610E+01  0.18144311666E+04  0.18159158903E+04  0.00000000000E+00 0. -1.
          1    1    1    2  503    0 -0.36774779955E+02 -0.85149138165E+02 -0.20750599216E+04  0.20771317817E+04  0.00000000000E+00 0. -1.
<mgrwt>
<rscale>  0 0.82534658E+02</rscale>
<asrwt>0</asrwt>
<pdfrwt beam="1">  1        2 0.40543130E+00 0.73417043E+02</pdfrwt>
<pdfrwt beam="2">  1        2 0.34122604E+00 0.92784584E+02</pdfrwt>
<totfact> 0.40840699E+00</totfact>
</mgrwt>
</event>
<event>
13    1  0.1675423E-008  0.1113371E+03  0.7546771E-02  0.1411804E+00
         -1   -1    0    0    0  501  0.00000000000E+00  0.00000000000E+00  0.69713294160E+03  0.69713294160E+03  0.00000000000E+00 0.  1.
         -1   -1    0    0    0  502 -0.00000000000E+00 -0.00000000000E+00 -0.64852945763E+03  0.64852945763E+03  0.00000000000E+00 0.  1.
         24    2    1    2    0    0  0.49827632558E+01  0.20363020742E+03 -0.27574163975E+02  0.22059221389E+03  0.80065604371E+02 0.  0.
         25    2    1    2    0    0 -0.87784386703E+02 -0.20850148477E+03  0.28684248380E+02  0.26005468227E+03  0.12500673567E+03 0.  0.
         24    2    1    2    0    0  0.85791122997E+02  0.12340997190E+03 -0.30692722498E+02  0.17292610007E+03  0.79820141077E+02 0.  0.
        -13    1    5    5    0    0  0.99283964571E+02  0.92231899117E+02 -0.18205606972E+02  0.13673138982E+03  0.00000000000E+00 0.  1.
         14    1    5    5    0    0 -0.13492841574E+02  0.31178072782E+02 -0.12487115526E+02  0.36194710253E+02  0.00000000000E+00 0. -1.
        -13    1    3    3    0    0  0.22218262148E+02  0.19896741585E+03 -0.20012193358E+02  0.20120181815E+03  0.00000000000E+00 0.  1.
         14    1    3    3    0    0 -0.17235498892E+02  0.46627915746E+01 -0.75619706173E+01  0.19390395740E+02  0.00000000000E+00 0. -1.
          5    1    4    4  503    0 -0.52726032375E+02 -0.79011824362E+02 -0.46860383840E+02  0.10602305623E+03  0.47000000000E+01 0.  1.
         -5    1    4    4    0  503 -0.35058354328E+02 -0.12948966041E+03  0.75544632220E+02  0.15403162603E+03  0.47000000000E+01 0.  1.
         -2    1    1    2    0  501  0.24215471905E+02 -0.10858019709E+03  0.37638760559E+03  0.39248398429E+03  0.00000000000E+00 0.  1.
         -2    1    1    2    0  502 -0.27204971455E+02 -0.99584974625E+01 -0.29820148354E+03  0.29960541872E+03  0.00000000000E+00 0.  1.
<mgrwt>
<rscale>  0 0.56793274E+02</rscale>
<asrwt>0</asrwt>
<pdfrwt beam="1">  1       -1 0.10251955E+00 0.11133708E+03</pdfrwt>
<pdfrwt beam="2">  1       -1 0.95371978E-01 0.28970367E+02</pdfrwt>
<totfact> 0.10350794E+01</totfact>
</mgrwt>
</event>
<event>
13    1  0.1675423E-008  0.3850198E+03  0.7546771E-02  0.1122278E+00
          2   -1    0    0  502    0  0.00000000000E+00  0.00000000000E+00  0.46741611738E+03  0.46741611738E+03  0.00000000000E+00 0. -1.
          2   -1    0    0  503    0 -0.00000000000E+00 -0.00000000000E+00 -0.50856915096E+04  0.50856915096E+04  0.00000000000E+00 0. -1.
         24    2    1    2    0    0 -0.87130875118E+02  0.39581624141E+03 -0.70244153853E+02  0.41912673706E+03  0.80440625337E+02 0.  0.
         25    2    1    2    0    0  0.42123413274E+02  0.30562272061E+03 -0.77170374738E+03  0.84043777255E+03  0.12501738482E+03 0.  0.
         24    2    1    2    0    0 -0.85331933947E+02 -0.21596983976E+03 -0.15952896202E+03  0.29423022995E+03  0.84837655896E+02 0.  0.
        -11    1    5    5    0    0 -0.71983174862E+02 -0.14337793175E+03 -0.62174335863E+02  0.17205945721E+03  0.00000000000E+00 0.  1.
         12    1    5    5    0    0 -0.13348759085E+02 -0.72591908009E+02 -0.97354626162E+02  0.12217077274E+03  0.00000000000E+00 0. -1.
        -13    1    3    3    0    0 -0.61578618013E+02  0.27006521397E+03 -0.85524601208E+02  0.28989929873E+03  0.00000000000E+00 0.  1.
         14    1    3    3    0    0 -0.25552257105E+02  0.12575102744E+03  0.15280447356E+02  0.12922743833E+03  0.00000000000E+00 0. -1.
          5    1    4    4  501    0 -0.14579860925E+02  0.29157026552E+02 -0.22663239150E+02  0.39980206987E+02  0.47000000000E+01 0. -1.
         -5    1    4    4    0  501  0.56703274198E+02  0.27646569406E+03 -0.74904050823E+03  0.80045756557E+03  0.47000000000E+01 0. -1.
          1    1    1    2  502    0  0.14962855523E+03 -0.34172392567E+03  0.65091941663E+01  0.37310362572E+03  0.00000000000E+00 0. -1.
          1    1    1    2  503    0 -0.19289159441E+02 -0.14374519659E+03 -0.36233077232E+04  0.36262092617E+04  0.00000000000E+00 0. -1.
<mgrwt>
<rscale>  0 0.23630663E+03</rscale>
<asrwt>0</asrwt>
<pdfrwt beam="1">  1        2 0.68737666E-01 0.38501982E+03</pdfrwt>
<pdfrwt beam="2">  1        2 0.74789580E+00 0.14503363E+03</pdfrwt>
<totfact> 0.94145113E-01</totfact>
</mgrwt>
</event>
<event>
13    1  0.1675423E-008  0.3262794E+03  0.7546771E-02  0.1252547E+00
          2   -1    0    0  502    0  0.00000000000E+00  0.00000000000E+00  0.17234350176E+04  0.17234350176E+04  0.00000000000E+00 0. -1.
          2   -1    0    0  503    0 -0.00000000000E+00 -0.00000000000E+00 -0.15991780474E+04  0.15991780474E+04  0.00000000000E+00 0. -1.
         24    2    1    2    0    0  0.40502299580E+02  0.21005355314E+03 -0.12813911319E+03  0.26206130677E+03  0.80582657687E+02 0.  0.
         25    2    1    2    0    0  0.25832833924E+03  0.60880329681E+03  0.63911394001E+03  0.92815266925E+03  0.12500305620E+03 0.  0.
         24    2    1    2    0    0  0.94085028919E+02 -0.12448204709E+02 -0.51099993117E+02  0.13368260953E+03  0.79075156193E+02 0.  0.
        -13    1    5    5    0    0  0.75741451573E+01 -0.33588267384E+02 -0.12680285293E+02  0.36692356368E+02  0.00000000000E+00 0.  1.
         14    1    5    5    0    0  0.86510883761E+02  0.21140062675E+02 -0.38419707824E+02  0.96990253161E+02  0.00000000000E+00 0. -1.
        -13    1    3    3    0    0  0.17955499881E+02  0.55905824538E+02  0.24648411781E+01  0.58770201933E+02  0.00000000000E+00 0.  1.
         14    1    3    3    0    0  0.22546799698E+02  0.15414772860E+03 -0.13060395437E+03  0.20329110483E+03  0.00000000000E+00 0. -1.
          5    1    4    4  501    0  0.19173417137E+03  0.37012486117E+03  0.32827843211E+03  0.53060646840E+03  0.47000000000E+01 0. -1.
         -5    1    4    4    0  501  0.66594167872E+02  0.23867843565E+03  0.31083550790E+03  0.39754620085E+03  0.47000000000E+01 0. -1.
          1    1    1    2  502    0  0.37719109539E+02  0.13743657671E+02  0.64703030277E+03  0.64827450362E+03  0.00000000000E+00 0. -1.
          1    1    1    2  503    0 -0.43063477728E+03 -0.82015230291E+03 -0.98264816624E+03  0.13504419758E+04  0.00000000000E+00 0. -1.
<mgrwt>
<rscale>  0 0.11444859E+03</rscale>
<asrwt>0</asrwt>
<pdfrwt beam="1">  1        2 0.25344633E+00 0.40144979E+02</pdfrwt>
<pdfrwt beam="2">  1        2 0.23517324E+00 0.32627942E+03</pdfrwt>
<totfact> 0.27580272E+01</totfact>
</mgrwt>
</event>
<event>
13    1  0.1675423E-008  0.1770632E+03  0.7546771E-02  0.1293707E+00
         -3   -1    0    0    0  501 -0.00000000000E+00  0.00000000000E+00  0.13984190431E+04  0.13984190431E+04  0.00000000000E+00 0.  1.
          2   -1    0    0  503    0  0.00000000000E+00 -0.00000000000E+00 -0.82476559802E+03  0.82476559802E+03  0.00000000000E+00 0. -1.
         24    2    1    2    0    0  0.15900756335E+00 -0.85122571043E+02 -0.11395913498E+03  0.16346193177E+03  0.80543412578E+02 0.  0.
         25    2    1    2    0    0  0.24351826889E+02 -0.88684090277E+01 -0.19975484660E+03  0.23706204501E+03  0.12499901717E+03 0.  0.
         24    2    1    2    0    0  0.12665406408E+03 -0.38130395081E+02  0.38490908595E+03  0.41476667173E+03  0.79882467166E+02 0.  0.
        -11    1    5    5    0    0  0.10588989292E+03  0.53653633354E+01  0.25243749714E+03  0.27379946404E+03  0.00000000000E+00 0.  1.
         12    1    5    5    0    0  0.20764171159E+02 -0.43495758416E+02  0.13247158880E+03  0.14096720769E+03  0.00000000000E+00 0. -1.
        -13    1    3    3    0    0  0.37605348618E+02 -0.22632417076E+02 -0.49861884463E+02  0.66427374399E+02  0.00000000000E+00 0.  1.
         14    1    3    3    0    0 -0.37446341054E+02 -0.62490153967E+02 -0.64097250517E+02  0.97034557376E+02  0.00000000000E+00 0. -1.
          5    1    4    4  502    0 -0.54419919965E+01 -0.15128386949E+02  0.13549715837E+02  0.21544562373E+02  0.47000000000E+01 0.  1.
         -5    1    4    4    0  502  0.29793818885E+02  0.62599779216E+01 -0.21330456244E+03  0.21551748264E+03  0.47000000000E+01 0.  1.
          1    1    1    2  503    0  0.38489798587E+02  0.31570345594E+02 -0.43923360138E+03  0.44204559482E+03  0.00000000000E+00 0. -1.
         -4    1    1    2    0  501 -0.18965469712E+03  0.10055102956E+03  0.94169194206E+03  0.96584839775E+03  0.00000000000E+00 0.  1.
<mgrwt>
<rscale>  0 0.93884972E+02</rscale>
<asrwt>0</asrwt>
<pdfrwt beam="2">  1        2 0.12128906E+00 0.49781034E+02</pdfrwt>
<pdfrwt beam="1">  1       -3 0.20564986E+00 0.17706318E+03</pdfrwt>
<totfact> 0.35328184E+00</totfact>
</mgrwt>
</event>
<event>
13    1  0.1675423E-008  0.2228084E+03  0.7546771E-02  0.1355210E+00
          2   -1    0    0  502    0  0.00000000000E+00  0.00000000000E+00  0.61528203350E+03  0.61528203350E+03  0.00000000000E+00 0. -1.
          2   -1    0    0  503    0 -0.00000000000E+00 -0.00000000000E+00 -0.23785435888E+04  0.23785435888E+04  0.00000000000E+00 0. -1.
         24    2    1    2    0    0  0.15331462997E+03  0.25927221137E+03 -0.11793567812E+03  0.33374697354E+03  0.82163025860E+02 0.  0.
         25    2    1    2    0    0 -0.66564818924E+02 -0.81519720693E+02 -0.17362098253E+04  0.17438825386E+04  0.12500164421E+03 0.  0.
         24    2    1    2    0    0  0.26801959890E+02  0.19572256001E+02 -0.19332858530E+03  0.20876355008E+03  0.71448300799E+02 0.  0.
        -11    1    3    3    0    0 -0.88547674752E+01  0.30284593759E+02 -0.98680950632E+01  0.33059685818E+02  0.00000000000E+00 0.  1.
         12    1    3    3    0    0  0.16216939745E+03  0.22898761762E+03 -0.10806758306E+03  0.30068728772E+03  0.00000000000E+00 0. -1.
        -11    1    5    5    0    0 -0.22543601039E+02 -0.12786791294E+01 -0.35318488307E+02  0.41919501243E+02  0.00000000000E+00 0.  1.
         12    1    5    5    0    0  0.49345560929E+02  0.20850935130E+02 -0.15801009700E+03  0.16684404884E+03  0.00000000000E+00 0. -1.
          5    1    4    4  501    0 -0.89434750607E+02 -0.86832310951E+02 -0.10706881971E+04  0.10779302993E+04  0.47000000000E+01 0.  1.
         -5    1    4    4    0  501  0.22869931683E+02  0.53125902578E+01 -0.66552162823E+03  0.66595223930E+03  0.47000000000E+01 0.  1.
          1    1    1    2  502    0 -0.90783231173E+02 -0.19472454059E+03  0.47181846189E+03  0.51843215829E+03  0.00000000000E+00 0. -1.
          1    1    1    2  503    0 -0.22768539765E+02 -0.26002060946E+01 -0.18760592842E+03  0.18900040173E+03  0.00000000000E+00 0. -1.
<mgrwt>
<rscale>  0 0.71456248E+02</rscale>
<asrwt>0</asrwt>
<pdfrwt beam="1">  1        2 0.90482652E-01 0.22280837E+03</pdfrwt>
<pdfrwt beam="2">  1        2 0.34978582E+00 0.22916533E+02</pdfrwt>
<totfact> 0.59198100E+01</totfact>
</mgrwt>
</event>
<event>
13    1  0.1675423E-008  0.4977301E+02  0.7546771E-02  0.1476878E+00
          2   -1    0    0  503    0  0.00000000000E+00  0.00000000000E+00  0.14253957565E+04  0.14253957565E+04  0.00000000000E+00 0. -1.
          2   -1    0    0  502    0 -0.00000000000E+00 -0.00000000000E+00 -0.41452991114E+04  0.41452991114E+04  0.00000000000E+00 0. -1.
         24    2    1    2    0    0 -0.23441478538E+03  0.80062472354E+03 -0.10192217349E+04  0.13195598181E+04  0.80466943142E+02 0.  0.
         25    2    1    2    0    0  0.18624847665E+03  0.93773245280E+02 -0.23579376625E+03  0.33868199075E+03  0.12499949628E+03 0.  0.
         24    2    1    2    0    0  0.64529179185E+02 -0.87694619260E+03 -0.16017807644E+03  0.89837764214E+03  0.90701334292E+02 0.  0.
        -13    1    3    3    0    0 -0.34141530231E+02  0.21319149427E+03 -0.29927456877E+03  0.36902781037E+03  0.00000000000E+00 0.  1.
         14    1    3    3    0    0 -0.20027325515E+03  0.58743322927E+03 -0.71994716616E+03  0.95053200769E+03  0.00000000000E+00 0. -1.
        -13    1    5    5    0    0  0.35261995384E+02 -0.47031208761E+03 -0.39888371542E+02  0.47331590957E+03  0.00000000000E+00 0.  1.
         14    1    5    5    0    0  0.29267183801E+02 -0.40663410500E+03 -0.12028970489E+03  0.42506173257E+03  0.00000000000E+00 0. -1.
          5    1    4    4  501    0  0.11625859523E+03  0.14536462663E+02 -0.55741528825E+02  0.12983288392E+03  0.47000000000E+01 0. -1.
         -5    1    4    4    0  501  0.69989881421E+02  0.79236782617E+02 -0.18005223742E+03  0.20884910683E+03  0.47000000000E+01 0. -1.
          1    1    1    2  502    0  0.33191459810E+02 -0.22247518095E+02 -0.21584825168E+04  0.21588523340E+04  0.00000000000E+00 0. -1.
          1    1    1    2  503    0 -0.49554330262E+02  0.47957418789E+01  0.85377273950E+03  0.85522308288E+03  0.00000000000E+00 0. -1.
<mgrwt>
<rscale>  0 0.44596182E+02</rscale>
<asrwt>0</asrwt>
<pdfrwt beam="1">  1        2 0.20961702E+00 0.49773008E+02</pdfrwt>
<pdfrwt beam="2">  1        2 0.60960281E+00 0.39957791E+02</pdfrwt>
<totfact> 0.20766336E+00</totfact>
</mgrwt>
</event>
<event>
13    1  0.1675423E-008  0.8521562E+02  0.7546771E-02  0.1445939E+00
          2   -1    0    0  503    0  0.00000000000E+00  0.00000000000E+00  0.10756872348E+04  0.10756872348E+04  0.00000000000E+00 0. -1.
          2   -1    0    0  502    0 -0.00000000000E+00 -0.00000000000E+00 -0.16045764215E+04  0.16045764215E+04  0.00000000000E+00 0. -1.
         24    2    1    2    0    0 -0.18642974059E+02 -0.13950019314E+03  0.28675379519E+03  0.32962546604E+03  0.81347061653E+02 0.  0.
         25    2    1    2    0    0  0.15368035927E+03  0.19213972058E+03 -0.55393590657E+03  0.61887400924E+03  0.12499890269E+03 0.  0.
         24    2    1    2    0    0 -0.46658294838E+02 -0.76775851161E+02 -0.89309274991E+02  0.14987985730E+03  0.80101792905E+02 0.  0.
        -11    1    3    3    0    0 -0.22627105376E+02 -0.14832012862E+03  0.28049174539E+03  0.31809820132E+03  0.00000000000E+00 0.  1.
         12    1    3    3    0    0  0.39841313173E+01  0.88199354812E+01  0.62620498005E+01  0.11527264721E+02  0.00000000000E+00 0. -1.
        -11    1    5    5    0    0 -0.14870447725E+02  0.16256903618E+02 -0.15312967953E+02  0.26831029021E+02  0.00000000000E+00 0.  1.
         12    1    5    5    0    0 -0.31787847113E+02 -0.93032754779E+02 -0.73996307037E+02  0.12304882828E+03  0.00000000000E+00 0. -1.
          5    1    4    4  501    0  0.17240205965E+03  0.15214297152E+03 -0.48659877470E+03  0.53821037847E+03  0.47000000000E+01 0.  1.
         -5    1    4    4    0  501 -0.18721700377E+02  0.39996749062E+02 -0.67337131877E+02  0.80663630776E+02  0.47000000000E+01 0.  1.
          1    1    1    2  502    0 -0.33093607900E+01  0.29019580704E+02 -0.87432065363E+03  0.87480837519E+03  0.00000000000E+00 0. -1.
          1    1    1    2  503    0 -0.85069729585E+02 -0.48832569834E+01  0.70192285323E+03  0.70707594852E+03  0.00000000000E+00 0. -1.
<mgrwt>
<rscale>  0 0.49889375E+02</rscale>
<asrwt>0</asrwt>
<pdfrwt beam="1">  1        2 0.15818930E+00 0.85215625E+02</pdfrwt>
<pdfrwt beam="2">  1        2 0.23596712E+00 0.29207669E+02</pdfrwt>
<totfact> 0.66310732E+01</totfact>
</mgrwt>
</event>
<event>
13    1  0.1675423E-008  0.1055913E+03  0.7546771E-02  0.1341030E+00
          2   -1    0    0  503    0  0.00000000000E+00  0.00000000000E+00  0.48357866992E+03  0.48357866992E+03  0.00000000000E+00 0. -1.
          2   -1    0    0  502    0 -0.00000000000E+00 -0.00000000000E+00 -0.27007325799E+04  0.27007325799E+04  0.00000000000E+00 0. -1.
         24    2    1    2    0    0  0.21493153966E+03  0.40694873555E+03  0.45822843575E+02  0.46920729787E+03  0.79075377201E+02 0.  0.
         25    2    1    2    0    0 -0.24334181083E+03 -0.32829566081E+03 -0.13234096443E+04  0.13906940666E+04  0.12499448927E+03 0.  0.
         24    2    1    2    0    0 -0.54788772082E+01 -0.36470485768E+02 -0.13331807811E+03  0.16326419439E+03  0.86725848459E+02 0.  0.
        -13    1    5    5    0    0  0.31822656729E+02  0.58955381184E+01 -0.77009194382E+02  0.83533555356E+02  0.00000000000E+00 0.  1.
         14    1    5    5    0    0 -0.37301533937E+02 -0.42366023886E+02 -0.56308883730E+02  0.79730639035E+02  0.00000000000E+00 0. -1.
        -13    1    3    3    0    0  0.20448063738E+03  0.39858232831E+03  0.57236312790E+02  0.45161510051E+03  0.00000000000E+00 0.  1.
         14    1    3    3    0    0  0.10450902282E+02  0.83664072312E+01 -0.11413469215E+02  0.17592197361E+02  0.00000000000E+00 0. -1.
          5    1    4    4  501    0 -0.30737658963E+02  0.54243292241E+01 -0.92027551372E+02  0.97290221696E+02  0.47000000000E+01 0. -1.
         -5    1    4    4    0  501 -0.21260415187E+03 -0.33371999003E+03 -0.12313820930E+04  0.12934038449E+04  0.47000000000E+01 0. -1.
          1    1    1    2  502    0 -0.49344631781E+02  0.23358141577E+02 -0.96704627613E+03  0.96858608066E+03  0.00000000000E+00 0. -1.
          1    1    1    2  503    0  0.83233780166E+02 -0.65540730546E+02  0.16079724501E+03  0.19255961031E+03  0.00000000000E+00 0. -1.
<mgrwt>
<rscale>  0 0.75925254E+02</rscale>
<asrwt>0</asrwt>
<pdfrwt beam="1">  1        2 0.71114510E-01 0.10559133E+03</pdfrwt>
<pdfrwt beam="2">  1        2 0.39716656E+00 0.54593914E+02</pdfrwt>
<totfact> 0.48323863E+01</totfact>
</mgrwt>
</event>
<event>
13    1  0.1675423E-008  0.7371060E+02  0.7546771E-02  0.1402879E+00
         -1   -1    0    0    0  501 -0.00000000000E+00  0.00000000000E+00  0.52836867344E+03  0.52836867344E+03  0.00000000000E+00 0.  1.
          2   -1    0    0  503    0  0.00000000000E+00 -0.00000000000E+00 -0.23508212529E+04  0.23508212529E+04  0.00000000000E+00 0. -1.
         24    2    1    2    0    0  0.25174405157E+02 -0.14410594779E+03 -0.86631811921E+03  0.88225199129E+03  0.80381699471E+02 0.  0.
         25    2    1    2    0    0 -0.26932617255E+01  0.90797136943E+02  0.13025311190E+03  0.20209341885E+03  0.12499801217E+03 0.  0.
         24    2    1    2    0    0  0.13334636837E+02  0.58717271561E+02 -0.60795328455E+03  0.61626425999E+03  0.80925344745E+02 0.  0.
        -11    1    5    5    0    0 -0.23860237726E+02 -0.67922317274E+01 -0.12083314778E+03  0.12335353647E+03  0.00000000000E+00 0.  1.
         12    1    5    5    0    0  0.37194874563E+02  0.65509503288E+02 -0.48712013677E+03  0.49291072352E+03  0.00000000000E+00 0. -1.
        -13    1    3    3    0    0  0.85832875937E+01 -0.25664104504E+01 -0.74802792191E+01  0.11671069604E+02  0.00000000000E+00 0.  1.
         14    1    3    3    0    0  0.16591117563E+02 -0.14153953734E+03 -0.85883783999E+03  0.87058092169E+03  0.00000000000E+00 0. -1.
          5    1    4    4  502    0 -0.41031823605E+02  0.95774716336E+02  0.12499495886E+03  0.16279507541E+03  0.47000000000E+01 0.  1.
         -5    1    4    4    0  502  0.38338561880E+02 -0.49775793928E+01  0.52581530383E+01  0.39298343438E+02  0.47000000000E+01 0.  1.
          1    1    1    2  503    0 -0.68509507347E+02  0.28255915830E+02 -0.82526677817E+03  0.82858747548E+03  0.00000000000E+00 0. -1.
         -2    1    1    2    0  501  0.32693727078E+02 -0.33664376540E+02  0.34683249058E+03  0.34999278072E+03  0.00000000000E+00 0.  1.
<mgrwt>
<rscale>  0 0.58813591E+02</rscale>
<asrwt>0</asrwt>
<pdfrwt beam="2">  1        2 0.34570901E+00 0.73710603E+02</pdfrwt>
<pdfrwt beam="1">  1       -1 0.77701276E-01 0.46927285E+02</pdfrwt>
<totfact> 0.13507640E+01</totfact>
</mgrwt>
</event>
<event>
13    1  0.1675423E-008  0.1342198E+03  0.7546771E-02  0.1259095E+00
          2   -1    0    0  502    0  0.00000000000E+00  0.00000000000E+00  0.28322043160E+04  0.28322043160E+04  0.00000000000E+00 0. -1.
          2   -1    0    0  503    0 -0.00000000000E+00 -0.00000000000E+00 -0.36998840015E+03  0.36998840015E+03  0.00000000000E+00 0. -1.
         24    2    1    2    0    0 -0.76307053663E+02 -0.10689573069E+03  0.13073777846E+04  0.13157152875E+04  0.67974865625E+02 0.  0.
         25    2    1    2    0    0  0.14116051786E+02  0.11828523266E+03  0.60774686616E+02  0.18305213694E+03  0.12499545241E+03 0.  0.
         24    2    1    2    0    0  0.24631301141E+02 -0.22181406198E+02  0.92670681851E+02  0.11385358315E+03  0.57236940379E+02 0.  0.
        -13    1    5    5    0    0  0.29546969631E+02 -0.29577776666E+02  0.32295321535E+02  0.52828553642E+02  0.00000000000E+00 0.  1.
         14    1    5    5    0    0 -0.49156684904E+01  0.73963704678E+01  0.60375360317E+02  0.61025029506E+02  0.00000000000E+00 0. -1.
        -13    1    3    3    0    0 -0.43591249017E+02 -0.18802738600E+02  0.63938561332E+03  0.64114561722E+03  0.00000000000E+00 0.  1.
         14    1    3    3    0    0 -0.32715804646E+02 -0.88092992087E+02  0.66799217126E+03  0.67456967023E+03  0.00000000000E+00 0. -1.
          5    1    4    4  501    0  0.47880712120E+02 -0.12711991868E+01  0.21135369007E+02  0.52563983521E+02  0.47000000000E+01 0.  1.
         -5    1    4    4    0  501 -0.33764660335E+02  0.11955643185E+03  0.39639317609E+02  0.13048815342E+03  0.47000000000E+01 0.  1.
          1    1    1    2  502    0  0.27697552999E+02  0.14451242069E+03  0.12757473441E+04  0.12842049214E+04  0.00000000000E+00 0. -1.
          1    1    1    2  503    0  0.98621477379E+01 -0.13372051646E+03 -0.27435458127E+03  0.30536678723E+03  0.00000000000E+00 0. -1.
<mgrwt>
<rscale>  0 0.11080003E+03</rscale>
<asrwt>0</asrwt>
<pdfrwt beam="1">  1        2 0.41650062E+00 0.91466766E+02</pdfrwt>
<pdfrwt beam="2">  1        2 0.54410060E-01 0.13421975E+03</pdfrwt>
<totfact> 0.50985920E+01</totfact>
</mgrwt>
</event>
<event>
13    1  0.1675423E-008  0.1118630E+03  0.7546771E-02  0.1294991E+00
          2   -1    0    0  503    0  0.00000000000E+00  0.00000000000E+00  0.79916907026E+03  0.79916907026E+03  0.00000000000E+00 0. -1.
          2   -1    0    0  502    0 -0.00000000000E+00 -0.00000000000E+00 -0.58579216492E+03  0.58579216492E+03  0.00000000000E+00 0. -1.
         24    2    1    2    0    0 -0.84340712379E+02 -0.11642926017E+03  0.49516620494E+02  0.17332972302E+03  0.83199572037E+02 0.  0.
         25    2    1    2    0    0 -0.64146941307E+02  0.39172323120E+02  0.34966541314E+03  0.37886828161E+03  0.12500389071E+03 0.  0.
         24    2    1    2    0    0  0.16727931614E+03  0.10805380437E+03  0.20513026866E+02  0.21608373929E+03  0.81322837292E+02 0.  0.
        -11    1    5    5    0    0  0.10915886018E+03  0.69861137544E+02  0.52125366481E+02  0.13968997504E+03  0.00000000000E+00 0.  1.
         12    1    5    5    0    0  0.58120455956E+02  0.38192666830E+02 -0.31612339615E+02  0.76393764248E+02  0.00000000000E+00 0. -1.
        -13    1    3    3    0    0 -0.26914859364E+02 -0.74699391033E+02 -0.10859729746E+02  0.80139518375E+02  0.00000000000E+00 0.  1.
         14    1    3    3    0    0 -0.57425853016E+02 -0.41729869142E+02  0.60376350240E+02  0.93190204643E+02  0.00000000000E+00 0. -1.
          5    1    4    4  501    0  0.17863484702E+01  0.61857475071E+02  0.85720487741E+02  0.10582830567E+03  0.47000000000E+01 0. -1.
         -5    1    4    4    0  501 -0.65933289777E+02 -0.22685151951E+02  0.26394492539E+03  0.27303997594E+03  0.47000000000E+01 0. -1.
          1    1    1    2  502    0 -0.38384405997E+02 -0.10615236117E+03 -0.39592863577E+03  0.41170519918E+03  0.00000000000E+00 0. -1.
          1    1    1    2  503    0  0.19592743543E+02  0.75355493853E+02  0.18961048062E+03  0.20497429208E+03  0.00000000000E+00 0. -1.
<mgrwt>
<rscale>  0 0.93326100E+02</rscale>
<asrwt>0</asrwt>
<pdfrwt beam="1">  1        2 0.11752486E+00 0.77860940E+02</pdfrwt>
<pdfrwt beam="2">  1        2 0.86145906E-01 0.11186303E+03</pdfrwt>
<totfact> 0.34036146E+02</totfact>
</mgrwt>
</event>
<event>
13    1  0.1675423E-008  0.7965165E+02  0.7546771E-02  0.1428089E+00
          2   -1    0    0  503    0  0.00000000000E+00  0.00000000000E+00  0.25174620602E+04  0.25174620602E+04  0.00000000000E+00 0. -1.
          2   -1    0    0  502    0 -0.00000000000E+00 -0.00000000000E+00 -0.37912761529E+03  0.37912761529E+03  0.00000000000E+00 0. -1.
         24    2    1    2    0    0 -0.22858868067E+02  0.56139947935E+01  0.69099184730E+03  0.69584628954E+03  0.78602040984E+02 0.  0.
         25    2    1    2    0    0  0.43390856132E+02 -0.16134191055E+03 -0.69495310404E+02  0.21993670389E+03  0.12501430740E+03 0.  0.
         24    2    1    2    0    0 -0.19000916087E+02  0.59776021867E+02  0.32735700014E+03  0.34265975357E+03  0.79491468575E+02 0.  0.
        -11    1    3    3    0    0 -0.20443054911E+02 -0.27321345433E+02  0.14934598130E+03  0.15319463613E+03  0.00000000000E+00 0.  1.
         12    1    3    3    0    0 -0.24158131559E+01  0.32935340226E+02  0.54164586600E+03  0.54265165341E+03  0.00000000000E+00 0. -1.
        -13    1    5    5    0    0  0.10411113615E+02 -0.13561221287E+02  0.11134126708E+03  0.11264624168E+03  0.00000000000E+00 0.  1.
         14    1    5    5    0    0 -0.29412029702E+02  0.73337243155E+02  0.21601573306E+03  0.23001351189E+03  0.00000000000E+00 0. -1.
          5    1    4    4  501    0 -0.30732565147E+02 -0.48935018532E+02  0.16283309625E+02  0.60219289033E+02  0.47000000000E+01 0. -1.
         -5    1    4    4    0  501  0.74123421279E+02 -0.11240689202E+03 -0.85778620029E+02  0.15971741486E+03  0.47000000000E+01 0. -1.
          1    1    1    2  502    0  0.28081502863E+02  0.22087738563E+02 -0.22178243983E+03  0.22464169162E+03  0.00000000000E+00 0. -1.
          1    1    1    2  503    0 -0.29612574840E+02  0.73864155326E+02  0.14112633477E+04  0.14135052369E+04  0.00000000000E+00 0. -1.
<mgrwt>
<rscale>  0 0.53345454E+02</rscale>
<asrwt>0</asrwt>
<pdfrwt beam="1">  1        2 0.37021500E+00 0.79651654E+02</pdfrwt>
<pdfrwt beam="2">  1        2 0.55754062E-01 0.35727286E+02</pdfrwt>
<totfact> 0.72882576E+01</totfact>
</mgrwt>
</event>
<event>
13    1  0.1675423E-008  0.1147475E+03  0.7546771E-02  0.1261765E+00
          2   -1    0    0  503    0  0.00000000000E+00  0.00000000000E+00  0.14314961575E+04  0.14314961575E+04  0.00000000000E+00 0. -1.
         -1   -1    0    0    0  501 -0.00000000000E+00 -0.00000000000E+00 -0.82369774970E+03  0.82369774970E+03  0.00000000000E+00 0.  1.
         24    2    1    2    0    0 -0.15332593093E+03 -0.15492782557E+03  0.40675701384E+03  0.46810543770E+03  0.78485414382E+02 0.  0.
         25    2    1    2    0    0 -0.84459154778E+02 -0.10621107763E+03 -0.17692027916E+03  0.25561375438E+03  0.12499385749E+03 0.  0.
         24    2    1    2    0    0  0.24795944447E+03  0.16907721181E+03  0.22125533457E+02  0.31159041062E+03  0.80796380527E+02 0.  0.
        -11    1    5    5    0    0  0.45775684736E+02 -0.17291841004E+01  0.82992642964E+01  0.46554067261E+02  0.00000000000E+00 0.  1.
         12    1    5    5    0    0  0.20218375974E+03  0.17080639591E+03  0.13826269161E+02  0.26503634336E+03  0.00000000000E+00 0. -1.
        -13    1    3    3    0    0 -0.78417150931E+01  0.85051050987E+01  0.33521783153E+02  0.35461799927E+02  0.00000000000E+00 0.  1.
         14    1    3    3    0    0 -0.14548421584E+03 -0.16343293066E+03  0.37323523069E+03  0.43264363778E+03  0.00000000000E+00 0. -1.
          5    1    4    4  502    0  0.88351583795E+01 -0.73534642420E+02 -0.33644685677E+02  0.81482872640E+02  0.47000000000E+01 0.  1.
         -5    1    4    4    0  502 -0.93294313157E+02 -0.32676435214E+02 -0.14327559348E+03  0.17413088174E+03  0.47000000000E+01 0.  1.
          1    1    1    2  503    0 -0.10191363160E+03  0.21802936526E+02  0.77658979814E+03  0.78355183040E+03  0.00000000000E+00 0. -1.
         -2    1    1    2    0  501  0.91739272833E+02  0.70258754869E+02 -0.42075365849E+03  0.43633247409E+03  0.00000000000E+00 0.  1.
<mgrwt>
<rscale>  0 0.10935700E+03</rscale>
<asrwt>0</asrwt>
<pdfrwt beam="1">  1        2 0.21051414E+00 0.10421975E+03</pdfrwt>
<pdfrwt beam="2">  1       -1 0.12113202E+00 0.11474747E+03</pdfrwt>
<totfact> 0.13493071E+01</totfact>
</mgrwt>
</event>
<event>
13    1  0.1675423E-008  0.2115489E+03  0.7546771E-02  0.1288851E+00
          2   -1    0    0  503    0  0.00000000000E+00  0.00000000000E+00  0.25171229396E+04  0.25171229396E+04  0.00000000000E+00 0. -1.
         -3   -1    0    0    0  501 -0.00000000000E+00 -0.00000000000E+00 -0.72085302893E+03  0.72085302893E+03  0.00000000000E+00 0.  1.
         24    2    1    2    0    0 -0.12376572657E+03  0.90281809738E+02  0.69944763077E+03  0.72066853667E+03  0.81654095438E+02 0.  0.
         25    2    1    2    0    0  0.66296891899E+02  0.14814612582E+03 -0.30808959303E+02  0.20716034803E+03  0.12499466130E+03 0.  0.
         24    2    1    2    0    0 -0.19071017026E+03 -0.24565936887E+03  0.68259692572E+03  0.75387684912E+03  0.75318298415E+02 0.  0.
        -11    1    5    5    0    0 -0.15093538549E+03 -0.13565499574E+03  0.44082183403E+03  0.48529131233E+03  0.00000000000E+00 0.  1.
         12    1    5    5    0    0 -0.39774784773E+02 -0.11000437312E+03  0.24177509169E+03  0.26858553679E+03  0.00000000000E+00 0. -1.
        -13    1    3    3    0    0 -0.14394169532E+02 -0.98450702676E+01  0.16861666871E+03  0.16951607148E+03  0.00000000000E+00 0.  1.
         14    1    3    3    0    0 -0.10937155704E+03  0.10012688001E+03  0.53083096207E+03  0.55115246518E+03  0.00000000000E+00 0. -1.
          5    1    4    4  502    0 -0.22791037478E+02 -0.71417841749E+01  0.41430272416E+01  0.24691924698E+02  0.47000000000E+01 0.  1.
         -5    1    4    4    0  502  0.89087929378E+02  0.15528790999E+03 -0.34951986545E+02  0.18246842333E+03  0.47000000000E+01 0.  1.
          1    1    1    2  503    0  0.28176760645E+03  0.35030995590E+02  0.97960492986E+03  0.10199244939E+04  0.00000000000E+00 0. -1.
         -4    1    1    2    0  501 -0.33588601523E+02 -0.27799562278E+02 -0.53457061636E+03  0.53634574082E+03  0.00000000000E+00 0.  1.
<mgrwt>
<rscale>  0 0.96039852E+02</rscale>
<asrwt>0</asrwt>
<pdfrwt beam="1">  1        2 0.37016514E+00 0.21154891E+03</pdfrwt>
<pdfrwt beam="2">  1       -3 0.10600780E+00 0.43600571E+02</pdfrwt>
<totfact> 0.22257459E+00</totfact>
</mgrwt>
</event>
<event>
13    1  0.1675423E-008  0.1045533E+03  0.7546771E-02  0.1369590E+00
          2   -1    0    0  503    0  0.00000000000E+00  0.00000000000E+00  0.10585093137E+04  0.10585093137E+04  0.00000000000E+00 0. -1.
          2   -1    0    0  502    0 -0.00000000000E+00 -0.00000000000E+00 -0.12124200554E+04  0.12124200554E+04  0.00000000000E+00 0. -1.
         24    2    1    2    0    0  0.27206042055E+02 -0.70034484513E+02  0.18730816222E+03  0.21787121383E+03  0.82088491497E+02 0.  0.
         25    2    1    2    0    0  0.85400949474E+01 -0.49107504178E+02 -0.11079850793E+03  0.17434198335E+03  0.12503734486E+03 0.  0.
         24    2    1    2    0    0  0.21346992750E+02  0.32143100907E+02 -0.24881206040E+03  0.26464596185E+03  0.81493378176E+02 0.  0.
        -13    1    3    3    0    0  0.62436553660E+01 -0.22352363206E+02  0.15467485321E+03  0.15640627093E+03  0.00000000000E+00 0.  1.
         14    1    3    3    0    0  0.20962386689E+02 -0.47682121307E+02  0.32633309015E+02  0.61464942896E+02  0.00000000000E+00 0. -1.
        -13    1    5    5    0    0 -0.31022904638E+02  0.10719989611E+02 -0.10845707759E+03  0.11331494371E+03  0.00000000000E+00 0.  1.
         14    1    5    5    0    0  0.52369897388E+02  0.21423111296E+02 -0.14035498281E+03  0.15133101814E+03  0.00000000000E+00 0. -1.
          5    1    4    4  501    0 -0.30053994286E+02  0.32085611312E+02 -0.30515934377E+02  0.53721888246E+02  0.47000000000E+01 0.  1.
         -5    1    4    4    0  501  0.38594089233E+02 -0.81193115490E+02 -0.80282573552E+02  0.12062009510E+03  0.47000000000E+01 0.  1.
          1    1    1    2  502    0  0.30963509844E+02  0.30262727403E+02 -0.79388610176E+03  0.79506585525E+03  0.00000000000E+00 0. -1.
          1    1    1    2  503    0 -0.88056639596E+02  0.56736160380E+02  0.81227776621E+03  0.81900435478E+03  0.00000000000E+00 0. -1.
<mgrwt>
<rscale>  0 0.67281293E+02</rscale>
<asrwt>0</asrwt>
<pdfrwt beam="1">  1        2 0.15566314E+00 0.10455328E+03</pdfrwt>
<pdfrwt beam="2">  1        2 0.17829707E+00 0.43296323E+02</pdfrwt>
<totfact> 0.99992974E+01</totfact>
</mgrwt>
</event>
<event>
13    1  0.1675423E-008  0.7463227E+02  0.7546771E-02  0.1476468E+00
         -1   -1    0    0    0  501  0.00000000000E+00  0.00000000000E+00  0.11106911504E+04  0.11106911504E+04  0.00000000000E+00 0.  1.
         -1   -1    0    0    0  502 -0.00000000000E+00 -0.00000000000E+00 -0.51922393449E+03  0.51922393449E+03  0.00000000000E+00 0.  1.
         24    2    1    2    0    0 -0.75563932964E+00 -0.13346732394E+02  0.70319290584E+03  0.70926433741E+03  0.91634770883E+02 0.  0.
         25    2    1    2    0    0 -0.65719360557E+02 -0.18145176525E+02 -0.40432772577E+03  0.42866490588E+03  0.12499763968E+03 0.  0.
         24    2    1    2    0    0 -0.13654376697E+02 -0.23279740114E+02 -0.37111648375E+01  0.84233337167E+02  0.79706298641E+02 0.  0.
        -13    1    3    3    0    0  0.44781230428E+02 -0.84968074917E+01  0.40840467157E+03  0.41094029991E+03  0.00000000000E+00 0.  1.
         14    1    3    3    0    0 -0.45536869758E+02 -0.48499249026E+01  0.29478823428E+03  0.29832403749E+03  0.00000000000E+00 0. -1.
        -13    1    5    5    0    0  0.10752817176E+01  0.12663673025E+02  0.30139142853E+02  0.32709215478E+02  0.00000000000E+00 0.  1.
         14    1    5    5    0    0 -0.14729658415E+02 -0.35943413139E+02 -0.33850307690E+02  0.51524121689E+02  0.00000000000E+00 0. -1.
          5    1    4    4  503    0  0.36290242718E+02  0.47253981412E+01 -0.86116965586E+02  0.93688488439E+02  0.47000000000E+01 0. -1.
         -5    1    4    4    0  503 -0.10200960328E+03 -0.22870574666E+02 -0.31821076018E+03  0.33497641744E+03  0.47000000000E+01 0. -1.
         -2    1    1    2    0  502  0.26547894360E+02  0.30797878949E+01 -0.48293249853E+02  0.55195233216E+02  0.00000000000E+00 0.  1.
         -2    1    1    2    0  501  0.53581482224E+02  0.51691861138E+02  0.34460645054E+03  0.35255727124E+03  0.00000000000E+00 0.  1.
<mgrwt>
<rscale>  0 0.44661141E+02</rscale>
<asrwt>0</asrwt>
<pdfrwt beam="1">  1       -1 0.16333693E+00 0.74632274E+02</pdfrwt>
<pdfrwt beam="2">  1       -1 0.76356461E-01 0.26725938E+02</pdfrwt>
<totfact> 0.53825257E+00</totfact>
</mgrwt>
</event>
<event>
13    1  0.1675423E-008  0.1845696E+03  0.7546771E-02  0.1240966E+00
          2   -1    0    0  503    0  0.00000000000E+00  0.00000000000E+00  0.17613545767E+04  0.17613545767E+04  0.00000000000E+00 0. -1.
          2   -1    0    0  502    0 -0.00000000000E+00 -0.00000000000E+00 -0.21815175393E+04  0.21815175393E+04  0.00000000000E+00 0. -1.
         24    2    1    2    0    0 -0.87863840605E+01  0.69939156326E+02  0.64562252379E+03  0.65668531912E+03  0.97151834752E+02 0.  0.
         25    2    1    2    0    0  0.11448661897E+02  0.36208242273E+03 -0.28807442266E+03  0.47942425147E+03  0.12500394872E+03 0.  0.
         24    2    1    2    0    0  0.10917695131E+02 -0.17449179394E+03  0.64293434128E+02  0.20250835207E+03  0.79431761695E+02 0.  0.
        -11    1    5    5    0    0  0.39202032067E+02 -0.56184102901E+02  0.97547911515E+01  0.69199773752E+02  0.00000000000E+00 0.  1.
         12    1    5    5    0    0 -0.28284336935E+02 -0.11830769104E+03  0.54538642976E+02  0.13330857831E+03  0.00000000000E+00 0. -1.
        -13    1    3    3    0    0 -0.39631151108E+02  0.78359427049E+02  0.45411174842E+03  0.46252384587E+03  0.00000000000E+00 0.  1.
         14    1    3    3    0    0  0.30844767048E+02 -0.84202707227E+01  0.19151077537E+03  0.19416147325E+03  0.00000000000E+00 0. -1.
          5    1    4    4  501    0  0.56804077961E+02  0.17268420587E+03 -0.95089052679E+02  0.20520856749E+03  0.47000000000E+01 0. -1.
         -5    1    4    4    0  501 -0.45355416064E+02  0.18939821686E+03 -0.19298536998E+03  0.27421568398E+03  0.47000000000E+01 0. -1.
          1    1    1    2  502    0 -0.28229420488E+02  0.74554917401E+02 -0.16908062150E+04  0.16926845520E+04  0.00000000000E+00 0. -1.
          1    1    1    2  503    0  0.14649447520E+02 -0.33208470252E+03  0.84880171718E+03  0.91156964136E+03  0.00000000000E+00 0. -1.
<mgrwt>
<rscale>  0 0.12130111E+03</rscale>
<asrwt>0</asrwt>
<pdfrwt beam="1">  1        2 0.25902273E+00 0.18456964E+03</pdfrwt>
<pdfrwt beam="2">  1        2 0.32081140E+00 0.79720361E+02</pdfrwt>
<totfact> 0.13536769E+01</totfact>
</mgrwt>
</event>
<event>
13    1  0.1675423E-008  0.1821530E+03  0.7546771E-02  0.1171523E+00
          2   -1    0    0  503    0  0.00000000000E+00  0.00000000000E+00  0.14153582898E+04  0.14153582898E+04  0.00000000000E+00 0. -1.
          2   -1    0    0  502    0 -0.00000000000E+00 -0.00000000000E+00 -0.20085660807E+04  0.20085660807E+04  0.00000000000E+00 0. -1.
         24    2    1    2    0    0 -0.66856651448E+02 -0.32217790037E+02  0.80800134109E+02  0.13579170432E+03  0.80018294489E+02 0.  0.
         25    2    1    2    0    0  0.44103800333E+03 -0.34954209932E+03  0.12153888970E+03  0.58914445399E+03  0.12500114551E+03 0.  0.
         24    2    1    2    0    0 -0.11700786458E+01  0.36370677106E+01  0.23176453097E+03  0.24843593659E+03  0.89392502085E+02 0.  0.
        -11    1    3    3    0    0  0.51745037887E+01 -0.21042770484E+02  0.53901332110E+02  0.58094124336E+02  0.00000000000E+00 0.  1.
         12    1    3    3    0    0 -0.72031155237E+02 -0.11175019553E+02  0.26898801999E+02  0.77697579987E+02  0.00000000000E+00 0. -1.
        -13    1    5    5    0    0  0.68587358523E+01  0.45420623124E+02  0.13864100764E+03  0.14605274480E+03  0.00000000000E+00 0.  1.
         14    1    5    5    0    0 -0.80288144981E+01 -0.41783555414E+02  0.93123523331E+02  0.10238319180E+03  0.00000000000E+00 0. -1.
          5    1    4    4  501    0  0.29509809453E+03 -0.21135197349E+03  0.13585195383E+03  0.38759564685E+03  0.47000000000E+01 0.  1.
         -5    1    4    4    0  501  0.14593990879E+03 -0.13819012583E+03 -0.14313064127E+02  0.20154880714E+03  0.47000000000E+01 0.  1.
          1    1    1    2  502    0 -0.55217219946E+02  0.26862734662E+03 -0.16875434633E+04  0.17096819977E+04  0.00000000000E+00 0. -1.
          1    1    1    2  503    0 -0.31779405329E+03  0.10949547503E+03  0.66023211770E+03  0.74087027785E+03  0.00000000000E+00 0. -1.
<mgrwt>
<rscale>  0 0.17620947E+03</rscale>
<asrwt>0</asrwt>
<pdfrwt beam="1">  1        2 0.20814092E+00 0.18215296E+03</pdfrwt>
<pdfrwt beam="2">  1        2 0.29537737E+00 0.17045991E+03</pdfrwt>
<totfact> 0.22659744E+01</totfact>
</mgrwt>
</event>
<event>
13    1  0.1675423E-008  0.3742639E+02  0.7546771E-02  0.1556699E+00
          2   -1    0    0  502    0  0.00000000000E+00  0.00000000000E+00  0.24626990827E+04  0.24626990827E+04  0.00000000000E+00 0. -1.
          2   -1    0    0  503    0 -0.00000000000E+00 -0.00000000000E+00 -0.25801881731E+04  0.25801881731E+04  0.00000000000E+00 0. -1.
         24    2    1    2    0    0 -0.11610653352E+04  0.28777142951E+03  0.81388200746E+02  0.12024842045E+04  0.91973444781E+02 0.  0.
         25    2    1    2    0    0  0.67646079665E+03 -0.36850330309E+03 -0.27266851419E+03  0.82665935856E+03  0.12499473057E+03 0.  0.
         24    2    1    2    0    0  0.47375032270E+03  0.14242439615E+03 -0.48464271408E+03  0.69731480866E+03  0.81518741343E+02 0.  0.
        -13    1    3    3    0    0 -0.43279683996E+03  0.14811765052E+03  0.51692910468E+02  0.46035214789E+03  0.00000000000E+00 0.  1.
         14    1    3    3    0    0 -0.72826849522E+03  0.13965377899E+03  0.29695290278E+02  0.74213205657E+03  0.00000000000E+00 0. -1.
        -13    1    5    5    0    0  0.11018071247E+03  0.63380828555E+02 -0.96014838934E+02  0.15929773421E+03  0.00000000000E+00 0.  1.
         14    1    5    5    0    0  0.36356961023E+03  0.79043567593E+02 -0.38862787514E+03  0.53801707445E+03  0.00000000000E+00 0. -1.
          5    1    4    4  501    0  0.33161397062E+03 -0.16256871692E+03 -0.19453085483E+03  0.41744551346E+03  0.47000000000E+01 0.  1.
         -5    1    4    4    0  501  0.34484682603E+03 -0.20593458617E+03 -0.78137659354E+02  0.40921384510E+03  0.47000000000E+01 0.  1.
          1    1    1    2  502    0  0.18402308132E+02 -0.25043432184E+02  0.14368650938E+04  0.14372011398E+04  0.00000000000E+00 0. -1.
          1    1    1    2  503    0 -0.75480922951E+01 -0.36649090381E+02 -0.87843115661E+03  0.87922774434E+03  0.00000000000E+00 0. -1.
<mgrwt>
<rscale>  0 0.34104590E+02</rscale>
<asrwt>0</asrwt>
<pdfrwt beam="1">  1        2 0.36216163E+00 0.31077620E+02</pdfrwt>
<pdfrwt beam="2">  1        2 0.37943943E+00 0.37426389E+02</pdfrwt>
<totfact> 0.54699461E+00</totfact>
</mgrwt>
</event>
<event>
13    1  0.1675423E-008  0.9042336E+02  0.7546771E-02  0.1344632E+00
          2   -1    0    0  503    0  0.00000000000E+00  0.00000000000E+00  0.12875882720E+04  0.12875882720E+04  0.00000000000E+00 0. -1.
          2   -1    0    0  502    0 -0.00000000000E+00 -0.00000000000E+00 -0.26511631280E+04  0.26511631280E+04  0.00000000000E+00 0. -1.
         24    2    1    2    0    0 -0.30419677900E+03 -0.19035623301E+03  0.18851349705E+03  0.40871440021E+03  0.52334945986E+02 0.  0.
         25    2    1    2    0    0  0.41297282826E+03 -0.35051155698E+03 -0.20596217757E+03  0.59283260999E+03  0.12500070569E+03 0.  0.
         24    2    1    2    0    0 -0.86117644480E+02  0.55955513664E+03 -0.38863604092E+03  0.69136287711E+03  0.80165178978E+02 0.  0.
        -11    1    3    3    0    0 -0.19522832951E+03 -0.12121534572E+03  0.14848463401E+03  0.27359632164E+03  0.00000000000E+00 0.  1.
         12    1    3    3    0    0 -0.10896844949E+03 -0.69140887295E+02  0.40028863047E+02  0.13511807857E+03  0.00000000000E+00 0. -1.
        -13    1    5    5    0    0  0.40007198637E+01  0.18063847027E+03 -0.14778314269E+03  0.23342262093E+03  0.00000000000E+00 0.  1.
         14    1    5    5    0    0 -0.90118364343E+02  0.37891666637E+03 -0.24085289823E+03  0.45794025618E+03  0.00000000000E+00 0. -1.
          5    1    4    4  501    0  0.95384208491E+02 -0.10861336986E+03 -0.11135091196E+03  0.18252705809E+03  0.47000000000E+01 0. -1.
         -5    1    4    4    0  501  0.31758861977E+03 -0.24189818712E+03 -0.94611265612E+02  0.41030555190E+03  0.47000000000E+01 0. -1.
          1    1    1    2  502    0  0.37079287696E+02  0.49441864812E+02 -0.15978792077E+04  0.15990738988E+04  0.00000000000E+00 0. -1.
          1    1    1    2  503    0 -0.59737692480E+02 -0.68129211456E+02  0.64038907316E+03  0.64676761390E+03  0.00000000000E+00 0. -1.
<mgrwt>
<rscale>  0 0.74754666E+02</rscale>
<asrwt>0</asrwt>
<pdfrwt beam="1">  1        2 0.18935122E+00 0.90423363E+02</pdfrwt>
<pdfrwt beam="2">  1        2 0.38987693E+00 0.61801064E+02</pdfrwt>
<totfact> 0.15099242E+01</totfact>
</mgrwt>
</event>
<event>
13    1  0.1675423E-008  0.1432426E+03  0.7546771E-02  0.1231938E+00
          2   -1    0    0  502    0  0.00000000000E+00  0.00000000000E+00  0.31880022642E+04  0.31880022642E+04  0.00000000000E+00 0. -1.
          2   -1    0    0  503    0 -0.00000000000E+00 -0.00000000000E+00 -0.10624644763E+04  0.10624644763E+04  0.00000000000E+00 0. -1.
         24    2    1    2    0    0 -0.12038132002E+03  0.31565061027E+03  0.13575072462E+04  0.14012096379E+04  0.80221917375E+02 0.  0.
         25    2    1    2    0    0  0.15277160658E+03 -0.14041580282E+03  0.29715808434E+03  0.38338891788E+03  0.12501349451E+03 0.  0.
         24    2    1    2    0    0  0.49624096836E+02 -0.20124898110E+03  0.53169407751E+03  0.57610614562E+03  0.78968320152E+02 0.  0.
        -13    1    3    3    0    0 -0.33454912688E+02  0.63450697587E+02  0.43625942044E+03  0.44211707062E+03  0.00000000000E+00 0.  1.
         14    1    3    3    0    0 -0.86926407329E+02  0.25219991268E+03  0.92124782571E+03  0.95909256729E+03  0.00000000000E+00 0. -1.
        -13    1    5    5    0    0 -0.97137281612E+01 -0.40297817762E+02  0.18125660619E+03  0.18593608557E+03  0.00000000000E+00 0.  1.
         14    1    5    5    0    0  0.59337824997E+02 -0.16095116334E+03  0.35043747132E+03  0.39017006005E+03  0.00000000000E+00 0. -1.
          5    1    4    4  501    0  0.14687535204E+03 -0.16196278937E+03  0.25961367761E+03  0.33944906213E+03  0.47000000000E+01 0. -1.
         -5    1    4    4    0  501  0.58962545396E+01  0.21546986553E+02  0.37544406730E+02  0.43939855756E+02  0.47000000000E+01 0. -1.
          1    1    1    2  502    0 -0.60231593723E+02  0.13653163429E+03  0.90508744660E+03  0.91730693774E+03  0.00000000000E+00 0. -1.
          1    1    1    2  503    0 -0.21782789672E+02 -0.11051746064E+03 -0.96590906666E+03  0.97245510132E+03  0.00000000000E+00 0. -1.
<mgrwt>
<rscale>  0 0.12702508E+03</rscale>
<asrwt>0</asrwt>
<pdfrwt beam="1">  1        2 0.46882386E+00 0.14324258E+03</pdfrwt>
<pdfrwt beam="2">  1        2 0.15624478E+00 0.11264368E+03</pdfrwt>
<totfact> 0.90519976E+00</totfact>
</mgrwt>
</event>
<event>
13    1  0.1675423E-008  0.5455813E+02  0.7546771E-02  0.1506133E+00
          2   -1    0    0  503    0  0.00000000000E+00  0.00000000000E+00  0.67758426848E+03  0.67758426848E+03  0.00000000000E+00 0. -1.
          2   -1    0    0  502    0 -0.00000000000E+00 -0.00000000000E+00 -0.17740501304E+04  0.17740501304E+04  0.00000000000E+00 0. -1.
         24    2    1    2    0    0 -0.12662875102E+03  0.35830316208E+03 -0.12451712112E+03  0.41356463695E+03  0.10542864383E+03 0.  0.
         25    2    1    2    0    0  0.24769366093E+03 -0.43849530033E+03 -0.86395317999E+03  0.10078045289E+04  0.12499837270E+03 0.  0.
         24    2    1    2    0    0 -0.56071029546E+02  0.66884276709E+02 -0.41104431036E+03  0.42811985272E+03  0.81925065698E+02 0.  0.
        -13    1    3    3    0    0 -0.14910728105E+02  0.98075043798E+02  0.10638236473E+02  0.99770817897E+02  0.00000000000E+00 0.  1.
         14    1    3    3    0    0 -0.11171802291E+03  0.26022811829E+03 -0.13515535759E+03  0.31379381905E+03  0.00000000000E+00 0. -1.
        -13    1    5    5    0    0 -0.51473693963E+02 -0.87147797410E+00 -0.16208832040E+03  0.17006741091E+03  0.00000000000E+00 0.  1.
         14    1    5    5    0    0 -0.45973355836E+01  0.67755754683E+02 -0.24895598996E+03  0.25805244181E+03  0.00000000000E+00 0. -1.
          5    1    4    4  501    0  0.12174749839E+03 -0.17512987737E+03 -0.25500368324E+03  0.33247841401E+03  0.47000000000E+01 0. -1.
         -5    1    4    4    0  501  0.12594616254E+03 -0.26336542296E+03 -0.60894949674E+03  0.67532611489E+03  0.47000000000E+01 0. -1.
          1    1    1    2  502    0 -0.12218011705E+02  0.27119026827E+02 -0.14640351453E+03  0.14939447946E+03  0.00000000000E+00 0. -1.
          1    1    1    2  503    0 -0.52775868664E+02 -0.13811165291E+02  0.44945226405E+03  0.45275090089E+03  0.00000000000E+00 0. -1.
<mgrwt>
<rscale>  0 0.40283888E+02</rscale>
<asrwt>0</asrwt>
<pdfrwt beam="1">  1        2 0.99644747E-01 0.54558132E+02</pdfrwt>
<pdfrwt beam="2">  1        2 0.26088972E+00 0.29744267E+02</pdfrwt>
<totfact> 0.99276304E+01</totfact>
</mgrwt>
</event>
<event>
13    1  0.1675423E-008  0.1411535E+03  0.7546771E-02  0.1404853E+00
          2   -1    0    0  503    0  0.00000000000E+00  0.00000000000E+00  0.20623906201E+04  0.20623906201E+04  0.00000000000E+00 0. -1.
          2   -1    0    0  502    0 -0.00000000000E+00 -0.00000000000E+00 -0.80012864706E+03  0.80012864706E+03  0.00000000000E+00 0. -1.
         24    2    1    2    0    0  0.11053330855E+03  0.18211822050E+03  0.90476390221E+02  0.24531885517E+03  0.81306241922E+02 0.  0.
         25    2    1    2    0    0 -0.30318022241E+03 -0.24201987803E+03  0.11778952825E+04  0.12464165938E+04  0.12500064041E+03 0.  0.
         24    2    1    2    0    0  0.16244929088E+03 -0.53281914666E+02  0.33195649824E+03  0.38189597809E+03  0.80129188296E+02 0.  0.
        -13    1    3    3    0    0  0.10259943069E+03  0.14206988693E+03  0.38847588007E+02  0.17949827588E+03  0.00000000000E+00 0.  1.
         14    1    3    3    0    0  0.79338778643E+01  0.40048333574E+02  0.51628802215E+02  0.65820579290E+02  0.00000000000E+00 0. -1.
        -13    1    5    5    0    0  0.86692957216E+02 -0.43813466056E+02  0.25767867687E+03  0.27537899185E+03  0.00000000000E+00 0.  1.
         14    1    5    5    0    0  0.75756333663E+02 -0.94684486098E+01  0.74277821364E+02  0.10651698623E+03  0.00000000000E+00 0. -1.
          5    1    4    4  501    0 -0.75337545363E+02 -0.59479669278E+02  0.48639688081E+03  0.49579995206E+03  0.47000000000E+01 0.  1.
         -5    1    4    4    0  501 -0.22784267705E+03 -0.18254020875E+03  0.69149840165E+03  0.75061664169E+03  0.47000000000E+01 0.  1.
          1    1    1    2  502    0  0.37246377821E+02  0.13625853753E+03 -0.65549540512E+03  0.67054299478E+03  0.00000000000E+00 0. -1.
          1    1    1    2  503    0 -0.70487548392E+01 -0.23074965338E+02  0.31742920725E+03  0.31834484539E+03  0.00000000000E+00 0. -1.
<mgrwt>
<rscale>  0 0.58358279E+02</rscale>
<asrwt>0</asrwt>
<pdfrwt beam="1">  1        2 0.30329274E+00 0.24127556E+02</pdfrwt>
<pdfrwt beam="2">  1        2 0.11766598E+00 0.14115349E+03</pdfrwt>
<totfact> 0.60464534E+01</totfact>
</mgrwt>
</event>
<event>
13    1  0.1675423E-008  0.1066968E+03  0.7546771E-02  0.1297947E+00
          2   -1    0    0  502    0  0.00000000000E+00  0.00000000000E+00  0.96281826304E+03  0.96281826304E+03  0.00000000000E+00 0. -1.
          2   -1    0    0  503    0 -0.00000000000E+00 -0.00000000000E+00 -0.20791498134E+04  0.20791498134E+04  0.00000000000E+00 0. -1.
         24    2    1    2    0    0  0.37306273748E+03  0.68225394221E+03 -0.43371860020E+03  0.89500302769E+03  0.90952447248E+02 0.  0.
         25    2    1    2    0    0  0.66529131708E+02  0.67311669765E+02 -0.13393386663E+02  0.15733311965E+03  0.12496936217E+03 0.  0.
         24    2    1    2    0    0 -0.61311155618E+03 -0.69214384817E+03 -0.61050423275E+03  0.11113786901E+04  0.86477094103E+02 0.  0.
        -11    1    5    5    0    0 -0.51650880378E+03 -0.53099288504E+03 -0.48360502204E+03  0.88465168608E+03  0.00000000000E+00 0.  1.
         12    1    5    5    0    0 -0.96602752396E+02 -0.16115096313E+03 -0.12689921071E+03  0.22672700405E+03  0.00000000000E+00 0. -1.
        -11    1    3    3    0    0  0.98670456964E+02  0.20981357235E+03 -0.85474304530E+02  0.24711020002E+03  0.00000000000E+00 0.  1.
         12    1    3    3    0    0  0.27439228051E+03  0.47244036986E+03 -0.34824429567E+03  0.64789282767E+03  0.00000000000E+00 0. -1.
          5    1    4    4  501    0  0.12349578339E+02  0.62352068942E+02 -0.58492805307E+02  0.86508906241E+02  0.47000000000E+01 0.  1.
         -5    1    4    4    0  501  0.54179553368E+02  0.49596008238E+01  0.45099418644E+02  0.70824213413E+02  0.47000000000E+01 0.  1.
          1    1    1    2  502    0  0.69274085820E+02 -0.38850747568E+02  0.39982931204E+03  0.40764170336E+03  0.00000000000E+00 0. -1.
          1    1    1    2  503    0  0.10424560117E+03 -0.18571016243E+02 -0.45854464284E+03  0.47061153565E+03  0.00000000000E+00 0. -1.
<mgrwt>
<rscale>  0 0.92056267E+02</rscale>
<asrwt>0</asrwt>
<pdfrwt beam="1">  1        2 0.14159092E+00 0.79424678E+02</pdfrwt>
<pdfrwt beam="2">  1        2 0.30575733E+00 0.10669677E+03</pdfrwt>
<totfact> 0.40483472E+01</totfact>
</mgrwt>
</event>
<event>
13    1  0.1675423E-008  0.8596427E+02  0.7546771E-02  0.1315572E+00
          2   -1    0    0  503    0  0.00000000000E+00  0.00000000000E+00  0.13521928977E+04  0.13521928977E+04  0.00000000000E+00 0. -1.
          2   -1    0    0  502    0 -0.00000000000E+00 -0.00000000000E+00 -0.98763823382E+03  0.98763823382E+03  0.00000000000E+00 0. -1.
         24    2    1    2    0    0  0.41809303402E+02 -0.51751766714E+02  0.41738829453E+03  0.43022887117E+03  0.80359380105E+02 0.  0.
         25    2    1    2    0    0  0.81501911788E+01  0.10733673391E+01 -0.65802208602E+03  0.66983940332E+03  0.12499673124E+03 0.  0.
         24    2    1    2    0    0 -0.56152861202E+02  0.47307977396E+02  0.52002416394E+02  0.12218709270E+03  0.82669497181E+02 0.  0.
        -11    1    5    5    0    0  0.26118079882E+00  0.42309920494E+02 -0.40498294352E+01  0.42504102226E+02  0.00000000000E+00 0.  1.
         12    1    5    5    0    0 -0.56414042001E+02  0.49980569025E+01  0.56052245829E+02  0.79682990469E+02  0.00000000000E+00 0. -1.
        -13    1    3    3    0    0 -0.10642229142E+02 -0.24354851304E+02  0.38718176669E+02  0.46962889900E+02  0.00000000000E+00 0.  1.
         14    1    3    3    0    0  0.52451532545E+02 -0.27396915410E+02  0.37867011786E+03  0.38326598127E+03  0.00000000000E+00 0. -1.
          5    1    4    4  501    0 -0.43616449237E+02 -0.39517584932E+02 -0.33295847677E+03  0.33815302958E+03  0.47000000000E+01 0.  1.
         -5    1    4    4    0  501  0.51766640416E+02  0.40590952271E+02 -0.32506360925E+03  0.33168637374E+03  0.47000000000E+01 0.  1.
          1    1    1    2  502    0 -0.49746873346E+00  0.87044164917E+02 -0.27330556089E+03  0.28683246632E+03  0.00000000000E+00 0. -1.
          1    1    1    2  503    0  0.66908353544E+01 -0.83673742938E+02  0.82649159988E+03  0.83074329802E+03  0.00000000000E+00 0. -1.
<mgrwt>
<rscale>  0 0.84946522E+02</rscale>
<asrwt>0</asrwt>
<pdfrwt beam="1">  1        2 0.19885190E+00 0.83940828E+02</pdfrwt>
<pdfrwt beam="2">  1        2 0.14524092E+00 0.85964265E+02</pdfrwt>
<totfact> 0.90043477E+01</totfact>
</mgrwt>
</event>
<event>
13    1  0.1675423E-008  0.1035180E+03  0.7546771E-02  0.1360960E+00
         -3   -1    0    0    0  501 -0.00000000000E+00  0.00000000000E+00  0.86712797057E+03  0.86712797057E+03  0.00000000000E+00 0.  1.
          2   -1    0    0  503    0  0.00000000000E+00 -0.00000000000E+00 -0.25433334197E+04  0.25433334197E+04  0.00000000000E+00 0. -1.
         24    2    1    2    0    0  0.72783652030E+02  0.93489741246E+02 -0.82119950087E+03  0.83355262730E+03  0.80022312699E+02 0.  0.
         25    2    1    2    0    0 -0.15552559488E+02 -0.20902317946E+02  0.10358440017E+01  0.12770344609E+03  0.12501323197E+03 0.  0.
         24    2    1    2    0    0 -0.57107346243E+02  0.54031202684E+01  0.22726928216E+03  0.24707490977E+03  0.78129646876E+02 0.  0.
        -11    1    3    3    0    0  0.77209596422E+00 -0.10431193132E+02 -0.21376783598E+02  0.23798588179E+02  0.00000000000E+00 0.  1.
         12    1    3    3    0    0  0.72011556066E+02  0.10392093438E+03 -0.79982271727E+03  0.80975403912E+03  0.00000000000E+00 0. -1.
        -13    1    5    5    0    0  0.47605111840E+01 -0.92797034599E+01 -0.65213597976E+00  0.10449911214E+02  0.00000000000E+00 0.  1.
         14    1    5    5    0    0 -0.61867857427E+02  0.14682823728E+02  0.22792141814E+03  0.23662499855E+03  0.00000000000E+00 0. -1.
          5    1    4    4  502    0 -0.37919308385E+02 -0.57464992767E+02  0.30532381625E+02  0.75461352160E+02  0.47000000000E+01 0.  1.
         -5    1    4    4    0  502  0.22366748897E+02  0.36562674821E+02 -0.29496537624E+02  0.52242093929E+02  0.47000000000E+01 0.  1.
          1    1    1    2  503    0 -0.44346357574E+02 -0.93882945971E+02 -0.16400893363E+04  0.16433726413E+04  0.00000000000E+00 0. -1.
         -4    1    1    2    0  501  0.44222611274E+02  0.15892402403E+02  0.55677826197E+03  0.55875776577E+03  0.00000000000E+00 0.  1.
<mgrwt>
<rscale>  0 0.69745788E+02</rscale>
<asrwt>0</asrwt>
<pdfrwt beam="2">  1        2 0.37401962E+00 0.10351803E+03</pdfrwt>
<pdfrwt beam="1">  1       -3 0.12751882E+00 0.46991572E+02</pdfrwt>
<totfact> 0.15535196E+00</totfact>
</mgrwt>
</event>
<event>
13    1  0.1675423E-008  0.1778536E+03  0.7546771E-02  0.1273944E+00
         -3   -1    0    0    0  502 -0.00000000000E+00  0.00000000000E+00  0.14864296134E+04  0.14864296134E+04  0.00000000000E+00 0.  1.
         -1   -1    0    0    0  501  0.00000000000E+00 -0.00000000000E+00 -0.41560757143E+03  0.41560757143E+03  0.00000000000E+00 0.  1.
         24    2    1    2    0    0 -0.10962746957E+03  0.74687156841E+02  0.26855000591E+03  0.31013787707E+03  0.80436581456E+02 0.  0.
         25    2    1    2    0    0 -0.18646453311E+03 -0.14317983944E+02  0.58679093829E+03  0.62842716919E+03  0.12499229956E+03 0.  0.
         24    2    1    2    0    0  0.73916457908E+02 -0.14011577698E+03  0.13914495381E+03  0.22556740726E+03  0.80145263975E+02 0.  0.
        -11    1    5    5    0    0  0.62550971373E+02 -0.96597736601E+02  0.49507817296E+02  0.12527877198E+03  0.00000000000E+00 0.  1.
         12    1    5    5    0    0  0.11365486535E+02 -0.43518040377E+02  0.89637136516E+02  0.10028863527E+03  0.00000000000E+00 0. -1.
        -11    1    3    3    0    0 -0.28347839239E+02 -0.16565408350E+02  0.52465012364E+02  0.61891762503E+02  0.00000000000E+00 0.  1.
         12    1    3    3    0    0 -0.81279630331E+02  0.91252565192E+02  0.21608499355E+03  0.24824611457E+03  0.00000000000E+00 0. -1.
          5    1    4    4  503    0 -0.17176922254E+03 -0.34050867884E+02  0.36106335775E+03  0.40131404875E+03  0.47000000000E+01 0. -1.
         -5    1    4    4    0  503 -0.14695310571E+02  0.19732883940E+02  0.22572758053E+03  0.22711312044E+03  0.47000000000E+01 0. -1.
         -2    1    1    2    0  501  0.17056260068E+03  0.49651592141E+02 -0.30443568907E+03  0.35247407015E+03  0.00000000000E+00 0.  1.
         -4    1    1    2    0  502  0.51612944096E+02  0.30095011940E+02  0.38077183304E+03  0.38543066118E+03  0.00000000000E+00 0.  1.
<mgrwt>
<rscale>  0 0.10308285E+03</rscale>
<asrwt>0</asrwt>
<pdfrwt beam="2">  1       -1 0.61118761E-01 0.17785361E+03</pdfrwt>
<pdfrwt beam="1">  1       -3 0.21859259E+00 0.59746178E+02</pdfrwt>
<totfact> 0.16898394E+00</totfact>
</mgrwt>
</event>
<event>
13    1  0.1675423E-008  0.1139913E+03  0.7546771E-02  0.1289954E+00
          2   -1    0    0  502    0  0.00000000000E+00  0.00000000000E+00  0.19634853731E+04  0.19634853731E+04  0.00000000000E+00 0. -1.
          2   -1    0    0  503    0 -0.00000000000E+00 -0.00000000000E+00 -0.43946223259E+04  0.43946223259E+04  0.00000000000E+00 0. -1.
         24    2    1    2    0    0 -0.15291805451E+04 -0.28827873491E+03  0.25471510575E+03  0.15788792967E+04  0.80512606436E+02 0.  0.
         25    2    1    2    0    0  0.43144732382E+03  0.57865115436E+02 -0.84581313487E+03  0.95943746770E+03  0.12500092200E+03 0.  0.
         24    2    1    2    0    0  0.12193715664E+04  0.10200866982E+03 -0.12548200455E+03  0.12322131088E+04  0.73011138362E+02 0.  0.
        -11    1    3    3    0    0 -0.31873133510E+03 -0.29952427991E+02  0.65989508509E+02  0.32686606913E+03  0.00000000000E+00 0.  1.
         12    1    3    3    0    0 -0.12104492100E+04 -0.25832630692E+03  0.18872559724E+03  0.12520132275E+04  0.00000000000E+00 0. -1.
        -13    1    5    5    0    0  0.80896406964E+03  0.53419290352E+02 -0.51414906865E+02  0.81235458957E+03  0.00000000000E+00 0.  1.
         14    1    5    5    0    0  0.41040749677E+03  0.48589379467E+02 -0.74067097688E+02  0.41985851922E+03  0.00000000000E+00 0. -1.
          5    1    4    4  501    0  0.21359805473E+03  0.19245201011E+02 -0.28628542569E+03  0.35773725234E+03  0.47000000000E+01 0.  1.
         -5    1    4    4    0  501  0.21784926908E+03  0.38619914425E+02 -0.55952770918E+03  0.60170021536E+03  0.47000000000E+01 0.  1.
          1    1    1    2  502    0 -0.76463860810E+02  0.23803240056E+02  0.43131322654E+03  0.43868487053E+03  0.00000000000E+00 0. -1.
          1    1    1    2  503    0 -0.45174484313E+02  0.10460170960E+03 -0.21458701456E+04  0.21488929553E+04  0.00000000000E+00 0. -1.
<mgrwt>
<rscale>  0 0.95544676E+02</rscale>
<asrwt>0</asrwt>
<pdfrwt beam="1">  1        2 0.28874785E+00 0.80083183E+02</pdfrwt>
<pdfrwt beam="2">  1        2 0.64626798E+00 0.11399129E+03</pdfrwt>
<totfact> 0.56991476E-01</totfact>
</mgrwt>
</event>
<event>
13    1  0.1675423E-008  0.2546846E+03  0.7546771E-02  0.1322680E+00
          2   -1    0    0  503    0  0.00000000000E+00  0.00000000000E+00  0.48680728540E+04  0.48680728540E+04  0.00000000000E+00 0. -1.
         -3   -1    0    0    0  501 -0.00000000000E+00 -0.00000000000E+00 -0.49130468701E+03  0.49130468701E+03  0.00000000000E+00 0.  1.
         24    2    1    2    0    0 -0.59697885227E+02 -0.96790453432E+02  0.10806445050E+04  0.10896628036E+04  0.81487728826E+02 0.  0.
         25    2    1    2    0    0  0.26193100571E+02  0.12554489213E+03  0.17027054939E+04  0.17121027995E+04  0.12506957504E+03 0.  0.
         24    2    1    2    0    0  0.78397029440E+02  0.20506214420E+03  0.15707711894E+03  0.28137108656E+03  0.79371845437E+02 0.  0.
        -11    1    3    3    0    0 -0.40012095259E+02 -0.10407090931E+03  0.73789308253E+03  0.74626933689E+03  0.00000000000E+00 0.  1.
         12    1    3    3    0    0 -0.19685789967E+02  0.72804558785E+01  0.34275142246E+03  0.34339346668E+03  0.00000000000E+00 0. -1.
        -13    1    5    5    0    0 -0.72811270836E+01  0.87688773990E+02  0.54600559134E+02  0.10355460856E+03  0.00000000000E+00 0.  1.
         14    1    5    5    0    0  0.85678156524E+02  0.11737337021E+03  0.10247655980E+03  0.17781647800E+03  0.00000000000E+00 0. -1.
          5    1    4    4  502    0 -0.49072407483E+02  0.41223372514E+02  0.50653342538E+03  0.51059344752E+03  0.47000000000E+01 0.  1.
         -5    1    4    4    0  502  0.75265508055E+02  0.84321519612E+02  0.11961720686E+04  0.12015093520E+04  0.47000000000E+01 0.  1.
          1    1    1    2  503    0  0.17335987730E+02  0.20157978825E+02  0.18154796615E+04  0.18156743325E+04  0.00000000000E+00 0. -1.
         -4    1    1    2    0  501 -0.62228232515E+02 -0.25397456172E+03 -0.37913861232E+03  0.46056651884E+03  0.00000000000E+00 0.  1.
<mgrwt>
<rscale>  0 0.82288261E+02</rscale>
<asrwt>0</asrwt>
<pdfrwt beam="1">  1        2 0.71589304E+00 0.26587226E+02</pdfrwt>
<pdfrwt beam="2">  1       -3 0.72250692E-01 0.25468463E+03</pdfrwt>
<totfact> 0.26193134E-01</totfact>
</mgrwt>
</event>
<event>
13    1  0.1675423E-008  0.1055634E+03  0.7546771E-02  0.1307550E+00
          2   -1    0    0  502    0  0.00000000000E+00  0.00000000000E+00  0.70336873802E+03  0.70336873802E+03  0.00000000000E+00 0. -1.
          2   -1    0    0  503    0 -0.00000000000E+00 -0.00000000000E+00 -0.91778883661E+03  0.91778883661E+03  0.00000000000E+00 0. -1.
         24    2    1    2    0    0 -0.30472951670E+02 -0.25615406777E+02  0.35516463616E+03  0.36638599759E+03  0.80697153637E+02 0.  0.
         25    2    1    2    0    0 -0.41983119642E+02 -0.14266450558E+03 -0.63905564259E+03  0.66793283342E+03  0.12500564843E+03 0.  0.
         24    2    1    2    0    0  0.12622435193E+02 -0.21190992221E+02  0.13503394717E+03  0.15910036335E+03  0.80438639403E+02 0.  0.
        -11    1    3    3    0    0 -0.50883484413E+02 -0.19089277680E+02  0.32423813684E+03  0.32876115782E+03  0.00000000000E+00 0.  1.
         12    1    3    3    0    0  0.20410532743E+02 -0.65261290979E+01  0.30926499319E+02  0.37624839774E+02  0.00000000000E+00 0. -1.
        -11    1    5    5    0    0  0.59090549418E+01 -0.33736044631E+02  0.13624578393E+02  0.36860097314E+02  0.00000000000E+00 0.  1.
         12    1    5    5    0    0  0.67133802513E+01  0.12545052409E+02  0.12140936878E+03  0.12224026604E+03  0.00000000000E+00 0. -1.
          5    1    4    4  501    0 -0.78233717806E+02 -0.46045137628E+02 -0.29014202115E+03  0.30404794316E+03  0.47000000000E+01 0.  1.
         -5    1    4    4    0  501  0.36250598164E+02 -0.96619367957E+02 -0.34891362144E+03  0.36388489026E+03  0.47000000000E+01 0.  1.
          1    1    1    2  502    0  0.72063834211E+01  0.13815455861E+03  0.14757617766E+03  0.20228035555E+03  0.00000000000E+00 0. -1.
          1    1    1    2  503    0  0.52627252698E+02  0.51316345970E+02 -0.21313921699E+03  0.22545802471E+03  0.00000000000E+00 0. -1.
<mgrwt>
<rscale>  0 0.88087721E+02</rscale>
<asrwt>0</asrwt>
<pdfrwt beam="1">  1        2 0.10343658E+00 0.10556342E+03</pdfrwt>
<pdfrwt beam="2">  1        2 0.13496895E+00 0.73505068E+02</pdfrwt>
<totfact> 0.23437707E+02</totfact>
</mgrwt>
</event>
<event>
13    1  0.1675423E-008  0.1038720E+03  0.7546771E-02  0.1411556E+00
          2   -1    0    0  503    0  0.00000000000E+00  0.00000000000E+00  0.35073376601E+04  0.35073376601E+04  0.00000000000E+00 0. -1.
         -1   -1    0    0    0  501 -0.00000000000E+00 -0.00000000000E+00 -0.16416554257E+03  0.16416554257E+03  0.00000000000E+00 0.  1.
         24    2    1    2    0    0  0.80018498380E+02 -0.11922736833E+03  0.95434877745E+03  0.96840122859E+03  0.80007656407E+02 0.  0.
         25    2    1    2    0    0 -0.11665466931E+03  0.82597798212E+02 -0.56399075993E+01  0.18997099868E+03  0.12500585443E+03 0.  0.
         24    2    1    2    0    0  0.13073018244E+03  0.81596937289E+02  0.27022123392E+03  0.32219021301E+03  0.83896229517E+02 0.  0.
        -11    1    5    5    0    0  0.73207526649E+02  0.66272850691E+02  0.94583840199E+02  0.13673893200E+03  0.00000000000E+00 0.  1.
         12    1    5    5    0    0  0.57522655789E+02  0.15324086598E+02  0.17563739372E+03  0.18545128102E+03  0.00000000000E+00 0. -1.
        -13    1    3    3    0    0  0.41004121300E+02 -0.89472919581E+02  0.80964559825E+03  0.81560574794E+03  0.00000000000E+00 0.  1.
         14    1    3    3    0    0  0.39014377080E+02 -0.29754448746E+02  0.14470317920E+03  0.15279548066E+03  0.00000000000E+00 0. -1.
          5    1    4    4  502    0 -0.45006004277E+02 -0.44192649516E+00 -0.53621818602E+02  0.70164985214E+02  0.47000000000E+01 0.  1.
         -5    1    4    4    0  502 -0.71648665032E+02  0.83039724707E+02  0.47981911003E+02  0.11980601347E+03  0.47000000000E+01 0.  1.
          1    1    1    2  503    0 -0.76329433563E+02 -0.70509404555E+02  0.21487956671E+04  0.21513067139E+04  0.00000000000E+00 0. -1.
         -2    1    1    2    0  501 -0.17764577947E+02  0.25542037381E+02 -0.24553653323E+02  0.39634048427E+02  0.00000000000E+00 0.  1.
<mgrwt>
<rscale>  0 0.56848016E+02</rscale>
<asrwt>0</asrwt>
<pdfrwt beam="1">  1        2 0.51578491E+00 0.10387197E+03</pdfrwt>
<pdfrwt beam="2">  1       -1 0.24141994E-01 0.31112311E+02</pdfrwt>
<totfact> 0.23656608E+01</totfact>
</mgrwt>
</event>
<event>
13    1  0.1675423E-008  0.1383176E+03  0.7546771E-02  0.1330809E+00
          2   -1    0    0  503    0  0.00000000000E+00  0.00000000000E+00  0.19145459631E+04  0.19145459631E+04  0.00000000000E+00 0. -1.
          2   -1    0    0  502    0 -0.00000000000E+00 -0.00000000000E+00 -0.94252210955E+03  0.94252210955E+03  0.00000000000E+00 0. -1.
         24    2    1    2    0    0  0.12326487460E+03 -0.88694222266E+02  0.26670932298E+03  0.31690386564E+03  0.78951267989E+02 0.  0.
         25    2    1    2    0    0 -0.37024414620E+03  0.69077965758E+02 -0.32343226198E+03  0.51194193988E+03  0.12499451415E+03 0.  0.
         24    2    1    2    0    0  0.21050027446E+03 -0.11136607112E+03  0.20427513654E+03  0.32351735843E+03  0.78882079430E+02 0.  0.
        -11    1    5    5    0    0  0.56992288452E+02 -0.17426174229E+01  0.21727084225E+02  0.61018225535E+02  0.00000000000E+00 0.  1.
         12    1    5    5    0    0  0.15350798600E+03 -0.10962345370E+03  0.18254805231E+03  0.26249913290E+03  0.00000000000E+00 0. -1.
        -13    1    3    3    0    0 -0.50500121427E+01 -0.18270129656E+02  0.64839091208E+02  0.67553001480E+02  0.00000000000E+00 0.  1.
         14    1    3    3    0    0  0.12831488674E+03 -0.70424092611E+02  0.20187023177E+03  0.24935086416E+03  0.00000000000E+00 0. -1.
          5    1    4    4  501    0 -0.26167318841E+03  0.84945900494E+02 -0.17063391878E+03  0.32376949792E+03  0.47000000000E+01 0.  1.
         -5    1    4    4    0  501 -0.10857095779E+03 -0.15867934736E+02 -0.15279834320E+03  0.18817244196E+03  0.47000000000E+01 0.  1.
          1    1    1    2  502    0  0.44996402770E+02 -0.71466805804E+01 -0.43513748324E+03  0.43751614898E+03  0.00000000000E+00 0. -1.
          1    1    1    2  503    0 -0.85174056275E+01  0.13812900821E+03  0.12596091393E+04  0.12671887597E+04  0.00000000000E+00 0. -1.
<mgrwt>
<rscale>  0 0.79383929E+02</rscale>
<asrwt>0</asrwt>
<pdfrwt beam="1">  1        2 0.28155088E+00 0.13831762E+03</pdfrwt>
<pdfrwt beam="2">  1        2 0.13860619E+00 0.45560414E+02</pdfrwt>
<totfact> 0.49962088E+01</totfact>
</mgrwt>
</event>
<event>
13    1  0.1675423E-008  0.1630824E+03  0.7546771E-02  0.1364216E+00
         -1   -1    0    0    0  501 -0.00000000000E+00  0.00000000000E+00  0.14343533802E+04  0.14343533802E+04  0.00000000000E+00 0.  1.
          2   -1    0    0  503    0  0.00000000000E+00 -0.00000000000E+00 -0.18299305220E+04  0.18299305220E+04  0.00000000000E+00 0. -1.
         24    2    1    2    0    0 -0.18000194700E+02 -0.63222844417E+02 -0.60495524137E+03  0.61378689791E+03  0.80264418733E+02 0.  0.
         25    2    1    2    0    0 -0.84833098076E+02  0.13189354046E+03 -0.45619715626E+02  0.20566691766E+03  0.12500064809E+03 0.  0.
         24    2    1    2    0    0 -0.57309504727E+02  0.10011434478E+03  0.11573644905E+03  0.18255332638E+03  0.81385072164E+02 0.  0.
        -11    1    3    3    0    0  0.27775975475E+01 -0.22995564853E+02 -0.34599874683E+02  0.41637271514E+02  0.00000000000E+00 0.  1.
         12    1    3    3    0    0 -0.20777792248E+02 -0.40227279563E+02 -0.57035536669E+03  0.57214962639E+03  0.00000000000E+00 0. -1.
        -13    1    5    5    0    0 -0.11143900633E+02  0.92487089252E+02  0.65356579407E+02  0.11379600464E+03  0.00000000000E+00 0.  1.
         14    1    5    5    0    0 -0.46165604094E+02  0.76272555312E+01  0.50379869645E+02  0.68757321746E+02  0.00000000000E+00 0. -1.
          5    1    4    4  502    0 -0.67176422173E+02  0.10697537928E+03  0.24755278551E+02  0.12880728739E+03  0.47000000000E+01 0. -1.
         -5    1    4    4    0  502 -0.17656675903E+02  0.24918161178E+02 -0.70374994177E+02  0.76859630274E+02  0.47000000000E+01 0. -1.
          1    1    1    2  503    0  0.15559693214E+03 -0.19745311284E+03 -0.10464435403E+04  0.10762166233E+04  0.00000000000E+00 0. -1.
         -2    1    1    2    0  501  0.45458653613E+01  0.28668072015E+02  0.11857049064E+04  0.11860601369E+04  0.00000000000E+00 0.  1.
<mgrwt>
<rscale>  0 0.68801676E+02</rscale>
<asrwt>0</asrwt>
<pdfrwt beam="2">  1        2 0.26910743E+00 0.16308240E+03</pdfrwt>
<pdfrwt beam="1">  1       -1 0.21093432E+00 0.29026251E+02</pdfrwt>
<totfact> 0.21211635E+00</totfact>
</mgrwt>
</event>
<event>
13    1  0.1675423E-008  0.1023676E+03  0.7546771E-02  0.1405722E+00
          2   -1    0    0  503    0  0.00000000000E+00  0.00000000000E+00  0.33066488563E+04  0.33066488563E+04  0.00000000000E+00 0. -1.
          2   -1    0    0  502    0 -0.00000000000E+00 -0.00000000000E+00 -0.66102649823E+03  0.66102649823E+03  0.00000000000E+00 0. -1.
         24    2    1    2    0    0 -0.34785108620E+02  0.36360706990E+02  0.56265356467E+03  0.56998153217E+03  0.75946088658E+02 0.  0.
         25    2    1    2    0    0  0.14616569727E+03  0.22136206569E+02 -0.18688337285E+03  0.26908160299E+03  0.12500036527E+03 0.  0.
         24    2    1    2    0    0 -0.17619211071E+02  0.50673914756E+02  0.38954566258E+02  0.10284105693E+03  0.78616426544E+02 0.  0.
        -13    1    3    3    0    0 -0.56856112136E+02  0.22376823515E+02  0.30879998729E+03  0.31478686737E+03  0.00000000000E+00 0.  1.
         14    1    3    3    0    0  0.22071003516E+02  0.13983883476E+02  0.25385357738E+03  0.25519466480E+03  0.00000000000E+00 0. -1.
        -13    1    5    5    0    0  0.18563037364E+02  0.55634789699E+02  0.23392066340E+02  0.63142734726E+02  0.00000000000E+00 0.  1.
         14    1    5    5    0    0 -0.36182248435E+02 -0.49608749437E+01  0.15562499918E+02  0.39698322203E+02  0.00000000000E+00 0. -1.
          5    1    4    4  501    0 -0.23351360194E+01 -0.16805163162E+02 -0.80108784438E+02  0.82020568843E+02  0.47000000000E+01 0.  1.
         -5    1    4    4    0  501  0.14850083329E+03  0.38941369731E+02 -0.10677458841E+03  0.18706103414E+03  0.47000000000E+01 0.  1.
          1    1    1    2  502    0 -0.30194852104E+02 -0.13420431032E+02 -0.39549108500E+03  0.39686904059E+03  0.00000000000E+00 0. -1.
          1    1    1    2  503    0 -0.63566525477E+02 -0.95750397282E+02  0.26263886849E+04  0.26289021218E+04  0.00000000000E+00 0. -1.
<mgrwt>
<rscale>  0 0.58159502E+02</rscale>
<asrwt>0</asrwt>
<pdfrwt beam="1">  1        2 0.48627188E+00 0.10236758E+03</pdfrwt>
<pdfrwt beam="2">  1        2 0.97209781E-01 0.33042958E+02</pdfrwt>
<totfact> 0.15233346E+01</totfact>
</mgrwt>
</event>
<event>
13    1  0.1675423E-008  0.9689572E+02  0.7546771E-02  0.1332617E+00
          2   -1    0    0  503    0  0.00000000000E+00  0.00000000000E+00  0.62709557470E+03  0.62709557470E+03  0.00000000000E+00 0. -1.
          2   -1    0    0  502    0 -0.00000000000E+00 -0.00000000000E+00 -0.18386886318E+04  0.18386886318E+04  0.00000000000E+00 0. -1.
         24    2    1    2    0    0  0.42625112942E+02 -0.38432628838E+02  0.17870769060E+03  0.20448116538E+03  0.81130395695E+02 0.  0.
         25    2    1    2    0    0 -0.40037245071E+02  0.28455216535E+02 -0.97158594942E+03  0.98082329409E+03  0.12498958666E+03 0.  0.
         24    2    1    2    0    0 -0.35408607669E+02 -0.44294977804E+02  0.35778290973E+02  0.10629340087E+03  0.82476580972E+02 0.  0.
        -11    1    5    5    0    0 -0.49471495013E+01  0.24303380002E+02  0.58026877055E+01  0.25471547898E+02  0.00000000000E+00 0.  1.
         12    1    5    5    0    0 -0.30461458168E+02 -0.68598357806E+02  0.29975603268E+02  0.80821852977E+02  0.00000000000E+00 0. -1.
        -11    1    3    3    0    0  0.49412625982E+01 -0.51379501496E+02  0.13880012334E+03  0.14808694571E+03  0.00000000000E+00 0.  1.
         12    1    3    3    0    0  0.37683850344E+02  0.12946872657E+02  0.39907567251E+02  0.56394219670E+02  0.00000000000E+00 0. -1.
          5    1    4    4  501    0 -0.39079258761E+02  0.60381242623E+02 -0.89244167913E+03  0.89534759930E+03  0.47000000000E+01 0. -1.
         -5    1    4    4    0  501 -0.95798630994E+00 -0.31926026088E+02 -0.79144270296E+02  0.85475694792E+02  0.47000000000E+01 0. -1.
          1    1    1    2  502    0 -0.59459313602E+02  0.23713084309E+02 -0.80648331401E+03  0.80901981195E+03  0.00000000000E+00 0. -1.
          1    1    1    2  503    0  0.92280053400E+02  0.30559305798E+02  0.35199022473E+03  0.36516653424E+03  0.00000000000E+00 0. -1.
<mgrwt>
<rscale>  0 0.78756767E+02</rscale>
<asrwt>0</asrwt>
<pdfrwt beam="1">  1        2 0.92219936E-01 0.96895722E+02</pdfrwt>
<pdfrwt beam="2">  1        2 0.27039539E+00 0.64013439E+02</pdfrwt>
<totfact> 0.92112325E+01</totfact>
</mgrwt>
</event>
<event>
13    1  0.1675423E-008  0.1268532E+03  0.7546771E-02  0.1359273E+00
          2   -1    0    0  502    0  0.00000000000E+00  0.00000000000E+00  0.20418285052E+04  0.20418285052E+04  0.00000000000E+00 0. -1.
          2   -1    0    0  503    0 -0.00000000000E+00 -0.00000000000E+00 -0.53949815472E+03  0.53949815472E+03  0.00000000000E+00 0. -1.
         24    2    1    2    0    0 -0.62738587140E+02 -0.78108797781E+01  0.14712077523E+04  0.14747449710E+04  0.80145734187E+02 0.  0.
         25    2    1    2    0    0  0.10916121707E+03 -0.14625556932E+03 -0.74326125149E+02  0.23335977668E+03  0.12500219848E+03 0.  0.
         24    2    1    2    0    0 -0.42140172557E+02  0.10891786325E+02  0.46451300878E+01  0.91579648672E+02  0.80441467321E+02 0.  0.
        -13    1    3    3    0    0 -0.13433115694E+02 -0.40526691313E+02  0.57007220783E+03  0.57166877075E+03  0.00000000000E+00 0.  1.
         14    1    3    3    0    0 -0.49305471446E+02  0.32715811535E+02  0.90113554451E+03  0.90307620023E+03  0.00000000000E+00 0. -1.
        -13    1    5    5    0    0  0.14760570785E+02  0.19652437763E+02  0.20344808226E+02  0.31906174664E+02  0.00000000000E+00 0.  1.
         14    1    5    5    0    0 -0.56900743342E+02 -0.87606514381E+01 -0.15699678138E+02  0.59673474008E+02  0.00000000000E+00 0. -1.
          5    1    4    4  501    0  0.10564456267E+03 -0.15943892811E+03 -0.90532402864E+02  0.21165951759E+03  0.47000000000E+01 0.  1.
         -5    1    4    4    0  501  0.35166544007E+01  0.13183358792E+02  0.16206277715E+02  0.21700259090E+02  0.47000000000E+01 0.  1.
          1    1    1    2  502    0  0.28117457224E+02  0.26873557346E+02  0.42961248700E+03  0.43136952659E+03  0.00000000000E+00 0. -1.
          1    1    1    2  503    0 -0.32399914601E+02  0.11630110543E+03 -0.32880889384E+03  0.35027273696E+03  0.00000000000E+00 0. -1.
<mgrwt>
<rscale>  0 0.70241648E+02</rscale>
<asrwt>0</asrwt>
<pdfrwt beam="1">  1        2 0.30026889E+00 0.38894466E+02</pdfrwt>
<pdfrwt beam="2">  1        2 0.79337965E-01 0.12685324E+03</pdfrwt>
<totfact> 0.92035770E+01</totfact>
</mgrwt>
</event>
<event>
13    1  0.1675423E-008  0.9361227E+02  0.7546771E-02  0.1330066E+00
          2   -1    0    0  502    0  0.00000000000E+00  0.00000000000E+00  0.25394352578E+04  0.25394352578E+04  0.00000000000E+00 0. -1.
          2   -1    0    0  503    0 -0.00000000000E+00 -0.00000000000E+00 -0.30660117120E+04  0.30660117120E+04  0.00000000000E+00 0. -1.
         24    2    1    2    0    0 -0.78330426238E+03 -0.32989091690E+03  0.34391016175E+03  0.92319195152E+03  0.10777567204E+03 0.  0.
         25    2    1    2    0    0 -0.72813352350E+02 -0.35139442115E+03  0.47184992774E+03  0.60584327848E+03  0.12499560105E+03 0.  0.
         24    2    1    2    0    0  0.81116191869E+03  0.78076696784E+03 -0.15167228652E+04  0.18906335460E+04  0.80412927449E+02 0.  0.
        -13    1    3    3    0    0 -0.58140755565E+03 -0.22656913224E+03  0.29924262209E+03  0.69203646170E+03  0.00000000000E+00 0.  1.
         14    1    3    3    0    0 -0.20189670673E+03 -0.10332178466E+03  0.44667539657E+02  0.23115548981E+03  0.00000000000E+00 0. -1.
        -13    1    5    5    0    0  0.86780961815E+02  0.65411433016E+02 -0.18174858337E+03  0.21175962424E+03  0.00000000000E+00 0.  1.
         14    1    5    5    0    0  0.72438095688E+03  0.71535553482E+03 -0.13349742818E+04  0.16788739217E+04  0.00000000000E+00 0. -1.
          5    1    4    4  501    0 -0.14356851305E+01 -0.15141322031E+03  0.11355082472E+03  0.18932486438E+03  0.47000000000E+01 0. -1.
         -5    1    4    4    0  501 -0.71377667219E+02 -0.19998120084E+03  0.35829910302E+03  0.41651841411E+03  0.47000000000E+01 0. -1.
          1    1    1    2  502    0 -0.22262114258E+02 -0.90933759770E+02  0.11770802527E+04  0.11807973881E+04  0.00000000000E+00 0. -1.
          1    1    1    2  503    0  0.67217810292E+02 -0.85478700214E+01 -0.10026939312E+04  0.10049808057E+04  0.00000000000E+00 0. -1.
<mgrwt>
<rscale>  0 0.79643497E+02</rscale>
<asrwt>0</asrwt>
<pdfrwt beam="1">  1        2 0.37344636E+00 0.93612274E+02</pdfrwt>
<pdfrwt beam="2">  1        2 0.45088407E+00 0.67759133E+02</pdfrwt>
<totfact> 0.22293643E+00</totfact>
</mgrwt>
</event>
<event>
13    1  0.1675423E-008  0.1436089E+03  0.7546771E-02  0.1392422E+00
          2   -1    0    0  502    0  0.00000000000E+00  0.00000000000E+00  0.26773495472E+04  0.26773495472E+04  0.00000000000E+00 0. -1.
          2   -1    0    0  503    0 -0.00000000000E+00 -0.00000000000E+00 -0.11839548475E+04  0.11839548475E+04  0.00000000000E+00 0. -1.
         24    2    1    2    0    0 -0.40928432511E+02  0.87344875349E+02  0.11081339776E+04  0.11152240589E+04  0.80371172952E+02 0.  0.
         25    2    1    2    0    0  0.91039073184E+02  0.21580459478E+03 -0.90866919987E+03  0.94665989005E+03  0.12500198663E+03 0.  0.
         24    2    1    2    0    0 -0.46672371060E+02 -0.54456720912E+02 -0.15825580671E+02  0.10906868966E+03  0.80633029133E+02 0.  0.
        -11    1    5    5    0    0  0.20461882418E+02 -0.20838859372E+02 -0.17353790875E+02  0.33972058368E+02  0.00000000000E+00 0.  1.
         12    1    5    5    0    0 -0.67134253478E+02 -0.33617861540E+02  0.15282102037E+01  0.75096631290E+02  0.00000000000E+00 0. -1.
        -13    1    3    3    0    0 -0.48327898780E+02  0.63061153207E+02  0.47634833490E+03  0.48292859824E+03  0.00000000000E+00 0.  1.
         14    1    3    3    0    0  0.73994662692E+01  0.24283722142E+02  0.63178564268E+03  0.63229546065E+03  0.00000000000E+00 0. -1.
          5    1    4    4  501    0 -0.70538178096E+01  0.12455223534E+03 -0.33418624808E+03  0.35674298043E+03  0.47000000000E+01 0. -1.
         -5    1    4    4    0  501  0.98092890993E+02  0.91252359438E+02 -0.57448295178E+03  0.58991690962E+03  0.47000000000E+01 0. -1.
          1    1    1    2  502    0 -0.25222439355E+02 -0.23418448287E+03  0.14898557555E+04  0.15083596109E+04  0.00000000000E+00 0. -1.
          1    1    1    2  503    0  0.21784169743E+02 -0.14508266343E+02 -0.18010025290E+03  0.18199214527E+03  0.00000000000E+00 0. -1.
<mgrwt>
<rscale>  0 0.61308360E+02</rscale>
<asrwt>0</asrwt>
<pdfrwt beam="1">  1        2 0.39372788E+00 0.14360894E+03</pdfrwt>
<pdfrwt beam="2">  1        2 0.17411101E+00 0.26173266E+02</pdfrwt>
<totfact> 0.15952605E+01</totfact>
</mgrwt>
</event>
<event>
13    1  0.1675423E-008  0.1203555E+03  0.7546771E-02  0.1404956E+00
          2   -1    0    0  503    0  0.00000000000E+00  0.00000000000E+00  0.92917275256E+03  0.92917275256E+03  0.00000000000E+00 0. -1.
          2   -1    0    0  502    0 -0.00000000000E+00 -0.00000000000E+00 -0.12495099601E+04  0.12495099601E+04  0.00000000000E+00 0. -1.
         24    2    1    2    0    0  0.13504040857E+03  0.59687653995E+01  0.29012919525E+03  0.33043845489E+03  0.82116286006E+02 0.  0.
         25    2    1    2    0    0 -0.14088180256E+03 -0.12252547551E+03 -0.41292899679E+03  0.47010201953E+03  0.12500151174E+03 0.  0.
         24    2    1    2    0    0  0.70038015121E+02  0.30289665266E+02  0.58377115395E+02  0.12488840026E+03  0.79789958848E+02 0.  0.
        -11    1    5    5    0    0  0.32593842247E+02 -0.24789235211E+02  0.88621102266E+01  0.41897514633E+02  0.00000000000E+00 0.  1.
         12    1    5    5    0    0  0.37444172875E+02  0.55078900476E+02  0.49515005169E+02  0.82990885625E+02  0.00000000000E+00 0. -1.
        -11    1    3    3    0    0  0.24632924708E+02  0.34947590777E+02  0.98651572696E+02  0.10751859316E+03  0.00000000000E+00 0.  1.
         12    1    3    3    0    0  0.11040748387E+03 -0.28978825378E+02  0.19147762255E+03  0.22291986173E+03  0.00000000000E+00 0. -1.
          5    1    4    4  501    0 -0.59599759102E+02 -0.97589821419E+02 -0.33739620067E+03  0.35627824907E+03  0.47000000000E+01 0. -1.
         -5    1    4    4    0  501 -0.81282043461E+02 -0.24935654090E+02 -0.75532796116E+02  0.11382377047E+03  0.47000000000E+01 0. -1.
          1    1    1    2  502    0  0.18377078406E+02 -0.21487382126E+02 -0.74507176892E+03  0.74560805081E+03  0.00000000000E+00 0. -1.
          1    1    1    2  503    0 -0.82573699539E+02  0.10775442697E+03  0.48915724754E+03  0.50764578715E+03  0.00000000000E+00 0. -1.
<mgrwt>
<rscale>  0 0.58334751E+02</rscale>
<asrwt>0</asrwt>
<pdfrwt beam="1">  1        2 0.13664305E+00 0.12035550E+03</pdfrwt>
<pdfrwt beam="2">  1        2 0.18375146E+00 0.28274098E+02</pdfrwt>
<totfact> 0.11651878E+02</totfact>
</mgrwt>
</event>
<event>
13    1  0.1675423E-008  0.1532981E+03  0.7546771E-02  0.1348961E+00
          2   -1    0    0  503    0  0.00000000000E+00  0.00000000000E+00  0.40612229181E+04  0.40612229181E+04  0.00000000000E+00 0. -1.
          2   -1    0    0  502    0 -0.00000000000E+00 -0.00000000000E+00 -0.17449392784E+04  0.17449392784E+04  0.00000000000E+00 0. -1.
         24    2    1    2    0    0 -0.17993447173E+02 -0.10337791194E+03  0.19318977989E+04  0.19365889115E+04  0.84479287675E+02 0.  0.
         25    2    1    2    0    0 -0.17649047374E+03  0.44433722563E+02 -0.13644353698E+03  0.25954515978E+03  0.12499443252E+03 0.  0.
         24    2    1    2    0    0  0.83816807003E+02 -0.42000411236E+01  0.16474359907E+04  0.16516026382E+04  0.81872055306E+02 0.  0.
        -11    1    3    3    0    0 -0.43430993883E+02 -0.30051573792E+02  0.55564567553E+03  0.55815003812E+03  0.00000000000E+00 0.  1.
         12    1    3    3    0    0  0.25437546710E+02 -0.73326338151E+02  0.13762521234E+04  0.13784388734E+04  0.00000000000E+00 0. -1.
        -13    1    5    5    0    0 -0.14270296090E+02 -0.67883754001E+01  0.12281742926E+03  0.12382990076E+03  0.00000000000E+00 0.  1.
         14    1    5    5    0    0  0.98087103093E+02  0.25883342765E+01  0.15246185614E+04  0.15277727374E+04  0.00000000000E+00 0. -1.
          5    1    4    4  501    0 -0.23406887635E+02  0.55907682860E+02 -0.68550421713E+02  0.91623150506E+02  0.47000000000E+01 0. -1.
         -5    1    4    4    0  501 -0.15308358610E+03 -0.11473960297E+02 -0.67893115270E+02  0.16792200928E+03  0.47000000000E+01 0. -1.
          1    1    1    2  502    0  0.11826188600E+03  0.97439028060E+02 -0.15379602051E+04  0.15455749190E+04  0.00000000000E+00 0. -1.
          1    1    1    2  503    0 -0.75947720923E+01 -0.34294797557E+02  0.41135359217E+03  0.41285056799E+03  0.00000000000E+00 0. -1.
<mgrwt>
<rscale>  0 0.73380520E+02</rscale>
<asrwt>0</asrwt>
<pdfrwt beam="1">  1        2 0.59723867E+00 0.35125684E+02</pdfrwt>
<pdfrwt beam="2">  1        2 0.25660872E+00 0.15329810E+03</pdfrwt>
<totfact> 0.15517954E+00</totfact>
</mgrwt>
</event>
<event>
13    1  0.1675423E-008  0.1004376E+03  0.7546771E-02  0.1333120E+00
          2   -1    0    0  502    0  0.00000000000E+00  0.00000000000E+00  0.12172474434E+04  0.12172474434E+04  0.00000000000E+00 0. -1.
          2   -1    0    0  503    0 -0.00000000000E+00 -0.00000000000E+00 -0.14790055111E+04  0.14790055111E+04  0.00000000000E+00 0. -1.
         24    2    1    2    0    0  0.52028235387E+02  0.29065132093E+02  0.63583123354E+02  0.11945860629E+03  0.81705727212E+02 0.  0.
         25    2    1    2    0    0 -0.19583116357E+02  0.10747442977E+03 -0.20860744274E+02  0.16732398332E+03  0.12501157244E+03 0.  0.
         24    2    1    2    0    0 -0.77837584189E+01 -0.17610930508E+02  0.13902343819E+03  0.16157869204E+03  0.80058888257E+02 0.  0.
        -11    1    5    5    0    0  0.11552583964E+02 -0.41132840785E+02  0.42087159535E+02  0.59972508577E+02  0.00000000000E+00 0.  1.
         12    1    5    5    0    0 -0.19336342383E+02  0.23521910277E+02  0.96936278652E+02  0.10160618347E+03  0.00000000000E+00 0. -1.
        -13    1    3    3    0    0 -0.15920518966E+02 -0.13353245551E+02  0.97892571611E+01  0.22969580899E+02  0.00000000000E+00 0.  1.
         14    1    3    3    0    0  0.67948754353E+02  0.42418377644E+02  0.53793866193E+02  0.96489025387E+02  0.00000000000E+00 0. -1.
          5    1    4    4  501    0  0.39610178475E+01  0.47031344464E+02 -0.70873749072E+02  0.85280802834E+02  0.47000000000E+01 0.  1.
         -5    1    4    4    0  501 -0.23544134204E+02  0.60443085301E+02  0.50013004797E+02  0.82043180490E+02  0.47000000000E+01 0.  1.
          1    1    1    2  502    0  0.35202389157E+02 -0.10490430469E+03  0.89809429037E+03  0.90488533845E+03  0.00000000000E+00 0. -1.
          1    1    1    2  503    0 -0.59863749768E+02 -0.14024326661E+02 -0.13415981753E+04  0.13430063344E+04  0.00000000000E+00 0. -1.
<mgrwt>
<rscale>  0 0.78583468E+02</rscale>
<asrwt>0</asrwt>
<pdfrwt beam="1">  1        2 0.17900698E+00 0.10043761E+03</pdfrwt>
<pdfrwt beam="2">  1        2 0.21750081E+00 0.61484553E+02</pdfrwt>
<totfact> 0.59183477E+01</totfact>
</mgrwt>
</event>
<event>
13    1  0.1675423E-008  0.7522036E+02  0.7546771E-02  0.1377182E+00
         -3   -1    0    0    0  501 -0.00000000000E+00  0.00000000000E+00  0.89816318221E+03  0.89816318221E+03  0.00000000000E+00 0.  1.
          2   -1    0    0  503    0  0.00000000000E+00 -0.00000000000E+00 -0.14658354421E+04  0.14658354421E+04  0.00000000000E+00 0. -1.
         24    2    1    2    0    0 -0.37384594387E+03 -0.17468681779E+03  0.26191019083E+03  0.49824378617E+03  0.96817603429E+02 0.  0.
         25    2    1    2    0    0  0.56612683309E+02 -0.18563100054E+03 -0.16786678775E+03  0.28542567479E+03  0.12499877251E+03 0.  0.
         24    2    1    2    0    0  0.25553402295E+03  0.27290148261E+03 -0.19263271479E+03  0.42871571996E+03  0.83168200910E+02 0.  0.
        -11    1    3    3    0    0 -0.35682272633E+02 -0.39009987555E+01  0.57467328561E+02  0.67756447837E+02  0.00000000000E+00 0.  1.
         12    1    3    3    0    0 -0.33816367124E+03 -0.17078581904E+03  0.20444286227E+03  0.43048733834E+03  0.00000000000E+00 0. -1.
        -11    1    5    5    0    0  0.17799555270E+03  0.13868577059E+03 -0.13728242025E+03  0.26412614913E+03  0.00000000000E+00 0.  1.
         12    1    5    5    0    0  0.77538470249E+02  0.13421571202E+03 -0.55350294539E+02  0.16458957083E+03  0.00000000000E+00 0. -1.
          5    1    4    4  502    0  0.31799851602E+02 -0.19937979545E+03 -0.15009262301E+03  0.25162157872E+03  0.47000000000E+01 0.  1.
         -5    1    4    4    0  502  0.24812831707E+02  0.13748794912E+02 -0.17774164738E+02  0.33804096068E+02  0.47000000000E+01 0.  1.
          1    1    1    2  503    0  0.55111550340E+02  0.12595399272E+02 -0.80521228272E+03  0.80719436773E+03  0.00000000000E+00 0. -1.
         -4    1    1    2    0  501  0.65876872773E+01  0.74820936459E+02  0.33612933451E+03  0.34441907566E+03  0.00000000000E+00 0.  1.
<mgrwt>
<rscale>  0 0.65210407E+02</rscale>
<asrwt>0</asrwt>
<pdfrwt beam="2">  1        2 0.21556403E+00 0.56532531E+02</pdfrwt>
<pdfrwt beam="1">  1       -3 0.13208282E+00 0.75220358E+02</pdfrwt>
<totfact> 0.50580390E+00</totfact>
</mgrwt>
</event>
<event>
13    1  0.1675423E-008  0.7667060E+02  0.7546771E-02  0.1344900E+00
          2   -1    0    0  502    0  0.00000000000E+00  0.00000000000E+00  0.15065045556E+04  0.15065045556E+04  0.00000000000E+00 0. -1.
          2   -1    0    0  503    0 -0.00000000000E+00 -0.00000000000E+00 -0.27224018916E+04  0.27224018916E+04  0.00000000000E+00 0. -1.
         24    2    1    2    0    0  0.40635470588E+02  0.10667675117E+02  0.69668986417E+02  0.11479034934E+03  0.80981577360E+02 0.  0.
         25    2    1    2    0    0 -0.14459768480E+03 -0.27534059512E+02 -0.10053752549E+03  0.21771386456E+03  0.12499967163E+03 0.  0.
         24    2    1    2    0    0  0.12560229155E+03  0.80595203300E+02 -0.95601102179E+03  0.97097216168E+03  0.80983594270E+02 0.  0.
        -11    1    5    5    0    0  0.17314538911E+02 -0.16707682118E+02 -0.12192751692E+03  0.12427895752E+03  0.00000000000E+00 0.  1.
         12    1    5    5    0    0  0.10828775264E+03  0.97302885418E+02 -0.83408350487E+03  0.84669320416E+03  0.00000000000E+00 0. -1.
        -13    1    3    3    0    0 -0.32218302941E+01  0.36858810891E+02  0.44412427088E+02  0.57804980846E+02  0.00000000000E+00 0.  1.
         14    1    3    3    0    0  0.43857300882E+02 -0.26191135773E+02  0.25256559330E+02  0.56985368498E+02  0.00000000000E+00 0. -1.
          5    1    4    4  501    0 -0.36100269402E+02 -0.79620348472E+01  0.29237435315E+02  0.47366032909E+02  0.47000000000E+01 0. -1.
         -5    1    4    4    0  501 -0.10849741540E+03 -0.19572024665E+02 -0.12977496080E+03  0.17034783165E+03  0.47000000000E+01 0. -1.
          1    1    1    2  502    0 -0.92292382020E+02 -0.33952430272E+02  0.13454788404E+04  0.13490678119E+04  0.00000000000E+00 0. -1.
          1    1    1    2  503    0  0.70652304685E+02 -0.29776388633E+02 -0.15744966155E+04  0.15763622597E+04  0.00000000000E+00 0. -1.
<mgrwt>
<rscale>  0 0.74668834E+02</rscale>
<asrwt>0</asrwt>
<pdfrwt beam="1">  1        2 0.22154479E+00 0.72719329E+02</pdfrwt>
<pdfrwt beam="2">  1        2 0.40035321E+00 0.76670604E+02</pdfrwt>
<totfact> 0.10648174E+01</totfact>
</mgrwt>
</event>
<event>
13    1  0.1675423E-008  0.9568061E+02  0.7546771E-02  0.1328477E+00
          2   -1    0    0  503    0  0.00000000000E+00  0.00000000000E+00  0.28856562554E+04  0.28856562554E+04  0.00000000000E+00 0. -1.
          2   -1    0    0  502    0 -0.00000000000E+00 -0.00000000000E+00 -0.70235676351E+03  0.70235676351E+03  0.00000000000E+00 0. -1.
         24    2    1    2    0    0  0.37543409001E+01  0.51899595887E+02  0.17340286777E+04  0.17368915337E+04  0.85024006828E+02 0.  0.
         25    2    1    2    0    0 -0.10288574088E+03 -0.14810290521E+03  0.26290278591E+02  0.22098784507E+03  0.12499801082E+03 0.  0.
         24    2    1    2    0    0  0.85284359159E+02  0.13808743253E+03  0.12610099737E+03  0.22040307736E+03  0.79589534682E+02 0.  0.
        -11    1    3    3    0    0  0.40549454825E+02  0.10931153467E+02  0.56023938725E+03  0.56181128453E+03  0.00000000000E+00 0.  1.
         12    1    3    3    0    0 -0.36795113925E+02  0.40968442420E+02  0.11737892904E+04  0.11750802492E+04  0.00000000000E+00 0. -1.
        -13    1    5    5    0    0 -0.76361546031E+01  0.86371619326E+01  0.35004812769E+02  0.36854420907E+02  0.00000000000E+00 0.  1.
         14    1    5    5    0    0  0.92920513762E+02  0.12945027060E+03  0.91096184597E+02  0.18354865645E+03  0.00000000000E+00 0. -1.
          5    1    4    4  501    0 -0.39837712580E+02 -0.34054156936E+02  0.66248095656E+02  0.84602772568E+02  0.47000000000E+01 0. -1.
         -5    1    4    4    0  501 -0.63048028303E+02 -0.11404874828E+03 -0.39957817064E+02  0.13638507250E+03  0.47000000000E+01 0. -1.
          1    1    1    2  502    0  0.80262006084E+02 -0.52312781254E+02 -0.55096108478E+03  0.55922869530E+03  0.00000000000E+00 0. -1.
          1    1    1    2  503    0 -0.66414965260E+02  0.10428658046E+02  0.84784062306E+03  0.85050186751E+03  0.00000000000E+00 0. -1.
<mgrwt>
<rscale>  0 0.80202792E+02</rscale>
<asrwt>0</asrwt>
<pdfrwt beam="1">  1        2 0.42436121E+00 0.67228748E+02</pdfrwt>
<pdfrwt beam="2">  1        2 0.10328776E+00 0.95680613E+02</pdfrwt>
<totfact> 0.25002792E+01</totfact>
</mgrwt>
</event>
<event>
13    1  0.1675423E-008  0.3472578E+02  0.7546771E-02  0.1609276E+00
          2   -1    0    0  502    0  0.00000000000E+00  0.00000000000E+00  0.42773810417E+02  0.42773810417E+02  0.00000000000E+00 0. -1.
          2   -1    0    0  503    0 -0.00000000000E+00 -0.00000000000E+00 -0.38680165021E+04  0.38680165021E+04  0.00000000000E+00 0. -1.
         24    2    1    2    0    0 -0.17090764601E+03  0.57419536405E+02 -0.73546170370E+03  0.76153495289E+03  0.80778340203E+02 0.  0.
         25    2    1    2    0    0  0.11528863869E+03 -0.11425514237E+03 -0.61859459898E+03  0.65163728450E+03  0.12500465947E+03 0.  0.
         24    2    1    2    0    0  0.92025201473E+02  0.63608880667E+02 -0.13824363184E+04  0.13892012143E+04  0.78962725562E+02 0.  0.
        -11    1    3    3    0    0 -0.13323820069E+03  0.76684294986E+01 -0.45231065682E+03  0.47158896638E+03  0.00000000000E+00 0.  1.
         12    1    3    3    0    0 -0.37669445313E+02  0.49751106906E+02 -0.28315104688E+03  0.28994598651E+03  0.00000000000E+00 0. -1.
        -11    1    5    5    0    0  0.21951609879E+02 -0.35303005297E+01 -0.76538887923E+02  0.79702807746E+02  0.00000000000E+00 0.  1.
         12    1    5    5    0    0  0.70073591594E+02  0.67139181197E+02 -0.13058974304E+04  0.13094984065E+04  0.00000000000E+00 0. -1.
          5    1    4    4  501    0  0.27941555611E+02  0.20980997503E+02 -0.53768881829E+02  0.64297087332E+02  0.47000000000E+01 0. -1.
         -5    1    4    4    0  501  0.87347083081E+02 -0.13523613987E+03 -0.56482571715E+03  0.58734019717E+03  0.47000000000E+01 0. -1.
          1    1    1    2  502    0 -0.22444231284E+02 -0.26586077483E+02 -0.21517817177E+02  0.40909405886E+02  0.00000000000E+00 0. -1.
          1    1    1    2  503    0 -0.13961962873E+02  0.19812802782E+02 -0.10672322535E+04  0.10675074550E+04  0.00000000000E+00 0. -1.
<mgrwt>
<rscale>  0 0.29011817E+02</rscale>
<asrwt>0</asrwt>
<pdfrwt beam="1">  1        2 0.62902669E-02 0.34725779E+02</pdfrwt>
<pdfrwt beam="2">  1        2 0.56882589E+00 0.24238060E+02</pdfrwt>
<totfact> 0.18589324E+02</totfact>
</mgrwt>
</event>
<event>
13    1  0.1675423E-008  0.9464873E+02  0.7546771E-02  0.1481008E+00
          2   -1    0    0  503    0  0.00000000000E+00  0.00000000000E+00  0.39780607468E+04  0.39780607468E+04  0.00000000000E+00 0. -1.
         -1   -1    0    0    0  501 -0.00000000000E+00 -0.00000000000E+00 -0.99437457027E+02  0.99437457027E+02  0.00000000000E+00 0.  1.
         24    2    1    2    0    0 -0.83611124575E+02 -0.89356769137E+01  0.12969610391E+04  0.13021603026E+04  0.80267366984E+02 0.  0.
         25    2    1    2    0    0  0.36978650737E+02 -0.61508662761E+02  0.20571543955E+03  0.25119442463E+03  0.12501624170E+03 0.  0.
         24    2    1    2    0    0  0.20137836044E+02 -0.47153169132E+02  0.63424273375E+03  0.64152520533E+03  0.81619788976E+02 0.  0.
        -11    1    5    5    0    0 -0.23768801257E+02 -0.44706620174E+01  0.71908045523E+02  0.75866394029E+02  0.00000000000E+00 0.  1.
         12    1    5    5    0    0  0.43906637301E+02 -0.42682507114E+02  0.56233468823E+03  0.56565881130E+03  0.00000000000E+00 0. -1.
        -13    1    3    3    0    0  0.98768183987E+01 -0.10304802380E+02  0.41735716270E+03  0.41760117547E+03  0.00000000000E+00 0.  1.
         14    1    3    3    0    0 -0.93487942974E+02  0.13691254663E+01  0.87960387642E+03  0.88455912713E+03  0.00000000000E+00 0. -1.
          5    1    4    4  502    0  0.59077779606E+00 -0.26040164429E+02 -0.10918442293E+02  0.28631129283E+02  0.47000000000E+01 0. -1.
         -5    1    4    4    0  502  0.36387872941E+02 -0.35468498332E+02  0.21663388185E+03  0.22256329534E+03  0.47000000000E+01 0. -1.
          1    1    1    2  503    0  0.41164326790E+02  0.10341043812E+03  0.18089361846E+04  0.18123571228E+04  0.00000000000E+00 0. -1.
         -2    1    1    2    0  501 -0.14669688995E+02  0.14187070683E+02 -0.67232107226E+02  0.70261148523E+02  0.00000000000E+00 0.  1.
<mgrwt>
<rscale>  0 0.43949510E+02</rscale>
<asrwt>0</asrwt>
<pdfrwt beam="1">  1        2 0.58500883E+00 0.94648729E+02</pdfrwt>
<pdfrwt beam="2">  1       -1 0.14623158E-01 0.20407664E+02</pdfrwt>
<totfact> 0.25437609E+01</totfact>
</mgrwt>
</event>
<event>
13    1  0.1675423E-008  0.6302020E+02  0.7546771E-02  0.1493586E+00
         -1   -1    0    0    0  501 -0.00000000000E+00  0.00000000000E+00  0.46730971083E+03  0.46730971083E+03  0.00000000000E+00 0.  1.
          2   -1    0    0  503    0  0.00000000000E+00 -0.00000000000E+00 -0.74247193613E+03  0.74247193613E+03  0.00000000000E+00 0. -1.
         24    2    1    2    0    0 -0.45013433013E+02  0.14506285770E+02 -0.87245721145E+02  0.12639348878E+03  0.78274240134E+02 0.  0.
         25    2    1    2    0    0  0.16248293373E+03 -0.13165137188E+03  0.13226081704E+03  0.27721287990E+03  0.12498507746E+03 0.  0.
         24    2    1    2    0    0 -0.79006652622E+02  0.87867227931E+02 -0.28112902860E+03  0.31544371889E+03  0.80675325600E+02 0.  0.
        -11    1    5    5    0    0  0.85580852259E+00 -0.81767450576E+01 -0.45983737175E+00  0.82342588235E+01  0.00000000000E+00 0.  1.
         12    1    5    5    0    0 -0.79862461144E+02  0.96043972988E+02 -0.28066919123E+03  0.30720946006E+03  0.00000000000E+00 0. -1.
        -11    1    3    3    0    0 -0.23308719229E+02 -0.29346075391E+02 -0.17922349590E+02  0.41541535212E+02  0.00000000000E+00 0.  1.
         12    1    3    3    0    0 -0.21704713784E+02  0.43852361161E+02 -0.69323371555E+02  0.84851953564E+02  0.00000000000E+00 0. -1.
          5    1    4    4  502    0  0.43481618391E+02  0.20436148572E+02  0.12264216488E+02  0.49807512611E+02  0.47000000000E+01 0.  1.
         -5    1    4    4    0  502  0.11900131534E+03 -0.15208752045E+03  0.11999660055E+03  0.22740536729E+03  0.47000000000E+01 0.  1.
          1    1    1    2  503    0 -0.29675133076E+02  0.55936003555E+02 -0.26020606556E+03  0.26779963885E+03  0.00000000000E+00 0. -1.
         -2    1    1    2    0  501 -0.87877150201E+01 -0.26658145379E+02  0.22115777297E+03  0.22293192054E+03  0.00000000000E+00 0.  1.
<mgrwt>
<rscale>  0 0.42058618E+02</rscale>
<asrwt>0</asrwt>
<pdfrwt beam="2">  1        2 0.10918705E+00 0.63020200E+02</pdfrwt>
<pdfrwt beam="1">  1       -1 0.68722016E-01 0.28069212E+02</pdfrwt>
<totfact> 0.11597762E+02</totfact>
</mgrwt>
</event>
<event>
13    1  0.1675423E-008  0.1187539E+03  0.7546771E-02  0.1362620E+00
          2   -1    0    0  503    0  0.00000000000E+00  0.00000000000E+00  0.21838367462E+04  0.21838367462E+04  0.00000000000E+00 0. -1.
          2   -1    0    0  502    0 -0.00000000000E+00 -0.00000000000E+00 -0.32850406650E+04  0.32850406650E+04  0.00000000000E+00 0. -1.
         24    2    1    2    0    0 -0.18565165417E+03 -0.12164677467E+04 -0.75811392453E+02  0.12362604606E+04  0.91281125416E+02 0.  0.
         25    2    1    2    0    0  0.64306855626E+02 -0.42752355473E+03 -0.11575609826E+02  0.45019286926E+03  0.12501145251E+03 0.  0.
         24    2    1    2    0    0  0.50795816705E+02  0.17862805963E+04 -0.11876801689E+04  0.21483966072E+04  0.10791299649E+03 0.  0.
        -11    1    5    5    0    0  0.10354466152E+02  0.42184175489E+03 -0.33658881458E+03  0.53976820139E+03  0.00000000000E+00 0.  1.
         12    1    5    5    0    0  0.40441350553E+02  0.13644388414E+04 -0.85109135432E+03  0.16086284058E+04  0.00000000000E+00 0. -1.
        -11    1    3    3    0    0 -0.27146143453E+02 -0.24751285533E+03  0.19795932815E+02  0.24978271681E+03  0.00000000000E+00 0.  1.
         12    1    3    3    0    0 -0.15850551072E+03 -0.96895489136E+03 -0.95607325268E+02  0.98647774383E+03  0.00000000000E+00 0. -1.
          5    1    4    4  501    0 -0.17392980186E+02 -0.20595333509E+03  0.34337778797E+02  0.20957209988E+03  0.47000000000E+01 0.  1.
         -5    1    4    4    0  501  0.81699835811E+02 -0.22157021964E+03 -0.45913388623E+02  0.24062076938E+03  0.47000000000E+01 0.  1.
          1    1    1    2  502    0  0.21470082514E+02 -0.34218672901E+02 -0.72562163437E+03  0.72674523616E+03  0.00000000000E+00 0. -1.
          1    1    1    2  503    0  0.49078899328E+02 -0.10807062193E+03  0.89948488672E+03  0.90728223785E+03  0.00000000000E+00 0. -1.
<mgrwt>
<rscale>  0 0.69262166E+02</rscale>
<asrwt>0</asrwt>
<pdfrwt beam="1">  1        2 0.32115247E+00 0.11875387E+03</pdfrwt>
<pdfrwt beam="2">  1        2 0.48309421E+00 0.40396559E+02</pdfrwt>
<totfact> 0.27139412E+00</totfact>
</mgrwt>
</event>
<event>
13    1  0.1675423E-008  0.6874135E+02  0.7546771E-02  0.1457940E+00
          2   -1    0    0  502    0  0.00000000000E+00  0.00000000000E+00  0.16746142004E+04  0.16746142004E+04  0.00000000000E+00 0. -1.
          2   -1    0    0  503    0 -0.00000000000E+00 -0.00000000000E+00 -0.21318918884E+04  0.21318918884E+04  0.00000000000E+00 0. -1.
         24    2    1    2    0    0  0.63496637573E+02 -0.15021741474E+02  0.32704074036E+03  0.34303914295E+03  0.80391119148E+02 0.  0.
         25    2    1    2    0    0 -0.17710678432E+02 -0.33825013776E+02 -0.15570798233E+03  0.20329659920E+03  0.12500692700E+03 0.  0.
         24    2    1    2    0    0 -0.12551228709E+03 -0.70847676248E+01 -0.26556642923E+02  0.15681427186E+03  0.89899568589E+02 0.  0.
        -13    1    5    5    0    0 -0.98956413289E+02 -0.10430836468E+02 -0.58273752736E+02  0.11531263737E+03  0.00000000000E+00 0.  1.
         14    1    5    5    0    0 -0.26555873805E+02  0.33460688429E+01  0.31717109813E+02  0.41501634487E+02  0.00000000000E+00 0. -1.
        -13    1    3    3    0    0  0.73816199377E+02 -0.78253275917E+01  0.32025444261E+03  0.32874454377E+03  0.00000000000E+00 0.  1.
         14    1    3    3    0    0 -0.10319561804E+02 -0.71964138827E+01  0.67862977467E+01  0.14294599180E+02  0.00000000000E+00 0. -1.
          5    1    4    4  501    0 -0.12144752756E+02  0.18470517279E+02  0.13306841350E+02  0.26226266505E+02  0.47000000000E+01 0.  1.
         -5    1    4    4    0  501 -0.55659256763E+01 -0.52295531055E+02 -0.16901482368E+03  0.17707033269E+03  0.47000000000E+01 0.  1.
          1    1    1    2  502    0  0.16672229991E+02  0.28654209641E+02  0.12497943681E+04  0.12502339739E+04  0.00000000000E+00 0. -1.
          1    1    1    2  503    0  0.63054097962E+02  0.27277313235E+02 -0.18518481713E+04  0.18531221008E+04  0.00000000000E+00 0. -1.
<mgrwt>
<rscale>  0 0.47737658E+02</rscale>
<asrwt>0</asrwt>
<pdfrwt beam="1">  1        2 0.24626679E+00 0.33151576E+02</pdfrwt>
<pdfrwt beam="2">  1        2 0.31351351E+00 0.68741346E+02</pdfrwt>
<totfact> 0.18724474E+01</totfact>
</mgrwt>
</event>
<event>
13    1  0.1675423E-008  0.3963142E+02  0.7546771E-02  0.1544990E+00
          2   -1    0    0  502    0  0.00000000000E+00  0.00000000000E+00  0.40845848898E+04  0.40845848898E+04  0.00000000000E+00 0. -1.
          2   -1    0    0  503    0 -0.00000000000E+00 -0.00000000000E+00 -0.25066005807E+04  0.25066005807E+04  0.00000000000E+00 0. -1.
         24    2    1    2    0    0  0.10028912556E+04  0.19338322433E+04  0.63493918960E+03  0.22713452129E+04  0.10180022428E+03 0.  0.
         25    2    1    2    0    0 -0.50084767579E+03 -0.21511339989E+03 -0.11568582485E+03  0.57108011305E+03  0.12500846488E+03 0.  0.
         24    2    1    2    0    0 -0.49765318024E+03 -0.17364729396E+04  0.53731806345E+03  0.18863244973E+04  0.80699752297E+02 0.  0.
        -11    1    5    5    0    0 -0.39049586283E+03 -0.12789192571E+04  0.42547934956E+03  0.14032655351E+04  0.00000000000E+00 0.  1.
         12    1    5    5    0    0 -0.10715731742E+03 -0.45755368248E+03  0.11183871389E+03  0.48305896219E+03  0.00000000000E+00 0. -1.
        -11    1    3    3    0    0  0.89871436886E+03  0.17335150574E+04  0.53620538708E+03  0.20249143657E+04  0.00000000000E+00 0.  1.
         12    1    3    3    0    0  0.10417688675E+03  0.20031718587E+03  0.98733802525E+02  0.24643084720E+03  0.00000000000E+00 0. -1.
          5    1    4    4  501    0 -0.43147642235E+03 -0.13864149865E+03 -0.11554447078E+03  0.46772425949E+03  0.47000000000E+01 0. -1.
         -5    1    4    4    0  501 -0.69371253445E+02 -0.76471901244E+02 -0.14135407421E+00  0.10335585356E+03  0.47000000000E+01 0. -1.
          1    1    1    2  502    0 -0.36006489716E+02  0.16570558369E+02  0.11912212431E+04  0.11918804893E+04  0.00000000000E+00 0. -1.
          1    1    1    2  503    0  0.31616090144E+02  0.11835378432E+01 -0.66980836213E+03  0.67055515799E+03  0.00000000000E+00 0. -1.
<mgrwt>
<rscale>  0 0.35409999E+02</rscale>
<asrwt>0</asrwt>
<pdfrwt beam="1">  1        2 0.60067425E+00 0.39631416E+02</pdfrwt>
<pdfrwt beam="2">  1        2 0.36861773E+00 0.31638235E+02</pdfrwt>
<totfact> 0.75720424E-01</totfact>
</mgrwt>
</event>
<event>
13    1  0.1675423E-008  0.8278210E+02  0.7546771E-02  0.1414462E+00
          2   -1    0    0  503    0  0.00000000000E+00  0.00000000000E+00  0.30549447919E+04  0.30549447919E+04  0.00000000000E+00 0. -1.
          2   -1    0    0  502    0 -0.00000000000E+00 -0.00000000000E+00 -0.10307864772E+04  0.10307864772E+04  0.00000000000E+00 0. -1.
         24    2    1    2    0    0 -0.85728838628E+02  0.53174626694E+01  0.24379836620E+03  0.27171334614E+03  0.83742402200E+02 0.  0.
         25    2    1    2    0    0 -0.28506980744E+02 -0.22765246119E+03 -0.44829632259E+03  0.51887704410E+03  0.12500201201E+03 0.  0.
         24    2    1    2    0    0  0.88631114934E+02  0.26758083381E+03 -0.22924590709E+03  0.37216233308E+03  0.80598629569E+02 0.  0.
        -11    1    5    5    0    0  0.87030421721E+02  0.15044123547E+03 -0.15904189251E+03  0.23558689099E+03  0.00000000000E+00 0.  1.
         12    1    5    5    0    0  0.16006932135E+01  0.11713959834E+03 -0.70204014579E+02  0.13657544209E+03  0.00000000000E+00 0. -1.
        -13    1    3    3    0    0 -0.74825538506E+02  0.32697635642E+02  0.21709206172E+03  0.23194171649E+03  0.00000000000E+00 0.  1.
         14    1    3    3    0    0 -0.10903300122E+02 -0.27380172973E+02  0.26706304486E+02  0.39771629648E+02  0.00000000000E+00 0. -1.
          5    1    4    4  501    0  0.42231120260E+02 -0.10914511353E+03 -0.26192451559E+03  0.28691926598E+03  0.47000000000E+01 0. -1.
         -5    1    4    4    0  501 -0.70738101004E+02 -0.11850734766E+03 -0.18637180700E+03  0.23195777812E+03  0.47000000000E+01 0. -1.
          1    1    1    2  502    0  0.62378045050E+02 -0.55466591511E+02 -0.22490729437E+03  0.23989759136E+03  0.00000000000E+00 0. -1.
          1    1    1    2  503    0 -0.36773340612E+02  0.10220756218E+02  0.26828094725E+04  0.26830809545E+04  0.00000000000E+00 0. -1.
<mgrwt>
<rscale>  0 0.56210042E+02</rscale>
<asrwt>0</asrwt>
<pdfrwt beam="1">  1        2 0.44925658E+00 0.38167295E+02</pdfrwt>
<pdfrwt beam="2">  1        2 0.15158625E+00 0.82782099E+02</pdfrwt>
<totfact> 0.14094500E+01</totfact>
</mgrwt>
</event>
<event>
13    1  0.1675423E-008  0.7289914E+02  0.7546771E-02  0.1411300E+00
         -1   -1    0    0    0  501 -0.00000000000E+00  0.00000000000E+00  0.10057501557E+04  0.10057501557E+04  0.00000000000E+00 0.  1.
          2   -1    0    0  503    0  0.00000000000E+00 -0.00000000000E+00 -0.78910921273E+03  0.78910921273E+03  0.00000000000E+00 0. -1.
         24    2    1    2    0    0  0.11138623449E+03  0.23942905996E+02 -0.12826605138E+03  0.18814958002E+03  0.77252369194E+02 0.  0.
         25    2    1    2    0    0 -0.12805377637E+03 -0.57276230088E+02  0.34237744764E+02  0.19098612805E+03  0.12500056706E+03 0.  0.
         24    2    1    2    0    0 -0.12948735101E+02  0.24031737883E+02 -0.10794812054E+03  0.13723420991E+03  0.80219931915E+02 0.  0.
        -11    1    5    5    0    0 -0.12735873407E+02  0.48296022438E+02 -0.99863480048E+02  0.11165761462E+03  0.00000000000E+00 0.  1.
         12    1    5    5    0    0 -0.21286169383E+00 -0.24264284555E+02 -0.80846404896E+01  0.25576595295E+02  0.00000000000E+00 0. -1.
        -13    1    3    3    0    0  0.44063375280E+02  0.47427102613E+02 -0.75455965006E+02  0.99420891961E+02  0.00000000000E+00 0.  1.
         14    1    3    3    0    0  0.67322859209E+02 -0.23484196617E+02 -0.52810086370E+02  0.88728688062E+02  0.00000000000E+00 0. -1.
          5    1    4    4  502    0 -0.57462771940E+02 -0.45966579735E+02  0.77756550297E+02  0.10715907673E+03  0.47000000000E+01 0.  1.
         -5    1    4    4    0  502 -0.70591004431E+02 -0.11309650353E+02 -0.43518805533E+02  0.83827051318E+02  0.47000000000E+01 0.  1.
          1    1    1    2  503    0  0.73673147385E+02  0.36350716137E+01 -0.42618443255E+03  0.43252065492E+03  0.00000000000E+00 0. -1.
         -2    1    1    2    0  501 -0.44056870402E+02  0.56665145950E+01  0.84480180262E+03  0.84596879548E+03  0.00000000000E+00 0.  1.
<mgrwt>
<rscale>  0 0.56904868E+02</rscale>
<asrwt>0</asrwt>
<pdfrwt beam="2">  1        2 0.11604547E+00 0.72899138E+02</pdfrwt>
<pdfrwt beam="1">  1       -1 0.14790444E+00 0.44419784E+02</pdfrwt>
<totfact> 0.20388884E+01</totfact>
</mgrwt>
</event>
<event>
13    1  0.1675423E-008  0.1864193E+03  0.7546771E-02  0.1317086E+00
          2   -1    0    0  502    0  0.00000000000E+00  0.00000000000E+00  0.10024886404E+04  0.10024886404E+04  0.00000000000E+00 0. -1.
          2   -1    0    0  503    0 -0.00000000000E+00 -0.00000000000E+00 -0.21420645826E+04  0.21420645826E+04  0.00000000000E+00 0. -1.
         24    2    1    2    0    0 -0.12179816245E+03 -0.75119688172E+02  0.11819197965E+03  0.20293237737E+03  0.82063669202E+02 0.  0.
         25    2    1    2    0    0 -0.23311331499E+03  0.33383928890E+02 -0.17275443908E+04  0.17480003818E+04  0.12505761981E+03 0.  0.
         24    2    1    2    0    0 -0.72895155503E+01 -0.56037359477E+02 -0.10481125978E+03  0.14074127116E+03  0.75029211216E+02 0.  0.
        -11    1    5    5    0    0 -0.16522136846E+02  0.11485675691E+02 -0.65543094767E+01  0.21162720164E+02  0.00000000000E+00 0.  1.
         12    1    5    5    0    0  0.92326212953E+01 -0.67523035168E+02 -0.98256950307E+02  0.11957855099E+03  0.00000000000E+00 0. -1.
        -11    1    3    3    0    0 -0.64313958225E+02 -0.37612323385E+01  0.17438399654E+02  0.66742264524E+02  0.00000000000E+00 0.  1.
         12    1    3    3    0    0 -0.57484204230E+02 -0.71358455833E+02  0.10075358000E+03  0.13619011285E+03  0.00000000000E+00 0. -1.
          5    1    4    4  501    0 -0.78336575217E+02 -0.34496688087E+02 -0.36110917038E+03  0.37114493590E+03  0.47000000000E+01 0. -1.
         -5    1    4    4    0  501 -0.15477673977E+03  0.67880616977E+02 -0.13664352204E+04  0.13768554459E+04  0.47000000000E+01 0. -1.
          1    1    1    2  502    0  0.32717284559E+03  0.82570129611E+02  0.77688968155E+03  0.84700500264E+03  0.00000000000E+00 0. -1.
          1    1    1    2  503    0  0.35028147407E+02  0.15202989148E+02 -0.20230195289E+03  0.20587419006E+03  0.00000000000E+00 0. -1.
<mgrwt>
<rscale>  0 0.84370847E+02</rscale>
<asrwt>0</asrwt>
<pdfrwt beam="1">  1        2 0.14742480E+00 0.18641930E+03</pdfrwt>
<pdfrwt beam="2">  1        2 0.31500949E+00 0.38185102E+02</pdfrwt>
<totfact> 0.38805368E+01</totfact>
</mgrwt>
</event>
<event>
13    1  0.1675423E-008  0.9731923E+02  0.7546771E-02  0.1376609E+00
          2   -1    0    0  503    0  0.00000000000E+00  0.00000000000E+00  0.81481070826E+03  0.81481070826E+03  0.00000000000E+00 0. -1.
         -3   -1    0    0    0  501 -0.00000000000E+00 -0.00000000000E+00 -0.12027391223E+04  0.12027391223E+04  0.00000000000E+00 0.  1.
         24    2    1    2    0    0 -0.12717031207E+03  0.20127627055E+03  0.48125450487E+03  0.54741018154E+03  0.10661886810E+03 0.  0.
         25    2    1    2    0    0  0.20539336528E+03 -0.11166612718E+03 -0.47848091288E+03  0.54701449741E+03  0.12500047170E+03 0.  0.
         24    2    1    2    0    0  0.11715828976E+02 -0.14579609881E+03  0.50609680430E+02  0.17362163142E+03  0.78672536935E+02 0.  0.
        -11    1    3    3    0    0  0.79992890580E+01  0.32415254012E+02  0.22616599012E+02  0.40326763680E+02  0.00000000000E+00 0.  1.
         12    1    3    3    0    0 -0.13516960112E+03  0.16886101654E+03  0.45863790586E+03  0.50708341786E+03  0.00000000000E+00 0. -1.
        -13    1    5    5    0    0  0.54872671394E+01 -0.46198333358E+02  0.57058536971E+02  0.73621143342E+02  0.00000000000E+00 0.  1.
         14    1    5    5    0    0  0.62285618363E+01 -0.99597765455E+02 -0.64488565413E+01  0.10000048808E+03  0.00000000000E+00 0. -1.
          5    1    4    4  502    0  0.16865793437E+03 -0.26307372956E+02 -0.33486132803E+03  0.37588798293E+03  0.47000000000E+01 0. -1.
         -5    1    4    4    0  502  0.36735430908E+02 -0.85358754226E+02 -0.14361958485E+03  0.17112651448E+03  0.47000000000E+01 0. -1.
          1    1    1    2  503    0 -0.53800696784E+02  0.81112143728E+02  0.13781201052E+03  0.16871824169E+03  0.00000000000E+00 0. -1.
         -4    1    1    2    0  501 -0.36138185405E+02 -0.24926188287E+02 -0.57912369700E+03  0.58078527851E+03  0.00000000000E+00 0.  1.
<mgrwt>
<rscale>  0 0.65363564E+02</rscale>
<asrwt>0</asrwt>
<pdfrwt beam="1">  1        2 0.11982510E+00 0.97319230E+02</pdfrwt>
<pdfrwt beam="2">  1       -3 0.17687340E+00 0.43900835E+02</pdfrwt>
<totfact> 0.54280084E+00</totfact>
</mgrwt>
</event>
<event>
13    1  0.1675423E-008  0.1268356E+03  0.7546771E-02  0.1295657E+00
          2   -1    0    0  502    0  0.00000000000E+00  0.00000000000E+00  0.36052072494E+04  0.36052072494E+04  0.00000000000E+00 0. -1.
          2   -1    0    0  503    0 -0.00000000000E+00 -0.00000000000E+00 -0.11585485633E+04  0.11585485633E+04  0.00000000000E+00 0. -1.
         24    2    1    2    0    0  0.11599615862E+03  0.19947043302E+03  0.30138540558E+04  0.30237198540E+04  0.79510522049E+02 0.  0.
         25    2    1    2    0    0  0.13802547819E+02  0.35653217152E+00 -0.50130291967E+01  0.12585422339E+03  0.12499407042E+03 0.  0.
         24    2    1    2    0    0 -0.89535389079E+02 -0.94593323966E+02 -0.45055503437E+02  0.16044986701E+03  0.82156427612E+02 0.  0.
        -11    1    5    5    0    0 -0.10229426606E+03 -0.69974171758E+02 -0.47239473786E+02  0.13263509892E+03  0.00000000000E+00 0.  1.
         12    1    5    5    0    0  0.12758876986E+02 -0.24619152207E+02  0.21839703488E+01  0.27814768089E+02  0.00000000000E+00 0. -1.
        -13    1    3    3    0    0  0.38947879859E+02  0.11036406974E+02  0.49595112349E+03  0.49760049891E+03  0.00000000000E+00 0.  1.
         14    1    3    3    0    0  0.77048278764E+02  0.18843402605E+03  0.25179029323E+04  0.25261193551E+04  0.00000000000E+00 0. -1.
          5    1    4    4  501    0 -0.17553174428E+02  0.54531044755E+02 -0.20803557675E+02  0.61127954215E+02  0.47000000000E+01 0. -1.
         -5    1    4    4    0  501  0.31355722247E+02 -0.54174512584E+02  0.15790528479E+02  0.64726269172E+02  0.47000000000E+01 0. -1.
          1    1    1    2  502    0 -0.65518969729E+02  0.19101912531E+02  0.46169992921E+03  0.46671666253E+03  0.00000000000E+00 0. -1.
          1    1    1    2  503    0  0.25255652365E+02 -0.12433555376E+03 -0.97882676628E+03  0.98701520570E+03  0.00000000000E+00 0. -1.
<mgrwt>
<rscale>  0 0.93038272E+02</rscale>
<asrwt>0</asrwt>
<pdfrwt beam="1">  1        2 0.53017753E+00 0.68246747E+02</pdfrwt>
<pdfrwt beam="2">  1        2 0.17037479E+00 0.12683564E+03</pdfrwt>
<totfact> 0.52126133E+00</totfact>
</mgrwt>
</event>
<event>
13    1  0.1675423E-008  0.2837264E+03  0.7546771E-02  0.1310736E+00
          2   -1    0    0  503    0  0.00000000000E+00  0.00000000000E+00  0.13811332578E+04  0.13811332578E+04  0.00000000000E+00 0. -1.
          2   -1    0    0  502    0 -0.00000000000E+00 -0.00000000000E+00 -0.30298323830E+04  0.30298323830E+04  0.00000000000E+00 0. -1.
         24    2    1    2    0    0  0.76476968202E+03  0.18190350319E+03  0.22703693261E+03  0.82224389699E+03  0.81103060025E+02 0.  0.
         25    2    1    2    0    0 -0.17226011912E+03 -0.33661279855E+03 -0.97527764712E+03  0.10534578549E+04  0.12500095280E+03 0.  0.
         24    2    1    2    0    0 -0.35993933390E+03  0.15791915139E+02 -0.10171430884E+04  0.10832324521E+04  0.94904026853E+02 0.  0.
        -11    1    3    3    0    0  0.47300691859E+03  0.75969877675E+02  0.11953869485E+03  0.49375749808E+03  0.00000000000E+00 0.  1.
         12    1    3    3    0    0  0.29176276344E+03  0.10593362552E+03  0.10749823777E+03  0.32848639891E+03  0.00000000000E+00 0. -1.
        -11    1    5    5    0    0 -0.20763671774E+03  0.40949957948E+02 -0.68544861494E+03  0.71737696459E+03  0.00000000000E+00 0.  1.
         12    1    5    5    0    0 -0.15230261616E+03 -0.25158042809E+02 -0.33169447345E+03  0.36585548749E+03  0.00000000000E+00 0. -1.
          5    1    4    4  501    0 -0.18964902387E+03 -0.29010140109E+03 -0.81645093407E+03  0.88698353587E+03  0.47000000000E+01 0. -1.
         -5    1    4    4    0  501  0.17388904751E+02 -0.46511397467E+02 -0.15882671305E+03  0.16647431899E+03  0.47000000000E+01 0. -1.
          1    1    1    2  502    0  0.22447596039E+02  0.14211468338E+02 -0.64170427254E+03  0.64225402591E+03  0.00000000000E+00 0. -1.
          1    1    1    2  503    0 -0.25501782505E+03  0.12470591189E+03  0.75838895021E+03  0.80977741100E+03  0.00000000000E+00 0. -1.
<mgrwt>
<rscale>  0 0.86821961E+02</rscale>
<asrwt>0</asrwt>
<pdfrwt beam="1">  1        2 0.20310783E+00 0.28372642E+03</pdfrwt>
<pdfrwt beam="2">  1        2 0.44556358E+00 0.26568033E+02</pdfrwt>
<totfact> 0.93315667E+00</totfact>
</mgrwt>
</event>
<event>
13    1  0.1675423E-008  0.7265999E+02  0.7546771E-02  0.1381719E+00
          2   -1    0    0  503    0  0.00000000000E+00  0.00000000000E+00  0.26602720546E+04  0.26602720546E+04  0.00000000000E+00 0. -1.
          2   -1    0    0  502    0 -0.00000000000E+00 -0.00000000000E+00 -0.61434854876E+03  0.61434854876E+03  0.00000000000E+00 0. -1.
         24    2    1    2    0    0  0.35178249546E+02 -0.65484281063E+01  0.14579362385E+03  0.16782983014E+03  0.75037856967E+02 0.  0.
         25    2    1    2    0    0  0.38429065994E+02 -0.19637440700E+02 -0.16210051114E+03  0.20919892028E+03  0.12500076138E+03 0.  0.
         24    2    1    2    0    0 -0.39314311352E+02 -0.55928616065E+02  0.27212117151E+02  0.10964113377E+03  0.81283785109E+02 0.  0.
        -11    1    5    5    0    0 -0.50417016806E+02 -0.25229547203E+02  0.45297961787E+02  0.72320888944E+02  0.00000000000E+00 0.  1.
         12    1    5    5    0    0  0.11102705454E+02 -0.30699068862E+02 -0.18085844636E+02  0.37320244822E+02  0.00000000000E+00 0. -1.
        -13    1    3    3    0    0  0.49418873195E+02 -0.60640054191E+01  0.48530250999E+02  0.69528285263E+02  0.00000000000E+00 0.  1.
         14    1    3    3    0    0 -0.14240623649E+02 -0.48442268716E+00  0.97263372847E+02  0.98301544875E+02  0.00000000000E+00 0. -1.
          5    1    4    4  501    0  0.51520186900E+02 -0.35050031770E+02 -0.20032277309E+02  0.65621768640E+02  0.47000000000E+01 0.  1.
         -5    1    4    4    0  501 -0.13091120906E+02  0.15412591070E+02 -0.14206823383E+03  0.14357715164E+03  0.47000000000E+01 0.  1.
          1    1    1    2  502    0  0.29804992843E+02  0.47877801562E+02 -0.37380305275E+03  0.37803352196E+03  0.00000000000E+00 0. -1.
          1    1    1    2  503    0 -0.64097997030E+02  0.34236683309E+02  0.24088213288E+04  0.24099171973E+04  0.00000000000E+00 0. -1.
<mgrwt>
<rscale>  0 0.64014102E+02</rscale>
<asrwt>0</asrwt>
<pdfrwt beam="1">  1        2 0.39121647E+00 0.72659987E+02</pdfrwt>
<pdfrwt beam="2">  1        2 0.90345376E-01 0.56396999E+02</pdfrwt>
<totfact> 0.37831440E+01</totfact>
</mgrwt>
</event>
<event>
13    1  0.1675423E-008  0.1997939E+03  0.7546771E-02  0.1192646E+00
          2   -1    0    0  503    0  0.00000000000E+00  0.00000000000E+00  0.77459448916E+03  0.77459448916E+03  0.00000000000E+00 0. -1.
          2   -1    0    0  502    0 -0.00000000000E+00 -0.00000000000E+00 -0.18030877284E+04  0.18030877284E+04  0.00000000000E+00 0. -1.
         24    2    1    2    0    0  0.98813131030E+01  0.86266965980E+02  0.35522279806E+02  0.12315671546E+03  0.79787934121E+02 0.  0.
         25    2    1    2    0    0  0.15882206478E+03 -0.24823748400E+03 -0.25678733292E+03  0.41037759744E+03  0.12499496552E+03 0.  0.
         24    2    1    2    0    0 -0.93181279492E+02  0.13981461533E+02 -0.28322450647E+03  0.30893265933E+03  0.79655726877E+02 0.  0.
        -11    1    3    3    0    0  0.42311779807E+02  0.60428134001E+02  0.99421117147E+01  0.74435822522E+02  0.00000000000E+00 0.  1.
         12    1    3    3    0    0 -0.32430466704E+02  0.25838831979E+02  0.25580168091E+02  0.48720892933E+02  0.00000000000E+00 0. -1.
        -11    1    5    5    0    0 -0.75432287031E+02  0.34953144982E+02 -0.13780787452E+03  0.16094335199E+03  0.00000000000E+00 0.  1.
         12    1    5    5    0    0 -0.17748992462E+02 -0.20971683449E+02 -0.14541663195E+03  0.14798930734E+03  0.00000000000E+00 0. -1.
          5    1    4    4  501    0  0.14017423859E+03 -0.16556436130E+03 -0.11616424885E+03  0.24612313505E+03  0.47000000000E+01 0.  1.
         -5    1    4    4    0  501  0.18647826185E+02 -0.82673122706E+02 -0.14062308407E+03  0.16425446238E+03  0.47000000000E+01 0.  1.
          1    1    1    2  502    0  0.18668545526E+02 -0.12354814103E+03 -0.10917442152E+04  0.10988712796E+04  0.00000000000E+00 0. -1.
          1    1    1    2  503    0 -0.94190643917E+02  0.27153719752E+03  0.56774053553E+03  0.63634396573E+03  0.00000000000E+00 0. -1.
<mgrwt>
<rscale>  0 0.15655123E+03</rscale>
<asrwt>0</asrwt>
<pdfrwt beam="1">  1        2 0.11391095E+00 0.19979393E+03</pdfrwt>
<pdfrwt beam="2">  1        2 0.26515996E+00 0.12266783E+03</pdfrwt>
<totfact> 0.68883763E+01</totfact>
</mgrwt>
</event>
<event>
13    1  0.1675423E-008  0.1340482E+03  0.7546771E-02  0.1324129E+00
          2   -1    0    0  503    0  0.00000000000E+00  0.00000000000E+00  0.46015823154E+04  0.46015823154E+04  0.00000000000E+00 0. -1.
          2   -1    0    0  502    0 -0.00000000000E+00 -0.00000000000E+00 -0.16685402174E+04  0.16685402174E+04  0.00000000000E+00 0. -1.
         24    2    1    2    0    0 -0.82919066550E+02  0.87616671405E+01  0.15136135147E+03  0.19091850861E+03  0.81162058906E+02 0.  0.
         25    2    1    2    0    0  0.97151426527E+02 -0.10313391083E+03 -0.66113508978E+03  0.68760406961E+03  0.12499898545E+03 0.  0.
         24    2    1    2    0    0 -0.64985526571E+02  0.25466157330E+01 -0.46804691769E+02  0.10832431598E+03  0.72896326015E+02 0.  0.
        -11    1    5    5    0    0 -0.69099343700E+02 -0.11037554258E+02 -0.57486295878E+02  0.90560593624E+02  0.00000000000E+00 0.  1.
         12    1    5    5    0    0  0.41138171296E+01  0.13584169991E+02  0.10681604109E+02  0.17763722360E+02  0.00000000000E+00 0. -1.
        -11    1    3    3    0    0 -0.72304621691E+02 -0.10127558345E+02  0.53052314999E+02  0.90250063062E+02  0.00000000000E+00 0.  1.
         12    1    3    3    0    0 -0.10614444858E+02  0.18889225486E+02  0.98309036466E+02  0.10066844555E+03  0.00000000000E+00 0. -1.
          5    1    4    4  501    0 -0.27546016017E+01  0.57131864223E+01  0.20405108243E+01  0.81536503177E+01  0.47000000000E+01 0. -1.
         -5    1    4    4    0  501  0.99906028129E+02 -0.10884709725E+03 -0.66317560061E+03  0.67945041929E+03  0.47000000000E+01 0. -1.
          1    1    1    2  502    0  0.11457904997E+01 -0.49854873398E+02 -0.89484881926E+03  0.89623726243E+03  0.00000000000E+00 0. -1.
          1    1    1    2  503    0  0.49607376093E+02  0.14168050136E+03  0.43844693473E+04  0.43870383761E+04  0.00000000000E+00 0. -1.
<mgrwt>
<rscale>  0 0.81760156E+02</rscale>
<asrwt>0</asrwt>
<pdfrwt beam="1">  1        2 0.67670328E+00 0.13404825E+03</pdfrwt>
<pdfrwt beam="2">  1        2 0.24537356E+00 0.49868038E+02</pdfrwt>
<totfact> 0.54212961E-01</totfact>
</mgrwt>
</event>
<event>
13    1  0.1675423E-008  0.1113101E+03  0.7546771E-02  0.1304916E+00
          2   -1    0    0  502    0  0.00000000000E+00  0.00000000000E+00  0.18034216972E+04  0.18034216972E+04  0.00000000000E+00 0. -1.
          4   -1    0    0  503    0 -0.00000000000E+00 -0.00000000000E+00 -0.99099589532E+03  0.99099589532E+03  0.00000000000E+00 0. -1.
         24    2    1    2    0    0  0.17585186970E+03 -0.11584703215E+03  0.17987664297E+03  0.28897256892E+03  0.82493175279E+02 0.  0.
         25    2    1    2    0    0 -0.16615455469E+03  0.19659721434E+03 -0.49681406694E+03  0.57333032166E+03  0.12500255951E+03 0.  0.
         24    2    1    2    0    0 -0.32453255419E+02  0.34406725993E+02  0.56222917434E+03  0.56992980420E+03  0.80506525575E+02 0.  0.
        -11    1    5    5    0    0  0.15111179779E+02  0.33946800387E+02  0.37170123114E+03  0.37355392950E+03  0.00000000000E+00 0.  1.
         12    1    5    5    0    0 -0.47564435198E+02  0.45992560563E+00  0.19052794319E+03  0.19637587470E+03  0.00000000000E+00 0. -1.
        -11    1    3    3    0    0  0.51392369689E+02 -0.44397285981E+01  0.13741818162E+02  0.53382810142E+02  0.00000000000E+00 0.  1.
         12    1    3    3    0    0  0.12445950001E+03 -0.11140730355E+03  0.16613482480E+03  0.23558975878E+03  0.00000000000E+00 0. -1.
          5    1    4    4  501    0 -0.16965482553E+03  0.15993835092E+03 -0.47767623514E+03  0.53156345956E+03  0.47000000000E+01 0.  1.
         -5    1    4    4    0  501  0.35002708352E+01  0.36658863423E+02 -0.19137831802E+02  0.41766862097E+02  0.47000000000E+01 0.  1.
          1    1    1    2  502    0 -0.43767836796E+02 -0.14110752994E+03  0.95573062195E+03  0.96708219934E+03  0.00000000000E+00 0. -1.
          3    1    1    2  503    0  0.66523777205E+02  0.25950621752E+02 -0.38859657045E+03  0.39510269838E+03  0.00000000000E+00 0. -1.
<mgrwt>
<rscale>  0 0.89152849E+02</rscale>
<asrwt>0</asrwt>
<pdfrwt beam="1">  1        2 0.26520907E+00 0.11131006E+03</pdfrwt>
<pdfrwt beam="2">  1        4 0.14573469E+00 0.71406216E+02</pdfrwt>
<totfact> 0.20003436E+00</totfact>
</mgrwt>
</event>
<event>
13    1  0.1675423E-008  0.1113991E+03  0.7546771E-02  0.1400111E+00
          2   -1    0    0  503    0  0.00000000000E+00  0.00000000000E+00  0.26462962224E+04  0.26462962224E+04  0.00000000000E+00 0. -1.
         -1   -1    0    0    0  501 -0.00000000000E+00 -0.00000000000E+00 -0.13466060299E+04  0.13466060299E+04  0.00000000000E+00 0.  1.
         24    2    1    2    0    0 -0.11513362711E+01 -0.36402863858E+02  0.69342970213E+02  0.11284237825E+03  0.81230910002E+02 0.  0.
         25    2    1    2    0    0 -0.19637768848E+03 -0.18519448592E+02 -0.30892894791E+03  0.38725814998E+03  0.12499845346E+03 0.  0.
         24    2    1    2    0    0  0.55572051026E+02  0.42753608448E+02  0.31387702953E+02  0.11354610567E+03  0.83614629859E+02 0.  0.
        -11    1    3    3    0    0  0.32678866546E+02  0.31806765530E+01  0.10964034456E+02  0.34615532260E+02  0.00000000000E+00 0.  1.
         12    1    3    3    0    0 -0.33830202817E+02 -0.39583540411E+02  0.58378935757E+02  0.78226845994E+02  0.00000000000E+00 0. -1.
        -13    1    5    5    0    0 -0.21066155318E+02  0.24535901282E+01 -0.65663481193E+00  0.21218722244E+02  0.00000000000E+00 0.  1.
         14    1    5    5    0    0  0.76638206344E+02  0.40300018320E+02  0.32044337764E+02  0.92327383430E+02  0.00000000000E+00 0. -1.
          5    1    4    4  502    0 -0.12062136686E+02  0.38189246479E+02 -0.46276542229E+02  0.61380143766E+02  0.47000000000E+01 0.  1.
         -5    1    4    4    0  502 -0.18431555179E+03 -0.56708695071E+02 -0.26265240568E+03  0.32587800622E+03  0.47000000000E+01 0.  1.
          1    1    1    2  503    0  0.11095923509E+03  0.53562851170E+01  0.24420398517E+04  0.24445652536E+04  0.00000000000E+00 0. -1.
         -2    1    1    2    0  501  0.30997738633E+02  0.68124188852E+01 -0.93415138448E+03  0.93469036477E+03  0.00000000000E+00 0.  1.
<mgrwt>
<rscale>  0 0.59460317E+02</rscale>
<asrwt>0</asrwt>
<pdfrwt beam="1">  1        2 0.38916121E+00 0.11139911E+03</pdfrwt>
<pdfrwt beam="2">  1       -1 0.19803030E+00 0.31737499E+02</pdfrwt>
<totfact> 0.10419475E+00</totfact>
</mgrwt>
</event>
<event>
13    1  0.1675423E-008  0.5406854E+02  0.7546771E-02  0.1425956E+00
          2   -1    0    0  503    0  0.00000000000E+00  0.00000000000E+00  0.12227945568E+04  0.12227945568E+04  0.00000000000E+00 0. -1.
         -1   -1    0    0    0  501 -0.00000000000E+00 -0.00000000000E+00 -0.69923058787E+03  0.69923058787E+03  0.00000000000E+00 0.  1.
         24    2    1    2    0    0 -0.50203926745E+02 -0.43296109025E+02  0.26000114142E+03  0.28003282629E+03  0.80142391661E+02 0.  0.
         25    2    1    2    0    0 -0.27142524709E+02 -0.12312527190E+02 -0.45315677553E+03  0.47104493927E+03  0.12507580353E+03 0.  0.
         24    2    1    2    0    0  0.63218674955E+02  0.35018437135E+01  0.18210782820E+02  0.10629550829E+03  0.83416057807E+02 0.  0.
        -13    1    5    5    0    0  0.14180435276E+02  0.39234297986E+02 -0.34703547755E+01  0.41862372667E+02  0.00000000000E+00 0.  1.
         14    1    5    5    0    0  0.49038239679E+02 -0.35732454273E+02  0.21681137595E+02  0.64433135626E+02  0.00000000000E+00 0. -1.
        -13    1    3    3    0    0  0.77701298830E+01 -0.18696079374E+02  0.16382888755E+03  0.16507520316E+03  0.00000000000E+00 0.  1.
         14    1    3    3    0    0 -0.57974056628E+02 -0.24600029651E+02  0.96172253872E+02  0.11495762313E+03  0.00000000000E+00 0. -1.
          5    1    4    4  502    0 -0.11661381564E+02 -0.64037376049E+01 -0.45359584520E+03  0.45381524485E+03  0.47000000000E+01 0. -1.
         -5    1    4    4    0  502 -0.15481143145E+02 -0.59087895856E+01  0.43906967469E+00  0.17229694415E+02  0.47000000000E+01 0. -1.
          1    1    1    2  503    0  0.51894796129E+02  0.12981603788E+02  0.87670882202E+03  0.87833931399E+03  0.00000000000E+00 0. -1.
         -2    1    1    2    0  501 -0.37767019630E+02  0.39125188713E+02 -0.17820000184E+03  0.18631255679E+03  0.00000000000E+00 0.  1.
<mgrwt>
<rscale>  0 0.53780425E+02</rscale>
<asrwt>0</asrwt>
<pdfrwt beam="1">  1        2 0.17982273E+00 0.53493849E+02</pdfrwt>
<pdfrwt beam="2">  1       -1 0.10282803E+00 0.54068535E+02</pdfrwt>
<totfact> 0.27017870E+01</totfact>
</mgrwt>
</event>
<event>
13    1  0.1675423E-008  0.3477972E+03  0.7546771E-02  0.1185884E+00
          2   -1    0    0  502    0  0.00000000000E+00  0.00000000000E+00  0.16210458727E+04  0.16210458727E+04  0.00000000000E+00 0. -1.
          2   -1    0    0  503    0 -0.00000000000E+00 -0.00000000000E+00 -0.15754810450E+04  0.15754810450E+04  0.00000000000E+00 0. -1.
         24    2    1    2    0    0  0.66159573135E+02  0.49760870282E+02 -0.25732072867E+03  0.28311750848E+03  0.84192237632E+02 0.  0.
         25    2    1    2    0    0 -0.63269483569E+02  0.10171893243E+03 -0.28527211053E+03  0.33369785759E+03  0.12499725735E+03 0.  0.
         24    2    1    2    0    0 -0.32671258843E+03  0.15783326876E+02  0.11117650968E+04  0.11616652283E+04  0.80338306887E+02 0.  0.
        -11    1    3    3    0    0  0.81251650135E+01  0.38576001489E+02 -0.33842750592E+02  0.51956308231E+02  0.00000000000E+00 0.  1.
         12    1    3    3    0    0  0.58034408122E+02  0.11184868793E+02 -0.22347797808E+03  0.23116120025E+03  0.00000000000E+00 0. -1.
        -11    1    5    5    0    0 -0.14844462470E+01 -0.54254186652E+00  0.73825362700E+02  0.73842278608E+02  0.00000000000E+00 0.  1.
         12    1    5    5    0    0 -0.32522814218E+03  0.16325868742E+02  0.10379397341E+04  0.10878229497E+04  0.00000000000E+00 0. -1.
          5    1    4    4  501    0 -0.19904271282E+02  0.90856144833E+02 -0.77617553227E+02  0.12123363245E+03  0.47000000000E+01 0.  1.
         -5    1    4    4    0  501 -0.43365212287E+02  0.10862787595E+02 -0.20765455731E+03  0.21246422513E+03  0.47000000000E+01 0.  1.
          1    1    1    2  502    0  0.36838040608E+03 -0.10576892754E+03  0.36318398046E+03  0.52800927386E+03  0.00000000000E+00 0. -1.
          1    1    1    2  503    0 -0.44557907212E+02 -0.61494202045E+02 -0.88679141028E+03  0.89003704941E+03  0.00000000000E+00 0. -1.
<mgrwt>
<rscale>  0 0.16251726E+03</rscale>
<asrwt>0</asrwt>
<pdfrwt beam="1">  1        2 0.23838910E+00 0.34779722E+03</pdfrwt>
<pdfrwt beam="2">  1        2 0.23168839E+00 0.75940398E+02</pdfrwt>
<totfact> 0.29641462E+01</totfact>
</mgrwt>
</event>
<event>
13    1  0.1675423E-008  0.3564207E+03  0.7546771E-02  0.1234785E+00
          2   -1    0    0  503    0  0.00000000000E+00  0.00000000000E+00  0.21604789699E+04  0.21604789699E+04  0.00000000000E+00 0. -1.
          2   -1    0    0  502    0 -0.00000000000E+00 -0.00000000000E+00 -0.10400791538E+04  0.10400791538E+04  0.00000000000E+00 0. -1.
         24    2    1    2    0    0  0.14070530363E+02 -0.23397443404E+02  0.21566910479E+02  0.88280940923E+02  0.81135520705E+02 0.  0.
         25    2    1    2    0    0  0.96098769755E+02  0.40681476466E+03  0.45962678968E+03  0.63373015588E+03  0.12499559346E+03 0.  0.
         24    2    1    2    0    0 -0.12313979230E+03 -0.32869448508E+02  0.93617069073E+02  0.17709376300E+03  0.79713462969E+02 0.  0.
        -11    1    3    3    0    0  0.20032323910E+02 -0.28295397220E+02  0.48864535930E+02  0.59913824588E+02  0.00000000000E+00 0.  1.
         12    1    3    3    0    0 -0.59617935471E+01  0.48979538160E+01 -0.27297625451E+02  0.28367116335E+02  0.00000000000E+00 0. -1.
        -13    1    5    5    0    0 -0.22815072543E+02  0.12968505553E+02 -0.76721172880E+01  0.27341745648E+02  0.00000000000E+00 0.  1.
         14    1    5    5    0    0 -0.10032471976E+03 -0.45837954061E+02  0.10128918636E+03  0.14975201735E+03  0.00000000000E+00 0. -1.
          5    1    4    4  501    0 -0.75176752347E+01 -0.30584350260E+01  0.21723571507E+00  0.93811863375E+01  0.47000000000E+01 0. -1.
         -5    1    4    4    0  501  0.10361644499E+03  0.40987319969E+03  0.45940955396E+03  0.62434896954E+03  0.47000000000E+01 0. -1.
          1    1    1    2  502    0 -0.30988962173E+02 -0.35132493268E+03 -0.84214874009E+03  0.91301918082E+03  0.00000000000E+00 0. -1.
          1    1    1    2  503    0  0.43959454354E+02  0.77705992946E+00  0.13877377870E+04  0.13884340830E+04  0.00000000000E+00 0. -1.
<mgrwt>
<rscale>  0 0.12518190E+03</rscale>
<asrwt>0</asrwt>
<pdfrwt beam="1">  1        2 0.31771750E+00 0.43966322E+02</pdfrwt>
<pdfrwt beam="2">  1        2 0.15295282E+00 0.35642073E+03</pdfrwt>
<totfact> 0.34457720E+01</totfact>
</mgrwt>
</event>
<event>
13    1  0.1675423E-008  0.1463563E+03  0.7546771E-02  0.1378554E+00
          2   -1    0    0  502    0  0.00000000000E+00  0.00000000000E+00  0.35394789603E+04  0.35394789603E+04  0.00000000000E+00 0. -1.
          2   -1    0    0  503    0 -0.00000000000E+00 -0.00000000000E+00 -0.47607837941E+03  0.47607837941E+03  0.00000000000E+00 0. -1.
         24    2    1    2    0    0 -0.15334539838E+02 -0.64928586302E+01  0.10438597584E+04  0.10467542708E+04  0.75986860888E+02 0.  0.
         25    2    1    2    0    0  0.19125911035E+03  0.10316181818E+03  0.29269711228E+03  0.38537983330E+03  0.12499443333E+03 0.  0.
         24    2    1    2    0    0 -0.10091056129E+01  0.85264743704E+02 -0.10123297951E+03  0.15497983131E+03  0.80619707010E+02 0.  0.
        -11    1    5    5    0    0  0.18387139265E+02  0.83053973676E+02 -0.46663067666E+02  0.97023148360E+02  0.00000000000E+00 0.  1.
         12    1    5    5    0    0 -0.19396244878E+02  0.22107700283E+01 -0.54569911844E+02  0.57956682947E+02  0.00000000000E+00 0. -1.
        -11    1    3    3    0    0 -0.19775750469E+02  0.29833243369E+02  0.32530218815E+03  0.32726536073E+03  0.00000000000E+00 0.  1.
         12    1    3    3    0    0  0.44412106312E+01 -0.36326101999E+02  0.71855757022E+03  0.71948891010E+03  0.00000000000E+00 0. -1.
          5    1    4    4  501    0  0.17889658831E+03  0.55368360433E+02  0.16970830383E+03  0.25276994093E+03  0.47000000000E+01 0. -1.
         -5    1    4    4    0  501  0.12362522036E+02  0.47793457744E+02  0.12298880844E+03  0.13260989238E+03  0.47000000000E+01 0. -1.
          1    1    1    2  502    0 -0.25598068876E+02 -0.13046086124E+02  0.20858241022E+04  0.20860219670E+04  0.00000000000E+00 0. -1.
          1    1    1    2  503    0 -0.14931739602E+03 -0.16888761713E+03 -0.25774741253E+03  0.34242143718E+03  0.00000000000E+00 0. -1.
<mgrwt>
<rscale>  0 0.64845515E+02</rscale>
<asrwt>0</asrwt>
<pdfrwt beam="1">  1        2 0.52051160E+00 0.28730846E+02</pdfrwt>
<pdfrwt beam="2">  1        2 0.70011528E-01 0.14635632E+03</pdfrwt>
<totfact> 0.19995166E+01</totfact>
</mgrwt>
</event>
<event>
13    1  0.1675423E-008  0.1359902E+03  0.7546771E-02  0.1302285E+00
         -1   -1    0    0    0  501 -0.00000000000E+00  0.00000000000E+00  0.45563634051E+03  0.45563634051E+03  0.00000000000E+00 0.  1.
          2   -1    0    0  503    0  0.00000000000E+00 -0.00000000000E+00 -0.92461991737E+03  0.92461991737E+03  0.00000000000E+00 0. -1.
         24    2    1    2    0    0 -0.18570139028E+02  0.25884484511E+02 -0.13149366194E+03  0.16075429408E+03  0.86813036653E+02 0.  0.
         25    2    1    2    0    0 -0.31953262192E+01 -0.17141026712E+03  0.11713616665E+03  0.24235830772E+03  0.12499991199E+03 0.  0.
         24    2    1    2    0    0 -0.32891857931E+02 -0.91318470330E+02  0.28381390430E+02  0.11932242823E+03  0.63335623582E+02 0.  0.
        -11    1    3    3    0    0 -0.55530959435E+01 -0.31776862635E+02 -0.35039241603E+02  0.47627243523E+02  0.00000000000E+00 0.  1.
         12    1    3    3    0    0 -0.13017043084E+02  0.57661347146E+02 -0.96454420334E+02  0.11312705055E+03  0.00000000000E+00 0. -1.
        -11    1    5    5    0    0 -0.18373105648E+02 -0.97799049563E+02  0.28174673020E+02  0.10342164815E+03  0.00000000000E+00 0.  1.
         12    1    5    5    0    0 -0.14518752283E+02  0.64805792323E+01  0.20671740952E+00  0.15900780080E+02  0.00000000000E+00 0. -1.
          5    1    4    4  502    0 -0.22823034548E+02 -0.12583290894E+03  0.15179835440E+02  0.12886942726E+03  0.47000000000E+01 0. -1.
         -5    1    4    4    0  502  0.19627708328E+02 -0.45577358176E+02  0.10195633121E+03  0.11348888045E+03  0.47000000000E+01 0. -1.
          1    1    1    2  503    0  0.35659898928E+02  0.18006399140E+03 -0.65262386371E+03  0.67794732603E+03  0.00000000000E+00 0. -1.
         -2    1    1    2    0  501  0.18997424250E+02  0.56780261540E+02  0.16961639170E+03  0.17987390183E+03  0.00000000000E+00 0.  1.
<mgrwt>
<rscale>  0 0.90234584E+02</rscale>
<asrwt>0</asrwt>
<pdfrwt beam="2">  1        2 0.13597352E+00 0.13599017E+03</pdfrwt>
<pdfrwt beam="1">  1       -1 0.67005345E-01 0.59874036E+02</pdfrwt>
<totfact> 0.89350699E+01</totfact>
</mgrwt>
</event>
<event>
13    1  0.1675423E-008  0.9030410E+02  0.7546771E-02  0.1321826E+00
          2   -1    0    0  503    0  0.00000000000E+00  0.00000000000E+00  0.19265852282E+04  0.19265852282E+04  0.00000000000E+00 0. -1.
         -1   -1    0    0    0  501 -0.00000000000E+00 -0.00000000000E+00 -0.94892417289E+03  0.94892417289E+03  0.00000000000E+00 0.  1.
         24    2    1    2    0    0  0.15256787260E+02 -0.50123477531E+02  0.26995127224E+03  0.28667096495E+03  0.81002593806E+02 0.  0.
         25    2    1    2    0    0 -0.53674162238E+02 -0.51428435131E+02 -0.18915545961E+03  0.23860690785E+03  0.12501067530E+03 0.  0.
         24    2    1    2    0    0 -0.20105026336E+02 -0.15143606748E+02  0.21690008024E+03  0.23307275560E+03  0.81509040500E+02 0.  0.
        -13    1    3    3    0    0  0.18944283855E+02  0.19187824293E+02  0.69873974948E+02  0.74896133858E+02  0.00000000000E+00 0.  1.
         14    1    3    3    0    0 -0.36874965950E+01 -0.69311301824E+02  0.20007729729E+03  0.21177483109E+03  0.00000000000E+00 0. -1.
        -13    1    5    5    0    0  0.13569628397E+02 -0.25740367919E+02  0.26272616040E+02  0.39203975679E+02  0.00000000000E+00 0.  1.
         14    1    5    5    0    0 -0.33674654734E+02  0.10596761171E+02  0.19062746420E+03  0.19386877992E+03  0.00000000000E+00 0. -1.
          5    1    4    4  502    0 -0.70702709711E+02 -0.50080590715E+02 -0.53796721546E+02  0.10209366276E+03  0.47000000000E+01 0.  1.
         -5    1    4    4    0  502  0.17028547473E+02 -0.13478444161E+01 -0.13535873807E+03  0.13651324509E+03  0.47000000000E+01 0.  1.
          1    1    1    2  503    0 -0.16229413976E+02  0.10569714614E+03  0.13945231722E+04  0.13986172309E+04  0.00000000000E+00 0. -1.
         -2    1    1    2    0  501  0.74751815290E+02  0.10998373267E+02 -0.71455800975E+03  0.71854154188E+03  0.00000000000E+00 0.  1.
<mgrwt>
<rscale>  0 0.82601875E+02</rscale>
<asrwt>0</asrwt>
<pdfrwt beam="1">  1        2 0.28332136E+00 0.90304101E+02</pdfrwt>
<pdfrwt beam="2">  1       -1 0.13954767E+00 0.75556589E+02</pdfrwt>
<totfact> 0.57143274E+00</totfact>
</mgrwt>
</event>
<event>
13    1  0.1675423E-008  0.7519708E+02  0.7546771E-02  0.1395258E+00
          2   -1    0    0  502    0  0.00000000000E+00  0.00000000000E+00  0.18487002087E+04  0.18487002087E+04  0.00000000000E+00 0. -1.
          2   -1    0    0  503    0 -0.00000000000E+00 -0.00000000000E+00 -0.27797251712E+04  0.27797251712E+04  0.00000000000E+00 0. -1.
         24    2    1    2    0    0 -0.10409769055E+04  0.91924881978E+02 -0.76759540610E+03  0.12991345986E+04  0.80404577350E+02 0.  0.
         25    2    1    2    0    0 -0.15974469688E+03 -0.32142110709E+03  0.25668738601E+02  0.38093830841E+03  0.12500085761E+03 0.  0.
         24    2    1    2    0    0  0.11111007191E+04  0.18838466960E+03  0.33789713287E+03  0.11783878605E+04  0.66256212562E+02 0.  0.
        -11    1    3    3    0    0 -0.43192642611E+03  0.51420627785E+02 -0.27342039860E+03  0.51377352297E+03  0.00000000000E+00 0.  1.
         12    1    3    3    0    0 -0.60905047943E+03  0.40504254193E+02 -0.49417500750E+03  0.78536107564E+03  0.00000000000E+00 0. -1.
        -11    1    5    5    0    0  0.68795932090E+03  0.87402321888E+02  0.22269662651E+03  0.72836871195E+03  0.00000000000E+00 0.  1.
         12    1    5    5    0    0  0.42314139820E+03  0.10098234771E+03  0.11520050637E+03  0.45001914858E+03  0.00000000000E+00 0. -1.
          5    1    4    4  501    0 -0.60849701943E+02 -0.24822738927E+03  0.23824435322E+01  0.25563115821E+03  0.47000000000E+01 0. -1.
         -5    1    4    4    0  501 -0.98894994937E+02 -0.73193717823E+02  0.23286295069E+02  0.12530715020E+03  0.47000000000E+01 0. -1.
          1    1    1    2  502    0  0.74979428927E+02 -0.55080638837E+01  0.61868819776E+03  0.62323939186E+03  0.00000000000E+00 0. -1.
          1    1    1    2  503    0  0.14641454386E+02  0.46619619397E+02 -0.11456836257E+04  0.11467252205E+04  0.00000000000E+00 0. -1.
<mgrwt>
<rscale>  0 0.60617527E+02</rscale>
<asrwt>0</asrwt>
<pdfrwt beam="1">  1        2 0.27186768E+00 0.75197083E+02</pdfrwt>
<pdfrwt beam="2">  1        2 0.40878311E+00 0.48864722E+02</pdfrwt>
<totfact> 0.72919004E+00</totfact>
</mgrwt>
</event>
<event>
13    1  0.1675423E-008  0.1188650E+03  0.7546771E-02  0.1332837E+00
          2   -1    0    0  502    0  0.00000000000E+00  0.00000000000E+00  0.20401029962E+04  0.20401029962E+04  0.00000000000E+00 0. -1.
          2   -1    0    0  503    0 -0.00000000000E+00 -0.00000000000E+00 -0.14579762212E+04  0.14579762212E+04  0.00000000000E+00 0. -1.
         24    2    1    2    0    0 -0.16021488226E+02  0.22494935148E+02 -0.37921844643E+02  0.93437574241E+02  0.80807201330E+02 0.  0.
         25    2    1    2    0    0 -0.47320227014E+02  0.16507550610E+03 -0.10149344321E+04  0.10369213236E+04  0.12499921367E+03 0.  0.
         24    2    1    2    0    0  0.26704304137E+01 -0.54840960185E+01  0.65521368122E+02  0.10339540213E+03  0.79751821252E+02 0.  0.
        -11    1    3    3    0    0 -0.34567048599E+02  0.44310296984E+02 -0.19964586344E+02  0.59639483360E+02  0.00000000000E+00 0.  1.
         12    1    3    3    0    0  0.18545560373E+02 -0.21815361836E+02 -0.17957258299E+02  0.33798090881E+02  0.00000000000E+00 0. -1.
        -11    1    5    5    0    0  0.37378366504E+02  0.14221079900E+02  0.30469223814E+02  0.50276783866E+02  0.00000000000E+00 0.  1.
         12    1    5    5    0    0 -0.34707936090E+02 -0.19705175918E+02  0.35052144307E+02  0.53118618263E+02  0.00000000000E+00 0. -1.
          5    1    4    4  501    0 -0.32492918488E+02  0.14662668084E+03 -0.99302330032E+03  0.10043269081E+04  0.47000000000E+01 0. -1.
         -5    1    4    4    0  501 -0.14827308527E+02  0.18448825265E+02 -0.21911131736E+02  0.32594415561E+02  0.47000000000E+01 0. -1.
          1    1    1    2  502    0  0.98002710691E+01 -0.17092262721E+03  0.19110931410E+04  0.19187463572E+04  0.00000000000E+00 0. -1.
          1    1    1    2  503    0  0.50871013757E+02 -0.11163718022E+02 -0.34163145734E+03  0.34557856022E+03  0.00000000000E+00 0. -1.
<mgrwt>
<rscale>  0 0.78680842E+02</rscale>
<asrwt>0</asrwt>
<pdfrwt beam="1">  1        2 0.30001515E+00 0.11886501E+03</pdfrwt>
<pdfrwt beam="2">  1        2 0.21440827E+00 0.52081558E+02</pdfrwt>
<totfact> 0.23688101E+01</totfact>
</mgrwt>
</event>
<event>
13    1  0.1675423E-008  0.1129111E+03  0.7546771E-02  0.1387341E+00
          2   -1    0    0  503    0  0.00000000000E+00  0.00000000000E+00  0.61760144063E+03  0.61760144063E+03  0.00000000000E+00 0. -1.
          2   -1    0    0  502    0 -0.00000000000E+00 -0.00000000000E+00 -0.86772248373E+03  0.86772248373E+03  0.00000000000E+00 0. -1.
         24    2    1    2    0    0 -0.62524462863E+02  0.10650775322E+02  0.10410331697E+03  0.14636314744E+03  0.81005696428E+02 0.  0.
         25    2    1    2    0    0 -0.17328767396E+03 -0.24682769134E+02 -0.60353628978E+03  0.64071922432E+03  0.12500885689E+03 0.  0.
         24    2    1    2    0    0  0.23518886715E+02  0.23540369572E+02 -0.71825605813E+02  0.11168965495E+03  0.78793237909E+02 0.  0.
        -11    1    5    5    0    0  0.33778919342E+02 -0.17288375425E+02 -0.53938707170E+02  0.65949127727E+02  0.00000000000E+00 0.  1.
         12    1    5    5    0    0 -0.10260032626E+02  0.40828744997E+02 -0.17886898643E+02  0.45740527222E+02  0.00000000000E+00 0. -1.
        -11    1    3    3    0    0 -0.79975126292E+02  0.57531091755E+01  0.64839487122E+02  0.10311778790E+03  0.00000000000E+00 0.  1.
         12    1    3    3    0    0  0.17450663429E+02  0.48976661461E+01  0.39263829852E+02  0.43245359547E+02  0.00000000000E+00 0. -1.
          5    1    4    4  501    0 -0.18547718133E+03  0.11605468026E+01 -0.53716688787E+03  0.56830756381E+03  0.47000000000E+01 0.  1.
         -5    1    4    4    0  501  0.12189507368E+02 -0.25843315936E+02 -0.66369401907E+02  0.72411660511E+02  0.47000000000E+01 0.  1.
          1    1    1    2  502    0  0.32795511457E+02 -0.11265598292E+02 -0.11223711640E+03  0.11747182460E+03  0.00000000000E+00 0. -1.
          1    1    1    2  503    0  0.17949773865E+03  0.17572225325E+01  0.43337465191E+03  0.46908007304E+03  0.00000000000E+00 0. -1.
<mgrwt>
<rscale>  0 0.62572849E+02</rscale>
<asrwt>0</asrwt>
<pdfrwt beam="1">  1        2 0.90823742E-01 0.11291111E+03</pdfrwt>
<pdfrwt beam="2">  1        2 0.12760625E+00 0.34676495E+02</pdfrwt>
<totfact> 0.29994319E+02</totfact>
</mgrwt>
</event>
<event>
13    1  0.1675423E-008  0.1500551E+03  0.7546771E-02  0.1382410E+00
          2   -1    0    0  502    0  0.00000000000E+00  0.00000000000E+00  0.85573128321E+03  0.85573128321E+03  0.00000000000E+00 0. -1.
          2   -1    0    0  503    0 -0.00000000000E+00 -0.00000000000E+00 -0.13243176927E+04  0.13243176927E+04  0.00000000000E+00 0. -1.
         24    2    1    2    0    0 -0.25845413276E+03 -0.11927785612E+03  0.49398739693E+03  0.57547321057E+03  0.78231208984E+02 0.  0.
         25    2    1    2    0    0  0.15428742397E+03 -0.73041261560E+02 -0.37006060856E+03  0.42627873263E+03  0.12501627413E+03 0.  0.
         24    2    1    2    0    0  0.12903011126E+02  0.11443406848E+03 -0.32715270908E+01  0.14115220980E+03  0.81557340062E+02 0.  0.
        -11    1    5    5    0    0 -0.16277311459E+02 -0.13856702976E+01  0.12643516299E+02  0.20657430985E+02  0.00000000000E+00 0.  1.
         12    1    5    5    0    0  0.29180322584E+02  0.11581973877E+03 -0.15915043390E+02  0.12049477882E+03  0.00000000000E+00 0. -1.
        -13    1    3    3    0    0 -0.11850101203E+03 -0.82780010179E+02  0.30473719287E+03  0.33728293265E+03  0.00000000000E+00 0.  1.
         14    1    3    3    0    0 -0.13995312073E+03 -0.36497845937E+02  0.18925020405E+03  0.23819027792E+03  0.00000000000E+00 0. -1.
          5    1    4    4  501    0  0.40407824445E+02 -0.28598211448E+02 -0.24990771724E+03  0.25480699973E+03  0.47000000000E+01 0. -1.
         -5    1    4    4    0  501  0.11387959952E+03 -0.44443050112E+02 -0.12015289132E+03  0.17147173290E+03  0.47000000000E+01 0. -1.
          1    1    1    2  502    0  0.10932671983E+03  0.98161928148E+02  0.19959370429E+03  0.24784217276E+03  0.00000000000E+00 0. -1.
          1    1    1    2  503    0 -0.18063022165E+02 -0.20276878947E+02 -0.78883537510E+03  0.78930265019E+03  0.00000000000E+00 0. -1.
<mgrwt>
<rscale>  0 0.63834402E+02</rscale>
<asrwt>0</asrwt>
<pdfrwt beam="1">  1        2 0.12584284E+00 0.15005511E+03</pdfrwt>
<pdfrwt beam="2">  1        2 0.19475260E+00 0.27155563E+02</pdfrwt>
<totfact> 0.11842281E+02</totfact>
</mgrwt>
</event>
<event>
13    1  0.1675423E-008  0.2667998E+03  0.7546771E-02  0.1190046E+00
          2   -1    0    0  502    0  0.00000000000E+00  0.00000000000E+00  0.22934192934E+04  0.22934192934E+04  0.00000000000E+00 0. -1.
          2   -1    0    0  503    0 -0.00000000000E+00 -0.00000000000E+00 -0.13333901013E+04  0.13333901013E+04  0.00000000000E+00 0. -1.
         24    2    1    2    0    0 -0.21866609084E+02  0.64513692395E+01  0.41575119407E+03  0.42427830017E+03  0.81506146214E+02 0.  0.
         25    2    1    2    0    0  0.34287294515E+03 -0.44246096170E+02  0.23983540198E+01  0.36763057771E+03  0.12500766385E+03 0.  0.
         24    2    1    2    0    0 -0.17776672435E+02 -0.13048311756E+03  0.15600841504E+03  0.21941809166E+03  0.80397881416E+02 0.  0.
        -11    1    5    5    0    0 -0.12082680092E+02  0.50342147642E+01  0.54304625466E+00  0.13100739511E+02  0.00000000000E+00 0.  1.
         12    1    5    5    0    0 -0.56939923429E+01 -0.13551733232E+03  0.15546536878E+03  0.20631735215E+03  0.00000000000E+00 0. -1.
        -13    1    3    3    0    0 -0.48522843171E+02  0.17192571146E+02  0.19566283172E+03  0.20232151277E+03  0.00000000000E+00 0.  1.
         14    1    3    3    0    0  0.26656234087E+02 -0.10741201906E+02  0.22008836235E+03  0.22195678740E+03  0.00000000000E+00 0. -1.
          5    1    4    4  501    0  0.13940197760E+03 -0.79818628231E+02 -0.64075230841E+01  0.16083243181E+03  0.47000000000E+01 0. -1.
         -5    1    4    4    0  501  0.20347096755E+03  0.35572532062E+02  0.88058771039E+01  0.20679814589E+03  0.47000000000E+01 0. -1.
          1    1    1    2  502    0 -0.84674664142E+02  0.22124208945E+02  0.14838675040E+04  0.14864461136E+04  0.00000000000E+00 0. -1.
          1    1    1    2  503    0 -0.21855499949E+03  0.14615363554E+03 -0.10979962749E+04  0.11290363115E+04  0.00000000000E+00 0. -1.
<mgrwt>
<rscale>  0 0.15881038E+03</rscale>
<asrwt>0</asrwt>
<pdfrwt beam="1">  1        2 0.33726754E+00 0.94530576E+02</pdfrwt>
<pdfrwt beam="2">  1        2 0.19608678E+00 0.26679980E+03</pdfrwt>
<totfact> 0.18872697E+01</totfact>
</mgrwt>
</event>
<event>
13    1  0.1675423E-008  0.1611623E+03  0.7546771E-02  0.1395478E+00
          4   -1    0    0  503    0 -0.00000000000E+00  0.00000000000E+00  0.92827134931E+03  0.92827134931E+03  0.00000000000E+00 0. -1.
          2   -1    0    0  502    0  0.00000000000E+00 -0.00000000000E+00 -0.25479812568E+04  0.25479812568E+04  0.00000000000E+00 0. -1.
         24    2    1    2    0    0  0.18810488437E+03 -0.77788233268E+02 -0.95377204746E+03  0.97857231758E+03  0.80549397697E+02 0.  0.
         25    2    1    2    0    0  0.33659129359E+02  0.16641888647E+03  0.38475857494E+03  0.43873578437E+03  0.12498697826E+03 0.  0.
         24    2    1    2    0    0 -0.63321342354E+02  0.64663987190E+02 -0.13306949528E+03  0.18007048378E+03  0.80789014846E+02 0.  0.
        -11    1    3    3    0    0  0.56487420028E+02 -0.13561767560E+02 -0.13752825563E+03  0.14929424388E+03  0.00000000000E+00 0.  1.
         12    1    3    3    0    0  0.13161746434E+03 -0.64226465708E+02 -0.81624379183E+03  0.82927807370E+03  0.00000000000E+00 0. -1.
        -13    1    5    5    0    0  0.14012226902E+02  0.52282235893E+01  0.15769311811E+00  0.14956660448E+02  0.00000000000E+00 0.  1.
         14    1    5    5    0    0 -0.77333569256E+02  0.59435763601E+02 -0.13322718840E+03  0.16511382334E+03  0.00000000000E+00 0. -1.
          5    1    4    4  501    0  0.61992981605E+02  0.10573110661E+03  0.14583380175E+03  0.19055651237E+03  0.47000000000E+01 0.  1.
         -5    1    4    4    0  501 -0.28333852246E+02  0.60687779857E+02  0.23892477318E+03  0.24817927200E+03  0.47000000000E+01 0.  1.
          1    1    1    2  502    0 -0.16395709695E+03 -0.13121277617E+03 -0.13900903643E+04  0.14058627042E+04  0.00000000000E+00 0. -1.
          3    1    1    2  503    0  0.55144255761E+01 -0.22081864217E+02  0.47246342459E+03  0.47301131614E+03  0.00000000000E+00 0. -1.
<mgrwt>
<rscale>  0 0.60564468E+02</rscale>
<asrwt>0</asrwt>
<pdfrwt beam="2">  1        2 0.37470312E+00 0.16116233E+03</pdfrwt>
<pdfrwt beam="1">  1        4 0.13651049E+00 0.22760000E+02</pdfrwt>
<totfact> 0.90482227E-01</totfact>
</mgrwt>
</event>
<event>
13    1  0.1675423E-008  0.7103426E+02  0.7546771E-02  0.1400954E+00
          4   -1    0    0  503    0 -0.00000000000E+00  0.00000000000E+00  0.34115734080E+03  0.34115734080E+03  0.00000000000E+00 0. -1.
          2   -1    0    0  502    0  0.00000000000E+00 -0.00000000000E+00 -0.61002049120E+03  0.61002049120E+03  0.00000000000E+00 0. -1.
         24    2    1    2    0    0  0.89741396344E+00 -0.51760720869E+02  0.80167482907E+02  0.12377517817E+03  0.78825705447E+02 0.  0.
         25    2    1    2    0    0  0.45395030906E+02  0.63229859838E+02 -0.27321441287E+03  0.31036876778E+03  0.12499573035E+03 0.  0.
         24    2    1    2    0    0 -0.32549924574E+02  0.75393748954E+01  0.26575074939E+02  0.94166605407E+02  0.83933159134E+02 0.  0.
        -11    1    3    3    0    0 -0.48785019646E+01 -0.20100351580E+02 -0.13522379254E+02  0.24711913235E+02  0.00000000000E+00 0.  1.
         12    1    3    3    0    0  0.57759159280E+01 -0.31660369290E+02  0.93689862161E+02  0.99063264937E+02  0.00000000000E+00 0. -1.
        -11    1    5    5    0    0 -0.22311614357E+02  0.44784272537E+02  0.23894693716E+02  0.55447232479E+02  0.00000000000E+00 0.  1.
         12    1    5    5    0    0 -0.10238310217E+02 -0.37244897641E+02  0.26803812232E+01  0.38719372928E+02  0.00000000000E+00 0. -1.
          5    1    4    4  501    0 -0.38390096538E+02  0.35188332171E+02 -0.14865662861E+03  0.15758458511E+03  0.47000000000E+01 0. -1.
         -5    1    4    4    0  501  0.83785127444E+02  0.28041527667E+02 -0.12455778426E+03  0.15278418267E+03  0.47000000000E+01 0. -1.
          1    1    1    2  502    0  0.15763087792E+02  0.46860898166E+02 -0.25197569773E+03  0.25678039442E+03  0.00000000000E+00 0. -1.
          3    1    1    2  503    0 -0.29505608087E+02 -0.65869412030E+02  0.14958440235E+03  0.16608688622E+03  0.00000000000E+00 0. -1.
<mgrwt>
<rscale>  0 0.59262208E+02</rscale>
<asrwt>0</asrwt>
<pdfrwt beam="2">  1        2 0.89708894E-01 0.49441063E+02</pdfrwt>
<pdfrwt beam="1">  1        4 0.50170198E-01 0.71034259E+02</pdfrwt>
<totfact> 0.10166794E+02</totfact>
</mgrwt>
</event>
<event>
13    1  0.1675423E-008  0.4106939E+03  0.7546771E-02  0.1145773E+00
         -1   -1    0    0    0  501 -0.00000000000E+00  0.00000000000E+00  0.64929459746E+03  0.64929459746E+03  0.00000000000E+00 0.  1.
          2   -1    0    0  503    0  0.00000000000E+00 -0.00000000000E+00 -0.22489994751E+04  0.22489994751E+04  0.00000000000E+00 0. -1.
         24    2    1    2    0    0  0.93481023981E+02  0.79296956372E+02 -0.33608546457E+03  0.36644988437E+03  0.79406354435E+02 0.  0.
         25    2    1    2    0    0  0.10591444292E+03  0.10393066298E+03 -0.39690945159E+03  0.44179269394E+03  0.12499687888E+03 0.  0.
         24    2    1    2    0    0 -0.20470453657E+03 -0.45352701205E+03  0.54398423826E+02  0.50766068593E+03  0.84672814835E+02 0.  0.
        -11    1    3    3    0    0  0.13365778638E+02  0.62827127439E+02 -0.15161261620E+03  0.16465806197E+03  0.00000000000E+00 0.  1.
         12    1    3    3    0    0  0.80115245342E+02  0.16469828933E+02 -0.18447284837E+03  0.20179182240E+03  0.00000000000E+00 0. -1.
        -13    1    5    5    0    0 -0.17829877329E+03 -0.40689008353E+03  0.74455175536E+02  0.45043708306E+03  0.00000000000E+00 0.  1.
         14    1    5    5    0    0 -0.26405763283E+02 -0.46636928521E+02 -0.20056751709E+02  0.57223602871E+02  0.00000000000E+00 0. -1.
          5    1    4    4  502    0 -0.23815454878E+02 -0.40478600854E+01 -0.40152708339E+02  0.47094490647E+02  0.47000000000E+01 0.  1.
         -5    1    4    4    0  502  0.12972989779E+03  0.10797852307E+03 -0.35675674326E+03  0.39469820329E+03  0.47000000000E+01 0.  1.
          1    1    1    2  503    0 -0.63693482951E+02  0.34555310473E+03 -0.12184004165E+04  0.12680549605E+04  0.00000000000E+00 0. -1.
         -2    1    1    2    0  501  0.69002552629E+02 -0.75253712025E+02  0.29729203117E+03  0.31433584784E+03  0.00000000000E+00 0.  1.
<mgrwt>
<rscale>  0 0.20477299E+03</rscale>
<asrwt>0</asrwt>
<pdfrwt beam="2">  1        2 0.33073521E+00 0.41069393E+03</pdfrwt>
<pdfrwt beam="1">  1       -1 0.95484502E-01 0.10210031E+03</pdfrwt>
<totfact> 0.79859933E+00</totfact>
</mgrwt>
</event>
<event>
13    1  0.1675423E-008  0.7898730E+02  0.7546771E-02  0.1395783E+00
          2   -1    0    0  502    0  0.00000000000E+00  0.00000000000E+00  0.21550695836E+04  0.21550695836E+04  0.00000000000E+00 0. -1.
          2   -1    0    0  503    0 -0.00000000000E+00 -0.00000000000E+00 -0.18194073179E+04  0.18194073179E+04  0.00000000000E+00 0. -1.
         24    2    1    2    0    0  0.17559178689E+03 -0.35642441609E+03  0.69949445079E+03  0.80748169743E+03  0.69737830451E+02 0.  0.
         25    2    1    2    0    0 -0.14868182605E+03  0.51027440591E+03 -0.25392620290E+03  0.60215418130E+03  0.12499954729E+03 0.  0.
         24    2    1    2    0    0  0.11448765947E+02 -0.11451689011E+03 -0.18993887615E+03  0.23591876935E+03  0.79597089760E+02 0.  0.
        -11    1    5    5    0    0 -0.21322119255E+02 -0.17986163250E+02 -0.11013323376E+02  0.29990467315E+02  0.00000000000E+00 0.  1.
         12    1    5    5    0    0  0.32770885202E+02 -0.96530726857E+02 -0.17892555278E+03  0.20592830204E+03  0.00000000000E+00 0. -1.
        -11    1    3    3    0    0  0.14188969822E+03 -0.33331267256E+03  0.61909069628E+03  0.71728886396E+03  0.00000000000E+00 0.  1.
         12    1    3    3    0    0  0.33702088663E+02 -0.23111743531E+02  0.80403754511E+02  0.90192833467E+02  0.00000000000E+00 0. -1.
          5    1    4    4  501    0 -0.34992514984E+02  0.22079478111E+03 -0.16735007048E+03  0.27929007781E+03  0.47000000000E+01 0. -1.
         -5    1    4    4    0  501 -0.11368931107E+03  0.28947962480E+03 -0.86576132414E+02  0.32286410350E+03  0.47000000000E+01 0. -1.
          1    1    1    2  502    0 -0.77653440076E+02 -0.14796937946E+02  0.12027023251E+04  0.12052974276E+04  0.00000000000E+00 0. -1.
          1    1    1    2  503    0  0.39294713293E+02 -0.24536161762E+02 -0.11226694311E+04  0.11236248259E+04  0.00000000000E+00 0. -1.
<mgrwt>
<rscale>  0 0.60491034E+02</rscale>
<asrwt>0</asrwt>
<pdfrwt beam="1">  1        2 0.31692200E+00 0.78987301E+02</pdfrwt>
<pdfrwt beam="2">  1        2 0.26755990E+00 0.46325994E+02</pdfrwt>
<totfact> 0.14898117E+01</totfact>
</mgrwt>
</event>
<event>
13    1  0.1675423E-008  0.1606412E+03  0.7546771E-02  0.1335775E+00
          2   -1    0    0  503    0  0.00000000000E+00  0.00000000000E+00  0.15199371655E+04  0.15199371655E+04  0.00000000000E+00 0. -1.
         -1   -1    0    0    0  501 -0.00000000000E+00 -0.00000000000E+00 -0.77305698391E+03  0.77305698391E+03  0.00000000000E+00 0.  1.
         24    2    1    2    0    0 -0.15404532212E+03 -0.38862284705E+03  0.10404040208E+03  0.43825359659E+03  0.80524102891E+02 0.  0.
         25    2    1    2    0    0  0.31187264392E+02  0.19435807101E+03 -0.10315360648E+03  0.25497827916E+03  0.12500220432E+03 0.  0.
         24    2    1    2    0    0  0.69226946931E+02 -0.13913073873E+02  0.32704010052E+03  0.34205234552E+03  0.71124088206E+02 0.  0.
        -11    1    5    5    0    0  0.37552826523E+01  0.15053702623E+02  0.13895517293E+02  0.20827902230E+02  0.00000000000E+00 0.  1.
         12    1    5    5    0    0  0.65471664279E+02 -0.28966776496E+02  0.31314458322E+03  0.32122444329E+03  0.00000000000E+00 0. -1.
        -13    1    3    3    0    0 -0.15145435944E+03 -0.32237122584E+03  0.10695160059E+03  0.37188744953E+03  0.00000000000E+00 0.  1.
         14    1    3    3    0    0 -0.25909626820E+01 -0.66251621206E+02 -0.29111985114E+01  0.66366147069E+02  0.00000000000E+00 0. -1.
          5    1    4    4  502    0  0.44434317162E+02  0.40463631697E+02  0.12989049444E+02  0.61664571978E+02  0.47000000000E+01 0. -1.
         -5    1    4    4    0  502 -0.13247052769E+02  0.15389443931E+03 -0.11614265592E+03  0.19331370718E+03  0.47000000000E+01 0. -1.
          1    1    1    2  503    0  0.24568238974E+02  0.23197157663E+03  0.82121277026E+03  0.85370066461E+03  0.00000000000E+00 0. -1.
         -2    1    1    2    0  501  0.29062871827E+02 -0.23793726721E+02 -0.40225948476E+03  0.40400926355E+03  0.00000000000E+00 0.  1.
<mgrwt>
<rscale>  0 0.77677325E+02</rscale>
<asrwt>0</asrwt>
<pdfrwt beam="1">  1        2 0.22352017E+00 0.16064123E+03</pdfrwt>
<pdfrwt beam="2">  1       -1 0.11368485E+00 0.37560511E+02</pdfrwt>
<totfact> 0.14436993E+01</totfact>
</mgrwt>
</event>
<event>
13    1  0.1675423E-008  0.1084180E+03  0.7546771E-02  0.1430075E+00
          2   -1    0    0  502    0  0.00000000000E+00  0.00000000000E+00  0.11057480649E+04  0.11057480649E+04  0.00000000000E+00 0. -1.
          2   -1    0    0  503    0 -0.00000000000E+00 -0.00000000000E+00 -0.83594502415E+03  0.83594502415E+03  0.00000000000E+00 0. -1.
         24    2    1    2    0    0 -0.10906557855E+02 -0.36308097293E+02  0.33575418391E+03  0.34729551508E+03  0.80287432684E+02 0.  0.
         25    2    1    2    0    0 -0.11130371875E+03  0.66575741066E+02 -0.39986177623E+03  0.43856048557E+03  0.12500004921E+03 0.  0.
         24    2    1    2    0    0 -0.24309002396E+02  0.12432414826E+02  0.14870734568E+03  0.17089475012E+03  0.79659578345E+02 0.  0.
        -11    1    5    5    0    0  0.94727055080E+01  0.37454353448E+02  0.46992125385E+02  0.60834370137E+02  0.00000000000E+00 0.  1.
         12    1    5    5    0    0 -0.33781707904E+02 -0.25021938622E+02  0.10171522030E+03  0.11006037998E+03  0.00000000000E+00 0. -1.
        -13    1    3    3    0    0 -0.41469886225E+02 -0.91130092984E+01  0.11090568290E+03  0.11875550051E+03  0.00000000000E+00 0.  1.
         14    1    3    3    0    0  0.30563328370E+02 -0.27195087995E+02  0.22484850102E+03  0.22854001457E+03  0.00000000000E+00 0. -1.
          5    1    4    4  501    0 -0.19335431481E+02 -0.35146040170E+02 -0.63111169691E+02  0.74928050755E+02  0.47000000000E+01 0. -1.
         -5    1    4    4    0  501 -0.91968287265E+02  0.10172178124E+03 -0.33675060654E+03  0.36363243481E+03  0.47000000000E+01 0. -1.
          1    1    1    2  502    0  0.14119603861E+03 -0.68001299562E+02  0.57414125966E+03  0.59514593513E+03  0.00000000000E+00 0. -1.
          1    1    1    2  503    0  0.53232403893E+01  0.25301240964E+02 -0.38893797224E+03  0.38979640318E+03  0.00000000000E+00 0. -1.
<mgrwt>
<rscale>  0 0.52944935E+02</rscale>
<asrwt>0</asrwt>
<pdfrwt beam="1">  1        2 0.16261001E+00 0.10841802E+03</pdfrwt>
<pdfrwt beam="2">  1        2 0.12293309E+00 0.25855167E+02</pdfrwt>
<totfact> 0.15420485E+02</totfact>
</mgrwt>
</event>
<event>
13    1  0.1675423E-008  0.6313530E+02  0.7546771E-02  0.1391107E+00
          2   -1    0    0  502    0  0.00000000000E+00  0.00000000000E+00  0.25664854153E+04  0.25664854153E+04  0.00000000000E+00 0. -1.
          2   -1    0    0  503    0 -0.00000000000E+00 -0.00000000000E+00 -0.18424966606E+04  0.18424966606E+04  0.00000000000E+00 0. -1.
         24    2    1    2    0    0  0.23928002947E+02 -0.15088289797E+03  0.12975426747E+04  0.13090565888E+04  0.81694318740E+02 0.  0.
         25    2    1    2    0    0 -0.20607991425E+02 -0.17099369193E+01 -0.10111397235E+04  0.10190463252E+04  0.12499703728E+03 0.  0.
         24    2    1    2    0    0 -0.87957337905E+01  0.30031325446E+02  0.12767048774E+03  0.15467167424E+03  0.81512747052E+02 0.  0.
        -13    1    5    5    0    0  0.13383856467E+02  0.53006468404E+02  0.89817927230E+02  0.10514786426E+03  0.00000000000E+00 0.  1.
         14    1    5    5    0    0 -0.22179590258E+02 -0.22975142958E+02  0.37852560513E+02  0.49523809984E+02  0.00000000000E+00 0. -1.
        -13    1    3    3    0    0 -0.10894346515E+02 -0.50980447850E+01  0.30722854678E+03  0.30746391138E+03  0.00000000000E+00 0.  1.
         14    1    3    3    0    0  0.34822349462E+02 -0.14578485319E+03  0.99031412797E+03  0.10015926774E+04  0.00000000000E+00 0. -1.
          5    1    4    4  501    0  0.47606930607E+02 -0.22665911881E+02 -0.33830661247E+03  0.34242315554E+03  0.47000000000E+01 0. -1.
         -5    1    4    4    0  501 -0.68214922032E+02  0.20955974962E+02 -0.67283311098E+03  0.67662316965E+03  0.47000000000E+01 0. -1.
          1    1    1    2  502    0 -0.30874222159E+01  0.63008880434E+02  0.11160496192E+04  0.11178311159E+04  0.00000000000E+00 0. -1.
          1    1    1    2  503    0  0.85631444843E+01  0.59552629013E+02 -0.80613430351E+03  0.80837637172E+03  0.00000000000E+00 0. -1.
<mgrwt>
<rscale>  0 0.61632324E+02</rscale>
<asrwt>0</asrwt>
<pdfrwt beam="1">  1        2 0.37742433E+00 0.63135296E+02</pdfrwt>
<pdfrwt beam="2">  1        2 0.27095539E+00 0.60165132E+02</pdfrwt>
<totfact> 0.92097002E+00</totfact>
</mgrwt>
</event>
<event>
13    1  0.1675423E-008  0.1544664E+03  0.7546771E-02  0.1236540E+00
          2   -1    0    0  502    0  0.00000000000E+00  0.00000000000E+00  0.64356152909E+03  0.64356152909E+03  0.00000000000E+00 0. -1.
          2   -1    0    0  503    0 -0.00000000000E+00 -0.00000000000E+00 -0.17073738163E+04  0.17073738163E+04  0.00000000000E+00 0. -1.
         24    2    1    2    0    0  0.14822836357E+03  0.38118073372E+02  0.29306920478E+03  0.34026733437E+03  0.80421792855E+02 0.  0.
         25    2    1    2    0    0 -0.76161482033E+02 -0.92669000446E+02 -0.12049128790E+04  0.12173040077E+04  0.12500354397E+03 0.  0.
         24    2    1    2    0    0 -0.21160642415E+02  0.92672605472E+02  0.10474084644E+03  0.16331308132E+03  0.81636591211E+02 0.  0.
        -11    1    3    3    0    0  0.27437084136E+02  0.44108091448E+02  0.89641164452E+02  0.10360432270E+03  0.00000000000E+00 0.  1.
         12    1    3    3    0    0  0.12079127943E+03 -0.59900180758E+01  0.20342804033E+03  0.23666301167E+03  0.00000000000E+00 0. -1.
        -13    1    5    5    0    0 -0.31614343197E+02  0.45189985333E+02  0.10033606006E+03  0.11449422002E+03  0.00000000000E+00 0.  1.
         14    1    5    5    0    0  0.10453700782E+02  0.47482620139E+02  0.44047863804E+01  0.48818861297E+02  0.00000000000E+00 0. -1.
          5    1    4    4  501    0 -0.28375024784E+02 -0.33162181454E+02 -0.93803170892E+02  0.10356639020E+03  0.47000000000E+01 0. -1.
         -5    1    4    4    0  501 -0.47786457250E+02 -0.59506818992E+02 -0.11111097081E+04  0.11137376175E+04  0.47000000000E+01 0. -1.
          1    1    1    2  502    0  0.97811184888E+02  0.19027430059E+02  0.15743455709E+03  0.18631884164E+03  0.00000000000E+00 0. -1.
          1    1    1    2  503    0 -0.14871742401E+03 -0.57149108457E+02 -0.41414401643E+03  0.44373208037E+03  0.00000000000E+00 0. -1.
<mgrwt>
<rscale>  0 0.12406353E+03</rscale>
<asrwt>0</asrwt>
<pdfrwt beam="1">  1        2 0.94641401E-01 0.99644724E+02</pdfrwt>
<pdfrwt beam="2">  1        2 0.25108438E+00 0.15446637E+03</pdfrwt>
<totfact> 0.95394746E+01</totfact>
</mgrwt>
</event>
<event>
13    1  0.1675423E-008  0.1061628E+03  0.7546771E-02  0.1376951E+00
          2   -1    0    0  502    0  0.00000000000E+00  0.00000000000E+00  0.35751946268E+04  0.35751946268E+04  0.00000000000E+00 0. -1.
          2   -1    0    0  503    0 -0.00000000000E+00 -0.00000000000E+00 -0.20441893734E+04  0.20441893734E+04  0.00000000000E+00 0. -1.
         24    2    1    2    0    0 -0.13904059998E+02 -0.43642452332E+01  0.24004968755E+03  0.25329581159E+03  0.79514439896E+02 0.  0.
         25    2    1    2    0    0  0.49697387623E+02 -0.75076803905E+02 -0.49643743466E+03  0.51979424335E+03  0.12501828693E+03 0.  0.
         24    2    1    2    0    0 -0.70584824270E+01 -0.17524373036E+02  0.12844621505E+03  0.15231004034E+03  0.79642905540E+02 0.  0.
        -11    1    3    3    0    0 -0.32683084969E+02 -0.13255269329E+02  0.22473128540E+03  0.22748194839E+03  0.00000000000E+00 0.  1.
         12    1    3    3    0    0  0.18779024971E+02  0.88910240956E+01  0.15318402153E+02  0.25813863191E+02  0.00000000000E+00 0. -1.
        -13    1    5    5    0    0 -0.11549773829E+02  0.21544165418E+02  0.10207370642E+03  0.10495994417E+03  0.00000000000E+00 0.  1.
         14    1    5    5    0    0  0.44912914025E+01 -0.39068538454E+02  0.26372508636E+02  0.47350096168E+02  0.00000000000E+00 0. -1.
          5    1    4    4  501    0  0.78012295056E+02 -0.11824301466E+02 -0.19403541685E+03  0.20951745816E+03  0.47000000000E+01 0.  1.
         -5    1    4    4    0  501 -0.28314907433E+02 -0.63252502439E+02 -0.30240201781E+03  0.31027678518E+03  0.47000000000E+01 0.  1.
          1    1    1    2  502    0 -0.56764007875E+02  0.12568606836E+03  0.31747027592E+04  0.31776967680E+04  0.00000000000E+00 0. -1.
          1    1    1    2  503    0  0.28029162678E+02 -0.28720646187E+02 -0.15157559738E+04  0.15162871369E+04  0.00000000000E+00 0. -1.
<mgrwt>
<rscale>  0 0.65272003E+02</rscale>
<asrwt>0</asrwt>
<pdfrwt beam="1">  1        2 0.52576392E+00 0.10616277E+03</pdfrwt>
<pdfrwt beam="2">  1        2 0.30061608E+00 0.40131153E+02</pdfrwt>
<totfact> 0.20421529E+00</totfact>
</mgrwt>
</event>
<event>
13    1  0.1675423E-008  0.8671690E+02  0.7546771E-02  0.1311912E+00
          2   -1    0    0  502    0  0.00000000000E+00  0.00000000000E+00  0.36969224882E+04  0.36969224882E+04  0.00000000000E+00 0. -1.
          2   -1    0    0  503    0 -0.00000000000E+00 -0.00000000000E+00 -0.39993007592E+04  0.39993007592E+04  0.00000000000E+00 0. -1.
         24    2    1    2    0    0 -0.48286271622E+03  0.24126953951E+03  0.93507310525E+03  0.10816764474E+04  0.65534961597E+02 0.  0.
         25    2    1    2    0    0  0.58120106722E+03  0.40001250417E+03  0.19856405972E+03  0.74354351810E+03  0.12499837385E+03 0.  0.
         24    2    1    2    0    0 -0.11160967688E+03 -0.64821353012E+03  0.19154599935E+03  0.69001862726E+03  0.82452019311E+02 0.  0.
        -11    1    3    3    0    0 -0.15120089204E+03  0.44696912594E+02  0.24991553775E+03  0.29549500800E+03  0.00000000000E+00 0.  1.
         12    1    3    3    0    0 -0.33166182418E+03  0.19657262692E+03  0.68515756750E+03  0.78618143935E+03  0.00000000000E+00 0. -1.
        -11    1    5    5    0    0 -0.77214107175E+02 -0.39634602761E+03  0.15800507300E+03  0.43361018789E+03  0.00000000000E+00 0.  1.
         12    1    5    5    0    0 -0.34395569707E+02 -0.25186750252E+03  0.33540926343E+02  0.25640843937E+03  0.00000000000E+00 0. -1.
          5    1    4    4  501    0  0.30129893268E+03  0.15439213881E+03  0.14069629909E+03  0.36665449396E+03  0.47000000000E+01 0. -1.
         -5    1    4    4    0  501  0.27990213453E+03  0.24562036535E+03  0.57867760629E+02  0.37688902414E+03  0.47000000000E+01 0. -1.
          1    1    1    2  502    0 -0.36910727007E+02  0.77683242288E+02  0.17751177325E+04  0.17772000597E+04  0.00000000000E+00 0. -1.
          1    1    1    2  503    0  0.50182052891E+02 -0.70751755844E+02 -0.34026791678E+04  0.34037845949E+04  0.00000000000E+00 0. -1.
<mgrwt>
<rscale>  0 0.86360882E+02</rscale>
<asrwt>0</asrwt>
<pdfrwt beam="1">  1        2 0.54366508E+00 0.86006325E+02</pdfrwt>
<pdfrwt beam="2">  1        2 0.58813246E+00 0.86716901E+02</pdfrwt>
<totfact> 0.14124604E-01</totfact>
</mgrwt>
</event>
<event>
13    1  0.1675423E-008  0.5665846E+02  0.7546771E-02  0.1414974E+00
         -3   -1    0    0    0  501 -0.00000000000E+00  0.00000000000E+00  0.13101397560E+04  0.13101397560E+04  0.00000000000E+00 0.  1.
          2   -1    0    0  503    0  0.00000000000E+00 -0.00000000000E+00 -0.98181757012E+03  0.98181757012E+03  0.00000000000E+00 0. -1.
         24    2    1    2    0    0  0.11090723780E+03 -0.80118822828E+02 -0.50439799330E+03  0.52871574180E+03  0.80022239466E+02 0.  0.
         25    2    1    2    0    0  0.64085718994E+02  0.20251614140E+02  0.63077207939E+03  0.64653886321E+03  0.12498791241E+03 0.  0.
         24    2    1    2    0    0 -0.11317291441E+03  0.77870923331E+02  0.26245635179E+03  0.30614540604E+03  0.77263728802E+02 0.  0.
        -11    1    5    5    0    0 -0.34551365066E+01 -0.72455378605E+01 -0.12386143955E+01  0.81221889160E+01  0.00000000000E+00 0.  1.
         12    1    5    5    0    0 -0.10971777791E+03  0.85116461192E+02  0.26369496618E+03  0.29802321712E+03  0.00000000000E+00 0. -1.
        -13    1    3    3    0    0  0.78573127875E+02 -0.17129797703E+02 -0.18774243513E+03  0.20424100553E+03  0.00000000000E+00 0.  1.
         14    1    3    3    0    0  0.32334109923E+02 -0.62989025125E+02 -0.31665555818E+03  0.32447473627E+03  0.00000000000E+00 0. -1.
          5    1    4    4  502    0  0.12426398261E+02 -0.51560570146E+02  0.22637723950E+03  0.23255462225E+03  0.47000000000E+01 0.  1.
         -5    1    4    4    0  502  0.51659320733E+02  0.71812184286E+02  0.40439483989E+03  0.41398424096E+03  0.47000000000E+01 0.  1.
          1    1    1    2  503    0 -0.19022904892E+02 -0.53409355047E+02 -0.43161201952E+03  0.43531984277E+03  0.00000000000E+00 0. -1.
         -4    1    1    2    0  501 -0.42797137487E+02  0.35405640403E+02  0.37110376750E+03  0.37523747228E+03  0.00000000000E+00 0.  1.
<mgrwt>
<rscale>  0 0.56098545E+02</rscale>
<asrwt>0</asrwt>
<pdfrwt beam="2">  1        2 0.14438494E+00 0.56658457E+02</pdfrwt>
<pdfrwt beam="1">  1       -3 0.19266761E+00 0.55544166E+02</pdfrwt>
<totfact> 0.35221794E+00</totfact>
</mgrwt>
</event>
<event>
13    1  0.1675423E-008  0.6033766E+02  0.7546771E-02  0.1464733E+00
         -1   -1    0    0    0  501 -0.00000000000E+00  0.00000000000E+00  0.53530810256E+03  0.53530810256E+03  0.00000000000E+00 0.  1.
          2   -1    0    0  503    0  0.00000000000E+00 -0.00000000000E+00 -0.17439592920E+04  0.17439592920E+04  0.00000000000E+00 0. -1.
         24    2    1    2    0    0 -0.82592664566E+02 -0.36277661788E+02 -0.13869494817E+03  0.18405539861E+03  0.80637981897E+02 0.  0.
         25    2    1    2    0    0 -0.39757251939E+02  0.12546989851E+03 -0.19424192373E+03  0.26585357320E+03  0.12499945173E+03 0.  0.
         24    2    1    2    0    0  0.68424052992E+02 -0.21809232518E+02  0.28396893447E+03  0.30397050828E+03  0.81254049184E+02 0.  0.
        -11    1    3    3    0    0 -0.77619342854E+02  0.65029685257E+01 -0.87141767119E+02  0.11687916222E+03  0.00000000000E+00 0.  1.
         12    1    3    3    0    0 -0.49733217119E+01 -0.42780630313E+02 -0.51553181053E+02  0.67176236390E+02  0.00000000000E+00 0. -1.
        -13    1    5    5    0    0  0.15827349141E+02 -0.20106392226E+02  0.21840769831E+03  0.21990155677E+03  0.00000000000E+00 0.  1.
         14    1    5    5    0    0  0.52596703851E+02 -0.17028402922E+01  0.65561236165E+02  0.84068951513E+02  0.00000000000E+00 0. -1.
          5    1    4    4  502    0 -0.80652557623E+02  0.10345997033E+03 -0.11827626086E+03  0.17669228731E+03  0.47000000000E+01 0. -1.
         -5    1    4    4    0  502  0.40895305685E+02  0.22009928174E+02 -0.75965662871E+02  0.89161285886E+02  0.47000000000E+01 0. -1.
          1    1    1    2  503    0  0.19485151833E+02 -0.57062412923E+02 -0.13400836939E+04  0.13414395613E+04  0.00000000000E+00 0. -1.
         -2    1    1    2    0  501  0.34440711680E+02 -0.10320591280E+02  0.18040044183E+03  0.18394835318E+03  0.00000000000E+00 0.  1.
<mgrwt>
<rscale>  0 0.46576488E+02</rscale>
<asrwt>0</asrwt>
<pdfrwt beam="2">  1        2 0.25646460E+00 0.60337656E+02</pdfrwt>
<pdfrwt beam="1">  1       -1 0.78721781E-01 0.35953821E+02</pdfrwt>
<totfact> 0.26293763E+01</totfact>
</mgrwt>
</event>
<event>
13    1  0.1675423E-008  0.8367544E+02  0.7546771E-02  0.1404344E+00
          2   -1    0    0  502    0  0.00000000000E+00  0.00000000000E+00  0.18093188550E+04  0.18093188550E+04  0.00000000000E+00 0. -1.
          2   -1    0    0  503    0 -0.00000000000E+00 -0.00000000000E+00 -0.15432525078E+04  0.15432525078E+04  0.00000000000E+00 0. -1.
         24    2    1    2    0    0 -0.17905956842E+02 -0.22379589059E+02  0.68604995242E+02  0.10913226270E+03  0.79885769031E+02 0.  0.
         25    2    1    2    0    0 -0.23687422347E+02 -0.12607210025E+03 -0.79364584491E+03  0.81360606583E+03  0.12500333909E+03 0.  0.
         24    2    1    2    0    0 -0.16660838045E+02  0.15383096945E+02 -0.70239836347E+02  0.11033138736E+03  0.82007055988E+02 0.  0.
        -11    1    3    3    0    0 -0.43336745304E+02  0.90048686892E+01  0.39738139721E+02  0.59483450658E+02  0.00000000000E+00 0.  1.
         12    1    3    3    0    0  0.25430788461E+02 -0.31384457748E+02  0.28866855520E+02  0.49648812045E+02  0.00000000000E+00 0. -1.
        -13    1    5    5    0    0  0.29416438581E+02  0.18380053820E+02 -0.47620791931E+02  0.58914285715E+02  0.00000000000E+00 0.  1.
         14    1    5    5    0    0 -0.46077276625E+02 -0.29969568750E+01 -0.22619044416E+02  0.51417101649E+02  0.00000000000E+00 0. -1.
          5    1    4    4  501    0 -0.39185483960E+02 -0.13818809777E+03 -0.52854384390E+03  0.54773363731E+03  0.47000000000E+01 0.  1.
         -5    1    4    4    0  501  0.15498061613E+02  0.12115997520E+02 -0.26510200101E+03  0.26587242852E+03  0.47000000000E+01 0.  1.
          1    1    1    2  502    0  0.30650116984E+02  0.10293694439E+03  0.16880522329E+04  0.16914655732E+04  0.00000000000E+00 0. -1.
          1    1    1    2  503    0  0.27604100251E+02  0.30131647973E+02 -0.62670519974E+03  0.62803607375E+03  0.00000000000E+00 0. -1.
<mgrwt>
<rscale>  0 0.58475208E+02</rscale>
<asrwt>0</asrwt>
<pdfrwt beam="1">  1        2 0.26607630E+00 0.83675437E+02</pdfrwt>
<pdfrwt beam="2">  1        2 0.22694890E+00 0.40864441E+02</pdfrwt>
<totfact> 0.29453865E+01</totfact>
</mgrwt>
</event>
<event>
13    1  0.1675423E-008  0.5120031E+02  0.7546771E-02  0.1539449E+00
          2   -1    0    0  503    0  0.00000000000E+00  0.00000000000E+00  0.37134804221E+03  0.37134804221E+03  0.00000000000E+00 0. -1.
          2   -1    0    0  502    0 -0.00000000000E+00 -0.00000000000E+00 -0.25254931286E+04  0.25254931286E+04  0.00000000000E+00 0. -1.
         24    2    1    2    0    0 -0.22810105473E+02 -0.25744930788E+01  0.17770263173E+03  0.20043166955E+03  0.89820375786E+02 0.  0.
         25    2    1    2    0    0  0.15161296371E+03  0.67043166542E+02 -0.14283270919E+04  0.14433382624E+04  0.12500312517E+03 0.  0.
         24    2    1    2    0    0 -0.18848102268E+03 -0.44384691224E+02  0.48034263215E+02  0.21590926130E+03  0.82549512108E+02 0.  0.
        -11    1    3    3    0    0 -0.73473133482E+01  0.16178516717E+02 -0.30703042701E+01  0.18032032191E+02  0.00000000000E+00 0.  1.
         12    1    3    3    0    0 -0.15462792125E+02 -0.18753009796E+02  0.18077293600E+03  0.18239963736E+03  0.00000000000E+00 0. -1.
        -13    1    5    5    0    0 -0.11091848366E+02  0.52654996961E+01 -0.16639583943E+02  0.20679224865E+02  0.00000000000E+00 0.  1.
         14    1    5    5    0    0 -0.17738917431E+03 -0.49650190921E+02  0.64673847158E+02  0.19523003644E+03  0.00000000000E+00 0. -1.
          5    1    4    4  501    0  0.14208129094E+03  0.90984964167E+02 -0.13550274087E+04  0.13654987094E+04  0.47000000000E+01 0.  1.
         -5    1    4    4    0  501  0.95316727682E+01 -0.23941797625E+02 -0.73299683135E+02  0.77839552973E+02  0.47000000000E+01 0.  1.
          1    1    1    2  502    0  0.51046079147E+02  0.37894160995E+01 -0.98987408543E+03  0.99119663381E+03  0.00000000000E+00 0. -1.
          1    1    1    2  503    0  0.86320852923E+01 -0.23873398339E+02  0.38319195995E+02  0.45965343754E+02  0.00000000000E+00 0. -1.
<mgrwt>
<rscale>  0 0.36052379E+02</rscale>
<asrwt>0</asrwt>
<pdfrwt beam="1">  1        2 0.54610008E-01 0.25386060E+02</pdfrwt>
<pdfrwt beam="2">  1        2 0.37139604E+00 0.51200305E+02</pdfrwt>
<totfact> 0.78153497E+01</totfact>
</mgrwt>
</event>
<event>
13    1  0.1675423E-008  0.1609936E+03  0.7546771E-02  0.1249674E+00
          2   -1    0    0  503    0  0.00000000000E+00  0.00000000000E+00  0.54215816176E+04  0.54215816176E+04  0.00000000000E+00 0. -1.
          2   -1    0    0  502    0 -0.00000000000E+00 -0.00000000000E+00 -0.14900221017E+04  0.14900221017E+04  0.00000000000E+00 0. -1.
         24    2    1    2    0    0  0.67148508766E+03 -0.36543213435E+03  0.20628493888E+04  0.22026504901E+04  0.10903537461E+03 0.  0.
         25    2    1    2    0    0 -0.44217833156E+03  0.32480264286E+03 -0.61437443126E+03  0.83312613687E+03  0.12499913779E+03 0.  0.
         24    2    1    2    0    0 -0.22040856152E+02 -0.53891252942E+02  0.21622305604E+02  0.97152102745E+02  0.74705692451E+02 0.  0.
        -11    1    3    3    0    0  0.37317885007E+03 -0.26250530689E+03  0.11845459480E+04  0.12693780340E+04  0.00000000000E+00 0.  1.
         12    1    3    3    0    0  0.29830623759E+03 -0.10292682747E+03  0.87830344084E+03  0.93327245614E+03  0.00000000000E+00 0. -1.
        -11    1    5    5    0    0  0.26804801254E+02 -0.13226883605E+02 -0.38425411774E+00  0.29893067279E+02  0.00000000000E+00 0.  1.
         12    1    5    5    0    0 -0.48845657406E+02 -0.40664369338E+02  0.22006559721E+02  0.67259035466E+02  0.00000000000E+00 0. -1.
          5    1    4    4  501    0 -0.81398407820E+02  0.26409468708E+02 -0.15543953897E+03  0.17750127072E+03  0.47000000000E+01 0.  1.
         -5    1    4    4    0  501 -0.36077992374E+03  0.29839317415E+03 -0.45893489229E+03  0.65562486615E+03  0.47000000000E+01 0.  1.
          1    1    1    2  502    0 -0.83334529820E+02 -0.80701754570E+01 -0.65386136143E+03  0.65919985708E+03  0.00000000000E+00 0. -1.
          1    1    1    2  503    0 -0.12393137013E+03  0.10259091989E+03  0.31153236142E+04  0.31194751325E+04  0.00000000000E+00 0. -1.
<mgrwt>
<rscale>  0 0.11609949E+03</rscale>
<asrwt>0</asrwt>
<pdfrwt beam="1">  1        2 0.79729141E+00 0.16099364E+03</pdfrwt>
<pdfrwt beam="2">  1        2 0.21912090E+00 0.83724379E+02</pdfrwt>
<totfact> 0.88203975E-02</totfact>
</mgrwt>
</event>
<event>
13    1  0.1675423E-008  0.8817649E+02  0.7546771E-02  0.1427065E+00
          2   -1    0    0  502    0  0.00000000000E+00  0.00000000000E+00  0.62099297502E+03  0.62099297502E+03  0.00000000000E+00 0. -1.
          2   -1    0    0  503    0 -0.00000000000E+00 -0.00000000000E+00 -0.83194934900E+03  0.83194934900E+03  0.00000000000E+00 0. -1.
         24    2    1    2    0    0 -0.21366228184E+02 -0.74565482258E+02  0.24118121661E+02  0.11390858285E+03  0.79855836370E+02 0.  0.
         25    2    1    2    0    0  0.14773728663E+03  0.17495077317E+02  0.14309539694E+03  0.24131434501E+03  0.12499574749E+03 0.  0.
         24    2    1    2    0    0 -0.54687192362E+02  0.15826677579E+02 -0.97182478759E+01  0.10133875377E+03  0.83270198406E+02 0.  0.
        -11    1    3    3    0    0 -0.32146313876E+02 -0.11010256299E+02 -0.16440338751E+02  0.37747794344E+02  0.00000000000E+00 0.  1.
         12    1    3    3    0    0  0.10780085693E+02 -0.63555225958E+02  0.40558460412E+02  0.76160788501E+02  0.00000000000E+00 0. -1.
        -13    1    5    5    0    0 -0.59076543071E+02 -0.17718740337E+02 -0.21798456864E+02  0.65415322532E+02  0.00000000000E+00 0.  1.
         14    1    5    5    0    0  0.43893507092E+01  0.33545417916E+02  0.12080208988E+02  0.35923431239E+02  0.00000000000E+00 0. -1.
          5    1    4    4  501    0  0.68166368873E+02  0.30516771767E+02  0.14203321564E+03  0.16054112105E+03  0.47000000000E+01 0. -1.
         -5    1    4    4    0  501  0.79570917758E+02 -0.13021694450E+02  0.10621813009E+01  0.80773223956E+02  0.47000000000E+01 0. -1.
          1    1    1    2  502    0  0.15672738577E+02  0.28500664713E+02  0.31025567125E+03  0.31195593305E+03  0.00000000000E+00 0. -1.
          1    1    1    2  503    0 -0.87356604661E+02  0.12743062649E+02 -0.67870731596E+03  0.68442470934E+03  0.00000000000E+00 0. -1.
<mgrwt>
<rscale>  0 0.53553748E+02</rscale>
<asrwt>0</asrwt>
<pdfrwt beam="1">  1        2 0.91322497E-01 0.32525722E+02</pdfrwt>
<pdfrwt beam="2">  1        2 0.12234549E+00 0.88176486E+02</pdfrwt>
<totfact> 0.31033459E+02</totfact>
</mgrwt>
</event>
<event>
13    1  0.1675423E-008  0.1159840E+03  0.7546771E-02  0.1265054E+00
          2   -1    0    0  502    0  0.00000000000E+00  0.00000000000E+00  0.23090756446E+04  0.23090756446E+04  0.00000000000E+00 0. -1.
          2   -1    0    0  503    0 -0.00000000000E+00 -0.00000000000E+00 -0.35774602677E+04  0.35774602677E+04  0.00000000000E+00 0. -1.
         24    2    1    2    0    0  0.78826798621E+02 -0.43034066782E+02  0.47578657878E+03  0.49060866988E+03  0.79110070978E+02 0.  0.
         25    2    1    2    0    0  0.19069134686E+03  0.22544691440E+00 -0.10754197185E+04  0.10993259791E+04  0.12500718719E+03 0.  0.
         24    2    1    2    0    0 -0.18652606888E+02 -0.84832270321E+02  0.44023089676E+02  0.13066840254E+03  0.87130736063E+02 0.  0.
        -11    1    3    3    0    0 -0.13975074204E+02 -0.42472913973E+01  0.11975110824E+03  0.12063859295E+03  0.00000000000E+00 0.  1.
         12    1    3    3    0    0  0.92801872825E+02 -0.38786775384E+02  0.35603547054E+03  0.36997007693E+03  0.00000000000E+00 0. -1.
        -13    1    5    5    0    0 -0.38150126525E+02 -0.48791360595E+02  0.60427047938E+02  0.86530093869E+02  0.00000000000E+00 0.  1.
         14    1    5    5    0    0  0.19497519637E+02 -0.36040909726E+02 -0.16403958262E+02  0.44138308673E+02  0.00000000000E+00 0. -1.
          5    1    4    4  501    0  0.93843968633E+02  0.46399958734E+01 -0.23213109267E+03  0.25046986684E+03  0.47000000000E+01 0. -1.
         -5    1    4    4    0  501  0.96847378228E+02 -0.44145489590E+01 -0.84328862581E+03  0.84885611227E+03  0.47000000000E+01 0. -1.
          1    1    1    2  502    0 -0.15396850099E+03  0.63897274332E+02  0.17211712392E+04  0.17292251431E+04  0.00000000000E+00 0. -1.
          1    1    1    2  503    0 -0.96897037605E+02  0.63743615856E+02 -0.24339458123E+04  0.24367077177E+04  0.00000000000E+00 0. -1.
<mgrwt>
<rscale>  0 0.10761363E+03</rscale>
<asrwt>0</asrwt>
<pdfrwt beam="1">  1        2 0.33956995E+00 0.99847357E+02</pdfrwt>
<pdfrwt beam="2">  1        2 0.52609710E+00 0.11598398E+03</pdfrwt>
<totfact> 0.13458200E+00</totfact>
</mgrwt>
</event>
<event>
13    1  0.1675423E-008  0.1320952E+03  0.7546771E-02  0.1335676E+00
          2   -1    0    0  502    0  0.00000000000E+00  0.00000000000E+00  0.21075342279E+03  0.21075342279E+03  0.00000000000E+00 0. -1.
          2   -1    0    0  503    0 -0.00000000000E+00 -0.00000000000E+00 -0.33993259881E+04  0.33993259881E+04  0.00000000000E+00 0. -1.
         24    2    1    2    0    0  0.56656204895E+02  0.13322103522E+02 -0.71619074321E+02  0.12151308574E+03  0.79048935497E+02 0.  0.
         25    2    1    2    0    0 -0.12916843071E+03  0.54354046466E+02 -0.19280771330E+04  0.19372005412E+04  0.12500264046E+03 0.  0.
         24    2    1    2    0    0 -0.42436711942E+01 -0.12904654313E+02 -0.50244419518E+03  0.50885612542E+03  0.79371583454E+02 0.  0.
        -13    1    5    5    0    0  0.73022192059E+01  0.17603467582E+02 -0.41640560813E+03  0.41684149860E+03  0.00000000000E+00 0.  1.
         14    1    5    5    0    0 -0.11545890400E+02 -0.30508121895E+02 -0.86038587049E+02  0.92014626816E+02  0.00000000000E+00 0. -1.
        -13    1    3    3    0    0  0.45494358104E+02  0.41453813847E+02 -0.26105691644E+02  0.66855534087E+02  0.00000000000E+00 0.  1.
         14    1    3    3    0    0  0.11161846791E+02 -0.28131710326E+02 -0.45513382678E+02  0.54657551650E+02  0.00000000000E+00 0. -1.
          5    1    4    4  501    0 -0.13444951920E+03  0.27591543371E+02 -0.18340284635E+04  0.18391629785E+04  0.47000000000E+01 0. -1.
         -5    1    4    4    0  501  0.52810884905E+01  0.26762503096E+02 -0.94048669545E+02  0.98037562754E+02  0.47000000000E+01 0. -1.
          1    1    1    2  502    0  0.11916381597E+03 -0.71847495177E+02  0.15013097339E+03  0.20469828229E+03  0.00000000000E+00 0. -1.
          1    1    1    2  503    0 -0.42407918959E+02  0.17075999502E+02 -0.83656313619E+03  0.83781137625E+03  0.00000000000E+00 0. -1.
<mgrwt>
<rscale>  0 0.77710776E+02</rscale>
<asrwt>0</asrwt>
<pdfrwt beam="1">  1        2 0.30993155E-01 0.13209523E+03</pdfrwt>
<pdfrwt beam="2">  1        2 0.49990081E+00 0.45716751E+02</pdfrwt>
<totfact> 0.51937478E+01</totfact>
</mgrwt>
</event>
<event>
13    1  0.1675423E-008  0.1153166E+03  0.7546771E-02  0.1325923E+00
          2   -1    0    0  502    0  0.00000000000E+00  0.00000000000E+00  0.22571573802E+04  0.22571573802E+04  0.00000000000E+00 0. -1.
          2   -1    0    0  503    0 -0.00000000000E+00 -0.00000000000E+00 -0.15929507815E+03  0.15929507815E+03  0.00000000000E+00 0. -1.
         24    2    1    2    0    0 -0.70650100084E+02  0.38112070487E+02  0.27387303949E+03  0.29686171167E+03  0.81709653896E+02 0.  0.
         25    2    1    2    0    0  0.42621820462E+02 -0.11592652804E+03  0.13625354132E+03  0.22236494045E+03  0.12500223892E+03 0.  0.
         24    2    1    2    0    0 -0.78726506587E+02 -0.38092048608E+02  0.10456965019E+04  0.10522682626E+04  0.78348295763E+02 0.  0.
        -11    1    5    5    0    0 -0.36623968573E+02 -0.55048176366E+02  0.77276667389E+03  0.77559006509E+03  0.00000000000E+00 0.  1.
         12    1    5    5    0    0 -0.42102538014E+02  0.16956127757E+02  0.27292982799E+03  0.27667819752E+03  0.00000000000E+00 0. -1.
        -13    1    3    3    0    0 -0.79096326580E+02  0.20715641298E+02  0.26130379914E+03  0.27379744725E+03  0.00000000000E+00 0.  1.
         14    1    3    3    0    0  0.84462264967E+01  0.17396429189E+02  0.12569240344E+02  0.23064264424E+02  0.00000000000E+00 0. -1.
          5    1    4    4  501    0 -0.42861889299E+02 -0.36523015327E+02  0.62490709080E+02  0.84251118237E+02  0.47000000000E+01 0. -1.
         -5    1    4    4    0  501  0.85483709761E+02 -0.79403512713E+02  0.73762832236E+02  0.13811382221E+03  0.47000000000E+01 0. -1.
          1    1    1    2  502    0  0.95184433650E+02  0.60038231295E+02  0.73081499851E+03  0.73942898758E+03  0.00000000000E+00 0. -1.
          1    1    1    2  503    0  0.11570352558E+02  0.55868274866E+02 -0.88775779096E+02  0.10552855608E+03  0.00000000000E+00 0. -1.
<mgrwt>
<rscale>  0 0.81112574E+02</rscale>
<asrwt>0</asrwt>
<pdfrwt beam="1">  1        2 0.33193489E+00 0.11531657E+03</pdfrwt>
<pdfrwt beam="2">  1        2 0.23425748E-01 0.57053810E+02</pdfrwt>
<totfact> 0.23115506E+02</totfact>
</mgrwt>
</event>
<event>
13    1  0.1675423E-008  0.6918109E+02  0.7546771E-02  0.1526558E+00
          2   -1    0    0  503    0  0.00000000000E+00  0.00000000000E+00  0.11563367922E+04  0.11563367922E+04  0.00000000000E+00 0. -1.
         -3   -1    0    0    0  501 -0.00000000000E+00 -0.00000000000E+00 -0.14391401320E+04  0.14391401320E+04  0.00000000000E+00 0.  1.
         24    2    1    2    0    0 -0.53529311615E+03 -0.16004701167E+03  0.22620901413E+03  0.60782104011E+03  0.78244057797E+02 0.  0.
         25    2    1    2    0    0  0.29741531037E+03  0.24365280602E+03 -0.10583798215E+04  0.11329679769E+04  0.12500413319E+03 0.  0.
         24    2    1    2    0    0  0.17812045431E+03 -0.62093786080E+02  0.12307655443E+03  0.23843819631E+03  0.78245771092E+02 0.  0.
        -11    1    5    5    0    0  0.94177854259E+01  0.15068901485E+02  0.47197919878E+01  0.18385943291E+02  0.00000000000E+00 0.  1.
         12    1    5    5    0    0  0.16870266889E+03 -0.77162687565E+02  0.11835676244E+03  0.22005225302E+03  0.00000000000E+00 0. -1.
        -11    1    3    3    0    0 -0.18783188871E+03 -0.52439847078E+02  0.39564893617E+02  0.19898778049E+03  0.00000000000E+00 0.  1.
         12    1    3    3    0    0 -0.34746122744E+03 -0.10760716459E+03  0.18664412051E+03  0.40883325961E+03  0.00000000000E+00 0. -1.
          5    1    4    4  502    0  0.28019683239E+03  0.25481180993E+03 -0.95306736784E+03  0.10255724358E+04  0.47000000000E+01 0. -1.
         -5    1    4    4    0  502  0.17218477979E+02 -0.11159003904E+02 -0.10531245365E+03  0.10739554109E+03  0.47000000000E+01 0. -1.
          1    1    1    2  503    0  0.55379529642E+02 -0.41486542219E+02  0.51784105051E+03  0.52244366116E+03  0.00000000000E+00 0. -1.
         -4    1    1    2    0  501  0.43778218244E+01  0.19974533942E+02 -0.91550137396E+02  0.93806049844E+02  0.00000000000E+00 0.  1.
<mgrwt>
<rscale>  0 0.37611965E+02</rscale>
<asrwt>0</asrwt>
<pdfrwt beam="1">  1        2 0.17004953E+00 0.69181087E+02</pdfrwt>
<pdfrwt beam="2">  1       -3 0.21163825E+00 0.20448651E+02</pdfrwt>
<totfact> 0.22167209E+00</totfact>
</mgrwt>
</event>
<event>
13    1  0.1675423E-008  0.9149715E+02  0.7546771E-02  0.1439379E+00
         -1   -1    0    0    0  501 -0.00000000000E+00  0.00000000000E+00  0.49432362971E+03  0.49432362971E+03  0.00000000000E+00 0.  1.
          2   -1    0    0  503    0  0.00000000000E+00 -0.00000000000E+00 -0.13584751488E+04  0.13584751488E+04  0.00000000000E+00 0. -1.
         24    2    1    2    0    0 -0.97922665227E+02  0.76167973913E+02 -0.65134885854E+03  0.66785996994E+03  0.79944951767E+02 0.  0.
         25    2    1    2    0    0  0.17615360377E+03 -0.72495201558E+02 -0.30016395951E+03  0.37684052759E+03  0.12499893711E+03 0.  0.
         24    2    1    2    0    0  0.34627658437E+02  0.29155041005E+02 -0.94562816498E+02  0.13205426133E+03  0.80293900934E+02 0.  0.
        -11    1    5    5    0    0 -0.17699244533E+02 -0.13487383836E+02 -0.11583826631E+02  0.25087004986E+02  0.00000000000E+00 0.  1.
         12    1    5    5    0    0  0.52326902970E+02  0.42642424840E+02 -0.82978989868E+02  0.10696725635E+03  0.00000000000E+00 0. -1.
        -11    1    3    3    0    0 -0.39583697460E+02  0.78793811204E+02 -0.42913758279E+03  0.43810318276E+03  0.00000000000E+00 0.  1.
         12    1    3    3    0    0 -0.58338967768E+02 -0.26258372907E+01 -0.22221127575E+03  0.22975678718E+03  0.00000000000E+00 0. -1.
          5    1    4    4  502    0  0.54003539160E+02 -0.86818023323E+02 -0.10935331902E+03  0.14977980437E+03  0.47000000000E+01 0.  1.
         -5    1    4    4    0  502  0.12215006461E+03  0.14322821766E+02 -0.19081064049E+03  0.22706072322E+03  0.47000000000E+01 0.  1.
          1    1    1    2  503    0 -0.28437683937E+02  0.26821525460E+01 -0.24131982709E+03  0.24300443361E+03  0.00000000000E+00 0. -1.
         -2    1    1    2    0  501 -0.84420913042E+02 -0.35509965906E+02  0.42324394251E+03  0.43303958608E+03  0.00000000000E+00 0.  1.
<mgrwt>
<rscale>  0 0.51122544E+02</rscale>
<asrwt>0</asrwt>
<pdfrwt beam="2">  1        2 0.19977575E+00 0.28563890E+02</pdfrwt>
<pdfrwt beam="1">  1       -1 0.72694653E-01 0.91497151E+02</pdfrwt>
<totfact> 0.48695594E+01</totfact>
</mgrwt>
</event>
<event>
13    1  0.1675423E-008  0.1388120E+03  0.7546771E-02  0.1310336E+00
          2   -1    0    0  503    0  0.00000000000E+00  0.00000000000E+00  0.21211486925E+04  0.21211486925E+04  0.00000000000E+00 0. -1.
         -1   -1    0    0    0  501 -0.00000000000E+00 -0.00000000000E+00 -0.27543179443E+03  0.27543179443E+03  0.00000000000E+00 0.  1.
         24    2    1    2    0    0 -0.82259082044E+02  0.19007497225E+01  0.34938128889E+03  0.36790742236E+03  0.80736713901E+02 0.  0.
         25    2    1    2    0    0  0.12172364828E+03 -0.99728939391E+02  0.36046678359E+02  0.20417400770E+03  0.12500061799E+03 0.  0.
         24    2    1    2    0    0 -0.73964598172E+02 -0.67396545545E+01  0.11878464033E+03  0.16243297191E+03  0.82210065450E+02 0.  0.
        -11    1    5    5    0    0  0.11980861605E+02  0.12597614962E+02  0.42432919590E+02  0.45856227630E+02  0.00000000000E+00 0.  1.
         12    1    5    5    0    0 -0.85945459776E+02 -0.19337269517E+02  0.76351720737E+02  0.11657674428E+03  0.00000000000E+00 0. -1.
        -11    1    3    3    0    0  0.15456983750E+02  0.79328755093E+01  0.52378413767E+02  0.55184663533E+02  0.00000000000E+00 0.  1.
         12    1    3    3    0    0 -0.97716065794E+02 -0.60321257868E+01  0.29700287513E+03  0.31272275883E+03  0.00000000000E+00 0. -1.
          5    1    4    4  502    0  0.13067579633E+03 -0.11993705700E+03  0.38116956403E+02  0.18148292965E+03  0.47000000000E+01 0. -1.
         -5    1    4    4    0  502 -0.89521480485E+01  0.20208117610E+02 -0.20702780437E+01  0.22691078053E+02  0.47000000000E+01 0. -1.
          1    1    1    2  503    0  0.28138113520E+02  0.15869620932E+03  0.14926852805E+04  0.15013612447E+04  0.00000000000E+00 0. -1.
         -2    1    1    2    0  501  0.63619184165E+01 -0.54128365099E+02 -0.15118099009E+03  0.16070484024E+03  0.00000000000E+00 0.  1.
<mgrwt>
<rscale>  0 0.86979224E+02</rscale>
<asrwt>0</asrwt>
<pdfrwt beam="1">  1        2 0.31193362E+00 0.13881198E+03</pdfrwt>
<pdfrwt beam="2">  1       -1 0.40504677E-01 0.54500953E+02</pdfrwt>
<totfact> 0.53331943E+01</totfact>
</mgrwt>
</event>
<event>
13    1  0.1675423E-008  0.1364129E+03  0.7546771E-02  0.1284169E+00
          2   -1    0    0  502    0  0.00000000000E+00  0.00000000000E+00  0.11419176068E+04  0.11419176068E+04  0.00000000000E+00 0. -1.
          2   -1    0    0  503    0 -0.00000000000E+00 -0.00000000000E+00 -0.44853913165E+04  0.44853913165E+04  0.00000000000E+00 0. -1.
         24    2    1    2    0    0 -0.17987949491E+03  0.10592872073E+03  0.36242665994E+03  0.42942262405E+03  0.97330260696E+02 0.  0.
         25    2    1    2    0    0 -0.29124541836E+03  0.11111354270E+02  0.16273268625E+03  0.35642107614E+03  0.12492678030E+03 0.  0.
         24    2    1    2    0    0  0.54410791182E+03 -0.16380308828E+03 -0.78619557985E+03  0.97503257913E+03  0.98489436749E+02 0.  0.
        -13    1    3    3    0    0 -0.13616924987E+03  0.11217864081E+03  0.23028331825E+03  0.29009742972E+03  0.00000000000E+00 0.  1.
         14    1    3    3    0    0 -0.43710245039E+02 -0.62499200884E+01  0.13214334169E+03  0.13932519433E+03  0.00000000000E+00 0. -1.
        -13    1    5    5    0    0  0.11535014502E+03  0.58268536034E+01 -0.16522352254E+03  0.20158973332E+03  0.00000000000E+00 0.  1.
         14    1    5    5    0    0  0.42875776681E+03 -0.16962994188E+03 -0.62097205731E+03  0.77344284581E+03  0.00000000000E+00 0. -1.
          5    1    4    4  501    0 -0.58876579002E+02  0.53661673138E+02  0.28904948621E+02  0.84874099546E+02  0.47000000000E+01 0. -1.
         -5    1    4    4    0  501 -0.23236883936E+03 -0.42550318868E+02  0.13382773763E+03  0.27154697660E+03  0.47000000000E+01 0. -1.
          1    1    1    2  502    0  0.62781165241E+02  0.32432474928E+02  0.38745983084E+03  0.39385081014E+03  0.00000000000E+00 0. -1.
          1    1    1    2  503    0 -0.13576416379E+03  0.14330538353E+02 -0.34698973068E+04  0.34725818338E+04  0.00000000000E+00 0. -1.
<mgrwt>
<rscale>  0 0.98180578E+02</rscale>
<asrwt>0</asrwt>
<pdfrwt beam="1">  1        2 0.16792906E+00 0.70663570E+02</pdfrwt>
<pdfrwt beam="2">  1        2 0.65961636E+00 0.13641295E+03</pdfrwt>
<totfact> 0.11892230E+00</totfact>
</mgrwt>
</event>
<event>
13    1  0.1675423E-008  0.7205143E+02  0.7546771E-02  0.1462669E+00
          2   -1    0    0  503    0  0.00000000000E+00  0.00000000000E+00  0.23372127866E+04  0.23372127866E+04  0.00000000000E+00 0. -1.
          2   -1    0    0  502    0 -0.00000000000E+00 -0.00000000000E+00 -0.17475065627E+04  0.17475065627E+04  0.00000000000E+00 0. -1.
         24    2    1    2    0    0  0.71098040323E+03  0.29920600187E+03  0.40074448302E+03  0.87303779101E+03  0.81126312100E+02 0.  0.
         25    2    1    2    0    0 -0.39526154662E+03 -0.39026984359E+03  0.18549885521E+03  0.59881396429E+03  0.12500438987E+03 0.  0.
         24    2    1    2    0    0 -0.22807043303E+03  0.54890635685E+02 -0.36416555819E+03  0.44581579390E+03  0.10538531211E+03 0.  0.
        -11    1    3    3    0    0  0.65255664203E+03  0.29140988833E+03  0.38613914695E+03  0.81231356931E+03  0.00000000000E+00 0.  1.
         12    1    3    3    0    0  0.58423761203E+02  0.77961135469E+01  0.14605336079E+02  0.60724221703E+02  0.00000000000E+00 0. -1.
        -13    1    5    5    0    0 -0.18130185268E+03  0.82993859867E+02 -0.31236041730E+03  0.37057708085E+03  0.00000000000E+00 0.  1.
         14    1    5    5    0    0 -0.46768580351E+02 -0.28103224183E+02 -0.51805140896E+02  0.75238713046E+02  0.00000000000E+00 0. -1.
          5    1    4    4  501    0 -0.39236947768E+03 -0.36457008019E+03  0.15305343753E+03  0.55705708426E+03  0.47000000000E+01 0. -1.
         -5    1    4    4    0  501 -0.28920689464E+01 -0.25699763399E+02  0.32445417674E+02  0.41756880027E+02  0.47000000000E+01 0. -1.
          1    1    1    2  502    0 -0.16370955774E+02  0.25806438300E+02 -0.89842825765E+03  0.89894789315E+03  0.00000000000E+00 0. -1.
          1    1    1    2  503    0 -0.71277467808E+02  0.10366767735E+02  0.12660567015E+04  0.12681039069E+04  0.00000000000E+00 0. -1.
<mgrwt>
<rscale>  0 0.46925158E+02</rscale>
<asrwt>0</asrwt>
<pdfrwt beam="1">  1        2 0.34370776E+00 0.72051427E+02</pdfrwt>
<pdfrwt beam="2">  1        2 0.25698626E+00 0.30561094E+02</pdfrwt>
<totfact> 0.13871018E+01</totfact>
</mgrwt>
</event>
<event>
13    1  0.1675423E-008  0.2468165E+03  0.7546771E-02  0.1199767E+00
          2   -1    0    0  503    0  0.00000000000E+00  0.00000000000E+00  0.25077271543E+04  0.25077271543E+04  0.00000000000E+00 0. -1.
          2   -1    0    0  502    0 -0.00000000000E+00 -0.00000000000E+00 -0.19362947247E+04  0.19362947247E+04  0.00000000000E+00 0. -1.
         24    2    1    2    0    0 -0.20811587731E+02  0.16357398723E+03  0.23116019180E+03  0.29485125126E+03  0.79452215897E+02 0.  0.
         25    2    1    2    0    0  0.14054601319E+03  0.20311200543E+03  0.59020510336E+02  0.28305180359E+03  0.12500893689E+03 0.  0.
         24    2    1    2    0    0  0.26759378798E+02 -0.61167340819E+02  0.91031090430E+02  0.14138121703E+03  0.85114517958E+02 0.  0.
        -13    1    3    3    0    0 -0.41638914596E+02  0.40739076470E+02  0.80070111164E+02  0.99018656132E+02  0.00000000000E+00 0.  1.
         14    1    3    3    0    0  0.20827326865E+02  0.12283491076E+03  0.15109008064E+03  0.19583259512E+03  0.00000000000E+00 0. -1.
        -13    1    5    5    0    0  0.48559731790E+01 -0.70174043233E+02  0.31042635697E+02  0.76887073362E+02  0.00000000000E+00 0.  1.
         14    1    5    5    0    0  0.21903405619E+02  0.90067024145E+01  0.59988454733E+02  0.64494143667E+02  0.00000000000E+00 0. -1.
          5    1    4    4  501    0  0.37615028569E+02  0.18797019668E+02 -0.32059122264E+02  0.53085738603E+02  0.47000000000E+01 0. -1.
         -5    1    4    4    0  501  0.10293098462E+03  0.18431498576E+03  0.91079632600E+02  0.22996606499E+03  0.47000000000E+01 0. -1.
          1    1    1    2  502    0 -0.42577131842E+02 -0.81399109119E+02 -0.17582604314E+04  0.17606585052E+04  0.00000000000E+00 0. -1.
          1    1    1    2  503    0 -0.10391667241E+03 -0.22411954272E+03  0.19484810686E+04  0.19640791020E+04  0.00000000000E+00 0. -1.
<mgrwt>
<rscale>  0 0.15057576E+03</rscale>
<asrwt>0</asrwt>
<pdfrwt beam="1">  1        2 0.36878341E+00 0.24681653E+03</pdfrwt>
<pdfrwt beam="2">  1        2 0.28474922E+00 0.91862000E+02</pdfrwt>
<totfact> 0.71601772E+00</totfact>
</mgrwt>
</event>
<event>
13    1  0.1675423E-008  0.2137879E+03  0.7546771E-02  0.1331999E+00
          2   -1    0    0  502    0  0.00000000000E+00  0.00000000000E+00  0.99936819578E+03  0.99936819578E+03  0.00000000000E+00 0. -1.
          2   -1    0    0  503    0 -0.00000000000E+00 -0.00000000000E+00 -0.49693283368E+03  0.49693283368E+03  0.00000000000E+00 0. -1.
         24    2    1    2    0    0 -0.21368125865E+03  0.14574973903E+03  0.48373898510E+03  0.55434656896E+03  0.79962779367E+02 0.  0.
         25    2    1    2    0    0  0.20134893357E+02  0.77881127534E+02 -0.23080790295E+03  0.27450257531E+03  0.12493394987E+03 0.  0.
         24    2    1    2    0    0  0.68417480480E+02 -0.44221491191E+02  0.77985258979E+00  0.11472876027E+03  0.80781113789E+02 0.  0.
        -13    1    5    5    0    0 -0.10565092069E+02  0.10306517431E+02  0.10715297178E+02  0.18239053308E+02  0.00000000000E+00 0.  1.
         14    1    5    5    0    0  0.78982572549E+02 -0.54528008622E+02 -0.99354445879E+01  0.96489706963E+02  0.00000000000E+00 0. -1.
        -13    1    3    3    0    0 -0.12410413566E+01  0.25358461023E+02  0.62355772846E+02  0.67326325730E+02  0.00000000000E+00 0.  1.
         14    1    3    3    0    0 -0.21244021730E+03  0.12039127801E+03  0.42138321225E+03  0.48702024323E+03  0.00000000000E+00 0. -1.
          5    1    4    4  501    0 -0.49727240293E+02  0.43490273923E+02 -0.13939419628E+03  0.15432768485E+03  0.47000000000E+01 0.  1.
         -5    1    4    4    0  501  0.69862133650E+02  0.34390853611E+02 -0.91413706664E+02  0.12017489046E+03  0.47000000000E+01 0.  1.
          1    1    1    2  502    0  0.10020015579E+03 -0.16426060051E+03  0.37587991934E+03  0.42226452594E+03  0.00000000000E+00 0. -1.
          1    1    1    2  503    0  0.24928729032E+02 -0.15148774863E+02 -0.12715549197E+03  0.13045859899E+03  0.00000000000E+00 0. -1.
<mgrwt>
<rscale>  0 0.78970455E+02</rscale>
<asrwt>0</asrwt>
<pdfrwt beam="1">  1        2 0.14696591E+00 0.21378792E+03</pdfrwt>
<pdfrwt beam="2">  1        2 0.73078358E-01 0.29170652E+02</pdfrwt>
<totfact> 0.29792449E+02</totfact>
</mgrwt>
</event>
<event>
13    1  0.1675423E-008  0.1207474E+03  0.7546771E-02  0.1272653E+00
          2   -1    0    0  502    0  0.00000000000E+00  0.00000000000E+00  0.38855569732E+04  0.38855569732E+04  0.00000000000E+00 0. -1.
          2   -1    0    0  503    0 -0.00000000000E+00 -0.00000000000E+00 -0.21537167194E+04  0.21537167194E+04  0.00000000000E+00 0. -1.
         24    2    1    2    0    0 -0.28289519962E+03 -0.12218809198E+03  0.87352551175E+02  0.33483326879E+03  0.97587017084E+02 0.  0.
         25    2    1    2    0    0  0.28560141633E+03 -0.93827137209E+02 -0.17576995262E+03  0.36998727723E+03  0.12499523342E+03 0.  0.
         24    2    1    2    0    0  0.19422856841E+02  0.41675275418E+03  0.41432993993E+03  0.59360541650E+03  0.81473835601E+02 0.  0.
        -13    1    3    3    0    0 -0.20071460104E+03 -0.92735283854E+02  0.15283826981E+02  0.22162982496E+03  0.00000000000E+00 0.  1.
         14    1    3    3    0    0 -0.82180598573E+02 -0.29452808127E+02  0.72068724194E+02  0.11320344383E+03  0.00000000000E+00 0. -1.
        -13    1    5    5    0    0 -0.20848981102E+02  0.22716046767E+03  0.18781412560E+03  0.29548384704E+03  0.00000000000E+00 0.  1.
         14    1    5    5    0    0  0.40271837944E+02  0.18959228651E+03  0.22651581433E+03  0.29812156946E+03  0.00000000000E+00 0. -1.
          5    1    4    4  501    0  0.27218255760E+03 -0.65218532456E+02 -0.11760787476E+03  0.30362889164E+03  0.47000000000E+01 0. -1.
         -5    1    4    4    0  501  0.13418858735E+02 -0.28608604753E+02 -0.58162077868E+02  0.66358385586E+02  0.47000000000E+01 0. -1.
          1    1    1    2  502    0 -0.40511727013E+02 -0.11355291884E+03  0.30710137592E+04  0.30733794062E+04  0.00000000000E+00 0. -1.
          1    1    1    2  503    0  0.18382653458E+02 -0.87184606156E+02 -0.16650860439E+04  0.16674683238E+04  0.00000000000E+00 0. -1.
<mgrwt>
<rscale>  0 0.10372453E+03</rscale>
<asrwt>0</asrwt>
<pdfrwt beam="1">  1        2 0.57140543E+00 0.12074744E+03</pdfrwt>
<pdfrwt beam="2">  1        2 0.31672305E+00 0.89101501E+02</pdfrwt>
<totfact> 0.10317767E+00</totfact>
</mgrwt>
</event>
<event>
13    1  0.1675423E-008  0.3713674E+03  0.7546771E-02  0.1165502E+00
          2   -1    0    0  502    0  0.00000000000E+00  0.00000000000E+00  0.22118581557E+04  0.22118581557E+04  0.00000000000E+00 0. -1.
          2   -1    0    0  503    0 -0.00000000000E+00 -0.00000000000E+00 -0.26449201760E+04  0.26449201760E+04  0.00000000000E+00 0. -1.
         24    2    1    2    0    0  0.28661220622E+03  0.27212161125E+01  0.12964616311E+04  0.13322483615E+04  0.10917405395E+03 0.  0.
         25    2    1    2    0    0  0.21433321283E+03  0.41197771906E+02 -0.84418375403E+03  0.88085509119E+03  0.12499399421E+03 0.  0.
         24    2    1    2    0    0 -0.50376993884E+02  0.40324548638E+03 -0.83290791949E+02  0.42263137003E+03  0.80840306192E+02 0.  0.
        -11    1    3    3    0    0  0.82251015322E+02  0.16810880106E+02  0.20148138834E+03  0.21827181463E+03  0.00000000000E+00 0.  1.
         12    1    3    3    0    0  0.20436119089E+03 -0.14089663994E+02  0.10949802427E+04  0.11139765468E+04  0.00000000000E+00 0. -1.
        -11    1    5    5    0    0 -0.27029809652E+02  0.30495772199E+02 -0.11140927985E+02  0.42245982154E+02  0.00000000000E+00 0.  1.
         12    1    5    5    0    0 -0.23347184232E+02  0.37274971419E+03 -0.72149863964E+02  0.38038538787E+03  0.00000000000E+00 0. -1.
          5    1    4    4  501    0  0.96263022591E+02  0.73627835571E+02 -0.31193259711E+03  0.33468143484E+03  0.47000000000E+01 0. -1.
         -5    1    4    4    0  501  0.11807019024E+03 -0.32430063664E+02 -0.53225115691E+03  0.54617365635E+03  0.47000000000E+01 0. -1.
          1    1    1    2  502    0 -0.50860935723E+03 -0.37892315958E+03  0.56599543261E+03  0.85006886125E+03  0.00000000000E+00 0. -1.
          1    1    1    2  503    0  0.58040932067E+02 -0.68241314818E+02 -0.13680445380E+04  0.13709746478E+04  0.00000000000E+00 0. -1.
<mgrwt>
<rscale>  0 0.18239867E+03</rscale>
<asrwt>0</asrwt>
<pdfrwt beam="1">  1        2 0.32527326E+00 0.37136745E+03</pdfrwt>
<pdfrwt beam="2">  1        2 0.38895885E+00 0.89585863E+02</pdfrwt>
<totfact> 0.43984637E+00</totfact>
</mgrwt>
</event>
<event>
13    1  0.1675423E-008  0.2995991E+03  0.7546771E-02  0.1270236E+00
         -1   -1    0    0    0  501 -0.00000000000E+00  0.00000000000E+00  0.98823728112E+03  0.98823728112E+03  0.00000000000E+00 0.  1.
          2   -1    0    0  503    0  0.00000000000E+00 -0.00000000000E+00 -0.48844538562E+03  0.48844538562E+03  0.00000000000E+00 0. -1.
         24    2    1    2    0    0  0.19041677220E+02  0.55802854949E+01  0.23692035822E+03  0.24914475961E+03  0.74485770736E+02 0.  0.
         25    2    1    2    0    0 -0.26934946251E+03  0.14707742438E+03  0.19804064474E+02  0.33196185856E+03  0.12500229139E+03 0.  0.
         24    2    1    2    0    0 -0.57624860432E+02 -0.43847025156E+02  0.80925703054E+02  0.13558592564E+03  0.81187361460E+02 0.  0.
        -11    1    5    5    0    0  0.32481798825E+01 -0.21180876358E+02  0.65370956860E+02  0.68793474957E+02  0.00000000000E+00 0.  1.
         12    1    5    5    0    0 -0.60873040314E+02 -0.22666148798E+02  0.15554746194E+02  0.66792450678E+02  0.00000000000E+00 0. -1.
        -13    1    3    3    0    0  0.29681225087E+02  0.22547899788E+02  0.56952247158E+02  0.68065713571E+02  0.00000000000E+00 0.  1.
         14    1    3    3    0    0 -0.10639547867E+02 -0.16967614293E+02  0.17996811106E+03  0.18107904603E+03  0.00000000000E+00 0. -1.
          5    1    4    4  502    0 -0.13334676011E+03  0.80066504233E+02  0.72115102212E+02  0.17150708877E+03  0.47000000000E+01 0. -1.
         -5    1    4    4    0  502 -0.13600270240E+03  0.67010920150E+02 -0.52311037739E+02  0.16045476979E+03  0.47000000000E+01 0. -1.
          1    1    1    2  503    0  0.28888404668E+03 -0.77373469934E+02 -0.22302746346E+03  0.37307089907E+03  0.00000000000E+00 0. -1.
         -2    1    1    2    0  501  0.19048599039E+02 -0.31437214789E+02  0.38516923321E+03  0.38691922388E+03  0.00000000000E+00 0.  1.
<mgrwt>
<rscale>  0 0.10494119E+03</rscale>
<asrwt>0</asrwt>
<pdfrwt beam="2">  1        2 0.71830204E-01 0.29959914E+03</pdfrwt>
<pdfrwt beam="1">  1       -1 0.14532901E+00 0.36757960E+02</pdfrwt>
<totfact> 0.36125078E+01</totfact>
</mgrwt>
</event>
<event>
13    1  0.1675423E-008  0.5799508E+02  0.7546771E-02  0.1430181E+00
          2   -1    0    0  502    0  0.00000000000E+00  0.00000000000E+00  0.16565617935E+04  0.16565617935E+04  0.00000000000E+00 0. -1.
          2   -1    0    0  503    0 -0.00000000000E+00 -0.00000000000E+00 -0.26526887494E+03  0.26526887494E+03  0.00000000000E+00 0. -1.
         24    2    1    2    0    0 -0.52755686700E+02  0.34020536886E+02  0.38770498707E+03  0.40095740037E+03  0.80691514406E+02 0.  0.
         25    2    1    2    0    0 -0.32069597028E+02 -0.10733100311E+03 -0.15079610834E+02  0.16852430499E+03  0.12499857370E+03 0.  0.
         24    2    1    2    0    0  0.26463709516E+02 -0.30156747295E+01  0.51569441289E+03  0.52284668965E+03  0.81966524718E+02 0.  0.
        -13    1    3    3    0    0 -0.53530887383E+02  0.57604032242E+02  0.29787810982E+03  0.30808302249E+03  0.00000000000E+00 0.  1.
         14    1    3    3    0    0  0.77520068269E+00 -0.23583495356E+02  0.89826877253E+02  0.92874377879E+02  0.00000000000E+00 0. -1.
        -13    1    5    5    0    0 -0.22803727830E+02  0.18565427804E+02  0.12193041984E+03  0.12542612325E+03  0.00000000000E+00 0.  1.
         14    1    5    5    0    0  0.49267437346E+02 -0.21581102533E+02  0.39376399306E+03  0.39742056640E+03  0.00000000000E+00 0. -1.
          5    1    4    4  501    0 -0.22486016872E+01 -0.54150969522E+02 -0.68396855674E+02  0.87393384050E+02  0.47000000000E+01 0.  1.
         -5    1    4    4    0  501 -0.29820995341E+02 -0.53180033587E+02  0.53317244839E+02  0.81130920941E+02  0.47000000000E+01 0.  1.
          1    1    1    2  502    0  0.49917022799E+02  0.28774279931E+02  0.66138600614E+03  0.66389089274E+03  0.00000000000E+00 0. -1.
          1    1    1    2  503    0  0.84445514144E+01  0.47551861021E+02 -0.15841287667E+03  0.16561138074E+03  0.00000000000E+00 0. -1.
<mgrwt>
<rscale>  0 0.52923741E+02</rscale>
<asrwt>0</asrwt>
<pdfrwt beam="1">  1        2 0.24361202E+00 0.57995085E+02</pdfrwt>
<pdfrwt beam="2">  1        2 0.39010129E-01 0.48295858E+02</pdfrwt>
<totfact> 0.28025951E+02</totfact>
</mgrwt>
</event>
<event>
13    1  0.1675423E-008  0.1491282E+03  0.7546771E-02  0.1373232E+00
          2   -1    0    0  503    0  0.00000000000E+00  0.00000000000E+00  0.10987758890E+04  0.10987758890E+04  0.00000000000E+00 0. -1.
          2   -1    0    0  502    0 -0.00000000000E+00 -0.00000000000E+00 -0.15046782733E+04  0.15046782733E+04  0.00000000000E+00 0. -1.
         24    2    1    2    0    0 -0.77010448375E+02  0.33823301331E+01  0.17750987135E+03  0.21074820725E+03  0.83444611060E+02 0.  0.
         25    2    1    2    0    0  0.34127663574E+03  0.75630350052E+02 -0.59856516145E+03  0.70433907873E+03  0.12499437335E+03 0.  0.
         24    2    1    2    0    0 -0.18632402082E+03  0.87000284679E+02 -0.10183063845E+03  0.24923006359E+03  0.97264872396E+02 0.  0.
        -11    1    5    5    0    0 -0.89981162147E+02  0.36367057845E+02  0.43871151762E+01  0.97151527097E+02  0.00000000000E+00 0.  1.
         12    1    5    5    0    0 -0.96342858672E+02  0.50633226834E+02 -0.10621775363E+03  0.15207853650E+03  0.00000000000E+00 0. -1.
        -11    1    3    3    0    0 -0.27366943983E+01  0.26132649931E+02  0.89894288525E+02  0.93655688551E+02  0.00000000000E+00 0.  1.
         12    1    3    3    0    0 -0.74273753977E+02 -0.22750319798E+02  0.87615582829E+02  0.11709251870E+03  0.00000000000E+00 0. -1.
          5    1    4    4  501    0  0.32927553846E+03  0.38671140690E+02 -0.54616518863E+03  0.63893375292E+03  0.47000000000E+01 0. -1.
         -5    1    4    4    0  501  0.12001097287E+02  0.36959209362E+02 -0.52399972815E+02  0.65405325806E+02  0.47000000000E+01 0. -1.
          1    1    1    2  502    0 -0.21914212764E+01 -0.29373571559E+02 -0.65289849895E+03  0.65356258993E+03  0.00000000000E+00 0. -1.
          1    1    1    2  503    0 -0.75750745273E+02 -0.13663939330E+03  0.76988204318E+03  0.78557422286E+03  0.00000000000E+00 0. -1.
<mgrwt>
<rscale>  0 0.66276697E+02</rscale>
<asrwt>0</asrwt>
<pdfrwt beam="1">  1        2 0.16158469E+00 0.14912817E+03</pdfrwt>
<pdfrwt beam="2">  1        2 0.22127622E+00 0.29455204E+02</pdfrwt>
<totfact> 0.69412387E+01</totfact>
</mgrwt>
</event>
<event>
13    1  0.1675423E-008  0.1179453E+03  0.7546771E-02  0.1313298E+00
          2   -1    0    0  502    0  0.00000000000E+00  0.00000000000E+00  0.93169469099E+03  0.93169469099E+03  0.00000000000E+00 0. -1.
          2   -1    0    0  503    0 -0.00000000000E+00 -0.00000000000E+00 -0.24201596425E+04  0.24201596425E+04  0.00000000000E+00 0. -1.
         24    2    1    2    0    0  0.19179939439E+03  0.75065616089E+03 -0.75345845693E+03  0.10830689414E+04  0.71182905412E+02 0.  0.
         25    2    1    2    0    0 -0.12915362089E+03 -0.56740730130E+03 -0.27746743228E+03  0.65669213401E+03  0.12499871811E+03 0.  0.
         24    2    1    2    0    0 -0.17556665350E+03 -0.30156901468E+03 -0.21077548385E+03  0.41089255388E+03  0.51369892020E+02 0.  0.
        -11    1    5    5    0    0 -0.88449811970E+02 -0.18153905816E+03 -0.14524251175E+03  0.24874723334E+03  0.00000000000E+00 0.  1.
         12    1    5    5    0    0 -0.87116841535E+02 -0.12002995652E+03 -0.65532972095E+02  0.16214532054E+03  0.00000000000E+00 0. -1.
        -13    1    3    3    0    0  0.67691247381E+02  0.40609105009E+03 -0.40766988774E+03  0.57938483179E+03  0.00000000000E+00 0.  1.
         14    1    3    3    0    0  0.12410814701E+03  0.34456511080E+03 -0.34578856919E+03  0.50368410965E+03  0.00000000000E+00 0. -1.
          5    1    4    4  501    0 -0.72864215671E+02 -0.34584031721E+03 -0.23411378914E+03  0.42396470986E+03  0.47000000000E+01 0.  1.
         -5    1    4    4    0  501 -0.56289405221E+02 -0.22156698409E+03 -0.43353643132E+02  0.23272742415E+03  0.47000000000E+01 0.  1.
          1    1    1    2  502    0  0.10327905076E+03  0.56622052819E+02  0.46857007242E+03  0.48314649120E+03  0.00000000000E+00 0. -1.
          1    1    1    2  503    0  0.96418292541E+01  0.61698102266E+02 -0.71533365085E+03  0.71805421295E+03  0.00000000000E+00 0. -1.
<mgrwt>
<rscale>  0 0.85821480E+02</rscale>
<asrwt>0</asrwt>
<pdfrwt beam="1">  1        2 0.13701393E+00 0.11794535E+03</pdfrwt>
<pdfrwt beam="2">  1        2 0.35590582E+00 0.62446943E+02</pdfrwt>
<totfact> 0.30291572E+01</totfact>
</mgrwt>
</event>
<event>
13    1  0.1675423E-008  0.1758288E+03  0.7546771E-02  0.1393393E+00
          2   -1    0    0  502    0  0.00000000000E+00  0.00000000000E+00  0.39341010011E+04  0.39341010011E+04  0.00000000000E+00 0. -1.
          2   -1    0    0  503    0 -0.00000000000E+00 -0.00000000000E+00 -0.37909835447E+04  0.37909835447E+04  0.00000000000E+00 0. -1.
         24    2    1    2    0    0  0.16547822195E+04 -0.59676389616E+03 -0.19737526220E+03  0.17718257427E+04  0.77318346079E+02 0.  0.
         25    2    1    2    0    0 -0.85987086958E+03 -0.60645338287E+03  0.15942092576E+04  0.19142342260E+04  0.12500358775E+03 0.  0.
         24    2    1    2    0    0 -0.69997423033E+03  0.10777763134E+04 -0.19882523206E+04  0.23687016310E+04  0.77681537759E+02 0.  0.
        -13    1    3    3    0    0  0.63599508577E+03 -0.20752762607E+03 -0.43459355616E+02  0.67040747333E+03  0.00000000000E+00 0.  1.
         14    1    3    3    0    0  0.10187871337E+04 -0.38923627009E+03 -0.15391590658E+03  0.11014182693E+04  0.00000000000E+00 0. -1.
        -13    1    5    5    0    0 -0.56966364351E+03  0.88124815174E+03 -0.16763902841E+04  0.19777258041E+04  0.00000000000E+00 0.  1.
         14    1    5    5    0    0 -0.13031058682E+03  0.19652816166E+03 -0.31186203654E+03  0.39097582687E+03  0.00000000000E+00 0. -1.
          5    1    4    4  501    0 -0.11529675177E+02 -0.83730743528E+01  0.60252888856E+02  0.62093014094E+02  0.47000000000E+01 0.  1.
         -5    1    4    4    0  501 -0.84834119440E+03 -0.59808030852E+03  0.15339563688E+04  0.18521412119E+04  0.47000000000E+01 0.  1.
          1    1    1    2  502    0 -0.11459879219E+03  0.13340042656E+03  0.11957538740E+04  0.12086173440E+04  0.00000000000E+00 0. -1.
          1    1    1    2  503    0  0.19661672630E+02 -0.79594609422E+01 -0.46121809237E+03  0.46170560221E+03  0.00000000000E+00 0. -1.
<mgrwt>
<rscale>  0 0.61070609E+02</rscale>
<asrwt>0</asrwt>
<pdfrwt beam="1">  1        2 0.57854427E+00 0.17582876E+03</pdfrwt>
<pdfrwt beam="2">  1        2 0.55749758E+00 0.21211657E+02</pdfrwt>
<totfact> 0.16177309E-01</totfact>
</mgrwt>
</event>
<event>
13    1  0.1675423E-008  0.1278721E+03  0.7546771E-02  0.1390986E+00
          2   -1    0    0  503    0  0.00000000000E+00  0.00000000000E+00  0.22388866718E+04  0.22388866718E+04  0.00000000000E+00 0. -1.
          2   -1    0    0  502    0 -0.00000000000E+00 -0.00000000000E+00 -0.17601480555E+04  0.17601480555E+04  0.00000000000E+00 0. -1.
         24    2    1    2    0    0  0.27028697127E+02 -0.23297685305E+02  0.39169900993E+03  0.39996074698E+03  0.72575148174E+02 0.  0.
         25    2    1    2    0    0 -0.19514935151E+03  0.47448539774E+03 -0.52029765790E+03  0.74131988327E+03  0.12500341777E+03 0.  0.
         24    2    1    2    0    0  0.14196312136E+02 -0.32744427364E+03 -0.30446795815E+03  0.45437325047E+03  0.79580309003E+02 0.  0.
        -11    1    3    3    0    0  0.43623159883E+02 -0.33325172704E+01  0.13408912762E+03  0.14104602049E+03  0.00000000000E+00 0.  1.
         12    1    3    3    0    0 -0.16594462756E+02 -0.19965168035E+02  0.25760988231E+03  0.25891472649E+03  0.00000000000E+00 0. -1.
        -11    1    5    5    0    0 -0.16770392191E+02 -0.12766669970E+02 -0.19188161178E+02  0.28502972577E+02  0.00000000000E+00 0.  1.
         12    1    5    5    0    0  0.30966704327E+02 -0.31467760367E+03 -0.28527979698E+03  0.42587027789E+03  0.00000000000E+00 0. -1.
          5    1    4    4  501    0  0.13145056050E+02  0.66085417593E+02 -0.90179317949E+02  0.11266975771E+03  0.47000000000E+01 0.  1.
         -5    1    4    4    0  501 -0.20829440756E+03  0.40839998015E+03 -0.43011833995E+03  0.62865012556E+03  0.47000000000E+01 0.  1.
          1    1    1    2  502    0  0.28021847875E+02 -0.99458253896E+01 -0.74114506611E+03  0.74174129750E+03  0.00000000000E+00 0. -1.
          1    1    1    2  503    0  0.12590249438E+03 -0.11379761340E+03  0.16529502884E+04  0.16616395491E+04  0.00000000000E+00 0. -1.
<mgrwt>
<rscale>  0 0.61662144E+02</rscale>
<asrwt>0</asrwt>
<pdfrwt beam="1">  1        2 0.32924804E+00 0.12787212E+03</pdfrwt>
<pdfrwt beam="2">  1        2 0.25884530E+00 0.29734549E+02</pdfrwt>
<totfact> 0.14314527E+01</totfact>
</mgrwt>
</event>
<event>
13    1  0.1675423E-008  0.9503616E+02  0.7546771E-02  0.1320245E+00
          2   -1    0    0  502    0  0.00000000000E+00  0.00000000000E+00  0.12387891052E+04  0.12387891052E+04  0.00000000000E+00 0. -1.
          2   -1    0    0  503    0 -0.00000000000E+00 -0.00000000000E+00 -0.79282742885E+03  0.79282742885E+03  0.00000000000E+00 0. -1.
         24    2    1    2    0    0  0.99315159915E+02  0.45436070250E+02  0.69885543181E+03  0.71185514053E+03  0.80068027671E+02 0.  0.
         25    2    1    2    0    0 -0.25526060530E+03 -0.10968281152E+03 -0.17222749207E+01  0.30465489785E+03  0.12499337900E+03 0.  0.
         24    2    1    2    0    0  0.14987902133E+03  0.40362229918E+02 -0.21870820103E+03  0.28007844355E+03  0.80733058285E+02 0.  0.
        -11    1    3    3    0    0  0.52100604061E+02 -0.18776135235E+02  0.26209753015E+03  0.26788454884E+03  0.00000000000E+00 0.  1.
         12    1    3    3    0    0  0.47214555854E+02  0.64212205485E+02  0.43675790166E+03  0.44397059169E+03  0.00000000000E+00 0. -1.
        -13    1    5    5    0    0  0.14385870402E+02 -0.13338489271E+02 -0.66539866791E+02  0.69371625581E+02  0.00000000000E+00 0.  1.
         14    1    5    5    0    0  0.13549315093E+03  0.53700719189E+02 -0.15216833424E+03  0.21070681796E+03  0.00000000000E+00 0. -1.
          5    1    4    4  501    0 -0.72081587129E+02  0.17529286316E+02  0.28379449112E+02  0.79564528614E+02  0.47000000000E+01 0. -1.
         -5    1    4    4    0  501 -0.18317901817E+03 -0.12721209784E+03 -0.30101724032E+02  0.22509036924E+03  0.47000000000E+01 0. -1.
          1    1    1    2  502    0 -0.28148653731E+01  0.96154982561E+02  0.34111518784E+03  0.35441963195E+03  0.00000000000E+00 0. -1.
          1    1    1    2  503    0  0.88812894221E+01 -0.72270471208E+02 -0.37357846730E+03  0.38060842022E+03  0.00000000000E+00 0. -1.
<mgrwt>
<rscale>  0 0.83186393E+02</rscale>
<asrwt>0</asrwt>
<pdfrwt beam="1">  1        2 0.18217487E+00 0.95036163E+02</pdfrwt>
<pdfrwt beam="2">  1        2 0.11659227E+00 0.72814135E+02</pdfrwt>
<totfact> 0.13507973E+02</totfact>
</mgrwt>
</event>
<event>
13    1  0.1675423E-008  0.6508198E+02  0.7546771E-02  0.1502844E+00
         -1   -1    0    0    0  501  0.00000000000E+00  0.00000000000E+00  0.19343225431E+04  0.19343225431E+04  0.00000000000E+00 0.  1.
         -1   -1    0    0    0  502 -0.00000000000E+00 -0.00000000000E+00 -0.88181564945E+03  0.88181564945E+03  0.00000000000E+00 0.  1.
         24    2    1    2    0    0  0.45264014663E+02 -0.72537193274E+02  0.67872649218E+03  0.68937794606E+03  0.85216347538E+02 0.  0.
         25    2    1    2    0    0 -0.10502058554E+03  0.10408115869E+03 -0.59232684516E+03  0.62316869340E+03  0.12500367178E+03 0.  0.
         24    2    1    2    0    0 -0.13742958132E+02  0.14555928960E+02  0.12660449944E+02  0.83933119197E+02  0.80521658821E+02 0.  0.
        -11    1    3    3    0    0  0.62882693306E+02 -0.47148878583E+02  0.59427905771E+03  0.59945379164E+03  0.00000000000E+00 0.  1.
         12    1    3    3    0    0 -0.17618678643E+02 -0.25388314692E+02  0.84447434468E+02  0.89924154421E+02  0.00000000000E+00 0. -1.
        -11    1    5    5    0    0 -0.61263156611E+01 -0.28235952490E+02 -0.14858324229E+02  0.32489545326E+02  0.00000000000E+00 0.  1.
         12    1    5    5    0    0 -0.76166424713E+01  0.42791881450E+02  0.27518774174E+02  0.51443573871E+02  0.00000000000E+00 0. -1.
          5    1    4    4  503    0 -0.97015917429E+02  0.13057076690E+03 -0.46113008303E+03  0.48900292113E+03  0.47000000000E+01 0.  1.
         -5    1    4    4    0  503 -0.80046681087E+01 -0.26489608209E+02 -0.13119676213E+03  0.13416577227E+03  0.47000000000E+01 0.  1.
         -2    1    1    2    0  501  0.60369749600E+02 -0.24238875971E+02  0.11849603194E+04  0.11867447022E+04  0.00000000000E+00 0.  1.
         -2    1    1    2    0  502  0.13129779408E+02 -0.21861018408E+02 -0.23151352266E+03  0.23291373169E+03  0.00000000000E+00 0.  1.
<mgrwt>
<rscale>  0 0.40738780E+02</rscale>
<asrwt>0</asrwt>
<pdfrwt beam="1">  1       -1 0.28445920E+00 0.65081978E+02</pdfrwt>
<pdfrwt beam="2">  1       -1 0.12967877E+00 0.25500887E+02</pdfrwt>
<totfact> 0.30707430E-01</totfact>
</mgrwt>
</event>
<event>
13    1  0.1675423E-008  0.4933916E+03  0.7546771E-02  0.1117744E+00
          2   -1    0    0  503    0  0.00000000000E+00  0.00000000000E+00  0.28902773180E+04  0.28902773180E+04  0.00000000000E+00 0. -1.
          2   -1    0    0  502    0 -0.00000000000E+00 -0.00000000000E+00 -0.23015939680E+04  0.23015939680E+04  0.00000000000E+00 0. -1.
         24    2    1    2    0    0  0.60509100008E+03 -0.12482185760E+04 -0.38127774874E+03  0.14403002393E+04  0.70052307213E+02 0.  0.
         25    2    1    2    0    0 -0.42420622928E+03  0.98129447392E+03 -0.34432975218E+03  0.11300789408E+04  0.12500265849E+03 0.  0.
         24    2    1    2    0    0  0.28408190803E+02 -0.99746335712E+02  0.23380458904E+03  0.26845651974E+03  0.81535025238E+02 0.  0.
        -11    1    3    3    0    0  0.17362841418E+03 -0.43381812131E+03 -0.13088593376E+03  0.48525881367E+03  0.00000000000E+00 0.  1.
         12    1    3    3    0    0  0.43146258589E+03 -0.81440045469E+03 -0.25039181498E+03  0.95504142561E+03  0.00000000000E+00 0. -1.
        -11    1    5    5    0    0 -0.28640084316E+02 -0.27750259340E+02  0.64320454381E+02  0.75679932445E+02  0.00000000000E+00 0.  1.
         12    1    5    5    0    0  0.57048275119E+02 -0.71996076372E+02  0.16948413466E+03  0.19277658729E+03  0.00000000000E+00 0. -1.
          5    1    4    4  501    0 -0.17095736903E+03  0.26552481446E+03 -0.76579316361E+02  0.32498666252E+03  0.47000000000E+01 0. -1.
         -5    1    4    4    0  501 -0.25324886025E+03  0.71576965945E+03 -0.26775043582E+03  0.80509227825E+03  0.47000000000E+01 0. -1.
          1    1    1    2  502    0 -0.32534807779E+03  0.39630499078E+03 -0.53038876155E+03  0.73771353236E+03  0.00000000000E+00 0. -1.
          1    1    1    2  503    0  0.11605511620E+03 -0.29634552992E+02  0.16108750234E+04  0.16153220539E+04  0.00000000000E+00 0. -1.
<mgrwt>
<rscale>  0 0.24310066E+03</rscale>
<asrwt>0</asrwt>
<pdfrwt beam="1">  1        2 0.42504078E+00 0.11977895E+03</pdfrwt>
<pdfrwt beam="2">  1        2 0.33846970E+00 0.49339161E+03</pdfrwt>
<totfact> 0.27562835E+00</totfact>
</mgrwt>
</event>
<event>
13    1  0.1675423E-008  0.9590877E+02  0.7546771E-02  0.1294417E+00
          2   -1    0    0  502    0  0.00000000000E+00  0.00000000000E+00  0.14117930105E+04  0.14117930105E+04  0.00000000000E+00 0. -1.
          2   -1    0    0  503    0 -0.00000000000E+00 -0.00000000000E+00 -0.15718342031E+04  0.15718342031E+04  0.00000000000E+00 0. -1.
         24    2    1    2    0    0 -0.22013284879E+02  0.12626714120E+01  0.68477814264E+03  0.68984849697E+03  0.80521208879E+02 0.  0.
         25    2    1    2    0    0  0.11584534227E+03  0.66408216427E+01 -0.13280473305E+03  0.21616123532E+03  0.12499735475E+03 0.  0.
         24    2    1    2    0    0 -0.32261317785E+02 -0.15483894210E+02  0.16054894083E+02  0.83071821294E+02  0.73229941035E+02 0.  0.
        -13    1    3    3    0    0  0.25893589329E+02 -0.13978289568E+02  0.36022408868E+03  0.36142394029E+03  0.00000000000E+00 0.  1.
         14    1    3    3    0    0 -0.47906874209E+02  0.15240960980E+02  0.32455405396E+03  0.32842455668E+03  0.00000000000E+00 0. -1.
        -13    1    5    5    0    0 -0.44461965315E+02 -0.17526446845E+01 -0.15029186675E+02  0.46966100276E+02  0.00000000000E+00 0.  1.
         14    1    5    5    0    0  0.12200647530E+02 -0.13731249526E+02  0.31084080758E+02  0.36105721018E+02  0.00000000000E+00 0. -1.
          5    1    4    4  501    0  0.15861839671E+02 -0.51981663387E+02 -0.41657450028E+02  0.68637631289E+02  0.47000000000E+01 0.  1.
         -5    1    4    4    0  501  0.99983502600E+02  0.58622485030E+02 -0.91147283021E+02  0.14752360403E+03  0.47000000000E+01 0.  1.
          1    1    1    2  502    0 -0.38866414736E+02 -0.84324791810E+02  0.62817555619E+03  0.63500062842E+03  0.00000000000E+00 0. -1.
          1    1    1    2  503    0 -0.22704324871E+02  0.91905192965E+02 -0.13562450524E+04  0.13595450316E+04  0.00000000000E+00 0. -1.
<mgrwt>
<rscale>  0 0.93575491E+02</rscale>
<asrwt>0</asrwt>
<pdfrwt beam="1">  1        2 0.20761662E+00 0.91298972E+02</pdfrwt>
<pdfrwt beam="2">  1        2 0.23115209E+00 0.95908775E+02</pdfrwt>
<totfact> 0.41154426E+01</totfact>
</mgrwt>
</event>
<event>
13    1  0.1675423E-008  0.9060037E+02  0.7546771E-02  0.1430227E+00
          2   -1    0    0  502    0  0.00000000000E+00  0.00000000000E+00  0.70135629929E+03  0.70135629929E+03  0.00000000000E+00 0. -1.
          2   -1    0    0  503    0 -0.00000000000E+00 -0.00000000000E+00 -0.20870538270E+04  0.20870538270E+04  0.00000000000E+00 0. -1.
         24    2    1    2    0    0 -0.49426395758E+02 -0.15825828085E+02  0.20979662116E+03  0.22530177505E+03  0.63661936494E+02 0.  0.
         25    2    1    2    0    0 -0.85880019303E+02  0.48940694068E+02 -0.12017693764E+04  0.12122895206E+04  0.12500271311E+03 0.  0.
         24    2    1    2    0    0  0.78590806013E+01 -0.79621574114E+02  0.13804938598E+03  0.17799137263E+03  0.78879246623E+02 0.  0.
        -11    1    5    5    0    0  0.25729403782E+02 -0.57228565740E+00  0.60827517647E+02  0.66047835945E+02  0.00000000000E+00 0.  1.
         12    1    5    5    0    0 -0.17870323181E+02 -0.79049288457E+02  0.77221868335E+02  0.11194353668E+03  0.00000000000E+00 0. -1.
        -11    1    3    3    0    0 -0.53826565880E+02 -0.33244046867E+02  0.14820182152E+03  0.16114045348E+03  0.00000000000E+00 0.  1.
         12    1    3    3    0    0  0.44001701219E+01  0.17418218782E+02  0.61594799638E+02  0.64161321566E+02  0.00000000000E+00 0. -1.
          5    1    4    4  501    0 -0.97038053805E+02 -0.22088072744E+01 -0.55980888487E+03  0.56818072855E+03  0.47000000000E+01 0.  1.
         -5    1    4    4    0  501  0.11158034502E+02  0.51149501342E+02 -0.64196049158E+03  0.64410879203E+03  0.47000000000E+01 0.  1.
          1    1    1    2  502    0  0.11102432887E+03  0.72686024566E+02  0.30649475782E+03  0.33398906620E+03  0.00000000000E+00 0. -1.
          1    1    1    2  503    0  0.16423005591E+02 -0.26179316434E+02 -0.83826891622E+03  0.83883839184E+03  0.00000000000E+00 0. -1.
<mgrwt>
<rscale>  0 0.52914413E+02</rscale>
<asrwt>0</asrwt>
<pdfrwt beam="1">  1        2 0.10314063E+00 0.90600370E+02</pdfrwt>
<pdfrwt beam="2">  1        2 0.30691968E+00 0.30904235E+02</pdfrwt>
<totfact> 0.67720432E+01</totfact>
</mgrwt>
</event>
<event>
13    1  0.1675423E-008  0.5879990E+02  0.7546771E-02  0.1430331E+00
          2   -1    0    0  503    0  0.00000000000E+00  0.00000000000E+00  0.47287036906E+03  0.47287036906E+03  0.00000000000E+00 0. -1.
         -3   -1    0    0    0  501 -0.00000000000E+00 -0.00000000000E+00 -0.14172152597E+04  0.14172152597E+04  0.00000000000E+00 0.  1.
         24    2    1    2    0    0 -0.30173555416E+02 -0.14241404918E+03  0.13750645170E+03  0.21519423717E+03  0.78792960344E+02 0.  0.
         25    2    1    2    0    0 -0.13630372793E+02  0.13488798843E+03 -0.38745761898E+03  0.42910301969E+03  0.12500175406E+03 0.  0.
         24    2    1    2    0    0  0.35747081406E+02  0.45927779563E+02  0.36080070325E+02  0.10765312992E+03  0.83067503528E+02 0.  0.
        -13    1    3    3    0    0 -0.44382501753E+02 -0.99621430168E+02  0.12965726066E+03  0.16942621123E+03  0.00000000000E+00 0.  1.
         14    1    3    3    0    0  0.14208946337E+02 -0.42792619011E+02  0.78491910408E+01  0.45768025933E+02  0.00000000000E+00 0. -1.
        -13    1    5    5    0    0 -0.24454176413E+02  0.93458336233E+01  0.25266752744E+02  0.36383514734E+02  0.00000000000E+00 0.  1.
         14    1    5    5    0    0  0.60201257820E+02  0.36581945939E+02  0.10813317582E+02  0.71269615187E+02  0.00000000000E+00 0. -1.
          5    1    4    4  502    0 -0.98723156410E+01  0.11948081688E+03 -0.15477333775E+03  0.19583157125E+03  0.47000000000E+01 0.  1.
         -5    1    4    4    0  502 -0.37580571517E+01  0.15407171546E+02 -0.23268428123E+03  0.23327144844E+03  0.47000000000E+01 0.  1.
          1    1    1    2  503    0 -0.45515037902E+02 -0.13867309912E+02  0.20010947125E+03  0.20568840863E+03  0.00000000000E+00 0. -1.
         -4    1    1    2    0  501  0.53571884705E+02 -0.24534408901E+02 -0.93058326493E+03  0.93244683334E+03  0.00000000000E+00 0.  1.
<mgrwt>
<rscale>  0 0.52893658E+02</rscale>
<asrwt>0</asrwt>
<pdfrwt beam="1">  1        2 0.69539761E-01 0.47580678E+02</pdfrwt>
<pdfrwt beam="2">  1       -3 0.20841401E+00 0.58799899E+02</pdfrwt>
<totfact> 0.65261947E+00</totfact>
</mgrwt>
</event>
<event>
13    1  0.1675423E-008  0.1545157E+03  0.7546771E-02  0.1279096E+00
          2   -1    0    0  503    0  0.00000000000E+00  0.00000000000E+00  0.30398518968E+04  0.30398518968E+04  0.00000000000E+00 0. -1.
          2   -1    0    0  502    0 -0.00000000000E+00 -0.00000000000E+00 -0.17013844058E+04  0.17013844058E+04  0.00000000000E+00 0. -1.
         24    2    1    2    0    0 -0.21081798717E+03  0.36108846393E+02  0.11052874740E+04  0.11287102197E+04  0.81106642295E+02 0.  0.
         25    2    1    2    0    0  0.17403655336E+03 -0.14605310716E+03 -0.20490915077E+03  0.33050039925E+03  0.12499008689E+03 0.  0.
         24    2    1    2    0    0  0.77351947033E+02  0.21027392623E+03  0.10818235276E+04  0.11076210817E+04  0.79270852572E+02 0.  0.
        -11    1    5    5    0    0 -0.94096283083E+01  0.75538995612E+02  0.40423685346E+03  0.41134184647E+03  0.00000000000E+00 0.  1.
         12    1    5    5    0    0  0.86761575341E+02  0.13473493062E+03  0.67758667415E+03  0.69627923527E+03  0.00000000000E+00 0. -1.
        -13    1    3    3    0    0 -0.87004543132E+02  0.55717965803E+02  0.48488730459E+03  0.49577210530E+03  0.00000000000E+00 0.  1.
         14    1    3    3    0    0 -0.12381344404E+03 -0.19609119411E+02  0.62040016937E+03  0.63293811439E+03  0.00000000000E+00 0. -1.
          5    1    4    4  501    0  0.16314981960E+03 -0.13798063513E+03 -0.22201836136E+03  0.30817326634E+03  0.47000000000E+01 0. -1.
         -5    1    4    4    0  501  0.10886733757E+02 -0.80724720277E+01  0.17109210595E+02  0.22327132904E+02  0.47000000000E+01 0. -1.
          1    1    1    2  502    0  0.63530642795E+02  0.15784146148E+02 -0.14003528592E+04  0.14018820964E+04  0.00000000000E+00 0. -1.
          1    1    1    2  503    0 -0.10410115601E+03 -0.11611381161E+03  0.75661849940E+03  0.77252250554E+03  0.00000000000E+00 0. -1.
<mgrwt>
<rscale>  0 0.10057294E+03</rscale>
<asrwt>0</asrwt>
<pdfrwt beam="1">  1        2 0.44703704E+00 0.15451570E+03</pdfrwt>
<pdfrwt beam="2">  1        2 0.25020359E+00 0.65462064E+02</pdfrwt>
<totfact> 0.53257304E+00</totfact>
</mgrwt>
</event>
<event>
13    1  0.1675423E-008  0.9696759E+02  0.7546771E-02  0.1330533E+00
          2   -1    0    0  502    0  0.00000000000E+00  0.00000000000E+00  0.17044033208E+04  0.17044033208E+04  0.00000000000E+00 0. -1.
          2   -1    0    0  503    0 -0.00000000000E+00 -0.00000000000E+00 -0.20928859808E+04  0.20928859808E+04  0.00000000000E+00 0. -1.
         24    2    1    2    0    0  0.81315812903E+02 -0.79079592322E+02  0.83387622846E+03  0.84538771932E+03  0.80405150583E+02 0.  0.
         25    2    1    2    0    0 -0.41707195898E+02 -0.46154155109E+02 -0.19284452865E+03  0.23808343336E+03  0.12500005115E+03 0.  0.
         24    2    1    2    0    0 -0.71549405757E+02  0.10976289272E+03  0.59048259741E+03  0.61019127616E+03  0.80600779011E+02 0.  0.
        -11    1    3    3    0    0  0.63360473084E+02 -0.77756570249E+01  0.45336842063E+03  0.45784051286E+03  0.00000000000E+00 0.  1.
         12    1    3    3    0    0  0.17955339819E+02 -0.71303935297E+02  0.38050780783E+03  0.38754720646E+03  0.00000000000E+00 0. -1.
        -13    1    5    5    0    0 -0.28730422781E+02  0.86028990776E+02  0.49109334292E+03  0.49939873439E+03  0.00000000000E+00 0.  1.
         14    1    5    5    0    0 -0.42818982976E+02  0.23733901946E+02  0.99389254482E+02  0.11079254177E+03  0.00000000000E+00 0. -1.
          5    1    4    4  501    0 -0.33438377124E+02 -0.77192719855E+02 -0.65651897294E+02  0.10681340123E+03  0.47000000000E+01 0. -1.
         -5    1    4    4    0  501 -0.82688187741E+01  0.31038564746E+02 -0.12719263135E+03  0.13127003213E+03  0.47000000000E+01 0. -1.
          1    1    1    2  502    0 -0.34410332770E+02 -0.55317345113E+02  0.23613709405E+03  0.24495878604E+03  0.00000000000E+00 0. -1.
          1    1    1    2  503    0  0.66351121523E+02  0.70788199822E+02 -0.18561340513E+04  0.18586680868E+04  0.00000000000E+00 0. -1.
<mgrwt>
<rscale>  0 0.79480241E+02</rscale>
<asrwt>0</asrwt>
<pdfrwt beam="1">  1        2 0.25064755E+00 0.65146601E+02</pdfrwt>
<pdfrwt beam="2">  1        2 0.30777735E+00 0.96967587E+02</pdfrwt>
<totfact> 0.17078349E+01</totfact>
</mgrwt>
</event>
<event>
13    1  0.1675423E-008  0.6169219E+02  0.7546771E-02  0.1395513E+00
          2   -1    0    0  503    0  0.00000000000E+00  0.00000000000E+00  0.13537738257E+04  0.13537738257E+04  0.00000000000E+00 0. -1.
         -3   -1    0    0    0  501 -0.00000000000E+00 -0.00000000000E+00 -0.12351707255E+04  0.12351707255E+04  0.00000000000E+00 0.  1.
         24    2    1    2    0    0 -0.35651111169E+03  0.10078044586E+03 -0.91401150820E+02  0.39012852785E+03  0.81174052771E+02 0.  0.
         25    2    1    2    0    0  0.15681272359E+03  0.64687532415E+02 -0.10680415570E+03  0.23623457819E+03  0.12499976451E+03 0.  0.
         24    2    1    2    0    0  0.12726674601E+03 -0.74470655121E+02 -0.33439849752E+03  0.36930271264E+03  0.53098354999E+02 0.  0.
        -11    1    5    5    0    0  0.96230640404E+02 -0.40793900594E+02 -0.27573302615E+03  0.29487824638E+03  0.00000000000E+00 0.  1.
         12    1    5    5    0    0  0.31036105608E+02 -0.33676754527E+02 -0.58665471372E+02  0.74424466260E+02  0.00000000000E+00 0. -1.
        -13    1    3    3    0    0 -0.11045971734E+03  0.13893622506E+02  0.62699285847E+01  0.11150647473E+03  0.00000000000E+00 0.  1.
         14    1    3    3    0    0 -0.24605139435E+03  0.86886823352E+02 -0.97671079405E+02  0.27862205312E+03  0.00000000000E+00 0. -1.
          5    1    4    4  502    0  0.77687596355E+02 -0.17941516867E+02 -0.90292919689E+02  0.12054941726E+03  0.47000000000E+01 0. -1.
         -5    1    4    4    0  502  0.79125127234E+02  0.82629049283E+02 -0.16511236014E+02  0.11568516093E+03  0.47000000000E+01 0. -1.
          1    1    1    2  503    0  0.50092094584E+02 -0.35914337532E+02  0.11195164856E+04  0.11212119421E+04  0.00000000000E+00 0. -1.
         -4    1    1    2    0  501  0.22339547508E+02 -0.55082985620E+02 -0.46830958136E+03  0.47206679049E+03  0.00000000000E+00 0.  1.
<mgrwt>
<rscale>  0 0.60555957E+02</rscale>
<asrwt>0</asrwt>
<pdfrwt beam="1">  1        2 0.19908439E+00 0.61692192E+02</pdfrwt>
<pdfrwt beam="2">  1       -3 0.18164275E+00 0.59440648E+02</pdfrwt>
<totfact> 0.26022685E+00</totfact>
</mgrwt>
</event>
<event>
13    1  0.1675423E-008  0.1431877E+03  0.7546771E-02  0.1288450E+00
          2   -1    0    0  503    0  0.00000000000E+00  0.00000000000E+00  0.93047679437E+03  0.93047679437E+03  0.00000000000E+00 0. -1.
          2   -1    0    0  502    0 -0.00000000000E+00 -0.00000000000E+00 -0.12095967507E+04  0.12095967507E+04  0.00000000000E+00 0. -1.
         24    2    1    2    0    0 -0.60909613095E+02 -0.35229863073E+02  0.12814296922E+03  0.16671838655E+03  0.80145340687E+02 0.  0.
         25    2    1    2    0    0 -0.20472699982E+03 -0.12435193612E+03 -0.17698294907E+03  0.32299500302E+03  0.12500503686E+03 0.  0.
         24    2    1    2    0    0 -0.28501345114E+02  0.54525441304E+02  0.16150533962E+02  0.10312034649E+03  0.81164128097E+02 0.  0.
        -11    1    3    3    0    0  0.92191316313E+01 -0.13684773003E+02  0.73266252742E+02  0.75101326160E+02  0.00000000000E+00 0.  1.
         12    1    3    3    0    0 -0.70128744726E+02 -0.21545090070E+02  0.54876716476E+02  0.91617060388E+02  0.00000000000E+00 0. -1.
        -13    1    5    5    0    0  0.20313000628E+02  0.41567579376E+02  0.23818660536E+02  0.52036624020E+02  0.00000000000E+00 0.  1.
         14    1    5    5    0    0 -0.48814345742E+02  0.12957861928E+02 -0.76681265741E+01  0.51083722467E+02  0.00000000000E+00 0. -1.
          5    1    4    4  501    0 -0.16017539201E+03 -0.31522103043E+02 -0.13425695530E+03  0.21141622273E+03  0.47000000000E+01 0. -1.
         -5    1    4    4    0  501 -0.44551607809E+02 -0.92829833081E+02 -0.42725993777E+02  0.11157878030E+03  0.47000000000E+01 0. -1.
          1    1    1    2  502    0  0.64020960131E+02  0.90629917426E+01 -0.87169757667E+03  0.87409237860E+03  0.00000000000E+00 0. -1.
          1    1    1    2  503    0  0.23011699790E+03  0.95993366149E+02  0.62526706619E+03  0.67314743045E+03  0.00000000000E+00 0. -1.
<mgrwt>
<rscale>  0 0.96220632E+02</rscale>
<asrwt>0</asrwt>
<pdfrwt beam="1">  1        2 0.13683482E+00 0.14318767E+03</pdfrwt>
<pdfrwt beam="2">  1        2 0.17788187E+00 0.64659270E+02</pdfrwt>
<totfact> 0.11443369E+02</totfact>
</mgrwt>
</event>
<event>
13    1  0.1675423E-008  0.2093631E+03  0.7546771E-02  0.1170168E+00
          2   -1    0    0  502    0  0.00000000000E+00  0.00000000000E+00  0.12993783477E+04  0.12993783477E+04  0.00000000000E+00 0. -1.
          2   -1    0    0  503    0 -0.00000000000E+00 -0.00000000000E+00 -0.12859224749E+04  0.12859224749E+04  0.00000000000E+00 0. -1.
         24    2    1    2    0    0 -0.14332370479E+03 -0.18709983655E+03  0.29675456484E+02  0.25095490003E+03  0.80930191758E+02 0.  0.
         25    2    1    2    0    0  0.36371305913E+03  0.29077070105E+03  0.63730355449E+03  0.79913432690E+03  0.12500024756E+03 0.  0.
         24    2    1    2    0    0  0.11802415734E+03 -0.33414858429E+02  0.51943371857E+02  0.15597609916E+03  0.81142930370E+02 0.  0.
        -11    1    3    3    0    0 -0.95946557843E+01  0.61237507910E+01  0.99906761837E+01  0.15145010861E+02  0.00000000000E+00 0.  1.
         12    1    3    3    0    0 -0.13372904901E+03 -0.19322358734E+03  0.19684780300E+02  0.23580988917E+03  0.00000000000E+00 0. -1.
        -11    1    5    5    0    0 -0.12008506612E+02 -0.83080438981E+01  0.41327884727E+01  0.15175894208E+02  0.00000000000E+00 0.  1.
         12    1    5    5    0    0  0.13003266395E+03 -0.25106814530E+02  0.47810583384E+02  0.14080020495E+03  0.00000000000E+00 0. -1.
          5    1    4    4  501    0  0.14247851266E+03  0.19325210305E+03  0.32841578675E+03  0.40684827748E+03  0.47000000000E+01 0.  1.
         -5    1    4    4    0  501  0.22123454647E+03  0.97518598005E+02  0.30888776774E+03  0.39228604942E+03  0.47000000000E+01 0.  1.
          1    1    1    2  502    0 -0.17692726979E+03  0.62463363076E+02  0.29913955848E+03  0.35311387111E+03  0.00000000000E+00 0. -1.
          1    1    1    2  503    0 -0.16148624188E+03 -0.13271936915E+03 -0.10046060685E+04  0.10261216254E+04  0.00000000000E+00 0. -1.
<mgrwt>
<rscale>  0 0.17757745E+03</rscale>
<asrwt>0</asrwt>
<pdfrwt beam="1">  1        2 0.19108505E+00 0.15061752E+03</pdfrwt>
<pdfrwt beam="2">  1        2 0.18910625E+00 0.20936310E+03</pdfrwt>
<totfact> 0.60124730E+01</totfact>
</mgrwt>
</event>
<event>
13    1  0.1675423E-008  0.1193206E+03  0.7546771E-02  0.1298782E+00
          2   -1    0    0  503    0  0.00000000000E+00  0.00000000000E+00  0.16988251201E+04  0.16988251201E+04  0.00000000000E+00 0. -1.
          2   -1    0    0  502    0 -0.00000000000E+00 -0.00000000000E+00 -0.29297544993E+04  0.29297544993E+04  0.00000000000E+00 0. -1.
         24    2    1    2    0    0 -0.21992927267E+02 -0.34366837851E+03  0.64795077592E+03  0.73825943769E+03  0.81210504739E+02 0.  0.
         25    2    1    2    0    0  0.88408185569E+02  0.47231608079E+03  0.52774978114E+03  0.72459823440E+03  0.12499712938E+03 0.  0.
         24    2    1    2    0    0 -0.91196745107E+02 -0.42400482009E+02 -0.28989356282E+02  0.12844285717E+03  0.74448220847E+02 0.  0.
        -13    1    5    5    0    0 -0.10041949309E+03 -0.49956936750E+02 -0.21048607649E+02  0.11411754469E+03  0.00000000000E+00 0.  1.
         14    1    5    5    0    0  0.92227479871E+01  0.75564547404E+01 -0.79407486331E+01  0.14325312476E+02  0.00000000000E+00 0. -1.
        -13    1    3    3    0    0  0.51848416468E+01 -0.28085278922E+03  0.56284556874E+03  0.62904714135E+03  0.00000000000E+00 0.  1.
         14    1    3    3    0    0 -0.27177768914E+02 -0.62815589294E+02  0.85105207185E+02  0.10921229634E+03  0.00000000000E+00 0. -1.
          5    1    4    4  501    0 -0.23509656052E+02  0.14758258459E+03  0.20093018145E+03  0.25045628565E+03  0.47000000000E+01 0. -1.
         -5    1    4    4    0  501  0.11191784162E+03  0.32473349620E+03  0.32681959969E+03  0.47414194875E+03  0.47000000000E+01 0. -1.
          1    1    1    2  502    0  0.94087108160E+02 -0.73455824071E+02 -0.27023624024E+04  0.27049973560E+04  0.00000000000E+00 0. -1.
          1    1    1    2  503    0 -0.69305621355E+02 -0.12791396196E+02  0.32472182236E+03  0.33228173420E+03  0.00000000000E+00 0. -1.
<mgrwt>
<rscale>  0 0.91702019E+02</rscale>
<asrwt>0</asrwt>
<pdfrwt beam="1">  1        2 0.24982722E+00 0.70476159E+02</pdfrwt>
<pdfrwt beam="2">  1        2 0.43084625E+00 0.11932064E+03</pdfrwt>
<totfact> 0.63171564E+00</totfact>
</mgrwt>
</event>
<event>
13    1  0.1675423E-008  0.1484692E+03  0.7546771E-02  0.1257397E+00
          2   -1    0    0  503    0  0.00000000000E+00  0.00000000000E+00  0.82794206753E+03  0.82794206753E+03  0.00000000000E+00 0. -1.
          2   -1    0    0  502    0 -0.00000000000E+00 -0.00000000000E+00 -0.70959665706E+03  0.70959665706E+03  0.00000000000E+00 0. -1.
         24    2    1    2    0    0 -0.83972470830E+02 -0.44750009912E+02  0.32775613250E+03  0.35334908309E+03  0.91528972936E+02 0.  0.
         25    2    1    2    0    0  0.15254592253E+03  0.27742176346E+03 -0.35221211841E+03  0.48980750170E+03  0.12499967615E+03 0.  0.
         24    2    1    2    0    0 -0.12537185491E+03 -0.18168248716E+03  0.21052559134E+03  0.31523184886E+03  0.79520222446E+02 0.  0.
        -11    1    5    5    0    0 -0.74802088832E+02 -0.43672841891E+02  0.64065890135E+02  0.10773628865E+03  0.00000000000E+00 0.  1.
         12    1    5    5    0    0 -0.50569766080E+02 -0.13800964527E+03  0.14645970121E+03  0.20749556021E+03  0.00000000000E+00 0. -1.
        -13    1    3    3    0    0 -0.37550883557E+02  0.22885649468E+02  0.68293018276E+02  0.81226585259E+02  0.00000000000E+00 0.  1.
         14    1    3    3    0    0 -0.46421587272E+02 -0.67635659380E+02  0.25946311422E+03  0.27212249783E+03  0.00000000000E+00 0. -1.
          5    1    4    4  501    0  0.83269813926E+02  0.14666587878E+03 -0.96604678458E+02  0.19442040996E+03  0.47000000000E+01 0. -1.
         -5    1    4    4    0  501  0.69276108600E+02  0.13075588468E+03 -0.25560743996E+03  0.29538709173E+03  0.47000000000E+01 0. -1.
          1    1    1    2  502    0  0.85426663617E+02 -0.13004989101E+03 -0.18060904740E+03  0.23839110095E+03  0.00000000000E+00 0. -1.
          1    1    1    2  503    0 -0.28628260400E+02  0.79060624624E+02  0.11288485245E+03  0.14075919001E+03  0.00000000000E+00 0. -1.
<mgrwt>
<rscale>  0 0.11173145E+03</rscale>
<asrwt>0</asrwt>
<pdfrwt beam="1">  1        2 0.12175619E+00 0.84084241E+02</pdfrwt>
<pdfrwt beam="2">  1        2 0.10435245E+00 0.14846917E+03</pdfrwt>
<totfact> 0.25946311E+02</totfact>
</mgrwt>
</event>
<event>
13    1  0.1675423E-008  0.1167536E+03  0.7546771E-02  0.1322849E+00
          2   -1    0    0  502    0  0.00000000000E+00  0.00000000000E+00  0.21468074811E+04  0.21468074811E+04  0.00000000000E+00 0. -1.
          2   -1    0    0  503    0 -0.00000000000E+00 -0.00000000000E+00 -0.14312627886E+04  0.14312627886E+04  0.00000000000E+00 0. -1.
         24    2    1    2    0    0 -0.32216707608E+02 -0.15425595043E+03  0.16442882844E+02  0.17691853775E+03  0.78720938210E+02 0.  0.
         25    2    1    2    0    0 -0.56079645197E+02  0.14527603587E+03 -0.35010483288E+03  0.40304999191E+03  0.12500339501E+03 0.  0.
         24    2    1    2    0    0 -0.55975308013E+02 -0.49848184875E+01 -0.96311116703E+02  0.13738592533E+03  0.80255702332E+02 0.  0.
        -11    1    5    5    0    0 -0.28147241196E+02  0.28892882238E+02 -0.11550389147E+02  0.41958042381E+02  0.00000000000E+00 0.  1.
         12    1    5    5    0    0 -0.27828066817E+02 -0.33877700726E+02 -0.84760727555E+02  0.95427882953E+02  0.00000000000E+00 0. -1.
        -13    1    3    3    0    0 -0.12204003892E+02  0.56741658732E+01 -0.49239332677E+01  0.14331049793E+02  0.00000000000E+00 0.  1.
         14    1    3    3    0    0 -0.20012703716E+02 -0.15993011630E+03  0.21366816112E+02  0.16258748796E+03  0.00000000000E+00 0. -1.
          5    1    4    4  501    0 -0.92961793219E+02  0.74111317955E+02 -0.19613363658E+03  0.22940112434E+03  0.47000000000E+01 0.  1.
         -5    1    4    4    0  501  0.36882148021E+02  0.71164717918E+02 -0.15397119630E+03  0.17364886757E+03  0.47000000000E+01 0.  1.
          1    1    1    2  502    0  0.11182831498E+03 -0.34003711487E+02  0.20004313372E+04  0.20038431474E+04  0.00000000000E+00 0. -1.
          1    1    1    2  503    0  0.32443345842E+02  0.47968444529E+02 -0.85491357790E+03  0.85687266734E+03  0.00000000000E+00 0. -1.
<mgrwt>
<rscale>  0 0.82226361E+02</rscale>
<asrwt>0</asrwt>
<pdfrwt beam="1">  1        2 0.31570698E+00 0.11675359E+03</pdfrwt>
<pdfrwt beam="2">  1        2 0.21047982E+00 0.57909778E+02</pdfrwt>
<totfact> 0.21518169E+01</totfact>
</mgrwt>
</event>
<event>
13    1  0.1675423E-008  0.4361850E+02  0.7546771E-02  0.1547113E+00
          2   -1    0    0  503    0  0.00000000000E+00  0.00000000000E+00  0.11602045985E+04  0.11602045985E+04  0.00000000000E+00 0. -1.
          2   -1    0    0  502    0 -0.00000000000E+00 -0.00000000000E+00 -0.86122995935E+03  0.86122995935E+03  0.00000000000E+00 0. -1.
         24    2    1    2    0    0  0.49464477714E+02  0.58745002411E+01  0.27355271697E+03  0.28277776674E+03  0.51487203196E+02 0.  0.
         25    2    1    2    0    0  0.10231879774E+03  0.13707345722E+03  0.40890624520E+03  0.46052919203E+03  0.12499820120E+03 0.  0.
         24    2    1    2    0    0 -0.12942694871E+03 -0.10662320216E+03 -0.28111049714E+03  0.33650870326E+03  0.78071463921E+02 0.  0.
        -13    1    5    5    0    0 -0.11952953013E+03 -0.81243826127E+02 -0.17503625535E+03  0.22699241958E+03  0.00000000000E+00 0.  1.
         14    1    5    5    0    0 -0.98974185805E+01 -0.25379376037E+02 -0.10607424178E+03  0.10951628369E+03  0.00000000000E+00 0. -1.
        -13    1    3    3    0    0  0.63745384449E+01 -0.55604785179E+01  0.16778846882E+03  0.16800155931E+03  0.00000000000E+00 0.  1.
         14    1    3    3    0    0  0.43089939269E+02  0.11434978759E+02  0.10576424814E+03  0.11477620743E+03  0.00000000000E+00 0. -1.
          5    1    4    4  501    0 -0.27800217532E+02  0.25015292867E+02  0.49861008095E+02  0.62504616632E+02  0.47000000000E+01 0. -1.
         -5    1    4    4    0  501  0.13011901528E+03  0.11205816436E+03  0.35904523711E+03  0.39802457540E+03  0.47000000000E+01 0. -1.
          1    1    1    2  502    0 -0.27470329436E+02  0.70271035451E+01 -0.52047414772E+03  0.52124594735E+03  0.00000000000E+00 0. -1.
          1    1    1    2  503    0  0.51140026897E+01 -0.43351858845E+02  0.41810032185E+03  0.42037294848E+03  0.00000000000E+00 0. -1.
<mgrwt>
<rscale>  0 0.35168129E+02</rscale>
<asrwt>0</asrwt>
<pdfrwt beam="1">  1        2 0.17061832E+00 0.43618501E+02</pdfrwt>
<pdfrwt beam="2">  1        2 0.12665147E+00 0.28354879E+02</pdfrwt>
<totfact> 0.14636612E+02</totfact>
</mgrwt>
</event>
<event>
13    1  0.1675423E-008  0.1001381E+03  0.7546771E-02  0.1409080E+00
          2   -1    0    0  503    0  0.00000000000E+00  0.00000000000E+00  0.47359081530E+03  0.47359081530E+03  0.00000000000E+00 0. -1.
          2   -1    0    0  502    0 -0.00000000000E+00 -0.00000000000E+00 -0.14697655581E+04  0.14697655581E+04  0.00000000000E+00 0. -1.
         24    2    1    2    0    0 -0.19729433488E+02 -0.95841710438E+02 -0.27313821875E+03  0.30056247118E+03  0.78475655658E+02 0.  0.
         25    2    1    2    0    0  0.10349527583E+03  0.43679986414E+02 -0.10687340872E+03  0.19916347754E+03  0.12499980784E+03 0.  0.
         24    2    1    2    0    0  0.18429022178E+02  0.63291235042E+02 -0.51116164138E+03  0.52172596378E+03  0.81033007862E+02 0.  0.
        -11    1    5    5    0    0  0.46777799934E+02  0.29001144467E+02 -0.35895629599E+03  0.36315127891E+03  0.00000000000E+00 0.  1.
         12    1    5    5    0    0 -0.28348777756E+02  0.34290090575E+02 -0.15220534540E+03  0.15857468486E+03  0.00000000000E+00 0. -1.
        -13    1    3    3    0    0  0.17118203200E+01  0.57505975630E+01  0.21269957613E+01  0.63658316116E+01  0.00000000000E+00 0.  1.
         14    1    3    3    0    0 -0.21441253808E+02 -0.10159230800E+03 -0.27526521451E+03  0.29419663957E+03  0.00000000000E+00 0. -1.
          5    1    4    4  501    0  0.90616652913E+02  0.56802214168E+02 -0.13054418937E+03  0.16882459743E+03  0.47000000000E+01 0. -1.
         -5    1    4    4    0  501  0.12878622922E+02 -0.13122227754E+02  0.23670780650E+02  0.30338880108E+02  0.47000000000E+01 0. -1.
          1    1    1    2  502    0 -0.97982064851E+02  0.21501288649E+02 -0.50787636320E+03  0.51768831428E+03  0.00000000000E+00 0. -1.
          1    1    1    2  503    0 -0.42127996740E+01 -0.32630799666E+02  0.40287488927E+03  0.40421614660E+03  0.00000000000E+00 0. -1.
<mgrwt>
<rscale>  0 0.57399534E+02</rscale>
<asrwt>0</asrwt>
<pdfrwt beam="1">  1        2 0.69645708E-01 0.32901623E+02</pdfrwt>
<pdfrwt beam="2">  1        2 0.21614200E+00 0.10013812E+03</pdfrwt>
<totfact> 0.18273813E+02</totfact>
</mgrwt>
</event>
<event>
13    1  0.1675423E-008  0.1418174E+03  0.7546771E-02  0.1274057E+00
          2   -1    0    0  503    0  0.00000000000E+00  0.00000000000E+00  0.44156854621E+04  0.44156854621E+04  0.00000000000E+00 0. -1.
          2   -1    0    0  502    0 -0.00000000000E+00 -0.00000000000E+00 -0.26808670474E+03  0.26808670474E+03  0.00000000000E+00 0. -1.
         24    2    1    2    0    0  0.51314014504E+02 -0.22567833627E+02  0.10680105707E+04  0.10724670676E+04  0.79978726995E+02 0.  0.
         25    2    1    2    0    0 -0.65143886261E+02 -0.22878631375E+02  0.19031926199E+02  0.14405845329E+03  0.12499386408E+03 0.  0.
         24    2    1    2    0    0 -0.23461273228E+03  0.48866107746E+02  0.21435151902E+04  0.21577813481E+04  0.62705221615E+02 0.  0.
        -11    1    5    5    0    0 -0.22295132931E+03  0.29754525955E+02  0.19818912282E+04  0.19946141149E+04  0.00000000000E+00 0.  1.
         12    1    5    5    0    0 -0.11661402965E+02  0.19111581791E+02  0.16162396203E+03  0.16316723317E+03  0.00000000000E+00 0. -1.
        -13    1    3    3    0    0 -0.15174276389E+02 -0.36677453225E+01  0.50326641585E+03  0.50350848686E+03  0.00000000000E+00 0.  1.
         14    1    3    3    0    0  0.66488290893E+02 -0.18900088304E+02  0.56474415480E+03  0.56895858069E+03  0.00000000000E+00 0. -1.
          5    1    4    4  501    0  0.25563860374E+02  0.91610513883E+01  0.36945259923E+02  0.46092060602E+02  0.47000000000E+01 0. -1.
         -5    1    4    4    0  501 -0.90707746635E+02 -0.32039682764E+02 -0.17913333724E+02  0.97966392688E+02  0.47000000000E+01 0. -1.
          1    1    1    2  502    0  0.17796701022E+03  0.21782662798E+02 -0.15367200005E+03  0.23613941798E+03  0.00000000000E+00 0. -1.
          1    1    1    2  503    0  0.70475593811E+02 -0.25202305542E+02  0.10707130703E+04  0.10733258799E+04  0.00000000000E+00 0. -1.
<mgrwt>
<rscale>  0 0.10302671E+03</rscale>
<asrwt>0</asrwt>
<pdfrwt beam="1">  1        2 0.64936547E+00 0.74846279E+02</pdfrwt>
<pdfrwt beam="2">  1        2 0.39424518E-01 0.14181738E+03</pdfrwt>
<totfact> 0.79599412E+00</totfact>
</mgrwt>
</event>
<event>
13    1  0.1675423E-008  0.1163627E+03  0.7546771E-02  0.1407888E+00
          2   -1    0    0  503    0  0.00000000000E+00  0.00000000000E+00  0.83434817637E+03  0.83434817637E+03  0.00000000000E+00 0. -1.
          2   -1    0    0  502    0 -0.00000000000E+00 -0.00000000000E+00 -0.16263945433E+04  0.16263945433E+04  0.00000000000E+00 0. -1.
         24    2    1    2    0    0 -0.35525935104E+03  0.21932802941E+02  0.85375366317E+01  0.36510261413E+03  0.80850324478E+02 0.  0.
         25    2    1    2    0    0  0.24067130439E+03 -0.25201290248E+03 -0.14403155367E+03  0.39724477452E+03  0.12500057064E+03 0.  0.
         24    2    1    2    0    0  0.39031383274E+02  0.13992617603E+03  0.15736184599E+03  0.22535121811E+03  0.70125867649E+02 0.  0.
        -11    1    5    5    0    0  0.72541295160E+01  0.10569876585E+03  0.72156499553E+02  0.12818506904E+03  0.00000000000E+00 0.  1.
         12    1    5    5    0    0  0.31777253758E+02  0.34227410175E+02  0.85205346434E+02  0.97166149067E+02  0.00000000000E+00 0. -1.
        -13    1    3    3    0    0 -0.95382711348E+02  0.26547480969E+02  0.32193387594E+02  0.10411073227E+03  0.00000000000E+00 0.  1.
         14    1    3    3    0    0 -0.25987663969E+03 -0.46146780280E+01 -0.23655850963E+02  0.26099188186E+03  0.00000000000E+00 0. -1.
          5    1    4    4  501    0 -0.73921497093E+01 -0.30068093659E+02 -0.34967530864E+02  0.46942010485E+02  0.47000000000E+01 0. -1.
         -5    1    4    4    0  501  0.24806345410E+03 -0.22194480882E+03 -0.10906402280E+03  0.35030276404E+03  0.47000000000E+01 0. -1.
          1    1    1    2  502    0  0.24617397754E+02 -0.14517852844E+02 -0.11330138831E+04  0.11333742734E+04  0.00000000000E+00 0. -1.
          1    1    1    2  503    0  0.50939265621E+02  0.10467177635E+03  0.31909968717E+03  0.33966983955E+03  0.00000000000E+00 0. -1.
<mgrwt>
<rscale>  0 0.57667836E+02</rscale>
<asrwt>0</asrwt>
<pdfrwt beam="1">  1        2 0.12269826E+00 0.11636265E+03</pdfrwt>
<pdfrwt beam="2">  1        2 0.23917567E+00 0.28579439E+02</pdfrwt>
<totfact> 0.88991317E+01</totfact>
</mgrwt>
</event>
<event>
13    1  0.1675423E-008  0.1142653E+03  0.7546771E-02  0.1345364E+00
          2   -1    0    0  502    0  0.00000000000E+00  0.00000000000E+00  0.18710355004E+04  0.18710355004E+04  0.00000000000E+00 0. -1.
          2   -1    0    0  503    0 -0.00000000000E+00 -0.00000000000E+00 -0.18177884000E+04  0.18177884000E+04  0.00000000000E+00 0. -1.
         24    2    1    2    0    0  0.76728083014E+01 -0.31301150078E+02  0.10996763518E+04  0.11032074763E+04  0.82097642434E+02 0.  0.
         25    2    1    2    0    0 -0.97748955174E+02 -0.50472897445E+03  0.44070711447E+03  0.68858821950E+03  0.12499911758E+03 0.  0.
         24    2    1    2    0    0  0.95432828018E+01  0.47220748606E+03 -0.48362138443E+03  0.68079497194E+03  0.80753738000E+02 0.  0.
        -11    1    3    3    0    0 -0.36357755168E+02 -0.22083699311E+02  0.60267118977E+03  0.60417062086E+03  0.00000000000E+00 0.  1.
         12    1    3    3    0    0  0.44030563469E+02 -0.92174507669E+01  0.49700516207E+03  0.49903685539E+03  0.00000000000E+00 0. -1.
        -13    1    5    5    0    0 -0.14659106499E+02  0.37316700864E+03 -0.34273988012E+03  0.50689163651E+03  0.00000000000E+00 0.  1.
         14    1    5    5    0    0  0.24202389301E+02  0.99040477418E+02 -0.14088150432E+03  0.17390333543E+03  0.00000000000E+00 0. -1.
          5    1    4    4  501    0 -0.84226047373E+02 -0.27223451427E+03  0.31153754084E+03  0.42223617463E+03  0.47000000000E+01 0. -1.
         -5    1    4    4    0  501 -0.13522907800E+02 -0.23249446019E+03  0.12916957363E+03  0.26635204487E+03  0.47000000000E+01 0. -1.
          1    1    1    2  502    0  0.29483902969E+02 -0.38633990932E+02  0.97681338307E+02  0.10910329804E+03  0.00000000000E+00 0. -1.
          1    1    1    2  503    0  0.51048961102E+02  0.10245662940E+03 -0.11011963198E+04  0.11071299346E+04  0.00000000000E+00 0. -1.
<mgrwt>
<rscale>  0 0.74519836E+02</rscale>
<asrwt>0</asrwt>
<pdfrwt beam="1">  1        2 0.27515228E+00 0.48599237E+02</pdfrwt>
<pdfrwt beam="2">  1        2 0.26732182E+00 0.11426529E+03</pdfrwt>
<totfact> 0.19612478E+01</totfact>
</mgrwt>
</event>
<event>
13    1  0.1675423E-008  0.9288906E+02  0.7546771E-02  0.1377432E+00
          2   -1    0    0  502    0  0.00000000000E+00  0.00000000000E+00  0.12549799285E+04  0.12549799285E+04  0.00000000000E+00 0. -1.
          2   -1    0    0  503    0 -0.00000000000E+00 -0.00000000000E+00 -0.16996910787E+04  0.16996910787E+04  0.00000000000E+00 0. -1.
         24    2    1    2    0    0  0.69947893767E+03 -0.59331206820E+03 -0.57525053642E+02  0.92511531762E+03  0.10601520921E+03 0.  0.
         25    2    1    2    0    0 -0.56202391984E+02  0.22647007206E+03  0.43780158602E+03  0.51160809288E+03  0.12500083828E+03 0.  0.
         24    2    1    2    0    0 -0.50849914137E+03  0.36310493678E+03 -0.31164420221E+03  0.70285393549E+03  0.80405061943E+02 0.  0.
        -11    1    3    3    0    0  0.29445072764E+03 -0.21084064082E+03 -0.65263442902E+02  0.36798685277E+03  0.00000000000E+00 0.  1.
         12    1    3    3    0    0  0.40502821002E+03 -0.38247142738E+03  0.77383892603E+01  0.55712846485E+03  0.00000000000E+00 0. -1.
        -13    1    5    5    0    0 -0.51029706975E+03  0.35551572143E+03 -0.30990210401E+03  0.69486246240E+03  0.00000000000E+00 0.  1.
         14    1    5    5    0    0  0.17979283861E+01  0.75892153476E+01 -0.17420981961E+01  0.79914730932E+01  0.00000000000E+00 0. -1.
          5    1    4    4  501    0 -0.58633752342E+02  0.22196097712E+03  0.32140254995E+03  0.39500162201E+03  0.47000000000E+01 0. -1.
         -5    1    4    4    0  501  0.24313603575E+01  0.45090949469E+01  0.11639903607E+03  0.11660647087E+03  0.47000000000E+01 0. -1.
          1    1    1    2  502    0 -0.91639463264E+02 -0.11306230285E+02  0.13586982769E+03  0.16427486767E+03  0.00000000000E+00 0. -1.
          1    1    1    2  503    0 -0.43137941050E+02  0.15043289648E+02 -0.64921330814E+03  0.65081879351E+03  0.00000000000E+00 0. -1.
<mgrwt>
<rscale>  0 0.65143694E+02</rscale>
<asrwt>0</asrwt>
<pdfrwt beam="1">  1        2 0.18455587E+00 0.92889056E+02</pdfrwt>
<pdfrwt beam="2">  1        2 0.24995457E+00 0.45685693E+02</pdfrwt>
<totfact> 0.45840370E+01</totfact>
</mgrwt>
</event>
<event>
13    1  0.1675423E-008  0.2741874E+03  0.7546771E-02  0.1202496E+00
          2   -1    0    0  502    0  0.00000000000E+00  0.00000000000E+00  0.39764897205E+04  0.39764897205E+04  0.00000000000E+00 0. -1.
          2   -1    0    0  503    0 -0.00000000000E+00 -0.00000000000E+00 -0.24974249112E+04  0.24974249112E+04  0.00000000000E+00 0. -1.
         24    2    1    2    0    0 -0.63854050778E+03  0.19334528074E+02  0.78187695313E+03  0.10129231565E+04  0.81079881309E+02 0.  0.
         25    2    1    2    0    0  0.85490816936E+02  0.24051268876E+03 -0.18708679409E+03  0.34026942968E+03  0.12500713188E+03 0.  0.
         24    2    1    2    0    0  0.29069034942E+03 -0.24734885030E+03 -0.39274697298E+02  0.39557677720E+03  0.96208896814E+02 0.  0.
        -11    1    5    5    0    0  0.12424600718E+03 -0.15302962315E+03  0.12099469638E+02  0.19748805794E+03  0.00000000000E+00 0.  1.
         12    1    5    5    0    0  0.16644434223E+03 -0.94319227144E+02 -0.51374166936E+02  0.19808871926E+03  0.00000000000E+00 0. -1.
        -11    1    3    3    0    0 -0.45775760104E+03  0.23698701456E+02  0.61359883482E+03  0.76590285275E+03  0.00000000000E+00 0.  1.
         12    1    3    3    0    0 -0.18078290673E+03 -0.43641733822E+01  0.16827811831E+03  0.24702030378E+03  0.00000000000E+00 0. -1.
          5    1    4    4  501    0  0.21084717077E+02  0.13560433150E+03 -0.29850262146E+02  0.14052127300E+03  0.47000000000E+01 0.  1.
         -5    1    4    4    0  501  0.64406099859E+02  0.10490835726E+03 -0.15723653194E+03  0.19974815668E+03  0.47000000000E+01 0.  1.
          1    1    1    2  502    0  0.40996499168E+01  0.80177408962E+02  0.28138698030E+04  0.28150148298E+04  0.00000000000E+00 0. -1.
          1    1    1    2  503    0  0.25825969151E+03 -0.92675775495E+02 -0.18903204554E+04  0.19101304385E+04  0.00000000000E+00 0. -1.
<mgrwt>
<rscale>  0 0.14836560E+03</rscale>
<asrwt>0</asrwt>
<pdfrwt beam="1">  1        2 0.58477791E+00 0.80282153E+02</pdfrwt>
<pdfrwt beam="2">  1        2 0.36726837E+00 0.27418737E+03</pdfrwt>
<totfact> 0.57881567E-01</totfact>
</mgrwt>
</event>
<event>
13    1  0.1675423E-008  0.2188357E+03  0.7546771E-02  0.1311235E+00
          4   -1    0    0  503    0 -0.00000000000E+00  0.00000000000E+00  0.26590712663E+03  0.26590712663E+03  0.00000000000E+00 0. -1.
          2   -1    0    0  502    0  0.00000000000E+00 -0.00000000000E+00 -0.24780671871E+04  0.24780671871E+04  0.00000000000E+00 0. -1.
         24    2    1    2    0    0  0.39066807981E+02  0.19369767946E+03 -0.13307205946E+04  0.13477531718E+04  0.81094418823E+02 0.  0.
         25    2    1    2    0    0  0.28681937613E+03 -0.20194665010E+03 -0.35786155801E+03  0.51646740226E+03  0.12500351548E+03 0.  0.
         24    2    1    2    0    0 -0.13132286728E+03  0.64531325090E+02 -0.31709486362E+03  0.35853723536E+03  0.81177639871E+02 0.  0.
        -11    1    5    5    0    0 -0.43412917199E+01 -0.80332049597E+01  0.22622511118E+00  0.91340228554E+01  0.00000000000E+00 0.  1.
         12    1    5    5    0    0 -0.12698157556E+03  0.72564530050E+02 -0.31732108873E+03  0.34940321250E+03  0.00000000000E+00 0. -1.
        -13    1    3    3    0    0  0.11398262454E+01  0.11084012772E+03 -0.94175376704E+03  0.94825470780E+03  0.00000000000E+00 0.  1.
         14    1    3    3    0    0  0.37926981736E+02  0.82857551743E+02 -0.38896682756E+03  0.39949846404E+03  0.00000000000E+00 0. -1.
          5    1    4    4  501    0  0.90257031167E+02  0.10913065364E+00 -0.91449842958E+02  0.12857490953E+03  0.47000000000E+01 0. -1.
         -5    1    4    4    0  501  0.19656234497E+03 -0.20205578076E+03 -0.26641171506E+03  0.38789249273E+03  0.47000000000E+01 0. -1.
          1    1    1    2  502    0 -0.19034550176E+03 -0.22252049836E+02 -0.33623225354E+03  0.38701252186E+03  0.00000000000E+00 0. -1.
          3    1    1    2  503    0 -0.42178150756E+01 -0.34030304616E+02  0.12974920927E+03  0.13420398244E+03  0.00000000000E+00 0. -1.
<mgrwt>
<rscale>  0 0.86625790E+02</rscale>
<asrwt>0</asrwt>
<pdfrwt beam="2">  1        2 0.36442164E+00 0.21883570E+03</pdfrwt>
<pdfrwt beam="1">  1        4 0.39103990E-01 0.34290693E+02</pdfrwt>
<totfact> 0.13676623E+01</totfact>
</mgrwt>
</event>
<event>
13    1  0.1675423E-008  0.1230835E+03  0.7546771E-02  0.1289901E+00
          2   -1    0    0  502    0  0.00000000000E+00  0.00000000000E+00  0.11309278247E+04  0.11309278247E+04  0.00000000000E+00 0. -1.
          2   -1    0    0  503    0 -0.00000000000E+00 -0.00000000000E+00 -0.10735502924E+04  0.10735502924E+04  0.00000000000E+00 0. -1.
         24    2    1    2    0    0 -0.45525658183E+02  0.20432016742E+02  0.33576718795E+02  0.10225077222E+03  0.82690818792E+02 0.  0.
         25    2    1    2    0    0  0.25878998592E+03 -0.27272310562E+02  0.84520833562E+02  0.30080791739E+03  0.12500238448E+03 0.  0.
         24    2    1    2    0    0  0.83133421960E+01  0.17906084088E+02 -0.90901623358E+02  0.12177989926E+03  0.78597068826E+02 0.  0.
        -13    1    3    3    0    0 -0.66867464255E+02  0.69966188561E+01  0.37096288378E+02  0.76787662178E+02  0.00000000000E+00 0.  1.
         14    1    3    3    0    0  0.21341806072E+02  0.13435397886E+02 -0.35195695831E+01  0.25463110038E+02  0.00000000000E+00 0. -1.
        -13    1    5    5    0    0 -0.34595441868E+02  0.14404275791E+02 -0.49164929393E+02  0.61818428008E+02  0.00000000000E+00 0.  1.
         14    1    5    5    0    0  0.42908784064E+02  0.35018082969E+01 -0.41736693964E+02  0.59961471249E+02  0.00000000000E+00 0. -1.
          5    1    4    4  501    0  0.18115460262E+03  0.40094151803E+02  0.49056199839E+02  0.19197169532E+03  0.47000000000E+01 0.  1.
         -5    1    4    4    0  501  0.77635383298E+02 -0.67366462365E+02  0.35464633722E+02  0.10883622208E+03  0.47000000000E+01 0.  1.
          1    1    1    2  502    0 -0.44832723571E+02 -0.59129879005E+02  0.84309112086E+03  0.84635037294E+03  0.00000000000E+00 0. -1.
          1    1    1    2  503    0 -0.17674494636E+03  0.48064088736E+02 -0.81290951752E+03  0.83328915532E+03  0.00000000000E+00 0. -1.
<mgrwt>
<rscale>  0 0.95568599E+02</rscale>
<asrwt>0</asrwt>
<pdfrwt beam="1">  1        2 0.16631292E+00 0.74204553E+02</pdfrwt>
<pdfrwt beam="2">  1        2 0.15787504E+00 0.12308351E+03</pdfrwt>
<totfact> 0.10374762E+02</totfact>
</mgrwt>
</event>
<event>
13    1  0.1675423E-008  0.1245410E+03  0.7546771E-02  0.1238115E+00
          2   -1    0    0  502    0  0.00000000000E+00  0.00000000000E+00  0.17876449592E+04  0.17876449592E+04  0.00000000000E+00 0. -1.
          2   -1    0    0  503    0 -0.00000000000E+00 -0.00000000000E+00 -0.38557537664E+04  0.38557537664E+04  0.00000000000E+00 0. -1.
         24    2    1    2    0    0  0.75224624993E+02  0.18347852209E+03  0.28643772259E+03  0.35731758954E+03  0.79411451320E+02 0.  0.
         25    2    1    2    0    0  0.47503309920E+02 -0.30760672924E+03 -0.11141954690E+04  0.11635866945E+04  0.12499595221E+03 0.  0.
         24    2    1    2    0    0 -0.13771013240E+03  0.10270310443E+03  0.10408349855E+03  0.21461875844E+03  0.75603099029E+02 0.  0.
        -11    1    3    3    0    0  0.65296498394E+02  0.62343936220E+02  0.14526558696E+03  0.17103359272E+03  0.00000000000E+00 0.  1.
         12    1    3    3    0    0  0.99281265988E+01  0.12113458587E+03  0.14117213563E+03  0.18628399682E+03  0.00000000000E+00 0. -1.
        -11    1    5    5    0    0 -0.86442316355E+02  0.47821280610E+02  0.18062911962E+02  0.10042618047E+03  0.00000000000E+00 0.  1.
         12    1    5    5    0    0 -0.51267816041E+02  0.54881823817E+02  0.86020586585E+02  0.11419257797E+03  0.00000000000E+00 0. -1.
          5    1    4    4  501    0  0.83051102085E+02 -0.13144050994E+03 -0.50386462908E+03  0.52732887997E+03  0.47000000000E+01 0. -1.
         -5    1    4    4    0  501 -0.35547792165E+02 -0.17616621930E+03 -0.61033083995E+03  0.63625781453E+03  0.47000000000E+01 0. -1.
          1    1    1    2  502    0  0.98303098713E+02 -0.71606995159E+02  0.12773457683E+04  0.12831224699E+04  0.00000000000E+00 0. -1.
          1    1    1    2  503    0 -0.83320901230E+02  0.93032097879E+02 -0.26217803276E+04  0.26247532132E+04  0.00000000000E+00 0. -1.
<mgrwt>
<rscale>  0 0.12307106E+03</rscale>
<asrwt>0</asrwt>
<pdfrwt beam="1">  1        2 0.26288897E+00 0.12161851E+03</pdfrwt>
<pdfrwt beam="2">  1        2 0.56702261E+00 0.12454096E+03</pdfrwt>
<totfact> 0.15609581E+00</totfact>
</mgrwt>
</event>
<event>
13    1  0.1675423E-008  0.7076705E+02  0.7546771E-02  0.1436141E+00
          2   -1    0    0  503    0  0.00000000000E+00  0.00000000000E+00  0.14177848953E+04  0.14177848953E+04  0.00000000000E+00 0. -1.
          2   -1    0    0  502    0 -0.00000000000E+00 -0.00000000000E+00 -0.11011393865E+04  0.11011393865E+04  0.00000000000E+00 0. -1.
         24    2    1    2    0    0  0.42992460253E+02  0.78561909302E+01  0.40817394780E+03  0.41557558072E+03  0.64707188539E+02 0.  0.
         25    2    1    2    0    0 -0.40122409961E+02  0.12462118917E+03  0.57726919863E+03  0.60498245005E+03  0.12499515435E+03 0.  0.
         24    2    1    2    0    0 -0.53231204146E+01 -0.31022366151E+02 -0.34027960873E+03  0.35107174610E+03  0.80439020239E+02 0.  0.
        -11    1    5    5    0    0  0.17722511222E+02  0.12903867160E+02 -0.31769606121E+02  0.38599288398E+02  0.00000000000E+00 0.  1.
         12    1    5    5    0    0 -0.23045631637E+02 -0.43926233312E+02 -0.30851000261E+03  0.31247245770E+03  0.00000000000E+00 0. -1.
        -13    1    3    3    0    0  0.26186759651E+02 -0.27716390344E+02  0.17501134632E+03  0.17911704558E+03  0.00000000000E+00 0.  1.
         14    1    3    3    0    0  0.16805700603E+02  0.35572581275E+02  0.23316260148E+03  0.23645853514E+03  0.00000000000E+00 0. -1.
          5    1    4    4  501    0 -0.97432621614E+01  0.11285316869E+03  0.55190161537E+03  0.56342546258E+03  0.47000000000E+01 0.  1.
         -5    1    4    4    0  501 -0.30379147799E+02  0.11768020478E+02  0.25367583270E+02  0.41556987474E+02  0.47000000000E+01 0.  1.
          1    1    1    2  502    0  0.19881346655E+02 -0.67869073040E+02 -0.73533179780E+03  0.73872480118E+03  0.00000000000E+00 0. -1.
          1    1    1    2  503    0 -0.17428276533E+02 -0.33585940906E+02  0.40681376891E+03  0.40856970375E+03  0.00000000000E+00 0. -1.
<mgrwt>
<rscale>  0 0.51746757E+02</rscale>
<asrwt>0</asrwt>
<pdfrwt beam="1">  1        2 0.20849778E+00 0.37838608E+02</pdfrwt>
<pdfrwt beam="2">  1        2 0.16193226E+00 0.70767055E+02</pdfrwt>
<totfact> 0.77494062E+01</totfact>
</mgrwt>
</event>
<event>
13    1  0.1675423E-008  0.1350584E+03  0.7546771E-02  0.1409495E+00
          2   -1    0    0  502    0  0.00000000000E+00  0.00000000000E+00  0.47472947453E+04  0.47472947453E+04  0.00000000000E+00 0. -1.
          4   -1    0    0  503    0 -0.00000000000E+00 -0.00000000000E+00 -0.91400131807E+03  0.91400131807E+03  0.00000000000E+00 0. -1.
         24    2    1    2    0    0 -0.15892692253E+03 -0.14288135573E+03  0.46359719232E+03  0.51674867118E+03  0.80212118288E+02 0.  0.
         25    2    1    2    0    0  0.18819589128E+01  0.25180913298E+03 -0.62321293173E+03  0.68368895349E+03  0.12499938250E+03 0.  0.
         24    2    1    2    0    0  0.27224925241E+02  0.39269217702E+02  0.22016221856E+03  0.23795083626E+03  0.76589359456E+02 0.  0.
        -11    1    5    5    0    0 -0.68023767975E+01  0.79310761440E+01 -0.23259827069E+01  0.10704414718E+02  0.00000000000E+00 0.  1.
         12    1    5    5    0    0  0.34027302039E+02  0.31338141558E+02  0.22248820127E+03  0.22724642154E+03  0.00000000000E+00 0. -1.
        -11    1    3    3    0    0 -0.34123452898E+02 -0.83111046832E+01  0.31066848067E+02  0.46889588904E+02  0.00000000000E+00 0.  1.
         12    1    3    3    0    0 -0.12480346963E+03 -0.13457025105E+03  0.43253034425E+03  0.46985908228E+03  0.00000000000E+00 0. -1.
          5    1    4    4  501    0 -0.57308416930E+02  0.15176704866E+03 -0.40699841930E+03  0.43816354826E+03  0.47000000000E+01 0. -1.
         -5    1    4    4    0  501  0.59190375843E+02  0.10004208432E+03 -0.21621451243E+03  0.24552540523E+03  0.47000000000E+01 0. -1.
          1    1    1    2  502    0  0.12412756039E+03 -0.17183710661E+03  0.39943517798E+04  0.39999727228E+04  0.00000000000E+00 0. -1.
          3    1    1    2  503    0  0.56924779894E+01  0.23640111658E+02 -0.22160483164E+03  0.22293487971E+03  0.00000000000E+00 0. -1.
<mgrwt>
<rscale>  0 0.57306683E+02</rscale>
<asrwt>0</asrwt>
<pdfrwt beam="1">  1        2 0.69813157E+00 0.13505840E+03</pdfrwt>
<pdfrwt beam="2">  1        4 0.13441196E+00 0.24315822E+02</pdfrwt>
<totfact> 0.37529831E-02</totfact>
</mgrwt>
</event>
<event>
13    1  0.1675423E-008  0.2116840E+03  0.7546771E-02  0.1176956E+00
          2   -1    0    0  502    0  0.00000000000E+00  0.00000000000E+00  0.10584791471E+04  0.10584791471E+04  0.00000000000E+00 0. -1.
          2   -1    0    0  503    0 -0.00000000000E+00 -0.00000000000E+00 -0.49904857848E+03  0.49904857848E+03  0.00000000000E+00 0. -1.
         24    2    1    2    0    0  0.10244140106E+03 -0.11202864458E+03 -0.35635485431E+02  0.17500532429E+03  0.79450096605E+02 0.  0.
         25    2    1    2    0    0  0.36870006936E+02  0.39940596367E+03 -0.10811976487E+03  0.43381670164E+03  0.12499010297E+03 0.  0.
         24    2    1    2    0    0 -0.16551280376E+02 -0.59841381689E+02  0.26784996718E+03  0.28653336412E+03  0.80640114045E+02 0.  0.
        -13    1    5    5    0    0  0.32609531118E+02 -0.28255677587E+02  0.10515949709E+03  0.11366743009E+03  0.00000000000E+00 0.  1.
         14    1    5    5    0    0 -0.49160811494E+02 -0.31585704102E+02  0.16269047009E+03  0.17286593403E+03  0.00000000000E+00 0. -1.
        -13    1    3    3    0    0  0.35226968268E+02 -0.82351674345E+02  0.73663450763E+01  0.89872134728E+02  0.00000000000E+00 0.  1.
         14    1    3    3    0    0  0.67214432797E+02 -0.29676970234E+02 -0.43001830507E+02  0.85133189565E+02  0.00000000000E+00 0. -1.
          5    1    4    4  501    0 -0.43068999704E+00  0.21036394237E+03  0.47229798690E+01  0.21046987975E+03  0.47000000000E+01 0. -1.
         -5    1    4    4    0  501  0.37300696933E+02  0.18904202130E+03 -0.11284274474E+03  0.22334682189E+03  0.47000000000E+01 0. -1.
          1    1    1    2  502    0  0.73365345676E+02 -0.13263189367E+03  0.41680058223E+03  0.44350469954E+03  0.00000000000E+00 0. -1.
          1    1    1    2  503    0 -0.19612547330E+03 -0.94904043730E+02  0.18535269469E+02  0.21866763594E+03  0.00000000000E+00 0. -1.
<mgrwt>
<rscale>  0 0.17085812E+03</rscale>
<asrwt>0</asrwt>
<pdfrwt beam="1">  1        2 0.15565870E+00 0.13790602E+03</pdfrwt>
<pdfrwt beam="2">  1        2 0.73389497E-01 0.21168399E+03</pdfrwt>
<totfact> 0.27393449E+02</totfact>
</mgrwt>
</event>
<event>
13    1  0.1675423E-008  0.5638824E+02  0.7546771E-02  0.1425917E+00
          2   -1    0    0  503    0  0.00000000000E+00  0.00000000000E+00  0.33307657848E+04  0.33307657848E+04  0.00000000000E+00 0. -1.
          2   -1    0    0  502    0 -0.00000000000E+00 -0.00000000000E+00 -0.26431751462E+04  0.26431751462E+04  0.00000000000E+00 0. -1.
         24    2    1    2    0    0 -0.16505857814E+03  0.20644897679E+03  0.60927567500E+03  0.66908626981E+03  0.81203904266E+02 0.  0.
         25    2    1    2    0    0  0.20056337377E+03 -0.26483682960E+03 -0.65964821365E+03  0.74908378571E+03  0.12500615596E+03 0.  0.
         24    2    1    2    0    0 -0.34405382720E+02 -0.20810803034E+02  0.15591613551E+03  0.17976625004E+03  0.79932743334E+02 0.  0.
        -11    1    3    3    0    0 -0.57907284823E+02  0.40457458287E+02  0.96715499943E+02  0.11976622018E+03  0.00000000000E+00 0.  1.
         12    1    3    3    0    0 -0.10715129332E+03  0.16599151850E+03  0.51256017506E+03  0.54932004964E+03  0.00000000000E+00 0. -1.
        -13    1    5    5    0    0  0.21202292311E+02 -0.25548407312E+02  0.67238191959E+02  0.74988217563E+02  0.00000000000E+00 0.  1.
         14    1    5    5    0    0 -0.55607675031E+02  0.47376042773E+01  0.88677943550E+02  0.10477803247E+03  0.00000000000E+00 0. -1.
          5    1    4    4  501    0  0.37399935114E+02 -0.85194490314E+02 -0.88488611270E+02  0.12848805645E+03  0.47000000000E+01 0.  1.
         -5    1    4    4    0  501  0.16316343865E+03 -0.17964233928E+03 -0.57115960238E+03  0.62059572925E+03  0.47000000000E+01 0.  1.
          1    1    1    2  502    0 -0.36908039141E+02  0.35642056568E+02 -0.18963111137E+04  0.18970051132E+04  0.00000000000E+00 0. -1.
          1    1    1    2  503    0  0.35808626240E+02  0.43556599274E+02  0.24783581554E+04  0.24789995122E+04  0.00000000000E+00 0. -1.
<mgrwt>
<rscale>  0 0.53788425E+02</rscale>
<asrwt>0</asrwt>
<pdfrwt beam="1">  1        2 0.48981850E+00 0.56388242E+02</pdfrwt>
<pdfrwt beam="2">  1        2 0.38870222E+00 0.51308474E+02</pdfrwt>
<totfact> 0.16000096E+00</totfact>
</mgrwt>
</event>
<event>
13    1  0.1675423E-008  0.2534155E+03  0.7546771E-02  0.1269950E+00
          2   -1    0    0  503    0  0.00000000000E+00  0.00000000000E+00  0.24539498188E+04  0.24539498188E+04  0.00000000000E+00 0. -1.
          2   -1    0    0  502    0 -0.00000000000E+00 -0.00000000000E+00 -0.26248040975E+04  0.26248040975E+04  0.00000000000E+00 0. -1.
         24    2    1    2    0    0 -0.13239755710E+03  0.50182452913E+03 -0.38070472563E+03  0.65154079478E+03  0.10105616252E+03 0.  0.
         25    2    1    2    0    0  0.69887846352E+02 -0.54442245802E+03 -0.18045843872E+03  0.59116004785E+03  0.12499932082E+03 0.  0.
         24    2    1    2    0    0 -0.17947497976E+03  0.90541459149E+02 -0.17399290981E+03  0.27586355565E+03  0.73608046369E+02 0.  0.
        -11    1    5    5    0    0 -0.77944970468E+02  0.10465934141E+01 -0.52439507790E+02  0.93949006148E+02  0.00000000000E+00 0.  1.
         12    1    5    5    0    0 -0.10153000929E+03  0.89494865734E+02 -0.12155340202E+03  0.18191454951E+03  0.00000000000E+00 0. -1.
        -13    1    3    3    0    0 -0.88515501806E+02  0.45354408990E+03 -0.31719557906E+03  0.56049109798E+03  0.00000000000E+00 0.  1.
         14    1    3    3    0    0 -0.43882055291E+02  0.48280439233E+02 -0.63509146569E+02  0.91049696798E+02  0.00000000000E+00 0. -1.
          5    1    4    4  501    0 -0.21161633187E+02 -0.16626337997E+02 -0.95663136776E+01  0.28945711110E+02  0.47000000000E+01 0.  1.
         -5    1    4    4    0  501  0.91049479539E+02 -0.52779612002E+03 -0.17089212504E+03  0.56221433674E+03  0.47000000000E+01 0.  1.
          1    1    1    2  502    0 -0.13030675675E+02 -0.41583266813E+02 -0.14897353910E+04  0.14903726050E+04  0.00000000000E+00 0. -1.
          1    1    1    2  503    0  0.25501536618E+03 -0.63602634433E+01  0.20540371865E+04  0.20698169130E+04  0.00000000000E+00 0. -1.
<mgrwt>
<rscale>  0 0.10508626E+03</rscale>
<asrwt>0</asrwt>
<pdfrwt beam="1">  1        2 0.36087498E+00 0.25341551E+03</pdfrwt>
<pdfrwt beam="2">  1        2 0.38600060E+00 0.43577134E+02</pdfrwt>
<totfact> 0.39110018E+00</totfact>
</mgrwt>
</event>
<event>
13    1  0.1675423E-008  0.1851325E+03  0.7546771E-02  0.1219154E+00
          2   -1    0    0  502    0  0.00000000000E+00  0.00000000000E+00  0.41721712153E+04  0.41721712153E+04  0.00000000000E+00 0. -1.
          2   -1    0    0  503    0 -0.00000000000E+00 -0.00000000000E+00 -0.18881937968E+04  0.18881937968E+04  0.00000000000E+00 0. -1.
         24    2    1    2    0    0  0.66492345225E+02  0.10628413849E+03  0.62059136856E+03  0.63816519550E+03  0.80022621456E+02 0.  0.
         25    2    1    2    0    0 -0.16508071330E+03  0.11248611485E+03 -0.10472944668E+04  0.10734786541E+04  0.12500381094E+03 0.  0.
         24    2    1    2    0    0 -0.64658588786E+02  0.21244376154E+02 -0.65513060847E+02  0.12446683392E+03  0.81043044006E+02 0.  0.
        -11    1    3    3    0    0 -0.85640616325E+01  0.40909138188E+02  0.10422804863E+03  0.11229597883E+03  0.00000000000E+00 0.  1.
         12    1    3    3    0    0  0.75056406857E+02  0.65375000302E+02  0.51636331993E+03  0.52586921667E+03  0.00000000000E+00 0. -1.
        -11    1    5    5    0    0 -0.73599728414E+01 -0.27768677458E+02 -0.85681204668E+01  0.29978014216E+02  0.00000000000E+00 0.  1.
         12    1    5    5    0    0 -0.57298615945E+02  0.49013053612E+02 -0.56944940380E+02  0.94488819701E+02  0.00000000000E+00 0. -1.
          5    1    4    4  501    0 -0.81023101654E+02  0.17407684655E+02 -0.67577469979E+03  0.68085336554E+03  0.47000000000E+01 0. -1.
         -5    1    4    4    0  501 -0.84057611642E+02  0.95078430197E+02 -0.37151976697E+03  0.39262528855E+03  0.47000000000E+01 0. -1.
          1    1    1    2  502    0  0.66819318873E+02 -0.29308810984E+03  0.34895410161E+04  0.35024651268E+04  0.00000000000E+00 0. -1.
          1    1    1    2  503    0  0.96427637984E+02  0.53073480345E+02 -0.71334743852E+03  0.72178920172E+03  0.00000000000E+00 0. -1.
<mgrwt>
<rscale>  0 0.13575761E+03</rscale>
<asrwt>0</asrwt>
<pdfrwt beam="1">  1        2 0.61355459E+00 0.18513245E+03</pdfrwt>
<pdfrwt beam="2">  1        2 0.27767556E+00 0.99551045E+02</pdfrwt>
<totfact> 0.79956912E-01</totfact>
</mgrwt>
</event>
<event>
13    1  0.1675423E-008  0.1523425E+03  0.7546771E-02  0.1341437E+00
          2   -1    0    0  503    0  0.00000000000E+00  0.00000000000E+00  0.11555548562E+04  0.11555548562E+04  0.00000000000E+00 0. -1.
          2   -1    0    0  502    0 -0.00000000000E+00 -0.00000000000E+00 -0.12689621209E+04  0.12689621209E+04  0.00000000000E+00 0. -1.
         24    2    1    2    0    0  0.65078584922E+02 -0.70675285068E+02  0.11347800487E+03  0.16840677344E+03  0.79078224655E+02 0.  0.
         25    2    1    2    0    0  0.12332125556E+03 -0.24337949185E+03 -0.11705615617E+03  0.32212355952E+03  0.12497893731E+03 0.  0.
         24    2    1    2    0    0 -0.68433465462E+02  0.39285531052E+02 -0.10037107483E+03  0.15001102686E+03  0.78755719606E+02 0.  0.
        -11    1    5    5    0    0 -0.20643342426E+02  0.52010257646E+02 -0.28577308971E+02  0.62832134095E+02  0.00000000000E+00 0.  1.
         12    1    5    5    0    0 -0.47790123036E+02 -0.12724726594E+02 -0.71793765863E+02  0.87178892763E+02  0.00000000000E+00 0. -1.
        -13    1    3    3    0    0  0.55051445051E+02 -0.16398842553E+02  0.21887232537E+02  0.61470599374E+02  0.00000000000E+00 0.  1.
         14    1    3    3    0    0  0.10027139870E+02 -0.54276442515E+02  0.91590772337E+02  0.10693617406E+03  0.00000000000E+00 0. -1.
          5    1    4    4  501    0  0.23359005732E+02 -0.10661133690E+03  0.10884073181E+02  0.10978239090E+03  0.47000000000E+01 0. -1.
         -5    1    4    4    0  501  0.99962249832E+02 -0.13676815496E+03 -0.12794022935E+03  0.21234116861E+03  0.47000000000E+01 0. -1.
          1    1    1    2  502    0 -0.25606772776E+02  0.27678810491E+02 -0.87659083639E+03  0.87740145761E+03  0.00000000000E+00 0. -1.
          1    1    1    2  503    0 -0.94359602247E+02  0.24709043538E+03  0.86713279788E+03  0.90657415965E+03  0.00000000000E+00 0. -1.
<mgrwt>
<rscale>  0 0.75791742E+02</rscale>
<asrwt>0</asrwt>
<pdfrwt beam="1">  1        2 0.16993454E+00 0.15234246E+03</pdfrwt>
<pdfrwt beam="2">  1        2 0.18661208E+00 0.37707073E+02</pdfrwt>
<totfact> 0.81892742E+01</totfact>
</mgrwt>
</event>
<event>
13    1  0.1675423E-008  0.4619256E+02  0.7546771E-02  0.1481587E+00
          2   -1    0    0  503    0  0.00000000000E+00  0.00000000000E+00  0.91262740371E+03  0.91262740371E+03  0.00000000000E+00 0. -1.
          2   -1    0    0  502    0 -0.00000000000E+00 -0.00000000000E+00 -0.10682029344E+04  0.10682029344E+04  0.00000000000E+00 0. -1.
         24    2    1    2    0    0 -0.34768325486E+02  0.24868200134E+02  0.29909547566E+03  0.31278218872E+03  0.80915574447E+02 0.  0.
         25    2    1    2    0    0 -0.37419112532E+03 -0.13740724351E+03 -0.13236604429E+03  0.43822902463E+03  0.12499663799E+03 0.  0.
         24    2    1    2    0    0  0.34924179154E+03  0.86019693705E+02 -0.40306959001E+03  0.54573297077E+03  0.77396151944E+02 0.  0.
        -11    1    5    5    0    0  0.18842541146E+02 -0.12108879357E+02 -0.16464907088E+02  0.27798551788E+02  0.00000000000E+00 0.  1.
         12    1    5    5    0    0  0.33039925039E+03  0.98128573062E+02 -0.38660468293E+03  0.51793441899E+03  0.00000000000E+00 0. -1.
        -11    1    3    3    0    0 -0.45576488557E+02 -0.12104243992E+02  0.21747338780E+03  0.22252730940E+03  0.00000000000E+00 0.  1.
         12    1    3    3    0    0  0.10808163071E+02  0.36972444126E+02  0.81622087865E+02  0.90254879320E+02  0.00000000000E+00 0. -1.
          5    1    4    4  501    0 -0.33442862737E+02  0.81772609410E+01 -0.46128528343E+02  0.57751396447E+02  0.47000000000E+01 0.  1.
         -5    1    4    4    0  501 -0.34074826259E+03 -0.14558450445E+03 -0.86237515951E+02  0.38047762818E+03  0.47000000000E+01 0.  1.
          1    1    1    2  502    0  0.38951800231E+02 -0.14733442120E+02 -0.29881707179E+03  0.30170508688E+03  0.00000000000E+00 0. -1.
          1    1    1    2  503    0  0.20765859042E+02  0.41252791789E+02  0.37958169973E+03  0.38238106713E+03  0.00000000000E+00 0. -1.
<mgrwt>
<rscale>  0 0.43859950E+02</rscale>
<asrwt>0</asrwt>
<pdfrwt beam="1">  1        2 0.13420991E+00 0.46192558E+02</pdfrwt>
<pdfrwt beam="2">  1        2 0.15708867E+00 0.41645132E+02</pdfrwt>
<totfact> 0.14991657E+02</totfact>
</mgrwt>
</event>
<event>
13    1  0.1675423E-008  0.8855957E+02  0.7546771E-02  0.1307514E+00
          2   -1    0    0  503    0  0.00000000000E+00  0.00000000000E+00  0.32027154544E+04  0.32027154544E+04  0.00000000000E+00 0. -1.
          2   -1    0    0  502    0 -0.00000000000E+00 -0.00000000000E+00 -0.19695791941E+04  0.19695791941E+04  0.00000000000E+00 0. -1.
         24    2    1    2    0    0 -0.85499857207E+02 -0.26490184029E+02  0.14566566569E+03  0.18821402074E+03  0.78702452360E+02 0.  0.
         25    2    1    2    0    0  0.90837984502E+02  0.35485688980E+02 -0.48761659612E+02  0.16587795500E+03  0.12500809157E+03 0.  0.
         24    2    1    2    0    0 -0.40238746962E+02 -0.24840708476E+02 -0.10258469427E+04  0.10300763081E+04  0.80368109008E+02 0.  0.
        -11    1    3    3    0    0 -0.38104458282E+02  0.27520805062E+02  0.50865561616E+02  0.69257850174E+02  0.00000000000E+00 0.  1.
         12    1    3    3    0    0 -0.47395398925E+02 -0.54010989090E+02  0.94800104077E+02  0.11895617056E+03  0.00000000000E+00 0. -1.
        -13    1    5    5    0    0 -0.57031431220E+02 -0.39378825651E+02 -0.68190336463E+03  0.68541627844E+03  0.00000000000E+00 0.  1.
         14    1    5    5    0    0  0.16792684258E+02  0.14538117175E+02 -0.34394357810E+03  0.34466002962E+03  0.00000000000E+00 0. -1.
          5    1    4    4  501    0  0.10600083291E+03  0.49741024824E+02 -0.69399742632E+02  0.13619383395E+03  0.47000000000E+01 0.  1.
         -5    1    4    4    0  501 -0.15162848411E+02 -0.14255335844E+02  0.20638083020E+02  0.29684121053E+02  0.47000000000E+01 0.  1.
          1    1    1    2  502    0 -0.14536538135E+02  0.88218533794E+02 -0.80991752359E+03  0.81483753943E+03  0.00000000000E+00 0. -1.
          1    1    1    2  503    0  0.49437157802E+02 -0.72373330268E+02  0.29719967205E+04  0.29732888252E+04  0.00000000000E+00 0. -1.
<mgrwt>
<rscale>  0 0.88101916E+02</rscale>
<asrwt>0</asrwt>
<pdfrwt beam="1">  1        2 0.47098757E+00 0.87646629E+02</pdfrwt>
<pdfrwt beam="2">  1        2 0.28964400E+00 0.88559569E+02</pdfrwt>
<totfact> 0.34307326E+00</totfact>
</mgrwt>
</event>
<event>
13    1  0.1675423E-008  0.5354347E+02  0.7546771E-02  0.1429411E+00
          2   -1    0    0  502    0  0.00000000000E+00  0.00000000000E+00  0.13239873515E+04  0.13239873515E+04  0.00000000000E+00 0. -1.
          2   -1    0    0  503    0 -0.00000000000E+00 -0.00000000000E+00 -0.14119817341E+04  0.14119817341E+04  0.00000000000E+00 0. -1.
         24    2    1    2    0    0 -0.12766548714E+03  0.64236859495E+02  0.41765670160E+03  0.44924299623E+03  0.83410422322E+02 0.  0.
         25    2    1    2    0    0  0.49741557819E+02 -0.40782335055E-01 -0.32216390720E+03  0.34912642799E+03  0.12500182150E+03 0.  0.
         24    2    1    2    0    0  0.72185082457E+02 -0.69449836899E+02  0.44670830571E+03  0.46467083604E+03  0.79603451565E+02 0.  0.
        -11    1    3    3    0    0 -0.57011343327E+02  0.25083606496E+02  0.76479109898E+02  0.98633335306E+02  0.00000000000E+00 0.  1.
         12    1    3    3    0    0 -0.70654143812E+02  0.39153252998E+02  0.34117759170E+03  0.35060966093E+03  0.00000000000E+00 0. -1.
        -13    1    5    5    0    0 -0.19238181828E+01  0.12448214244E+02  0.10010707058E+03  0.10089640576E+03  0.00000000000E+00 0.  1.
         14    1    5    5    0    0  0.74108900639E+02 -0.81898051143E+02  0.34660123513E+03  0.36377443028E+03  0.00000000000E+00 0. -1.
          5    1    4    4  501    0  0.44711743458E+01  0.27476077682E+02 -0.64432701508E+01  0.28957416582E+02  0.47000000000E+01 0.  1.
         -5    1    4    4    0  501  0.45270383473E+02 -0.27516860017E+02 -0.31572063705E+03  0.32016901141E+03  0.47000000000E+01 0.  1.
          1    1    1    2  502    0 -0.37472755670E+02  0.36937845391E+02  0.41903770861E+03  0.42232832380E+03  0.00000000000E+00 0. -1.
          1    1    1    2  503    0  0.43211602534E+02 -0.31684085652E+02 -0.10492331914E+04  0.10506005015E+04  0.00000000000E+00 0. -1.
<mgrwt>
<rscale>  0 0.53078515E+02</rscale>
<asrwt>0</asrwt>
<pdfrwt beam="1">  1        2 0.19470402E+00 0.52617600E+02</pdfrwt>
<pdfrwt beam="2">  1        2 0.20764437E+00 0.53543468E+02</pdfrwt>
<totfact> 0.59348095E+01</totfact>
</mgrwt>
</event>
<event>
13    1  0.1675423E-008  0.1113624E+03  0.7546771E-02  0.1365487E+00
         -3   -1    0    0    0  501 -0.00000000000E+00  0.00000000000E+00  0.13434342863E+03  0.13434342863E+03  0.00000000000E+00 0.  1.
          2   -1    0    0  503    0  0.00000000000E+00 -0.00000000000E+00 -0.40366377342E+04  0.40366377342E+04  0.00000000000E+00 0. -1.
         24    2    1    2    0    0  0.13465122182E+02  0.10722941672E+03 -0.16064353188E+04  0.16120669159E+04  0.80286055682E+02 0.  0.
         25    2    1    2    0    0  0.35051016266E+02  0.56584077921E+02 -0.13459847282E+03  0.19537678354E+03  0.12500002818E+03 0.  0.
         24    2    1    2    0    0  0.69382924236E+01 -0.30730740989E+02 -0.31804923046E+03  0.32952526775E+03  0.80243820623E+02 0.  0.
        -11    1    5    5    0    0  0.17691193738E+02 -0.41904171955E+02 -0.88981093014E+02  0.99932841834E+02  0.00000000000E+00 0.  1.
         12    1    5    5    0    0 -0.10752901314E+02  0.11173430967E+02 -0.22906813745E+03  0.22959242592E+03  0.00000000000E+00 0. -1.
        -13    1    3    3    0    0  0.17536716225E+02  0.17274108778E+02 -0.83989990655E+03  0.84026054547E+03  0.00000000000E+00 0.  1.
         14    1    3    3    0    0 -0.40715940429E+01  0.89955307939E+02 -0.76653541223E+03  0.77180637047E+03  0.00000000000E+00 0. -1.
          5    1    4    4  502    0  0.23417231114E+02  0.92854550757E+02 -0.12160947761E+03  0.15485893373E+03  0.47000000000E+01 0. -1.
         -5    1    4    4    0  502  0.11633785152E+02 -0.36270472836E+02 -0.12988995207E+02  0.40517849810E+02  0.47000000000E+01 0. -1.
          1    1    1    2  503    0 -0.97397414522E+02 -0.12996739952E+03 -0.19303943011E+04  0.19372144794E+04  0.00000000000E+00 0. -1.
         -4    1    1    2    0  501  0.41942983651E+02 -0.31153541265E+01  0.87183017601E+02  0.96797716228E+02  0.00000000000E+00 0.  1.
<mgrwt>
<rscale>  0 0.68437847E+02</rscale>
<asrwt>0</asrwt>
<pdfrwt beam="2">  1        2 0.59362324E+00 0.11136242E+03</pdfrwt>
<pdfrwt beam="1">  1       -3 0.19756385E-01 0.42058522E+02</pdfrwt>
<totfact> 0.83136594E+00</totfact>
</mgrwt>
</event>
<event>
13    1  0.1675423E-008  0.6637834E+02  0.7546771E-02  0.1452812E+00
          2   -1    0    0  502    0  0.00000000000E+00  0.00000000000E+00  0.95480483172E+03  0.95480483172E+03  0.00000000000E+00 0. -1.
          2   -1    0    0  503    0 -0.00000000000E+00 -0.00000000000E+00 -0.17303565117E+04  0.17303565117E+04  0.00000000000E+00 0. -1.
         24    2    1    2    0    0 -0.13476505372E+02 -0.64196502093E+02  0.35267585425E+03  0.36757121735E+03  0.80159432219E+02 0.  0.
         25    2    1    2    0    0  0.17192631980E+03  0.91089851920E+02 -0.31594644636E+03  0.39154042673E+03  0.12500291289E+03 0.  0.
         24    2    1    2    0    0 -0.13959780992E+03 -0.70761529848E+02  0.25239869774E+03  0.30800007303E+03  0.81634549820E+02 0.  0.
        -11    1    3    3    0    0 -0.15795819519E+02  0.60425550011E+01  0.14829854577E+02  0.22493220578E+02  0.00000000000E+00 0.  1.
         12    1    3    3    0    0  0.23193141463E+01 -0.70239057094E+02  0.33784599967E+03  0.34507799677E+03  0.00000000000E+00 0. -1.
        -13    1    5    5    0    0 -0.13700407433E+02 -0.43735572412E+02  0.87560141436E+02  0.98829549358E+02  0.00000000000E+00 0.  1.
         14    1    5    5    0    0 -0.12589740249E+03 -0.27025957436E+02  0.16483855630E+03  0.20917052367E+03  0.00000000000E+00 0. -1.
          5    1    4    4  501    0  0.10651399385E+03  0.11520203667E+03 -0.25161908566E+03  0.29656532908E+03  0.47000000000E+01 0. -1.
         -5    1    4    4    0  501  0.65412325950E+02 -0.24112184752E+02 -0.64327360691E+02  0.94975097648E+02  0.47000000000E+01 0. -1.
          1    1    1    2  502    0  0.90715957221E+01  0.66020647831E+02  0.27243127217E+03  0.28046357669E+03  0.00000000000E+00 0. -1.
          1    1    1    2  503    0 -0.27923600229E+02 -0.22152467810E+02 -0.13371110578E+04  0.13375860496E+04  0.00000000000E+00 0. -1.
<mgrwt>
<rscale>  0 0.48641100E+02</rscale>
<asrwt>0</asrwt>
<pdfrwt beam="1">  1        2 0.14041248E+00 0.66378342E+02</pdfrwt>
<pdfrwt beam="2">  1        2 0.25446419E+00 0.35643503E+02</pdfrwt>
<totfact> 0.67481665E+01</totfact>
</mgrwt>
</event>
<event>
13    1  0.1675423E-008  0.7586426E+02  0.7546771E-02  0.1353431E+00
          4   -1    0    0  503    0 -0.00000000000E+00  0.00000000000E+00  0.13794137065E+04  0.13794137065E+04  0.00000000000E+00 0. -1.
          2   -1    0    0  502    0  0.00000000000E+00 -0.00000000000E+00 -0.19024592665E+04  0.19024592665E+04  0.00000000000E+00 0. -1.
         24    2    1    2    0    0  0.42918714167E+02 -0.31108729098E+02 -0.24524718100E+03  0.26316295183E+03  0.79364919050E+02 0.  0.
         25    2    1    2    0    0 -0.10211798018E+03  0.29211804593E+02  0.90971749486E+03  0.92438801118E+03  0.12500345340E+03 0.  0.
         24    2    1    2    0    0  0.42541022200E+02  0.14881843308E+02 -0.10667045209E+01  0.91901423086E+02  0.80084492111E+02 0.  0.
        -11    1    3    3    0    0  0.24030388988E+02  0.18730881042E+02 -0.35653407533E+02  0.46898517762E+02  0.00000000000E+00 0.  1.
         12    1    3    3    0    0  0.18888325179E+02 -0.49839610140E+02 -0.20959377347E+03  0.21626443407E+03  0.00000000000E+00 0. -1.
        -13    1    5    5    0    0 -0.17414129871E+02  0.25265549103E+02  0.34901171102E+01  0.30883341919E+02  0.00000000000E+00 0.  1.
         14    1    5    5    0    0  0.59955152072E+02 -0.10383705794E+02 -0.45568216310E+01  0.61018081167E+02  0.00000000000E+00 0. -1.
          5    1    4    4  501    0 -0.63042764345E+02  0.77359392419E+02  0.62724173039E+03  0.63514812767E+03  0.47000000000E+01 0. -1.
         -5    1    4    4    0  501 -0.39075215837E+02 -0.48147587826E+02  0.28247576447E+03  0.28923988352E+03  0.47000000000E+01 0. -1.
          1    1    1    2  502    0 -0.12132762744E+02 -0.74949836849E+02 -0.15906622655E+04  0.15924732729E+04  0.00000000000E+00 0. -1.
          3    1    1    2  503    0  0.28791006558E+02  0.61964918045E+02  0.40421309617E+03  0.40994731398E+03  0.00000000000E+00 0. -1.
<mgrwt>
<rscale>  0 0.71997040E+02</rscale>
<asrwt>0</asrwt>
<pdfrwt beam="2">  1        2 0.27977342E+00 0.75864256E+02</pdfrwt>
<pdfrwt beam="1">  1        4 0.20285496E+00 0.68326958E+02</pdfrwt>
<totfact> 0.78295870E-01</totfact>
</mgrwt>
</event>
<event>
13    1  0.1675423E-008  0.1356517E+03  0.7546771E-02  0.1252236E+00
          2   -1    0    0  502    0  0.00000000000E+00  0.00000000000E+00  0.23445283783E+04  0.23445283783E+04  0.00000000000E+00 0. -1.
          2   -1    0    0  503    0 -0.00000000000E+00 -0.00000000000E+00 -0.43144385687E+03  0.43144385687E+03  0.00000000000E+00 0. -1.
         24    2    1    2    0    0  0.11115112616E+02 -0.31370534202E+02  0.49454348632E+03  0.50191812910E+03  0.78999318448E+02 0.  0.
         25    2    1    2    0    0 -0.47191489741E+02  0.12635958006E+03  0.20344713551E+03  0.27423917974E+03  0.12499044195E+03 0.  0.
         24    2    1    2    0    0 -0.16798409143E+03 -0.17412471653E+02  0.18369860298E+03  0.26223731139E+03  0.80631145379E+02 0.  0.
        -11    1    3    3    0    0  0.22989238402E+02  0.21427607344E+02  0.16628790703E+03  0.16923154393E+03  0.00000000000E+00 0.  1.
         12    1    3    3    0    0 -0.11874125785E+02 -0.52798141547E+02  0.32825557930E+03  0.33268658517E+03  0.00000000000E+00 0. -1.
        -11    1    5    5    0    0 -0.17566975188E+03 -0.16387424734E+02  0.16326774274E+03  0.24038461938E+03  0.00000000000E+00 0.  1.
         12    1    5    5    0    0  0.76856604539E+01 -0.10250469198E+01  0.20430860240E+02  0.21852692007E+02  0.00000000000E+00 0. -1.
          5    1    4    4  501    0  0.39335850529E+02  0.21785123597E+02  0.73386108407E+02  0.86194614995E+02  0.47000000000E+01 0. -1.
         -5    1    4    4    0  501 -0.86527340270E+02  0.10457445646E+03  0.13006102711E+03  0.18804456474E+03  0.47000000000E+01 0. -1.
          1    1    1    2  502    0  0.74300810105E+02 -0.48527755955E+02  0.13704812203E+04  0.13733514950E+04  0.00000000000E+00 0. -1.
          1    1    1    2  503    0  0.12975965845E+03 -0.29048818245E+02 -0.33908592372E+03  0.36422611996E+03  0.00000000000E+00 0. -1.
<mgrwt>
<rscale>  0 0.11462537E+03</rscale>
<asrwt>0</asrwt>
<pdfrwt beam="1">  1        2 0.34478358E+00 0.96858157E+02</pdfrwt>
<pdfrwt beam="2">  1        2 0.63447627E-01 0.13565172E+03</pdfrwt>
<totfact> 0.75448091E+01</totfact>
</mgrwt>
</event>
<event>
13    1  0.1675423E-008  0.3547646E+03  0.7546771E-02  0.1112542E+00
          2   -1    0    0  503    0  0.00000000000E+00  0.00000000000E+00  0.32378967113E+04  0.32378967113E+04  0.00000000000E+00 0. -1.
          2   -1    0    0  502    0 -0.00000000000E+00 -0.00000000000E+00 -0.24069329178E+04  0.24069329178E+04  0.00000000000E+00 0. -1.
         24    2    1    2    0    0  0.13834030343E+03  0.38059461199E+02  0.10118672244E+03  0.19213384355E+03  0.78039085704E+02 0.  0.
         25    2    1    2    0    0  0.29005418643E+03  0.85685078732E+03 -0.12607573785E+03  0.92187189116E+03  0.12501195632E+03 0.  0.
         24    2    1    2    0    0  0.98303079190E+02  0.34232599829E+02  0.17187829523E+02  0.15142226403E+03  0.10861820424E+03 0.  0.
        -11    1    5    5    0    0  0.57619235836E+02 -0.15773460331E+02 -0.34329544780E+02  0.68900624337E+02  0.00000000000E+00 0.  1.
         12    1    5    5    0    0  0.40683843354E+02  0.50006060160E+02  0.51517374303E+02  0.82521639694E+02  0.00000000000E+00 0. -1.
        -13    1    3    3    0    0 -0.40681850942E+01 -0.97801368474E+01 -0.69630840523E+00  0.10615368675E+02  0.00000000000E+00 0.  1.
         14    1    3    3    0    0  0.14240848852E+03  0.47839598047E+02  0.10188303085E+03  0.18151847487E+03  0.00000000000E+00 0. -1.
          5    1    4    4  501    0  0.23394379514E+03  0.76831684809E+03 -0.14240960827E+03  0.81568564096E+03  0.47000000000E+01 0. -1.
         -5    1    4    4    0  501  0.56110391292E+02  0.88533939236E+02  0.16333870422E+02  0.10618625020E+03  0.47000000000E+01 0. -1.
          1    1    1    2  502    0 -0.85611868233E+02 -0.23586526028E+03 -0.16962117214E+04  0.17146708188E+04  0.00000000000E+00 0. -1.
          1    1    1    2  503    0 -0.44108570082E+03 -0.69327758808E+03  0.25348767008E+04  0.26647308116E+04  0.00000000000E+00 0. -1.
<mgrwt>
<rscale>  0 0.25121116E+03</rscale>
<asrwt>0</asrwt>
<pdfrwt beam="1">  1        2 0.47616128E+00 0.35476459E+03</pdfrwt>
<pdfrwt beam="2">  1        2 0.35396072E+00 0.17788428E+03</pdfrwt>
<totfact> 0.14919028E+00</totfact>
</mgrwt>
</event>
<event>
13    1  0.1675423E-008  0.9310990E+02  0.7546771E-02  0.1421866E+00
          2   -1    0    0  503    0  0.00000000000E+00  0.00000000000E+00  0.11855262977E+04  0.11855262977E+04  0.00000000000E+00 0. -1.
          2   -1    0    0  502    0 -0.00000000000E+00 -0.00000000000E+00 -0.27784405450E+04  0.27784405450E+04  0.00000000000E+00 0. -1.
         24    2    1    2    0    0  0.80239745919E+02  0.45101814988E+03  0.82268968492E+02  0.47719967785E+03  0.10533546893E+03 0.  0.
         25    2    1    2    0    0  0.31875250619E+02 -0.18194109838E+02 -0.33563101653E+03  0.36002820657E+03  0.12500029215E+03 0.  0.
         24    2    1    2    0    0 -0.97864545033E+02 -0.32109652713E+03 -0.12658952367E+03  0.36751659490E+03  0.79768985903E+02 0.  0.
        -11    1    5    5    0    0 -0.11180960826E+03 -0.29288070521E+03 -0.11311760953E+03  0.33328079688E+03  0.00000000000E+00 0.  1.
         12    1    5    5    0    0  0.13945063231E+02 -0.28215821925E+02 -0.13471914137E+02  0.34235798019E+02  0.00000000000E+00 0. -1.
        -13    1    3    3    0    0  0.61087590324E+02  0.42173387015E+03  0.49045028804E+02  0.42894820874E+03  0.00000000000E+00 0.  1.
         14    1    3    3    0    0  0.19152155595E+02  0.29284279724E+02  0.33223939688E+02  0.48251469110E+02  0.00000000000E+00 0. -1.
          5    1    4    4  501    0 -0.39915539241E+02 -0.33456395792E+02 -0.18733210669E+03  0.19449418729E+03  0.47000000000E+01 0.  1.
         -5    1    4    4    0  501  0.71790789860E+02  0.15262285954E+02 -0.14829890984E+03  0.16553401929E+03  0.47000000000E+01 0.  1.
          1    1    1    2  502    0  0.11300826141E+02 -0.92378749354E+02 -0.19846694233E+04  0.19868503371E+04  0.00000000000E+00 0. -1.
          1    1    1    2  503    0 -0.25551277646E+02 -0.19348763557E+02  0.77170674777E+03  0.77237202628E+03  0.00000000000E+00 0. -1.
<mgrwt>
<rscale>  0 0.54628110E+02</rscale>
<asrwt>0</asrwt>
<pdfrwt beam="1">  1        2 0.17434211E+00 0.32050623E+02</pdfrwt>
<pdfrwt beam="2">  1        2 0.40859419E+00 0.93109902E+02</pdfrwt>
<totfact> 0.14800172E+01</totfact>
</mgrwt>
</event>
<event>
13    1  0.1675423E-008  0.5852939E+02  0.7546771E-02  0.1417356E+00
          2   -1    0    0  503    0  0.00000000000E+00  0.00000000000E+00  0.10783952018E+04  0.10783952018E+04  0.00000000000E+00 0. -1.
          2   -1    0    0  502    0 -0.00000000000E+00 -0.00000000000E+00 -0.10262472629E+04  0.10262472629E+04  0.00000000000E+00 0. -1.
         24    2    1    2    0    0 -0.30520786031E+03 -0.35480965420E+02  0.49352924654E+03  0.58718600248E+03  0.82495741821E+02 0.  0.
         25    2    1    2    0    0  0.18128473758E+03  0.84579048306E+02 -0.40018134382E+03  0.46453067602E+03  0.12500347809E+03 0.  0.
         24    2    1    2    0    0  0.52110065123E+02 -0.13040278999E+02  0.18307842468E+03  0.20676282674E+03  0.79672135492E+02 0.  0.
        -11    1    3    3    0    0 -0.25882075830E+03 -0.47151086640E+02  0.45575795167E+03  0.52623827342E+03  0.00000000000E+00 0.  1.
         12    1    3    3    0    0 -0.46387102007E+02  0.11670121220E+02  0.37771294870E+02  0.60947729064E+02  0.00000000000E+00 0. -1.
        -11    1    5    5    0    0 -0.16962514897E+02 -0.55727318248E+01  0.10471896414E+02  0.20698861470E+02  0.00000000000E+00 0.  1.
         12    1    5    5    0    0  0.69072580020E+02 -0.74675471746E+01  0.17260652827E+03  0.18606396527E+03  0.00000000000E+00 0. -1.
          5    1    4    4  501    0  0.14463719226E+03  0.10329328925E+02 -0.19364428952E+03  0.24196448765E+03  0.47000000000E+01 0. -1.
         -5    1    4    4    0  501  0.36647545313E+02  0.74249719381E+02 -0.20653705430E+03  0.22256618837E+03  0.47000000000E+01 0. -1.
          1    1    1    2  502    0  0.22220396920E+02 -0.54142567733E+02 -0.53136203386E+03  0.53457532183E+03  0.00000000000E+00 0. -1.
          1    1    1    2  503    0  0.49592660692E+02  0.18084763846E+02  0.30708364533E+03  0.31158763761E+03  0.00000000000E+00 0. -1.
<mgrwt>
<rscale>  0 0.55584203E+02</rscale>
<asrwt>0</asrwt>
<pdfrwt beam="1">  1        2 0.15858753E+00 0.52787221E+02</pdfrwt>
<pdfrwt beam="2">  1        2 0.15091871E+00 0.58529386E+02</pdfrwt>
<totfact> 0.12458239E+02</totfact>
</mgrwt>
</event>
<event>
13    1  0.1675423E-008  0.4706588E+02  0.7546771E-02  0.1485776E+00
          2   -1    0    0  503    0  0.00000000000E+00  0.00000000000E+00  0.82325177335E+03  0.82325177335E+03  0.00000000000E+00 0. -1.
          2   -1    0    0  502    0 -0.00000000000E+00 -0.00000000000E+00 -0.19294842370E+04  0.19294842370E+04  0.00000000000E+00 0. -1.
         24    2    1    2    0    0 -0.75338650114E+00 -0.26166297592E+02  0.46556788854E+03  0.47313193000E+03  0.80094454413E+02 0.  0.
         25    2    1    2    0    0  0.30509692565E+03  0.65108993510E+03 -0.79599942773E+03  0.10799273254E+04  0.12500280627E+03 0.  0.
         24    2    1    2    0    0 -0.27091985818E+03 -0.60731816221E+03 -0.43807398386E+03  0.80057033136E+03  0.82286818011E+02 0.  0.
        -11    1    3    3    0    0 -0.18419704190E+01  0.26643237748E+02  0.90354185339E+02  0.94218542661E+02  0.00000000000E+00 0.  1.
         12    1    3    3    0    0  0.10885839179E+01 -0.52809535340E+02  0.37521370320E+03  0.37891338734E+03  0.00000000000E+00 0. -1.
        -11    1    5    5    0    0 -0.14363953913E+02 -0.54208155996E+02 -0.13761283367E+02  0.57742707491E+02  0.00000000000E+00 0.  1.
         12    1    5    5    0    0 -0.25655590427E+03 -0.55311000622E+03 -0.42431270049E+03  0.74282762387E+03  0.00000000000E+00 0. -1.
          5    1    4    4  501    0  0.94404861767E+02  0.23048952598E+03 -0.36493313204E+03  0.44185515769E+03  0.47000000000E+01 0. -1.
         -5    1    4    4    0  501  0.21069206388E+03  0.42060040912E+03 -0.43106629569E+03  0.63807216772E+03  0.47000000000E+01 0. -1.
          1    1    1    2  502    0 -0.42117973975E+02  0.21117041680E+02 -0.35333390509E+03  0.35646136069E+03  0.00000000000E+00 0. -1.
          1    1    1    2  503    0  0.86942930114E+01 -0.38722516977E+02  0.15606964463E+02  0.42645062923E+02  0.00000000000E+00 0. -1.
<mgrwt>
<rscale>  0 0.43219016E+02</rscale>
<asrwt>0</asrwt>
<pdfrwt beam="1">  1        2 0.12106644E+00 0.39686573E+02</pdfrwt>
<pdfrwt beam="2">  1        2 0.28374768E+00 0.47065878E+02</pdfrwt>
<totfact> 0.64932044E+01</totfact>
</mgrwt>
</event>
<event>
13    1  0.1675423E-008  0.9470695E+02  0.7546771E-02  0.1380519E+00
          2   -1    0    0  503    0  0.00000000000E+00  0.00000000000E+00  0.17708073351E+04  0.17708073351E+04  0.00000000000E+00 0. -1.
          2   -1    0    0  502    0 -0.00000000000E+00 -0.00000000000E+00 -0.26618370337E+04  0.26618370337E+04  0.00000000000E+00 0. -1.
         24    2    1    2    0    0 -0.69982697903E+02  0.23561405571E+03  0.26792862908E+03  0.37668520473E+03  0.98460306348E+02 0.  0.
         25    2    1    2    0    0  0.57085301455E+02 -0.34432627633E+03  0.99408890389E+03  0.10609677945E+04  0.12498238227E+03 0.  0.
         24    2    1    2    0    0  0.93653590061E+01 -0.27383516822E+02  0.13734001256E+03  0.16082958585E+03  0.78525853665E+02 0.  0.
        -11    1    5    5    0    0 -0.20311031179E+02 -0.12272755318E+02  0.48540774196E+01  0.24222315707E+02  0.00000000000E+00 0.  1.
         12    1    5    5    0    0  0.29676390185E+02 -0.15110761504E+02  0.13248593514E+03  0.13660727015E+03  0.00000000000E+00 0. -1.
        -11    1    3    3    0    0 -0.49697427088E+02  0.42378639994E+02  0.10230765434E+03  0.12137808502E+03  0.00000000000E+00 0.  1.
         12    1    3    3    0    0 -0.20285270815E+02  0.19323541572E+03  0.16562097474E+03  0.25530711971E+03  0.00000000000E+00 0. -1.
          5    1    4    4  501    0  0.88564769831E+02 -0.31557138422E+03  0.88381550695E+03  0.94264572206E+03  0.47000000000E+01 0. -1.
         -5    1    4    4    0  501 -0.31479468376E+02 -0.28754892109E+02  0.11027339694E+03  0.11832207242E+03  0.47000000000E+01 0. -1.
          1    1    1    2  502    0 -0.90805572759E+01  0.94262625111E+02 -0.25596378438E+04  0.25613890354E+04  0.00000000000E+00 0. -1.
          1    1    1    2  503    0  0.12612594717E+02  0.41833112326E+02  0.26925059973E+03  0.27277274843E+03  0.00000000000E+00 0. -1.
<mgrwt>
<rscale>  0 0.64327600E+02</rscale>
<asrwt>0</asrwt>
<pdfrwt beam="1">  1        2 0.26041285E+00 0.43693098E+02</pdfrwt>
<pdfrwt beam="2">  1        2 0.39144662E+00 0.94706950E+02</pdfrwt>
<totfact> 0.87028780E+00</totfact>
</mgrwt>
</event>
<event>
13    1  0.1675423E-008  0.8446611E+02  0.7546771E-02  0.1332485E+00
          2   -1    0    0  503    0  0.00000000000E+00  0.00000000000E+00  0.10751309678E+04  0.10751309678E+04  0.00000000000E+00 0. -1.
          2   -1    0    0  502    0 -0.00000000000E+00 -0.00000000000E+00 -0.16707643567E+04  0.16707643567E+04  0.00000000000E+00 0. -1.
         24    2    1    2    0    0  0.16579001146E+01 -0.36822171811E+01  0.13350989244E+03  0.15589701877E+03  0.80390806219E+02 0.  0.
         25    2    1    2    0    0 -0.10020969880E+03  0.84239357107E+02 -0.89965864400E+03  0.91768600194E+03  0.12499467753E+03 0.  0.
         24    2    1    2    0    0  0.13732738475E+02  0.40458727167E+02 -0.84566653311E+01  0.92362956650E+02  0.81448780609E+02 0.  0.
        -11    1    5    5    0    0 -0.12736684427E+02  0.13355958980E+02 -0.39360795674E+02  0.43472715657E+02  0.00000000000E+00 0.  1.
         12    1    5    5    0    0  0.26469422903E+02  0.27102768187E+02  0.30904130343E+02  0.48890240994E+02  0.00000000000E+00 0. -1.
        -13    1    3    3    0    0 -0.67484943568E+01  0.33120536367E+02  0.28182101904E+02  0.44008442066E+02  0.00000000000E+00 0.  1.
         14    1    3    3    0    0  0.84063944714E+01 -0.36802753548E+02  0.10532779054E+03  0.11188857670E+03  0.00000000000E+00 0. -1.
          5    1    4    4  501    0 -0.37947429942E+02  0.10021349625E+03 -0.40975547424E+03  0.42356155508E+03  0.47000000000E+01 0. -1.
         -5    1    4    4    0  501 -0.62262268856E+02 -0.15974139145E+02 -0.48990316976E+03  0.49412444686E+03  0.47000000000E+01 0. -1.
          1    1    1    2  502    0  0.67511841199E+02 -0.49563665275E+02 -0.69643890712E+03  0.70145673920E+03  0.00000000000E+00 0. -1.
          1    1    1    2  503    0  0.17307219009E+02 -0.71452201818E+02  0.87541093504E+03  0.87849260791E+03  0.00000000000E+00 0. -1.
<mgrwt>
<rscale>  0 0.78802377E+02</rscale>
<asrwt>0</asrwt>
<pdfrwt beam="1">  1        2 0.15810750E+00 0.73518412E+02</pdfrwt>
<pdfrwt beam="2">  1        2 0.24570064E+00 0.84466114E+02</pdfrwt>
<totfact> 0.56508790E+01</totfact>
</mgrwt>
</event>
<event>
13    1  0.1675423E-008  0.1969604E+03  0.7546771E-02  0.1349116E+00
         -1   -1    0    0    0  501 -0.00000000000E+00  0.00000000000E+00  0.50091468204E+03  0.50091468204E+03  0.00000000000E+00 0.  1.
          2   -1    0    0  503    0  0.00000000000E+00 -0.00000000000E+00 -0.38370690261E+04  0.38370690261E+04  0.00000000000E+00 0. -1.
         24    2    1    2    0    0  0.54797074557E+02  0.26383285508E+02 -0.78726505990E+03  0.79406554777E+03  0.83994181246E+02 0.  0.
         25    2    1    2    0    0 -0.23999499575E+02 -0.49976781811E+02  0.27083807781E+03  0.30339797634E+03  0.12499365166E+03 0.  0.
         24    2    1    2    0    0 -0.64200849210E+02  0.38275760332E+03 -0.57025781212E+03  0.69444304997E+03  0.80200033827E+02 0.  0.
        -13    1    3    3    0    0 -0.52333762644E+01 -0.24395639718E+02 -0.20668845883E+03  0.20818898741E+03  0.00000000000E+00 0.  1.
         14    1    3    3    0    0  0.60030450821E+02  0.50778925226E+02 -0.58057660107E+03  0.58587656036E+03  0.00000000000E+00 0. -1.
        -13    1    5    5    0    0  0.80563910838E+01  0.26024648604E+01 -0.20258248362E+02  0.21956203847E+02  0.00000000000E+00 0.  1.
         14    1    5    5    0    0 -0.72257240294E+02  0.38015513846E+03 -0.54999956376E+03  0.67248684612E+03  0.00000000000E+00 0. -1.
          5    1    4    4  502    0 -0.63575943727E+02 -0.67328859671E+02  0.19666049179E+03  0.21742243443E+03  0.47000000000E+01 0.  1.
         -5    1    4    4    0  502  0.39576444152E+02  0.17352077860E+02  0.74177586025E+02  0.85975541907E+02  0.47000000000E+01 0.  1.
          1    1    1    2  503    0  0.52887856281E+02 -0.37828967659E+03 -0.23811520776E+04  0.24115939587E+04  0.00000000000E+00 0. -1.
         -2    1    1    2    0  501 -0.19484582052E+02  0.19125569582E+02  0.13168252776E+03  0.13448317540E+03  0.00000000000E+00 0.  1.
<mgrwt>
<rscale>  0 0.73331758E+02</rscale>
<asrwt>0</asrwt>
<pdfrwt beam="2">  1        2 0.56427486E+00 0.19696040E+03</pdfrwt>
<pdfrwt beam="1">  1       -1 0.73663923E-01 0.27302680E+02</pdfrwt>
<totfact> 0.19589942E+00</totfact>
</mgrwt>
</event>
<event>
13    1  0.1675423E-008  0.4189820E+03  0.7546771E-02  0.1247875E+00
         -3   -1    0    0    0  502 -0.00000000000E+00  0.00000000000E+00  0.12339543083E+04  0.12339543083E+04  0.00000000000E+00 0.  1.
         -1   -1    0    0    0  501  0.00000000000E+00 -0.00000000000E+00 -0.27400602452E+04  0.27400602452E+04  0.00000000000E+00 0.  1.
         24    2    1    2    0    0 -0.12252121380E+03 -0.19597691019E+02  0.35834191291E+03  0.38749572019E+03  0.79677407657E+02 0.  0.
         25    2    1    2    0    0  0.34984812529E+03  0.14817394817E+03  0.63321489028E+03  0.74895591332E+03  0.12499853253E+03 0.  0.
         24    2    1    2    0    0  0.12768352611E+03  0.73097211705E+02  0.61964513921E+02  0.17832403502E+03  0.79458009552E+02 0.  0.
        -13    1    3    3    0    0 -0.10301369490E+03 -0.34535098501E-01  0.33754939471E+03  0.35291842740E+03  0.00000000000E+00 0.  1.
         14    1    3    3    0    0 -0.19507518903E+02 -0.19563155921E+02  0.20792518196E+02  0.34577292784E+02  0.00000000000E+00 0. -1.
        -13    1    5    5    0    0  0.10538413678E+03  0.90248292782E+02  0.47216674825E+02  0.14656051657E+03  0.00000000000E+00 0.  1.
         14    1    5    5    0    0  0.22299389329E+02 -0.17151081077E+02  0.14747839095E+02  0.31763518453E+02  0.00000000000E+00 0. -1.
          5    1    4    4  503    0  0.27440813413E+03  0.10169246433E+03  0.37359639681E+03  0.47459197116E+03  0.47000000000E+01 0. -1.
         -5    1    4    4    0  503  0.75439991167E+02  0.46481483837E+02  0.25961849347E+03  0.27436394216E+03  0.47000000000E+01 0. -1.
         -2    1    1    2    0  501 -0.37946938700E+03 -0.17988637860E+03 -0.25843204302E+04  0.26182185186E+04  0.00000000000E+00 0.  1.
         -4    1    1    2    0  502  0.24458949396E+02 -0.21787090255E+02  0.24693176209E+02  0.41020366388E+02  0.00000000000E+00 0.  1.
<mgrwt>
<rscale>  0 0.11714919E+03</rscale>
<asrwt>0</asrwt>
<pdfrwt beam="2">  1       -1 0.40295003E+00 0.41898203E+03</pdfrwt>
<pdfrwt beam="1">  1       -3 0.18146387E+00 0.32755420E+02</pdfrwt>
<totfact> 0.78169348E-03</totfact>
</mgrwt>
</event>
<event>
13    1  0.1675423E-008  0.8539315E+02  0.7546771E-02  0.1325130E+00
          2   -1    0    0  503    0  0.00000000000E+00  0.00000000000E+00  0.42144217338E+04  0.42144217338E+04  0.00000000000E+00 0. -1.
          2   -1    0    0  502    0 -0.00000000000E+00 -0.00000000000E+00 -0.35646093173E+04  0.35646093173E+04  0.00000000000E+00 0. -1.
         24    2    1    2    0    0  0.39170650582E+03  0.22978146543E+03 -0.60411045336E+03  0.75940778169E+03  0.74278061777E+02 0.  0.
         25    2    1    2    0    0 -0.87775334715E+03 -0.12573873687E+04  0.12159991214E+04  0.19610592823E+04  0.12500284826E+03 0.  0.
         24    2    1    2    0    0  0.53265633147E+03  0.11785117616E+04  0.97529229386E+03  0.16217014699E+04  0.78152794349E+02 0.  0.
        -11    1    5    5    0    0  0.26301983122E+03  0.57235236281E+03  0.52369198984E+03  0.81915807940E+03  0.00000000000E+00 0.  1.
         12    1    5    5    0    0  0.26963650026E+03  0.60615939877E+03  0.45160030403E+03  0.80254339047E+03  0.00000000000E+00 0. -1.
        -13    1    3    3    0    0  0.28516860820E+03  0.13215415208E+03 -0.38609454564E+03  0.49785023169E+03  0.00000000000E+00 0.  1.
         14    1    3    3    0    0  0.10653789762E+03  0.97627313351E+02 -0.21801590772E+03  0.26155755000E+03  0.00000000000E+00 0. -1.
          5    1    4    4  501    0 -0.38300048356E+03 -0.47428311515E+03  0.42741515069E+03  0.74453988796E+03  0.47000000000E+01 0. -1.
         -5    1    4    4    0  501 -0.49475286359E+03 -0.78310425358E+03  0.78858397072E+03  0.12165193944E+04  0.47000000000E+01 0. -1.
          1    1    1    2  502    0 -0.30723071641E+01 -0.77528795832E+02 -0.21849699007E+04  0.21863470951E+04  0.00000000000E+00 0. -1.
          1    1    1    2  503    0 -0.43537182985E+02 -0.73377062449E+02  0.12476013552E+04  0.12505154222E+04  0.00000000000E+00 0. -1.
<mgrwt>
<rscale>  0 0.81397940E+02</rscale>
<asrwt>0</asrwt>
<pdfrwt beam="1">  1        2 0.61976790E+00 0.85393155E+02</pdfrwt>
<pdfrwt beam="2">  1        2 0.52420725E+00 0.77589647E+02</pdfrwt>
<totfact> 0.12346112E-01</totfact>
</mgrwt>
</event>
<event>
13    1  0.1675423E-008  0.1029499E+03  0.7546771E-02  0.1281994E+00
          2   -1    0    0  502    0  0.00000000000E+00  0.00000000000E+00  0.38891012418E+04  0.38891012418E+04  0.00000000000E+00 0. -1.
          2   -1    0    0  503    0 -0.00000000000E+00 -0.00000000000E+00 -0.24577297363E+03  0.24577297363E+03  0.00000000000E+00 0. -1.
         24    2    1    2    0    0  0.37719586804E+01 -0.70157241747E+02  0.55100797215E+03  0.56117887888E+03  0.79847870853E+02 0.  0.
         25    2    1    2    0    0 -0.37167364501E+01  0.53246845693E+02  0.49517682229E+03  0.51349276520E+03  0.12500277547E+03 0.  0.
         24    2    1    2    0    0 -0.40542603891E+02  0.19213535991E+02 -0.11994475248E+03  0.15152410352E+03  0.80993503480E+02 0.  0.
        -11    1    5    5    0    0  0.92621728378E+01 -0.92777030791E+01  0.50027254046E+01  0.14031781126E+02  0.00000000000E+00 0.  1.
         12    1    5    5    0    0 -0.49804776729E+02  0.28491239071E+02 -0.12494747788E+03  0.13749232240E+03  0.00000000000E+00 0. -1.
        -13    1    3    3    0    0  0.40734168531E+01  0.93572023613E+01  0.23834420256E+03  0.23856258897E+03  0.00000000000E+00 0.  1.
         14    1    3    3    0    0 -0.30145817261E+00 -0.79514444108E+02  0.31266376959E+03  0.32261628991E+03  0.00000000000E+00 0. -1.
          5    1    4    4  501    0 -0.33019937971E+02  0.62565407612E+02  0.13974095538E+03  0.15669834442E+03  0.47000000000E+01 0. -1.
         -5    1    4    4    0  501  0.29303201520E+02 -0.93185619186E+01  0.35543586691E+03  0.35679442078E+03  0.47000000000E+01 0. -1.
          1    1    1    2  502    0 -0.37767398000E+02  0.10286442527E+03  0.27664392935E+04  0.27686086454E+04  0.00000000000E+00 0. -1.
          1    1    1    2  503    0  0.78254779661E+02 -0.10516756521E+03 -0.49351067349E+02  0.14006982244E+03  0.00000000000E+00 0. -1.
<mgrwt>
<rscale>  0 0.99196782E+02</rscale>
<asrwt>0</asrwt>
<pdfrwt beam="1">  1        2 0.57192662E+00 0.10294986E+03</pdfrwt>
<pdfrwt beam="2">  1        2 0.36143087E-01 0.95580522E+02</pdfrwt>
<totfact> 0.18951612E+01</totfact>
</mgrwt>
</event>
<event>
13    1  0.1675423E-008  0.6353495E+02  0.7546771E-02  0.1387428E+00
          2   -1    0    0  502    0  0.00000000000E+00  0.00000000000E+00  0.36762968481E+04  0.36762968481E+04  0.00000000000E+00 0. -1.
          2   -1    0    0  503    0 -0.00000000000E+00 -0.00000000000E+00 -0.59352647168E+03  0.59352647168E+03  0.00000000000E+00 0. -1.
         24    2    1    2    0    0 -0.61407401716E+02  0.12214603401E+03  0.15156390944E+04  0.15239147314E+04  0.80397273615E+02 0.  0.
         25    2    1    2    0    0  0.23550388279E+02 -0.74947810845E+02 -0.67761205081E+02  0.16244403663E+03  0.12499875593E+03 0.  0.
         24    2    1    2    0    0  0.37290987518E+02 -0.51040835735E+02 -0.13786133815E+01  0.10044138353E+03  0.78043489717E+02 0.  0.
        -11    1    3    3    0    0 -0.15130918765E+01  0.32681692767E+02  0.12834629490E+03  0.13245057155E+03  0.00000000000E+00 0.  1.
         12    1    3    3    0    0 -0.59894309840E+02  0.89464341238E+02  0.13872927995E+04  0.13914641599E+04  0.00000000000E+00 0. -1.
        -13    1    5    5    0    0 -0.20850166735E+00  0.16925831432E+02 -0.13786089536E+02  0.21830792640E+02  0.00000000000E+00 0.  1.
         14    1    5    5    0    0  0.37499489185E+02 -0.67966667166E+02  0.12407476155E+02  0.78610590886E+02  0.00000000000E+00 0. -1.
          5    1    4    4  501    0 -0.27029099257E+02 -0.37151411370E+02 -0.85076032641E+02  0.96803000488E+02  0.47000000000E+01 0. -1.
         -5    1    4    4    0  501  0.50579487536E+02 -0.37796399475E+02  0.17314827561E+02  0.65641036145E+02  0.47000000000E+01 0. -1.
          1    1    1    2  502    0  0.57086802794E+02  0.28291472367E+02  0.20569119183E+04  0.20578984304E+04  0.00000000000E+00 0. -1.
          1    1    1    2  503    0 -0.56520776875E+02 -0.24448859792E+02 -0.42064081784E+03  0.42512473769E+03  0.00000000000E+00 0. -1.
<mgrwt>
<rscale>  0 0.62550864E+02</rscale>
<asrwt>0</asrwt>
<pdfrwt beam="1">  1        2 0.54063188E+00 0.63534952E+02</pdfrwt>
<pdfrwt beam="2">  1        2 0.87283306E-01 0.61582018E+02</pdfrwt>
<totfact> 0.11230766E+01</totfact>
</mgrwt>
</event>
<event>
13    1  0.1675423E-008  0.6371125E+02  0.7546771E-02  0.1393390E+00
          2   -1    0    0  502    0  0.00000000000E+00  0.00000000000E+00  0.20688058819E+04  0.20688058819E+04  0.00000000000E+00 0. -1.
          2   -1    0    0  503    0 -0.00000000000E+00 -0.00000000000E+00 -0.16675797975E+04  0.16675797975E+04  0.00000000000E+00 0. -1.
         24    2    1    2    0    0  0.87221498391E+02  0.30428639424E+02  0.28645865191E+03  0.31145001571E+03  0.80056612158E+02 0.  0.
         25    2    1    2    0    0 -0.57229236385E+02 -0.33093933449E+02 -0.12042866796E+04  0.12125598422E+04  0.12499828136E+03 0.  0.
         24    2    1    2    0    0 -0.20142841033E+02  0.88341207540E+01  0.88887916885E+02  0.12198863223E+03  0.80600179229E+02 0.  0.
        -11    1    5    5    0    0 -0.33366079014E+02 -0.10068585147E+02  0.92307473284E+02  0.98667832954E+02  0.00000000000E+00 0.  1.
         12    1    5    5    0    0  0.13223237981E+02  0.18902705901E+02 -0.34195563990E+01  0.23320799280E+02  0.00000000000E+00 0. -1.
        -13    1    3    3    0    0  0.84478404401E+02  0.44909981425E+02  0.27896569333E+03  0.29491586139E+03  0.00000000000E+00 0.  1.
         14    1    3    3    0    0  0.27430939900E+01 -0.14481342001E+02  0.74929585789E+01  0.16534154319E+02  0.00000000000E+00 0. -1.
          5    1    4    4  501    0 -0.63198743512E+02 -0.34130681028E+02 -0.31025482595E+03  0.31849510450E+03  0.47000000000E+01 0. -1.
         -5    1    4    4    0  501  0.59695071276E+01  0.10367475786E+01 -0.89403185363E+03  0.89406473768E+03  0.47000000000E+01 0. -1.
          1    1    1    2  502    0  0.48207397080E+02 -0.33212625681E+02  0.16573727994E+04  0.16584063518E+04  0.00000000000E+00 0. -1.
          1    1    1    2  503    0 -0.58056818053E+02  0.27043798952E+02 -0.42720660422E+03  0.43198083739E+03  0.00000000000E+00 0. -1.
<mgrwt>
<rscale>  0 0.61071361E+02</rscale>
<asrwt>0</asrwt>
<pdfrwt beam="1">  1        2 0.30423616E+00 0.58540854E+02</pdfrwt>
<pdfrwt beam="2">  1        2 0.24523232E+00 0.63711252E+02</pdfrwt>
<totfact> 0.19353112E+01</totfact>
</mgrwt>
</event>
<event>
13    1  0.1675423E-008  0.3325058E+03  0.7546771E-02  0.1185043E+00
          2   -1    0    0  503    0  0.00000000000E+00  0.00000000000E+00  0.26428860220E+04  0.26428860220E+04  0.00000000000E+00 0. -1.
         -3   -1    0    0    0  501 -0.00000000000E+00 -0.00000000000E+00 -0.23137024683E+04  0.23137024683E+04  0.00000000000E+00 0.  1.
         24    2    1    2    0    0 -0.24399493311E+03 -0.36251664707E+03  0.11726772360E+04  0.12538056004E+04  0.76842287329E+02 0.  0.
         25    2    1    2    0    0  0.12207816793E+03  0.14604282229E+03 -0.20195369276E+03  0.30437267048E+03  0.12500337391E+03 0.  0.
         24    2    1    2    0    0 -0.50098893544E+00  0.12725094345E+02  0.87972625414E+02  0.12874369712E+03  0.93132044491E+02 0.  0.
        -11    1    3    3    0    0 -0.73133601322E+02 -0.79131340714E+02  0.37608845766E+03  0.39121965788E+03  0.00000000000E+00 0.  1.
         12    1    3    3    0    0 -0.17086133179E+03 -0.28338530635E+03  0.79658877830E+03  0.86258594254E+03  0.00000000000E+00 0. -1.
        -11    1    5    5    0    0 -0.19189024789E+02 -0.33193526469E+02  0.16453718718E+02  0.41722340915E+02  0.00000000000E+00 0.  1.
         12    1    5    5    0    0  0.18688035853E+02  0.45918620814E+02  0.71518906696E+02  0.87021356209E+02  0.00000000000E+00 0. -1.
          5    1    4    4  502    0  0.35282732299E+02 -0.48294743994E+01 -0.91184416231E+02  0.98004503901E+02  0.47000000000E+01 0.  1.
         -5    1    4    4    0  502  0.86795435630E+02  0.15087229669E+03 -0.11076927653E+03  0.20636816658E+03  0.47000000000E+01 0.  1.
          1    1    1    2  503    0  0.20240039092E+03  0.20937195126E+03  0.12525633528E+04  0.12859694728E+04  0.00000000000E+00 0. -1.
         -4    1    1    2    0  501 -0.79982636809E+02 -0.56232208308E+01 -0.19820759677E+04  0.19836970496E+04  0.00000000000E+00 0.  1.
<mgrwt>
<rscale>  0 0.16327994E+03</rscale>
<asrwt>0</asrwt>
<pdfrwt beam="1">  1        2 0.38865971E+00 0.33250582E+03</pdfrwt>
<pdfrwt beam="2">  1       -3 0.34025036E+00 0.80180065E+02</pdfrwt>
<totfact> 0.70286077E-02</totfact>
</mgrwt>
</event>
<event>
13    1  0.1675423E-008  0.6590653E+02  0.7546771E-02  0.1443600E+00
          2   -1    0    0  503    0  0.00000000000E+00  0.00000000000E+00  0.26196910985E+04  0.26196910985E+04  0.00000000000E+00 0. -1.
          2   -1    0    0  502    0 -0.00000000000E+00 -0.00000000000E+00 -0.20632672862E+03  0.20632672862E+03  0.00000000000E+00 0. -1.
         24    2    1    2    0    0  0.75882406093E+02 -0.10477758753E+03  0.76662804724E+03  0.78158453483E+03  0.80120782954E+02 0.  0.
         25    2    1    2    0    0 -0.15149252579E+02  0.21038673970E+03  0.17444963714E+03  0.30091428458E+03  0.12499860268E+03 0.  0.
         24    2    1    2    0    0 -0.41919060261E+02 -0.73938888471E+02 -0.33030019795E+01  0.11527968319E+03  0.77809566843E+02 0.  0.
        -11    1    3    3    0    0  0.83830600756E+02 -0.52246657783E+02  0.51999829159E+03  0.52929718130E+03  0.00000000000E+00 0.  1.
         12    1    3    3    0    0 -0.79481946628E+01 -0.52530929751E+02  0.24662975565E+03  0.25228735353E+03  0.00000000000E+00 0. -1.
        -13    1    5    5    0    0 -0.38336467124E+02 -0.65337519911E+01  0.20177360318E+02  0.43812104447E+02  0.00000000000E+00 0.  1.
         14    1    5    5    0    0 -0.35825931372E+01 -0.67405136480E+02 -0.23480362298E+02  0.71467578741E+02  0.00000000000E+00 0. -1.
          5    1    4    4  501    0 -0.54600078074E+02  0.97892332528E+02  0.35275263766E+02  0.11760319523E+03  0.47000000000E+01 0.  1.
         -5    1    4    4    0  501  0.39450825495E+02  0.11249440717E+03  0.13917437337E+03  0.18331108936E+03  0.47000000000E+01 0.  1.
          1    1    1    2  502    0 -0.57188404628E+02 -0.33665642338E+02 -0.61614370034E+02  0.90555064423E+02  0.00000000000E+00 0. -1.
          1    1    1    2  503    0  0.38374311375E+02  0.19953786426E+01  0.15372040575E+04  0.15376842601E+04  0.00000000000E+00 0. -1.
<mgrwt>
<rscale>  0 0.50324294E+02</rscale>
<asrwt>0</asrwt>
<pdfrwt beam="1">  1        2 0.38524867E+00 0.38426154E+02</pdfrwt>
<pdfrwt beam="2">  1        2 0.30342168E-01 0.65906533E+02</pdfrwt>
<totfact> 0.13606407E+02</totfact>
</mgrwt>
</event>
<event>
13    1  0.1675423E-008  0.1017143E+03  0.7546771E-02  0.1394533E+00
          2   -1    0    0  502    0  0.00000000000E+00  0.00000000000E+00  0.27512246596E+04  0.27512246596E+04  0.00000000000E+00 0. -1.
          2   -1    0    0  503    0 -0.00000000000E+00 -0.00000000000E+00 -0.12705129271E+04  0.12705129271E+04  0.00000000000E+00 0. -1.
         24    2    1    2    0    0 -0.29372840373E+03  0.20182180709E+03  0.66643325546E+03  0.76019587921E+03  0.82195339384E+02 0.  0.
         25    2    1    2    0    0  0.10219602558E+03 -0.82632921901E+02 -0.26908655154E+03  0.32450659542E+03  0.12499892330E+03 0.  0.
         24    2    1    2    0    0  0.11078993003E+03 -0.24599283686E+02  0.39991386310E+03  0.42308091540E+03  0.78656402906E+02 0.  0.
        -11    1    5    5    0    0 -0.64201662581E+01  0.12101040333E+02  0.63155198860E+02  0.64623779331E+02  0.00000000000E+00 0.  1.
         12    1    5    5    0    0  0.11721009629E+03 -0.36700324019E+02  0.33675866424E+03  0.35845713607E+03  0.00000000000E+00 0. -1.
        -13    1    3    3    0    0 -0.17546257004E+03  0.16653565668E+03  0.45805441064E+03  0.51801069635E+03  0.00000000000E+00 0.  1.
         14    1    3    3    0    0 -0.11826583368E+03  0.35286150417E+02  0.20837884482E+03  0.24218518286E+03  0.00000000000E+00 0. -1.
          5    1    4    4  501    0  0.81266444229E+02  0.91902852982E+01 -0.16396224576E+03  0.18328776373E+03  0.47000000000E+01 0. -1.
         -5    1    4    4    0  501  0.20929581348E+02 -0.91823207199E+02 -0.10512430579E+03  0.14121883169E+03  0.47000000000E+01 0. -1.
          1    1    1    2  502    0  0.44552502906E+02 -0.91343121465E+02  0.15967259166E+04  0.15999569194E+04  0.00000000000E+00 0. -1.
          1    1    1    2  503    0  0.36189945214E+02 -0.32464800427E+01 -0.91327475115E+03  0.91399727726E+03  0.00000000000E+00 0. -1.
<mgrwt>
<rscale>  0 0.60793230E+02</rscale>
<asrwt>0</asrwt>
<pdfrwt beam="1">  1        2 0.40459186E+00 0.10171431E+03</pdfrwt>
<pdfrwt beam="2">  1        2 0.18684014E+00 0.36335269E+02</pdfrwt>
<totfact> 0.13581993E+01</totfact>
</mgrwt>
</event>
<event>
13    1  0.1675423E-008  0.1270368E+03  0.7546771E-02  0.1413652E+00
          2   -1    0    0  502    0  0.00000000000E+00  0.00000000000E+00  0.12533862606E+04  0.12533862606E+04  0.00000000000E+00 0. -1.
          2   -1    0    0  503    0 -0.00000000000E+00 -0.00000000000E+00 -0.11542854405E+04  0.11542854405E+04  0.00000000000E+00 0. -1.
         24    2    1    2    0    0  0.42366300511E+02 -0.60416795743E+02  0.15478532634E+02  0.10967392108E+03  0.79647293518E+02 0.  0.
         25    2    1    2    0    0 -0.18211628347E+03  0.11380454358E+03  0.39184125559E+02  0.25155413689E+03  0.12500509287E+03 0.  0.
         24    2    1    2    0    0  0.27457458258E+02  0.24397424607E+02  0.35199668346E+02  0.94091043932E+02  0.79151510125E+02 0.  0.
        -13    1    5    5    0    0  0.48677306674E+01  0.39382622251E+02  0.49499857359E+02  0.63442269945E+02  0.00000000000E+00 0.  1.
         14    1    5    5    0    0  0.22589727590E+02 -0.14985197644E+02 -0.14300189014E+02  0.30648773986E+02  0.00000000000E+00 0. -1.
        -13    1    3    3    0    0 -0.21445736770E+02 -0.77336488746E+01  0.14308989496E+02  0.26916094273E+02  0.00000000000E+00 0.  1.
         14    1    3    3    0    0  0.63812037281E+02 -0.52683146869E+02  0.11695431378E+01  0.82757826803E+02  0.00000000000E+00 0. -1.
          5    1    4    4  501    0 -0.17224640286E+03  0.13794257925E+03  0.42723380164E+02  0.22482071898E+03  0.47000000000E+01 0.  1.
         -5    1    4    4    0  501 -0.98698806093E+01 -0.24138035678E+02 -0.35392546052E+01  0.26733417903E+02  0.47000000000E+01 0.  1.
          1    1    1    2  502    0 -0.65492331771E+00 -0.25019412369E+02  0.97663548268E+03  0.97695612284E+03  0.00000000000E+00 0. -1.
          1    1    1    2  503    0  0.11294744802E+03 -0.52765760072E+02 -0.96739698914E+03  0.97539647634E+03  0.00000000000E+00 0. -1.
<mgrwt>
<rscale>  0 0.56386824E+02</rscale>
<asrwt>0</asrwt>
<pdfrwt beam="1">  1        2 0.18432151E+00 0.25027983E+02</pdfrwt>
<pdfrwt beam="2">  1        2 0.16974786E+00 0.12703676E+03</pdfrwt>
<totfact> 0.86795011E+01</totfact>
</mgrwt>
</event>
<event>
13    1  0.1675423E-008  0.7261504E+02  0.7546771E-02  0.1400653E+00
          2   -1    0    0  503    0  0.00000000000E+00  0.00000000000E+00  0.11071527162E+04  0.11071527162E+04  0.00000000000E+00 0. -1.
         -1   -1    0    0    0  501 -0.00000000000E+00 -0.00000000000E+00 -0.14092536901E+04  0.14092536901E+04  0.00000000000E+00 0.  1.
         24    2    1    2    0    0  0.16240924099E+02  0.32515831898E+02  0.27422654576E+03  0.28758709698E+03  0.78645362309E+02 0.  0.
         25    2    1    2    0    0  0.10955472948E+03  0.16586452492E+02 -0.38430463257E+03  0.41903668913E+03  0.12499738823E+03 0.  0.
         24    2    1    2    0    0 -0.14062611063E+02 -0.42061690136E+01  0.94149580540E+02  0.12466575982E+03  0.80386312687E+02 0.  0.
        -11    1    5    5    0    0 -0.38523761669E+02  0.22171843574E+02  0.62863040737E+02  0.76989822388E+02  0.00000000000E+00 0.  1.
         12    1    5    5    0    0  0.24461150606E+02 -0.26378012587E+02  0.31286539803E+02  0.47675937430E+02  0.00000000000E+00 0. -1.
        -11    1    3    3    0    0  0.32513659714E+02 -0.12990801817E+02  0.78020604150E+02  0.85516744979E+02  0.00000000000E+00 0.  1.
         12    1    3    3    0    0 -0.16272735615E+02  0.45506633715E+02  0.19620594161E+03  0.20207035200E+03  0.00000000000E+00 0. -1.
          5    1    4    4  502    0 -0.12312548780E+02 -0.26528286456E+02 -0.13454617363E+03  0.13776832611E+03  0.47000000000E+01 0.  1.
         -5    1    4    4    0  502  0.12186727826E+03  0.43114738949E+02 -0.24975845893E+03  0.28126836301E+03  0.47000000000E+01 0.  1.
          1    1    1    2  503    0 -0.68953785814E+02 -0.22086884180E+02  0.69699960127E+03  0.70075024024E+03  0.00000000000E+00 0. -1.
         -2    1    1    2    0  501 -0.42779256704E+02 -0.22809231197E+02 -0.98317206889E+03  0.98436662016E+03  0.00000000000E+00 0.  1.
<mgrwt>
<rscale>  0 0.59332863E+02</rscale>
<asrwt>0</asrwt>
<pdfrwt beam="1">  1        2 0.16281658E+00 0.72615039E+02</pdfrwt>
<pdfrwt beam="2">  1       -1 0.20724319E+00 0.48480159E+02</pdfrwt>
<totfact> 0.52395028E+00</totfact>
</mgrwt>
</event>
<event>
13    1  0.1675423E-008  0.1138504E+03  0.7546771E-02  0.1441568E+00
          2   -1    0    0  503    0  0.00000000000E+00  0.00000000000E+00  0.17220295641E+04  0.17220295641E+04  0.00000000000E+00 0. -1.
          2   -1    0    0  502    0 -0.00000000000E+00 -0.00000000000E+00 -0.24455791339E+04  0.24455791339E+04  0.00000000000E+00 0. -1.
         24    2    1    2    0    0 -0.83195194272E+03 -0.31110818863E+03 -0.30154243461E+03  0.94067446882E+03  0.70769176868E+02 0.  0.
         25    2    1    2    0    0  0.88671406434E+03  0.42003667193E+03 -0.86220120830E+03  0.13121385404E+04  0.12499595220E+03 0.  0.
         24    2    1    2    0    0  0.39203816082E+02 -0.11357253419E+03  0.19563698166E+03  0.24315346601E+03  0.80088199637E+02 0.  0.
        -13    1    3    3    0    0 -0.56284670592E+03 -0.17798771836E+03 -0.18517720624E+03  0.61868137192E+03  0.00000000000E+00 0.  1.
         14    1    3    3    0    0 -0.26910523680E+03 -0.13312047027E+03 -0.11636522837E+03  0.32199309690E+03  0.00000000000E+00 0. -1.
        -13    1    5    5    0    0  0.61470280433E-01 -0.10398475501E+03  0.14519181665E+03  0.17858750425E+03  0.00000000000E+00 0.  1.
         14    1    5    5    0    0  0.39142345801E+02 -0.95877791771E+01  0.50445165014E+02  0.64565961758E+02  0.00000000000E+00 0. -1.
          5    1    4    4  501    0  0.79566721051E+03  0.36327845923E+03 -0.71392359920E+03  0.11290555984E+04  0.47000000000E+01 0.  1.
         -5    1    4    4    0  501  0.91046853826E+02  0.56758212693E+02 -0.14827760910E+03  0.18308294203E+03  0.47000000000E+01 0.  1.
          1    1    1    2  502    0  0.19749245790E+02  0.10953630595E+02 -0.70997783611E+03  0.71033692182E+03  0.00000000000E+00 0. -1.
          1    1    1    2  503    0 -0.11371518349E+03 -0.63095797052E+01  0.95453492751E+03  0.96130530093E+03  0.00000000000E+00 0. -1.
<mgrwt>
<rscale>  0 0.50706432E+02</rscale>
<asrwt>0</asrwt>
<pdfrwt beam="1">  1        2 0.25323964E+00 0.11385045E+03</pdfrwt>
<pdfrwt beam="2">  1        2 0.35964399E+00 0.22583506E+02</pdfrwt>
<totfact> 0.13154916E+01</totfact>
</mgrwt>
</event>
<event>
13    1  0.1675423E-008  0.1260093E+03  0.7546771E-02  0.1425535E+00
         -3   -1    0    0    0  501 -0.00000000000E+00  0.00000000000E+00  0.48184976956E+03  0.48184976956E+03  0.00000000000E+00 0.  1.
          2   -1    0    0  503    0  0.00000000000E+00 -0.00000000000E+00 -0.63897718344E+03  0.63897718344E+03  0.00000000000E+00 0. -1.
         24    2    1    2    0    0  0.73133705632E+02 -0.13997321268E+01 -0.23350429895E+03  0.25790952773E+03  0.81501955296E+02 0.  0.
         25    2    1    2    0    0 -0.17315994474E+03  0.37342306266E+02 -0.10231831914E+03  0.23973845284E+03  0.12500669199E+03 0.  0.
         24    2    1    2    0    0 -0.53090207880E+01 -0.26818939187E+02 -0.18414591869E+02  0.80736087743E+02  0.73700593413E+02 0.  0.
        -11    1    3    3    0    0  0.39181238020E+02  0.36650975786E+02 -0.15745526832E+03  0.16634489761E+03  0.00000000000E+00 0.  1.
         12    1    3    3    0    0  0.33952467612E+02 -0.38050707913E+02 -0.76049030626E+02  0.91564630119E+02  0.00000000000E+00 0. -1.
        -13    1    5    5    0    0  0.27715822423E+02 -0.34725863542E+01 -0.27593839066E+02  0.39263795320E+02  0.00000000000E+00 0.  1.
         14    1    5    5    0    0 -0.33024843211E+02 -0.23346352833E+02  0.91792471967E+01  0.41472292423E+02  0.00000000000E+00 0. -1.
          5    1    4    4  502    0 -0.17380703861E+03  0.64189557657E+02 -0.10381260805E+03  0.21243430413E+03  0.47000000000E+01 0. -1.
         -5    1    4    4    0  502  0.64709386792E+00 -0.26847251391E+02  0.14942889119E+01  0.27304148716E+02  0.47000000000E+01 0. -1.
          1    1    1    2  503    0 -0.17796915451E+02 -0.14612399688E+02 -0.16155656335E+03  0.16318938564E+03  0.00000000000E+00 0. -1.
         -4    1    1    2    0  501  0.12313217534E+03  0.54887647361E+01  0.35866635944E+03  0.37925349904E+03  0.00000000000E+00 0.  1.
<mgrwt>
<rscale>  0 0.53866903E+02</rscale>
<asrwt>0</asrwt>
<pdfrwt beam="2">  1        2 0.93967232E-01 0.23027211E+02</pdfrwt>
<pdfrwt beam="1">  1       -3 0.70860261E-01 0.12600932E+03</pdfrwt>
<totfact> 0.61735971E+01</totfact>
</mgrwt>
</event>
<event>
13    1  0.1675423E-008  0.1513268E+03  0.7546771E-02  0.1343618E+00
          2   -1    0    0  502    0  0.00000000000E+00  0.00000000000E+00  0.37652857559E+03  0.37652857559E+03  0.00000000000E+00 0. -1.
          2   -1    0    0  503    0 -0.00000000000E+00 -0.00000000000E+00 -0.21615205403E+04  0.21615205403E+04  0.00000000000E+00 0. -1.
         24    2    1    2    0    0 -0.28142085849E+03  0.22535034281E+02  0.15892072119E+03  0.33345690306E+03  0.78944177844E+02 0.  0.
         25    2    1    2    0    0 -0.26441994625E+02 -0.25616810850E+02 -0.11262411441E+04  0.11337553332E+04  0.12500656280E+03 0.  0.
         24    2    1    2    0    0  0.19372991555E+03 -0.29639412355E+02 -0.38878293633E+03  0.44294196650E+03  0.81459432606E+02 0.  0.
        -13    1    5    5    0    0  0.11189544093E+03 -0.36462758395E+02 -0.15142508586E+03  0.19178028856E+03  0.00000000000E+00 0.  1.
         14    1    5    5    0    0  0.81834474617E+02  0.68233460399E+01 -0.23735785047E+03  0.25116167794E+03  0.00000000000E+00 0. -1.
        -13    1    3    3    0    0 -0.28236798125E+02 -0.15074573092E+02  0.39965377772E+02  0.51203427061E+02  0.00000000000E+00 0.  1.
         14    1    3    3    0    0 -0.25318406036E+03  0.37609607373E+02  0.11895534342E+03  0.28225347600E+03  0.00000000000E+00 0. -1.
          5    1    4    4  501    0 -0.13166765375E+02  0.88133197606E+01 -0.16372333735E+02  0.23263310761E+02  0.47000000000E+01 0.  1.
         -5    1    4    4    0  501 -0.13275229249E+02 -0.34430130610E+02 -0.11098688104E+04  0.11104920224E+04  0.47000000000E+01 0.  1.
          1    1    1    2  502    0 -0.29765512088E+02 -0.22399622379E+02  0.84250111843E+02  0.92118457099E+02  0.00000000000E+00 0. -1.
          1    1    1    2  503    0  0.14389844965E+03  0.55120811303E+02 -0.51313871734E+03  0.53577645607E+03  0.00000000000E+00 0. -1.
<mgrwt>
<rscale>  0 0.75081693E+02</rscale>
<asrwt>0</asrwt>
<pdfrwt beam="1">  1        2 0.55371849E-01 0.37252232E+02</pdfrwt>
<pdfrwt beam="2">  1        2 0.31787067E+00 0.15132679E+03</pdfrwt>
<totfact> 0.10174216E+02</totfact>
</mgrwt>
</event>
<event>
13    1  0.1675423E-008  0.6339971E+02  0.7546771E-02  0.1443699E+00
          2   -1    0    0  503    0  0.00000000000E+00  0.00000000000E+00  0.11910587751E+04  0.11910587751E+04  0.00000000000E+00 0. -1.
          2   -1    0    0  502    0 -0.00000000000E+00 -0.00000000000E+00 -0.18144196580E+04  0.18144196580E+04  0.00000000000E+00 0. -1.
         24    2    1    2    0    0 -0.48065407427E+02  0.21723700164E+02 -0.10635745121E+03  0.14541018299E+03  0.83964345693E+02 0.  0.
         25    2    1    2    0    0 -0.15970193167E+03 -0.10378660856E+03  0.65995380348E+02  0.23719150787E+03  0.12501221573E+03 0.  0.
         24    2    1    2    0    0  0.15128175401E+03  0.82786522455E+02 -0.50962413742E+03  0.54396413484E+03  0.80252359192E+02 0.  0.
        -11    1    5    5    0    0 -0.79565308345E-01  0.20732807011E+02 -0.25021765418E+02  0.32495297534E+02  0.00000000000E+00 0.  1.
         12    1    5    5    0    0  0.15136131932E+03  0.62053715444E+02 -0.48460237200E+03  0.51146883730E+03  0.00000000000E+00 0. -1.
        -11    1    3    3    0    0 -0.34419481349E+02  0.30426782528E+02 -0.11723145583E+03  0.12591149283E+03  0.00000000000E+00 0.  1.
         12    1    3    3    0    0 -0.13645926078E+02 -0.87030823638E+01  0.10874004619E+02  0.19498690152E+02  0.00000000000E+00 0. -1.
          5    1    4    4  501    0 -0.19797206452E+02 -0.53357186549E+02 -0.25479025257E+02  0.62531507800E+02  0.47000000000E+01 0. -1.
         -5    1    4    4    0  501 -0.13990472522E+03 -0.50429422014E+02  0.91474405605E+02  0.17466000007E+03  0.47000000000E+01 0. -1.
          1    1    1    2  502    0  0.50326093083E+02  0.38714578118E+02 -0.10748091260E+04  0.10766829578E+04  0.00000000000E+00 0. -1.
          1    1    1    2  503    0  0.61594920096E+01 -0.39438192175E+02  0.10014344514E+04  0.10022296497E+04  0.00000000000E+00 0. -1.
<mgrwt>
<rscale>  0 0.50305878E+02</rscale>
<asrwt>0</asrwt>
<pdfrwt beam="1">  1        2 0.17515570E+00 0.39916292E+02</pdfrwt>
<pdfrwt beam="2">  1        2 0.26682642E+00 0.63399711E+02</pdfrwt>
<totfact> 0.44656205E+01</totfact>
</mgrwt>
</event>
<event>
13    1  0.1675423E-008  0.2681397E+03  0.7546771E-02  0.1174458E+00
         -3   -1    0    0    0  501 -0.00000000000E+00  0.00000000000E+00  0.50384026274E+03  0.50384026274E+03  0.00000000000E+00 0.  1.
          2   -1    0    0  503    0  0.00000000000E+00 -0.00000000000E+00 -0.39068934327E+04  0.39068934327E+04  0.00000000000E+00 0. -1.
         24    2    1    2    0    0  0.31157818321E+02  0.72138306675E+02  0.16806191054E+03  0.20250735773E+03  0.81176839250E+02 0.  0.
         25    2    1    2    0    0  0.28462947986E+03  0.32830411803E+03 -0.61845522467E+03  0.76610024737E+03  0.12500075749E+03 0.  0.
         24    2    1    2    0    0 -0.14545759204E+03 -0.10843233742E+03  0.88863599181E+02  0.21666344734E+03  0.78299599462E+02 0.  0.
        -13    1    3    3    0    0  0.40757737185E+02  0.62916695775E+02  0.17281404299E+03  0.18837302674E+03  0.00000000000E+00 0.  1.
         14    1    3    3    0    0 -0.95999188649E+01  0.92216108996E+01 -0.47521324548E+01  0.14134330995E+02  0.00000000000E+00 0. -1.
        -13    1    5    5    0    0 -0.66648883038E+02 -0.81307811752E+02  0.81441224861E+02  0.13298761961E+03  0.00000000000E+00 0.  1.
         14    1    5    5    0    0 -0.78808708998E+02 -0.27124525670E+02  0.74223743197E+01  0.83675827736E+02  0.00000000000E+00 0. -1.
          5    1    4    4  502    0  0.97539500883E+02  0.54027816711E+02 -0.96797452919E+02  0.14773217694E+03  0.47000000000E+01 0.  1.
         -5    1    4    4    0  502  0.18708997898E+03  0.27427630131E+03 -0.52165777176E+03  0.61836807043E+03  0.47000000000E+01 0.  1.
          1    1    1    2  503    0 -0.18181324467E+03 -0.18060593419E+03 -0.30920119225E+04  0.31026137832E+04  0.00000000000E+00 0. -1.
         -4    1    1    2    0  501  0.11483538524E+02 -0.11140415309E+03  0.50488467489E+02  0.12284885971E+03  0.00000000000E+00 0.  1.
<mgrwt>
<rscale>  0 0.17329213E+03</rscale>
<asrwt>0</asrwt>
<pdfrwt beam="2">  1        2 0.57454317E+00 0.26813973E+03</pdfrwt>
<pdfrwt beam="1">  1       -3 0.74094154E-01 0.11199445E+03</pdfrwt>
<totfact> 0.75705930E-01</totfact>
</mgrwt>
</event>
<event>
13    1  0.1675423E-008  0.6965002E+02  0.7546771E-02  0.1457143E+00
          2   -1    0    0  503    0  0.00000000000E+00  0.00000000000E+00  0.39567248639E+03  0.39567248639E+03  0.00000000000E+00 0. -1.
          2   -1    0    0  502    0 -0.00000000000E+00 -0.00000000000E+00 -0.25858635409E+04  0.25858635409E+04  0.00000000000E+00 0. -1.
         24    2    1    2    0    0 -0.10520294981E+03  0.24577789148E+01  0.99939695666E+02  0.16603244157E+03  0.80654370979E+02 0.  0.
         25    2    1    2    0    0  0.47241281970E+02 -0.77460772491E+02 -0.16592882024E+04  0.16664616909E+04  0.12500127454E+03 0.  0.
         24    2    1    2    0    0  0.42315813044E+02 -0.19251852325E+01 -0.13281361846E+03  0.16086131038E+03  0.80265618765E+02 0.  0.
        -13    1    5    5    0    0  0.14409388141E+02 -0.29486154942E+02 -0.11148479117E+03  0.11621498381E+03  0.00000000000E+00 0.  1.
         14    1    5    5    0    0  0.27906424903E+02  0.27560969709E+02 -0.21328827288E+02  0.44646326564E+02  0.00000000000E+00 0. -1.
        -13    1    3    3    0    0  0.19999699584E+01 -0.13432969450E+02  0.39879085684E+02  0.42128209350E+02  0.00000000000E+00 0.  1.
         14    1    3    3    0    0 -0.10720291977E+03  0.15890748365E+02  0.60060609982E+02  0.12390423222E+03  0.00000000000E+00 0. -1.
          5    1    4    4  501    0  0.17449953752E+02  0.12169285820E+02 -0.10184831850E+04  0.10187161924E+04  0.47000000000E+01 0.  1.
         -5    1    4    4    0  501  0.29791328218E+02 -0.89630058311E+02 -0.64080501737E+03  0.64774549854E+03  0.47000000000E+01 0.  1.
          1    1    1    2  502    0 -0.25534511204E+02  0.20761643182E+02 -0.73778256426E+03  0.73851619428E+03  0.00000000000E+00 0. -1.
          1    1    1    2  503    0  0.41180366002E+02  0.56166535626E+02  0.23975363492E+03  0.24966439018E+03  0.00000000000E+00 0. -1.
<mgrwt>
<rscale>  0 0.47876616E+02</rscale>
<asrwt>0</asrwt>
<pdfrwt beam="1">  1        2 0.58187129E-01 0.69650016E+02</pdfrwt>
<pdfrwt beam="2">  1        2 0.38027406E+00 0.32909833E+02</pdfrwt>
<totfact> 0.73552698E+01</totfact>
</mgrwt>
</event>
<event>
13    1  0.1675423E-008  0.1656187E+03  0.7546771E-02  0.1211214E+00
          2   -1    0    0  502    0  0.00000000000E+00  0.00000000000E+00  0.13033498609E+04  0.13033498609E+04  0.00000000000E+00 0. -1.
          2   -1    0    0  503    0 -0.00000000000E+00 -0.00000000000E+00 -0.22254844289E+04  0.22254844289E+04  0.00000000000E+00 0. -1.
         24    2    1    2    0    0 -0.22512141772E+02  0.47894114881E+02  0.32526922005E+02  0.10262745428E+03  0.81693028766E+02 0.  0.
         25    2    1    2    0    0 -0.34157136900E+03  0.81681348802E+02 -0.99487366034E+02  0.38582875666E+03  0.12499300221E+03 0.  0.
         24    2    1    2    0    0  0.54485701758E+02 -0.61027248279E+02 -0.71001536505E+02  0.13700569801E+03  0.83882813335E+02 0.  0.
        -13    1    3    3    0    0 -0.17672410201E+02  0.69249277768E+02  0.11723244653E+02  0.72423829082E+02  0.00000000000E+00 0.  1.
         14    1    3    3    0    0 -0.48397315708E+01 -0.21355162887E+02  0.20803677352E+02  0.30203625196E+02  0.00000000000E+00 0. -1.
        -13    1    5    5    0    0  0.59455220050E+01 -0.55990625547E+02 -0.67755399218E+02  0.88097068647E+02  0.00000000000E+00 0.  1.
         14    1    5    5    0    0  0.48540179753E+02 -0.50366227324E+01 -0.32461372867E+01  0.48908629365E+02  0.00000000000E+00 0. -1.
          5    1    4    4  501    0 -0.20889344614E+03 -0.88979364629E+01 -0.80082215698E+02  0.22394395814E+03  0.47000000000E+01 0. -1.
         -5    1    4    4    0  501 -0.13267792286E+03  0.90579285265E+02 -0.19405150336E+02  0.16188479852E+03  0.47000000000E+01 0. -1.
          1    1    1    2  502    0  0.16846869387E+03 -0.29258496189E+02  0.10497616223E+04  0.10635963633E+04  0.00000000000E+00 0. -1.
          1    1    1    2  503    0  0.14112911515E+03 -0.39289719215E+02 -0.18339342097E+04  0.18397760176E+04  0.00000000000E+00 0. -1.
<mgrwt>
<rscale>  0 0.14158381E+03</rscale>
<asrwt>0</asrwt>
<pdfrwt beam="1">  1        2 0.19166910E+00 0.12103691E+03</pdfrwt>
<pdfrwt beam="2">  1        2 0.32727712E+00 0.16561870E+03</pdfrwt>
<totfact> 0.20851369E+01</totfact>
</mgrwt>
</event>
<event>
13    1  0.1675423E-008  0.1240354E+03  0.7546771E-02  0.1416969E+00
          2   -1    0    0  502    0  0.00000000000E+00  0.00000000000E+00  0.34578886568E+04  0.34578886568E+04  0.00000000000E+00 0. -1.
          2   -1    0    0  503    0 -0.00000000000E+00 -0.00000000000E+00 -0.10098788951E+04  0.10098788951E+04  0.00000000000E+00 0. -1.
         24    2    1    2    0    0  0.86265423877E+02 -0.65051047255E+03 -0.11233230431E+03  0.67062683828E+03  0.80723053515E+02 0.  0.
         25    2    1    2    0    0 -0.33233966488E+03 -0.13304519741E+03  0.11776572641E+04  0.12371983891E+04  0.12503017517E+03 0.  0.
         24    2    1    2    0    0  0.14375660625E+03  0.70821660293E+03  0.70634811506E+03  0.10117525975E+04  0.49788957957E+02 0.  0.
        -11    1    3    3    0    0  0.49123537034E+02 -0.48446759309E+03 -0.50372633903E+02  0.48955017402E+03  0.00000000000E+00 0.  1.
         12    1    3    3    0    0  0.37141886843E+02 -0.16604287947E+03 -0.61959670409E+02  0.18107666425E+03  0.00000000000E+00 0. -1.
        -13    1    5    5    0    0  0.84530252108E+02  0.49825564551E+03  0.51544651819E+03  0.72186506005E+03  0.00000000000E+00 0.  1.
         14    1    5    5    0    0  0.59226354142E+02  0.20996095742E+03  0.19090159687E+03  0.28988753742E+03  0.00000000000E+00 0. -1.
          5    1    4    4  501    0 -0.80635278681E+02 -0.64078704216E+02  0.51026462617E+03  0.52057680243E+03  0.47000000000E+01 0.  1.
         -5    1    4    4    0  501 -0.25170438619E+03 -0.68966493194E+02  0.66739263797E+03  0.71662158663E+03  0.47000000000E+01 0.  1.
          1    1    1    2  502    0 -0.10068855828E+02  0.22864881960E+02  0.11032961868E+04  0.11035790232E+04  0.00000000000E+00 0. -1.
          1    1    1    2  503    0  0.11238649058E+03  0.52474185074E+02 -0.42695949994E+03  0.44461070382E+03  0.00000000000E+00 0. -1.
<mgrwt>
<rscale>  0 0.55667424E+02</rscale>
<asrwt>0</asrwt>
<pdfrwt beam="1">  1        2 0.50851303E+00 0.24983688E+02</pdfrwt>
<pdfrwt beam="2">  1        2 0.14851160E+00 0.12403541E+03</pdfrwt>
<totfact> 0.94408863E+00</totfact>
</mgrwt>
</event>
<event>
13    1  0.1675423E-008  0.1665734E+03  0.7546771E-02  0.1339791E+00
          2   -1    0    0  502    0  0.00000000000E+00  0.00000000000E+00  0.98615441883E+03  0.98615441883E+03  0.00000000000E+00 0. -1.
          4   -1    0    0  503    0 -0.00000000000E+00 -0.00000000000E+00 -0.11333966499E+04  0.11333966499E+04  0.00000000000E+00 0. -1.
         24    2    1    2    0    0 -0.16416839432E+03  0.23758027062E+03  0.56351156773E+03  0.63806247563E+03  0.78630713862E+02 0.  0.
         25    2    1    2    0    0  0.19195597337E+02 -0.42486705849E+03 -0.79965840755E+03  0.91430771766E+03  0.12499818184E+03 0.  0.
         24    2    1    2    0    0  0.82171745134E+02  0.62854694072E+02 -0.10268574133E+02  0.13246374519E+03  0.82087099531E+02 0.  0.
        -11    1    5    5    0    0  0.69916483380E+02  0.71450660143E+01  0.11871138240E+02  0.71276156881E+02  0.00000000000E+00 0.  1.
         12    1    5    5    0    0  0.12255261754E+02  0.55709628058E+02 -0.22139712373E+02  0.61187588309E+02  0.00000000000E+00 0. -1.
        -11    1    3    3    0    0 -0.91532209282E+02  0.68511272051E+02  0.19163959865E+03  0.22315392783E+03  0.00000000000E+00 0.  1.
         12    1    3    3    0    0 -0.72636185039E+02  0.16906899857E+03  0.37187196908E+03  0.41490854780E+03  0.00000000000E+00 0. -1.
          5    1    4    4  501    0 -0.48921439101E+02 -0.13859413509E+03 -0.22733906174E+03  0.27075224926E+03  0.47000000000E+01 0. -1.
         -5    1    4    4    0  501  0.68117036438E+02 -0.28627292340E+03 -0.57231934581E+03  0.64355546840E+03  0.47000000000E+01 0. -1.
          1    1    1    2  502    0  0.50286513122E+02  0.15709705912E+03  0.23910389890E+03  0.29048045348E+03  0.00000000000E+00 0. -1.
          3    1    1    2  503    0  0.12514538727E+02 -0.32664965322E+02 -0.13993071598E+03  0.14423667673E+03  0.00000000000E+00 0. -1.
<mgrwt>
<rscale>  0 0.76333280E+02</rscale>
<asrwt>0</asrwt>
<pdfrwt beam="1">  1        2 0.14502271E+00 0.16657341E+03</pdfrwt>
<pdfrwt beam="2">  1        4 0.16667598E+00 0.34980189E+02</pdfrwt>
<totfact> 0.36190326E+00</totfact>
</mgrwt>
</event>
<event>
13    1  0.1675423E-008  0.8498292E+02  0.7546771E-02  0.1482214E+00
          2   -1    0    0  502    0  0.00000000000E+00  0.00000000000E+00  0.31067497198E+04  0.31067497198E+04  0.00000000000E+00 0. -1.
          2   -1    0    0  503    0 -0.00000000000E+00 -0.00000000000E+00 -0.13074048163E+04  0.13074048163E+04  0.00000000000E+00 0. -1.
         24    2    1    2    0    0  0.10498802088E+02 -0.86342336031E+02  0.15912837142E+03  0.19824478875E+03  0.80087039141E+02 0.  0.
         25    2    1    2    0    0 -0.31817685327E+01  0.14935438352E+03 -0.23669103153E+03  0.30653612957E+03  0.12499959520E+03 0.  0.
         24    2    1    2    0    0 -0.61568167540E+01  0.40651282270E+02  0.52674923353E+03  0.53443329577E+03  0.80397509072E+02 0.  0.
        -11    1    3    3    0    0 -0.96316862060E+01  0.13307452211E+02  0.25657416404E+02  0.30465729600E+02  0.00000000000E+00 0.  1.
         12    1    3    3    0    0  0.20130488294E+02 -0.99649788243E+02  0.13347095502E+03  0.16777905915E+03  0.00000000000E+00 0. -1.
        -13    1    5    5    0    0  0.15056014657E+02  0.56282969502E+02  0.26326733386E+03  0.26963706220E+03  0.00000000000E+00 0.  1.
         14    1    5    5    0    0 -0.21212831411E+02 -0.15631687232E+02  0.26348189967E+03  0.26479623358E+03  0.00000000000E+00 0. -1.
          5    1    4    4  501    0  0.60200687417E+02  0.82142908919E+02 -0.13303694337E+03  0.16760816971E+03  0.47000000000E+01 0. -1.
         -5    1    4    4    0  501 -0.63382455950E+02  0.67211474598E+02 -0.10365408816E+03  0.13892795986E+03  0.47000000000E+01 0. -1.
          1    1    1    2  502    0  0.10372524111E+02 -0.84301215367E+02  0.23616603707E+04  0.23631872526E+04  0.00000000000E+00 0. -1.
          1    1    1    2  503    0 -0.11532740912E+02 -0.19362114389E+02 -0.10115020405E+04  0.10117530695E+04  0.00000000000E+00 0. -1.
<mgrwt>
<rscale>  0 0.43763236E+02</rscale>
<asrwt>0</asrwt>
<pdfrwt beam="1">  1        2 0.45687496E+00 0.84982917E+02</pdfrwt>
<pdfrwt beam="2">  1        2 0.19226542E+00 0.22536539E+02</pdfrwt>
<totfact> 0.90232288E+00</totfact>
</mgrwt>
</event>
<event>
13    1  0.1675423E-008  0.1534873E+03  0.7546771E-02  0.1411683E+00
          2   -1    0    0  503    0  0.00000000000E+00  0.00000000000E+00  0.43559867284E+04  0.43559867284E+04  0.00000000000E+00 0. -1.
          2   -1    0    0  502    0 -0.00000000000E+00 -0.00000000000E+00 -0.13449996523E+04  0.13449996523E+04  0.00000000000E+00 0. -1.
         24    2    1    2    0    0 -0.42239801869E+02 -0.74461257794E+02  0.10370893230E+04  0.10437122817E+04  0.80326729155E+02 0.  0.
         25    2    1    2    0    0 -0.86684379335E+02  0.24471797369E+03 -0.40954150218E+03  0.50074880741E+03  0.12499623135E+03 0.  0.
         24    2    1    2    0    0  0.71089353174E+02 -0.24482996724E+02  0.84209837426E+02  0.14531234984E+03  0.91494639366E+02 0.  0.
        -11    1    5    5    0    0  0.19601502921E+02 -0.16340084784E+02  0.89358482729E+02  0.92930919091E+02  0.00000000000E+00 0.  1.
         12    1    5    5    0    0  0.51487850253E+02 -0.81429119398E+01 -0.51486453031E+01  0.52381430746E+02  0.00000000000E+00 0. -1.
        -13    1    3    3    0    0 -0.30373285658E+02 -0.50162739905E+02  0.27686515576E+03  0.28300733459E+03  0.00000000000E+00 0.  1.
         14    1    3    3    0    0 -0.11866516210E+02 -0.24298517889E+02  0.76022416720E+03  0.76070494712E+03  0.00000000000E+00 0. -1.
          5    1    4    4  501    0  0.31175483544E+02  0.71881333792E+02 -0.12371598639E+03  0.14651475083E+03  0.47000000000E+01 0. -1.
         -5    1    4    4    0  501 -0.11785986288E+03  0.17283663990E+03 -0.28582551578E+03  0.35423405658E+03  0.47000000000E+01 0. -1.
          1    1    1    2  502    0 -0.94794409855E+01 -0.18777337182E+02 -0.85422531310E+03  0.85448425014E+03  0.00000000000E+00 0. -1.
          1    1    1    2  503    0  0.67314269015E+02 -0.12699638199E+03  0.31534547310E+04  0.31567286916E+04  0.00000000000E+00 0. -1.
<mgrwt>
<rscale>  0 0.56820078E+02</rscale>
<asrwt>0</asrwt>
<pdfrwt beam="1">  1        2 0.64058628E+00 0.15348730E+03</pdfrwt>
<pdfrwt beam="2">  1        2 0.19779407E+00 0.21034453E+02</pdfrwt>
<totfact> 0.12578723E+00</totfact>
</mgrwt>
</event>
<event>
13    1  0.1675423E-008  0.1078753E+03  0.7546771E-02  0.1272429E+00
          2   -1    0    0  503    0  0.00000000000E+00  0.00000000000E+00  0.29412650317E+04  0.29412650317E+04  0.00000000000E+00 0. -1.
          2   -1    0    0  502    0 -0.00000000000E+00 -0.00000000000E+00 -0.52126773381E+03  0.52126773381E+03  0.00000000000E+00 0. -1.
         24    2    1    2    0    0  0.38449623350E+02 -0.47574993003E+01  0.94669600060E+03  0.95095646144E+03  0.81141029583E+02 0.  0.
         25    2    1    2    0    0 -0.22478077713E+02 -0.13988881234E+03 -0.44359364570E+02  0.19408462770E+03  0.12500778252E+03 0.  0.
         24    2    1    2    0    0 -0.56549304144E+02 -0.66749077328E+02  0.72576450935E+03  0.73521964580E+03  0.78489116561E+02 0.  0.
        -11    1    5    5    0    0 -0.34283304924E+01 -0.64099301956E+02  0.41555443793E+03  0.42048301374E+03  0.00000000000E+00 0.  1.
         12    1    5    5    0    0 -0.53120973651E+02 -0.26497753727E+01  0.31021007142E+03  0.31473663206E+03  0.00000000000E+00 0. -1.
        -13    1    3    3    0    0  0.56968581029E+02 -0.11833877515E+02  0.43469329855E+03  0.43857008982E+03  0.00000000000E+00 0.  1.
         14    1    3    3    0    0 -0.18518957679E+02  0.70763782144E+01  0.51200270204E+03  0.51238637162E+03  0.00000000000E+00 0. -1.
          5    1    4    4  501    0 -0.41396860276E+02 -0.10699665641E+03 -0.81480013518E+02  0.14079441440E+03  0.47000000000E+01 0. -1.
         -5    1    4    4    0  501  0.18918782563E+02 -0.32892155929E+02  0.37120648948E+02  0.53290213301E+02  0.47000000000E+01 0. -1.
          1    1    1    2  502    0  0.30347094536E+02  0.10349442197E+03 -0.38529323004E+03  0.40010362988E+03  0.00000000000E+00 0. -1.
          1    1    1    2  503    0  0.10230663971E+02  0.10790096700E+03  0.11771893825E+04  0.11821684006E+04  0.00000000000E+00 0. -1.
<mgrwt>
<rscale>  0 0.10383670E+03</rscale>
<asrwt>0</asrwt>
<pdfrwt beam="1">  1        2 0.43253897E+00 0.99949317E+02</pdfrwt>
<pdfrwt beam="2">  1        2 0.76657021E-01 0.10787528E+03</pdfrwt>
<totfact> 0.30625632E+01</totfact>
</mgrwt>
</event>
<event>
13    1  0.3267665E-008  0.1017103E+03  0.7546771E-02  0.1390553E+00
          2   -1    0    0  503    0  0.00000000000E+00  0.00000000000E+00  0.28196502844E+04  0.28196502844E+04  0.00000000000E+00 0. -1.
          2   -1    0    0  502    0 -0.00000000000E+00 -0.00000000000E+00 -0.35054857819E+04  0.35054857819E+04  0.00000000000E+00 0. -1.
         24    2    1    2    0    0 -0.39810569725E+03  0.81098589451E+03  0.56171796222E+03  0.10668269008E+04  0.80039365046E+02 0.  0.
         25    2    1    2    0    0 -0.83877669830E+03 -0.13062427552E+04 -0.87985594488E+03  0.17887391411E+04  0.12499898511E+03 0.  0.
         24    2    1    2    0    0  0.12961070358E+04  0.52551025326E+03 -0.97939012736E+03  0.17094661898E+04  0.83756539906E+02 0.  0.
        -11    1    3    3    0    0 -0.14549910926E+03  0.36624255295E+03  0.27402537293E+03  0.47999323266E+03  0.00000000000E+00 0.  1.
         12    1    3    3    0    0 -0.25260658799E+03  0.44474334156E+03  0.28769258928E+03  0.58683366816E+03  0.00000000000E+00 0. -1.
        -13    1    5    5    0    0  0.10879947882E+04  0.40722122798E+03 -0.81436051117E+03  0.14187123844E+04  0.00000000000E+00 0.  1.
         14    1    5    5    0    0  0.20811224765E+03  0.11828902528E+03 -0.16502961618E+03  0.29075380537E+03  0.00000000000E+00 0. -1.
          5    1    4    4  501    0 -0.41593952037E+03 -0.75598056040E+03 -0.46413487418E+03  0.97977322056E+03  0.47000000000E+01 0.  1.
         -5    1    4    4    0  501 -0.42283717793E+03 -0.55026219476E+03 -0.41572107070E+03  0.80896592057E+03  0.47000000000E+01 0.  1.
          1    1    1    2  502    0 -0.82473907419E+02 -0.59693242570E+02 -0.56939261989E+03  0.57842301493E+03  0.00000000000E+00 0. -1.
          1    1    1    2  503    0  0.23249267166E+02  0.29439849954E+02  0.11810852324E+04  0.11816808196E+04  0.00000000000E+00 0. -1.
<mgrwt>
<rscale>  0 0.61769483E+02</rscale>
<asrwt>0</asrwt>
<pdfrwt beam="1">  1        2 0.41465445E+00 0.37513107E+02</pdfrwt>
<pdfrwt beam="2">  1        2 0.51551261E+00 0.10171029E+03</pdfrwt>
<totfact> 0.98195329E-01</totfact>
</mgrwt>
</event>
<event>
13    1  0.1675423E-008  0.1075622E+03  0.7546771E-02  0.1347640E+00
          2   -1    0    0  503    0  0.00000000000E+00  0.00000000000E+00  0.84113791440E+03  0.84113791440E+03  0.00000000000E+00 0. -1.
          2   -1    0    0  502    0 -0.00000000000E+00 -0.00000000000E+00 -0.12628807064E+04  0.12628807064E+04  0.00000000000E+00 0. -1.
         24    2    1    2    0    0 -0.12743520437E+03  0.11358340674E+03  0.25263259018E+03  0.31693388397E+03  0.86503985974E+02 0.  0.
         25    2    1    2    0    0  0.10404039864E+02 -0.55055606402E+02 -0.54806287349E+03  0.56492274727E+03  0.12500173295E+03 0.  0.
         24    2    1    2    0    0 -0.50345502820E+02 -0.39394240293E+02  0.15775085698E+02  0.10419183355E+03  0.80749668898E+02 0.  0.
        -13    1    3    3    0    0 -0.11419598034E+03  0.88397383788E+02  0.14136706203E+03  0.20208776710E+03  0.00000000000E+00 0.  1.
         14    1    3    3    0    0 -0.13239224028E+02  0.25186022949E+02  0.11126552815E+03  0.11484611687E+03  0.00000000000E+00 0. -1.
        -13    1    5    5    0    0 -0.34932952862E+02  0.20738808618E+02  0.24370464127E+01  0.40698262540E+02  0.00000000000E+00 0.  1.
         14    1    5    5    0    0 -0.15412549957E+02 -0.60133048911E+02  0.13338039285E+02  0.63493571009E+02  0.00000000000E+00 0. -1.
          5    1    4    4  501    0  0.53857327575E+02 -0.16047441097E+01 -0.12409271582E+03  0.13536720082E+03  0.47000000000E+01 0. -1.
         -5    1    4    4    0  501 -0.43453287711E+02 -0.53450862292E+02 -0.42397015767E+03  0.42955554645E+03  0.47000000000E+01 0. -1.
          1    1    1    2  502    0  0.25439189507E+02 -0.43774791100E+02 -0.61833844722E+03  0.62040778526E+03  0.00000000000E+00 0. -1.
          1    1    1    2  503    0  0.14193747781E+03  0.24641231057E+02  0.47625085288E+03  0.49756237071E+03  0.00000000000E+00 0. -1.
<mgrwt>
<rscale>  0 0.73796069E+02</rscale>
<asrwt>0</asrwt>
<pdfrwt beam="1">  1        2 0.12369675E+00 0.10756217E+03</pdfrwt>
<pdfrwt beam="2">  1        2 0.18571775E+00 0.50629880E+02</pdfrwt>
<totfact> 0.12555997E+02</totfact>
</mgrwt>
</event>
<event>
13    1  0.1675423E-008  0.1663116E+03  0.7546771E-02  0.1263768E+00
          2   -1    0    0  502    0  0.00000000000E+00  0.00000000000E+00  0.11113118486E+04  0.11113118486E+04  0.00000000000E+00 0. -1.
          2   -1    0    0  503    0 -0.00000000000E+00 -0.00000000000E+00 -0.16328539707E+04  0.16328539707E+04  0.00000000000E+00 0. -1.
         24    2    1    2    0    0 -0.74526846697E+02  0.48764670848E+02  0.28746197011E+03  0.31114054733E+03  0.79005138666E+02 0.  0.
         25    2    1    2    0    0 -0.80116890296E+02 -0.21358489283E+03 -0.21008409976E+03  0.33435994227E+03  0.12499607780E+03 0.  0.
         24    2    1    2    0    0 -0.22075734473E+02  0.29487167638E+02  0.27148763686E+03  0.28585037458E+03  0.81535688934E+02 0.  0.
        -11    1    5    5    0    0 -0.49937010184E+00 -0.26800544595E+02  0.11669699811E+03  0.11973599262E+03  0.00000000000E+00 0.  1.
         12    1    5    5    0    0 -0.21576364371E+02  0.56287712233E+02  0.15479063876E+03  0.16611438196E+03  0.00000000000E+00 0. -1.
        -11    1    3    3    0    0 -0.65664357746E+02  0.25443003942E+01  0.11582151408E+03  0.13316495210E+03  0.00000000000E+00 0.  1.
         12    1    3    3    0    0 -0.88624889502E+01  0.46220370454E+02  0.17164045602E+03  0.17797559524E+03  0.00000000000E+00 0. -1.
          5    1    4    4  501    0 -0.31121562614E+02 -0.86383342696E+02 -0.10378230042E+02  0.92522598394E+02  0.47000000000E+01 0.  1.
         -5    1    4    4    0  501 -0.48995327681E+02 -0.12720155014E+03 -0.19970586972E+03  0.24183734388E+03  0.47000000000E+01 0.  1.
          1    1    1    2  502    0  0.25929150685E+02  0.65571460408E+02  0.46338246237E+03  0.46871659210E+03  0.00000000000E+00 0. -1.
          1    1    1    2  503    0  0.15079032078E+03  0.69761593939E+02 -0.13337900917E+04  0.13440983630E+04  0.00000000000E+00 0. -1.
<mgrwt>
<rscale>  0 0.10829107E+03</rscale>
<asrwt>0</asrwt>
<pdfrwt beam="1">  1        2 0.16342821E+00 0.70511965E+02</pdfrwt>
<pdfrwt beam="2">  1        2 0.24012558E+00 0.16631157E+03</pdfrwt>
<totfact> 0.53377292E+01</totfact>
</mgrwt>
</event>
<event>
13    1  0.1675423E-008  0.1064460E+03  0.7546771E-02  0.1309904E+00
          2   -1    0    0  502    0  0.00000000000E+00  0.00000000000E+00  0.14947451195E+04  0.14947451195E+04  0.00000000000E+00 0. -1.
          2   -1    0    0  503    0 -0.00000000000E+00 -0.00000000000E+00 -0.22726638942E+04  0.22726638942E+04  0.00000000000E+00 0. -1.
         24    2    1    2    0    0 -0.83664049709E+03 -0.66358088762E+02 -0.42327108034E+03  0.94339538381E+03  0.80409734740E+02 0.  0.
         25    2    1    2    0    0  0.86753749320E+02  0.26437527710E+03  0.21007892669E+03  0.37037193564E+03  0.12498685974E+03 0.  0.
         24    2    1    2    0    0  0.76481501024E+03 -0.37454852521E+03 -0.52459160481E+03  0.10048782155E+04  0.96722689139E+02 0.  0.
        -13    1    3    3    0    0 -0.25412604656E+03 -0.27924771009E+02 -0.17015196552E+03  0.30710182635E+03  0.00000000000E+00 0.  1.
         14    1    3    3    0    0 -0.58251445053E+03 -0.38433317752E+02 -0.25311911482E+03  0.63629355747E+03  0.00000000000E+00 0. -1.
        -13    1    5    5    0    0  0.41312124139E+03 -0.17905027417E+03 -0.32790887371E+03  0.55700304328E+03  0.00000000000E+00 0.  1.
         14    1    5    5    0    0  0.35169376885E+03 -0.19549825104E+03 -0.19668273110E+03  0.44787517226E+03  0.00000000000E+00 0. -1.
          5    1    4    4  501    0  0.80375768555E+02  0.72600581519E+02  0.45645041853E+02  0.11762936901E+03  0.47000000000E+01 0.  1.
         -5    1    4    4    0  501  0.63779807653E+01  0.19177469559E+03  0.16443388484E+03  0.25274256663E+03  0.47000000000E+01 0.  1.
          1    1    1    2  502    0 -0.27586040001E+01  0.10622506834E+03  0.69857753883E+03  0.70661301488E+03  0.00000000000E+00 0. -1.
          1    1    1    2  503    0 -0.12169658478E+02  0.70306268529E+02 -0.73871255504E+03  0.74215046382E+03  0.00000000000E+00 0. -1.
<mgrwt>
<rscale>  0 0.87149920E+02</rscale>
<asrwt>0</asrwt>
<pdfrwt beam="1">  1        2 0.21981546E+00 0.10644601E+03</pdfrwt>
<pdfrwt beam="2">  1        2 0.33421527E+00 0.71351748E+02</pdfrwt>
<totfact> 0.17587232E+01</totfact>
</mgrwt>
</event>
<event>
13    1  0.1675423E-008  0.9971570E+02  0.7546771E-02  0.1295034E+00
          2   -1    0    0  502    0  0.00000000000E+00  0.00000000000E+00  0.72360801620E+03  0.72360801620E+03  0.00000000000E+00 0. -1.
          2   -1    0    0  503    0 -0.00000000000E+00 -0.00000000000E+00 -0.83376264790E+03  0.83376264790E+03  0.00000000000E+00 0. -1.
         24    2    1    2    0    0 -0.28114789438E+01 -0.35353642253E+02  0.25179755209E+03  0.26668341280E+03  0.80375686580E+02 0.  0.
         25    2    1    2    0    0  0.53145043209E+02 -0.11179462452E+03 -0.29837552035E+03  0.34634766859E+03  0.12492526847E+03 0.  0.
         24    2    1    2    0    0  0.46485098957E+02  0.82976986160E+01  0.76716855697E+02  0.12113368579E+03  0.80982576264E+02 0.  0.
        -13    1    3    3    0    0 -0.35619873519E+02 -0.30891304454E+02  0.19780793686E+03  0.20334952167E+03  0.00000000000E+00 0.  1.
         14    1    3    3    0    0  0.32808394575E+02 -0.44623377984E+01  0.53989615227E+02  0.63333891129E+02  0.00000000000E+00 0. -1.
        -13    1    5    5    0    0  0.45551317730E+01 -0.18295668862E+02  0.68197813554E+02  0.70756077464E+02  0.00000000000E+00 0.  1.
         14    1    5    5    0    0  0.41929967184E+02  0.26593367478E+02  0.85190421430E+01  0.50377608329E+02  0.00000000000E+00 0. -1.
          5    1    4    4  501    0 -0.18794652060E+02 -0.37976902675E+01 -0.14074102419E+03  0.14211891953E+03  0.47000000000E+01 0.  1.
         -5    1    4    4    0  501  0.71939695269E+02 -0.10799693425E+03 -0.15763449616E+03  0.20422874906E+03  0.47000000000E+01 0.  1.
          1    1    1    2  502    0  0.11534155248E+02  0.13847115347E+03  0.32077495588E+03  0.34957670031E+03  0.00000000000E+00 0. -1.
          1    1    1    2  503    0 -0.10835281847E+03  0.37941468161E+00 -0.46106847501E+03  0.47362919660E+03  0.00000000000E+00 0. -1.
<mgrwt>
<rscale>  0 0.93307769E+02</rscale>
<asrwt>0</asrwt>
<pdfrwt beam="1">  1        2 0.10641294E+00 0.99715698E+02</pdfrwt>
<pdfrwt beam="2">  1        2 0.12261215E+00 0.87311626E+02</pdfrwt>
<totfact> 0.25399223E+02</totfact>
</mgrwt>
</event>
<event>
13    1  0.1675423E-008  0.9183692E+02  0.7546771E-02  0.1310283E+00
          2   -1    0    0  503    0  0.00000000000E+00  0.00000000000E+00  0.16865055064E+04  0.16865055064E+04  0.00000000000E+00 0. -1.
          2   -1    0    0  502    0 -0.00000000000E+00 -0.00000000000E+00 -0.43670808918E+04  0.43670808918E+04  0.00000000000E+00 0. -1.
         24    2    1    2    0    0  0.38777654169E+02  0.77775583396E+02  0.12447563309E+03  0.17144195009E+03  0.79658089252E+02 0.  0.
         25    2    1    2    0    0 -0.13629028103E+03 -0.17108715623E+03 -0.96995310202E+03  0.10021379990E+04  0.12500277291E+03 0.  0.
         24    2    1    2    0    0 -0.31598394288E+02 -0.22083671313E+02  0.53434773858E+02  0.10760923800E+03  0.85078352041E+02 0.  0.
        -11    1    3    3    0    0 -0.13708983425E+02 -0.87168042659E+01  0.12262909016E+02  0.20354307669E+02  0.00000000000E+00 0.  1.
         12    1    3    3    0    0  0.52486637594E+02  0.86492387662E+02  0.11221272407E+03  0.15108764242E+03  0.00000000000E+00 0. -1.
        -11    1    5    5    0    0  0.93131977059E+00  0.30370277647E+02  0.26300113081E+02  0.40186030769E+02  0.00000000000E+00 0.  1.
         12    1    5    5    0    0 -0.32529714058E+02 -0.52453948960E+02  0.27134660777E+02  0.67423207234E+02  0.00000000000E+00 0. -1.
          5    1    4    4  501    0 -0.47555038007E+02 -0.14577448710E+03 -0.70618872765E+03  0.72265918093E+03  0.47000000000E+01 0.  1.
         -5    1    4    4    0  501 -0.88735243020E+02 -0.25312669130E+02 -0.26376437437E+03  0.27947881809E+03  0.47000000000E+01 0.  1.
          1    1    1    2  502    0  0.74004194045E+02  0.54108933805E+02 -0.33286556183E+04  0.33299178102E+04  0.00000000000E+00 0. -1.
          1    1    1    2  503    0  0.55106827102E+02  0.61286310341E+02  0.14401229280E+04  0.14424794009E+04  0.00000000000E+00 0. -1.
<mgrwt>
<rscale>  0 0.87000240E+02</rscale>
<asrwt>0</asrwt>
<pdfrwt beam="1">  1        2 0.24801551E+00 0.82418288E+02</pdfrwt>
<pdfrwt beam="2">  1        2 0.64221778E+00 0.91836920E+02</pdfrwt>
<totfact> 0.84934724E-01</totfact>
</mgrwt>
</event>
<event>
13    1  0.1675423E-008  0.2006541E+03  0.7546771E-02  0.1208845E+00
          2   -1    0    0  502    0  0.00000000000E+00  0.00000000000E+00  0.17723641126E+04  0.17723641126E+04  0.00000000000E+00 0. -1.
          2   -1    0    0  503    0 -0.00000000000E+00 -0.00000000000E+00 -0.20153844999E+04  0.20153844999E+04  0.00000000000E+00 0. -1.
         24    2    1    2    0    0  0.98191441029E+02 -0.24688759585E+03  0.73303049653E+03  0.78415120526E+03  0.83452739918E+02 0.  0.
         25    2    1    2    0    0 -0.44276983673E+02  0.73120438641E+02 -0.33278442185E+03  0.36561754968E+03  0.12499468540E+03 0.  0.
         24    2    1    2    0    0 -0.12664819989E+02  0.20523592019E+02 -0.32957192560E+02  0.91098287225E+02  0.81431602582E+02 0.  0.
        -11    1    5    5    0    0  0.60313241924E+00 -0.31325029905E+02 -0.10298404830E+02  0.32979969820E+02  0.00000000000E+00 0.  1.
         12    1    5    5    0    0 -0.13267952409E+02  0.51848621924E+02 -0.22658787731E+02  0.58118317405E+02  0.00000000000E+00 0. -1.
        -13    1    3    3    0    0 -0.10583350460E+02 -0.33900620854E+01  0.20019215362E+02  0.22896917077E+02  0.00000000000E+00 0.  1.
         14    1    3    3    0    0  0.10877479149E+03 -0.24349753377E+03  0.71301128116E+03  0.76125428819E+03  0.00000000000E+00 0. -1.
          5    1    4    4  501    0  0.39263248921E+02  0.13992065358E+01 -0.11347611723E+03  0.12017686830E+03  0.47000000000E+01 0. -1.
         -5    1    4    4    0  501 -0.83540232594E+02  0.71721232106E+02 -0.21930830462E+03  0.24544068137E+03  0.47000000000E+01 0. -1.
          1    1    1    2  502    0  0.70606760059E+02  0.18950353604E+03  0.95549847485E+03  0.97666485561E+03  0.00000000000E+00 0. -1.
          1    1    1    2  503    0 -0.11185639743E+03 -0.36259970847E+02 -0.15658077443E+04  0.15702167147E+04  0.00000000000E+00 0. -1.
<mgrwt>
<rscale>  0 0.14338555E+03</rscale>
<asrwt>0</asrwt>
<pdfrwt beam="1">  1        2 0.26064178E+00 0.20065406E+03</pdfrwt>
<pdfrwt beam="2">  1        2 0.29638007E+00 0.10246200E+03</pdfrwt>
<totfact> 0.15515277E+01</totfact>
</mgrwt>
</event>
<event>
13    1  0.1675423E-008  0.2972828E+03  0.7546771E-02  0.1105392E+00
         -3   -1    0    0    0  501 -0.00000000000E+00  0.00000000000E+00  0.38507545617E+03  0.38507545617E+03  0.00000000000E+00 0.  1.
          2   -1    0    0  503    0  0.00000000000E+00 -0.00000000000E+00 -0.27710897482E+04  0.27710897482E+04  0.00000000000E+00 0. -1.
         24    2    1    2    0    0  0.28926244459E+03  0.61343173273E+02 -0.18626325959E+03  0.35839025867E+03  0.79459605297E+02 0.  0.
         25    2    1    2    0    0 -0.83836702507E+02  0.26360061341E+03 -0.55984870989E+03  0.63684299245E+03  0.12499817192E+03 0.  0.
         24    2    1    2    0    0 -0.12848085793E+03 -0.24257109173E+03 -0.17426883557E+03  0.33502759648E+03  0.80782411146E+02 0.  0.
        -11    1    5    5    0    0 -0.10915351309E+02 -0.36481513015E+02 -0.61482962608E+02  0.72320124288E+02  0.00000000000E+00 0.  1.
         12    1    5    5    0    0 -0.11756550662E+03 -0.20608957872E+03 -0.11278587296E+03  0.26270747219E+03  0.00000000000E+00 0. -1.
        -11    1    3    3    0    0  0.10095790391E+03 -0.10799408372E+02 -0.86627715549E+02  0.13346717455E+03  0.00000000000E+00 0.  1.
         12    1    3    3    0    0  0.18830454069E+03  0.72142581645E+02 -0.99635544043E+02  0.22492308411E+03  0.00000000000E+00 0. -1.
          5    1    4    4  502    0  0.15517221944E+02  0.10915379795E+03 -0.13774508809E+03  0.17649684155E+03  0.47000000000E+01 0. -1.
         -5    1    4    4    0  502 -0.99353924451E+02  0.15444681546E+03 -0.42210362180E+03  0.46034615090E+03  0.47000000000E+01 0. -1.
          1    1    1    2  503    0  0.22209693934E+03 -0.68960517204E+02 -0.15060022482E+04  0.15238521500E+04  0.00000000000E+00 0. -1.
         -4    1    1    2    0  501 -0.29904182350E+03 -0.13412177746E+02  0.40368761288E+02  0.30205220675E+03  0.00000000000E+00 0.  1.
<mgrwt>
<rscale>  0 0.26293552E+03</rscale>
<asrwt>0</asrwt>
<pdfrwt beam="2">  1        2 0.40751319E+00 0.23255667E+03</pdfrwt>
<pdfrwt beam="1">  1       -3 0.56628745E-01 0.29728275E+03</pdfrwt>
<totfact> 0.65733874E+00</totfact>
</mgrwt>
</event>
<event>
13    1  0.1675423E-008  0.9925139E+02  0.7546771E-02  0.1394823E+00
         -1   -1    0    0    0  501 -0.00000000000E+00  0.00000000000E+00  0.17548641442E+04  0.17548641442E+04  0.00000000000E+00 0.  1.
          2   -1    0    0  503    0  0.00000000000E+00 -0.00000000000E+00 -0.27362673681E+03  0.27362673681E+03  0.00000000000E+00 0. -1.
         24    2    1    2    0    0 -0.88020558441E+02  0.81065688707E+00  0.27809547163E+03  0.30278274660E+03  0.81191282965E+02 0.  0.
         25    2    1    2    0    0  0.38211154061E+02 -0.38935795390E+02  0.47978369462E+03  0.49879020669E+03  0.12499275265E+03 0.  0.
         24    2    1    2    0    0 -0.74941344197E+01 -0.43328638705E+02  0.90564919748E+01  0.99322473153E+02  0.88596843305E+02 0.  0.
        -13    1    3    3    0    0 -0.77639539964E+02  0.16881929970E+02  0.12246993886E+03  0.14598555973E+03  0.00000000000E+00 0.  1.
         14    1    3    3    0    0 -0.10381018477E+02 -0.16071273083E+02  0.15562553276E+03  0.15679718687E+03  0.00000000000E+00 0. -1.
        -13    1    5    5    0    0 -0.42700683985E+02 -0.17706029181E+02  0.25481785795E+02  0.52784214396E+02  0.00000000000E+00 0.  1.
         14    1    5    5    0    0  0.35206549565E+02 -0.25622609524E+02 -0.16425293820E+02  0.46538258757E+02  0.00000000000E+00 0. -1.
          5    1    4    4  502    0  0.24955717473E+02 -0.54178669163E+02  0.47329036719E+03  0.47705762514E+03  0.47000000000E+01 0.  1.
         -5    1    4    4    0  502  0.13255436587E+02  0.15242873773E+02  0.64933274288E+01  0.21732581556E+02  0.47000000000E+01 0.  1.
          1    1    1    2  503    0  0.74376064340E+02  0.11444928188E+03 -0.18368182490E+03  0.22884372369E+03  0.00000000000E+00 0. -1.
         -2    1    1    2    0  501 -0.17072525539E+02 -0.32995504675E+02  0.89798357402E+03  0.89875173083E+03  0.00000000000E+00 0.  1.
<mgrwt>
<rscale>  0 0.60722800E+02</rscale>
<asrwt>0</asrwt>
<pdfrwt beam="2">  1        2 0.40239227E-01 0.99251386E+02</pdfrwt>
<pdfrwt beam="1">  1       -1 0.25806825E+00 0.37150699E+02</pdfrwt>
<totfact> 0.12705264E+01</totfact>
</mgrwt>
</event>
<event>
13    1  0.1675423E-008  0.9317228E+02  0.7546771E-02  0.1360647E+00
         -1   -1    0    0    0  501 -0.00000000000E+00  0.00000000000E+00  0.28724559003E+04  0.28724559003E+04  0.00000000000E+00 0.  1.
          2   -1    0    0  503    0  0.00000000000E+00 -0.00000000000E+00 -0.25709774001E+04  0.25709774001E+04  0.00000000000E+00 0. -1.
         24    2    1    2    0    0 -0.24709195212E+03 -0.10786125500E+03 -0.12869458686E+04  0.13173721209E+04  0.80939193470E+02 0.  0.
         25    2    1    2    0    0  0.18986397930E+03  0.16432188037E+03  0.24155258900E+03  0.37016543024E+03  0.12499912595E+03 0.  0.
         24    2    1    2    0    0  0.17842362364E+02  0.14997298050E+02  0.67430470363E+02  0.10571413912E+03  0.78008602301E+02 0.  0.
        -11    1    5    5    0    0 -0.29899882401E+02  0.11991715488E+02  0.17896842126E+02  0.36852424154E+02  0.00000000000E+00 0.  1.
         12    1    5    5    0    0  0.47742244765E+02  0.30055825620E+01  0.49533628238E+02  0.68861714967E+02  0.00000000000E+00 0. -1.
        -13    1    3    3    0    0 -0.23621889737E+02  0.11909988601E+02 -0.87030302418E+02  0.90962162695E+02  0.00000000000E+00 0.  1.
         14    1    3    3    0    0 -0.22347006239E+03 -0.11977124360E+03 -0.11999155662E+04  0.12264099582E+04  0.00000000000E+00 0. -1.
          5    1    4    4  502    0 -0.12088909148E+02 -0.65497241248E+01  0.21933057280E+02  0.26309496616E+02  0.47000000000E+01 0.  1.
         -5    1    4    4    0  502  0.20195288845E+03  0.17087160450E+03  0.21961953172E+03  0.34385593362E+03  0.47000000000E+01 0.  1.
          1    1    1    2  503    0 -0.46571512345E+02 -0.23901558911E+02 -0.11838127237E+04  0.11849695165E+04  0.00000000000E+00 0. -1.
         -2    1    1    2    0  501  0.85957122806E+02 -0.47556364507E+02  0.24632540331E+04  0.24652120936E+04  0.00000000000E+00 0.  1.
<mgrwt>
<rscale>  0 0.69837477E+02</rscale>
<asrwt>0</asrwt>
<pdfrwt beam="2">  1        2 0.37808491E+00 0.52346827E+02</pdfrwt>
<pdfrwt beam="1">  1       -1 0.42241998E+00 0.93172279E+02</pdfrwt>
<totfact> 0.44929453E-02</totfact>
</mgrwt>
</event>
<event>
13    1  0.1675423E-008  0.1637638E+03  0.7546771E-02  0.1330394E+00
          2   -1    0    0  502    0  0.00000000000E+00  0.00000000000E+00  0.24110073451E+04  0.24110073451E+04  0.00000000000E+00 0. -1.
          2   -1    0    0  503    0 -0.00000000000E+00 -0.00000000000E+00 -0.14845709460E+04  0.14845709460E+04  0.00000000000E+00 0. -1.
         24    2    1    2    0    0 -0.21065738647E+01 -0.93519793894E+02  0.61372705086E+03  0.62742628804E+03  0.90843076082E+02 0.  0.
         25    2    1    2    0    0 -0.15694219242E+02  0.12641421145E+03 -0.83929031279E+03  0.85805759539E+03  0.12501098545E+03 0.  0.
         24    2    1    2    0    0 -0.69939784122E+02  0.21227436344E+02 -0.12937091763E+03  0.16948776060E+03  0.81529682973E+02 0.  0.
        -11    1    3    3    0    0 -0.11853014761E+02 -0.31702782994E+01  0.74027064515E+01  0.14329852973E+02  0.00000000000E+00 0.  1.
         12    1    3    3    0    0  0.97464408965E+01 -0.90349515595E+02  0.60632434440E+03  0.61309643507E+03  0.00000000000E+00 0. -1.
        -11    1    5    5    0    0 -0.82416495482E+02  0.36152735220E+02 -0.10819954371E+03  0.14073606592E+03  0.00000000000E+00 0.  1.
         12    1    5    5    0    0  0.12476711360E+02 -0.14925298876E+02 -0.21171373919E+02  0.28751694673E+02  0.00000000000E+00 0. -1.
          5    1    4    4  501    0  0.49884379207E+02  0.71687514534E+02 -0.31859360338E+03  0.33038087890E+03  0.47000000000E+01 0. -1.
         -5    1    4    4    0  501 -0.65578598449E+02  0.54726696918E+02 -0.52069670941E+03  0.52767671649E+03  0.47000000000E+01 0. -1.
          1    1    1    2  502    0  0.10229728871E+03 -0.89895149907E+02  0.17575727642E+04  0.17628408592E+04  0.00000000000E+00 0. -1.
          1    1    1    2  503    0 -0.14556711483E+02  0.35773296005E+02 -0.47620218555E+03  0.47776578789E+03  0.00000000000E+00 0. -1.
<mgrwt>
<rscale>  0 0.79528711E+02</rscale>
<asrwt>0</asrwt>
<pdfrwt beam="1">  1        2 0.35455991E+00 0.16376377E+03</pdfrwt>
<pdfrwt beam="2">  1        2 0.21831926E+00 0.38621581E+02</pdfrwt>
<totfact> 0.14928449E+01</totfact>
</mgrwt>
</event>
<event>
13    1  0.1675423E-008  0.8159799E+02  0.7546771E-02  0.1476360E+00
          2   -1    0    0  502    0  0.00000000000E+00  0.00000000000E+00  0.11610139813E+04  0.11610139813E+04  0.00000000000E+00 0. -1.
          2   -1    0    0  503    0 -0.00000000000E+00 -0.00000000000E+00 -0.15760785471E+04  0.15760785471E+04  0.00000000000E+00 0. -1.
         24    2    1    2    0    0  0.58193043158E+02 -0.31828842122E+02  0.14591670508E+03  0.17901685854E+03  0.79723555848E+02 0.  0.
         25    2    1    2    0    0 -0.94240093490E+02 -0.10832850369E+03 -0.19640519736E+02  0.19138214316E+03  0.12500045910E+03 0.  0.
         24    2    1    2    0    0  0.90887115054E+02  0.49638327019E+02 -0.15642563860E+03  0.20453231617E+03  0.81486543398E+02 0.  0.
        -11    1    5    5    0    0 -0.14330632314E+02  0.87587842585E+01 -0.96500132231E+01  0.19370236948E+02  0.00000000000E+00 0.  1.
         12    1    5    5    0    0  0.10521774737E+03  0.40879542761E+02 -0.14677562538E+03  0.18516207923E+03  0.00000000000E+00 0. -1.
        -13    1    3    3    0    0 -0.13559822582E+02  0.13178969948E+02  0.23704846049E+02  0.30322825784E+02  0.00000000000E+00 0.  1.
         14    1    3    3    0    0  0.71752865740E+02 -0.45007812070E+02  0.12221185903E+03  0.14869403276E+03  0.00000000000E+00 0. -1.
          5    1    4    4  501    0 -0.57854887601E+02 -0.53693402199E+00  0.32079426104E+02  0.66322363473E+02  0.47000000000E+01 0.  1.
         -5    1    4    4    0  501 -0.36385205889E+02 -0.10779156966E+03 -0.51719945840E+02  0.12505977969E+03  0.47000000000E+01 0.  1.
          1    1    1    2  502    0 -0.10893103838E+02  0.21904096554E+02  0.88715093868E+03  0.88748816170E+03  0.00000000000E+00 0. -1.
          1    1    1    2  503    0 -0.43946960883E+02  0.68614922236E+02 -0.12720660512E+04  0.12746730489E+04  0.00000000000E+00 0. -1.
<mgrwt>
<rscale>  0 0.44678291E+02</rscale>
<asrwt>0</asrwt>
<pdfrwt beam="1">  1        2 0.17073735E+00 0.24463220E+02</pdfrwt>
<pdfrwt beam="2">  1        2 0.23177626E+00 0.81597992E+02</pdfrwt>
<totfact> 0.60600253E+01</totfact>
</mgrwt>
</event>
<event>
13    1  0.1675423E-008  0.1527157E+03  0.7546771E-02  0.1244715E+00
          2   -1    0    0  502    0  0.00000000000E+00  0.00000000000E+00  0.28625936790E+04  0.28625936790E+04  0.00000000000E+00 0. -1.
          2   -1    0    0  503    0 -0.00000000000E+00 -0.00000000000E+00 -0.19099854411E+04  0.19099854411E+04  0.00000000000E+00 0. -1.
         24    2    1    2    0    0  0.68731780143E+02 -0.26016873186E+02  0.15202246072E+04  0.15241602739E+04  0.81121816455E+02 0.  0.
         25    2    1    2    0    0  0.14424628827E+03  0.29282894604E+03 -0.27560039613E+02  0.35063069862E+03  0.12500619070E+03 0.  0.
         24    2    1    2    0    0  0.32400360729E+02 -0.82232605364E+01  0.11008481943E+03  0.14078152099E+03  0.81137930673E+02 0.  0.
        -11    1    3    3    0    0  0.82122923989E+00 -0.26838164124E+02  0.86677491011E+03  0.86719069775E+03  0.00000000000E+00 0.  1.
         12    1    3    3    0    0  0.67910550903E+02  0.82129093805E+00  0.65344969705E+03  0.65696957617E+03  0.00000000000E+00 0. -1.
        -11    1    5    5    0    0 -0.10056814830E+02  0.28753180254E+02  0.28935181075E+02  0.42013445504E+02  0.00000000000E+00 0.  1.
         12    1    5    5    0    0  0.42457175559E+02 -0.36976440790E+02  0.81149638352E+02  0.98768075483E+02  0.00000000000E+00 0. -1.
          5    1    4    4  501    0  0.11331800658E+03  0.10051646100E+03  0.11243780309E+02  0.15196395014E+03  0.47000000000E+01 0.  1.
         -5    1    4    4    0  501  0.30928281687E+02  0.19231248504E+03 -0.38803819922E+02  0.19866674848E+03  0.47000000000E+01 0.  1.
          1    1    1    2  502    0 -0.20003185365E+03 -0.17765703431E+03  0.10351503580E+04  0.10691637049E+04  0.00000000000E+00 0. -1.
          1    1    1    2  503    0 -0.45346575483E+02 -0.80931778014E+02 -0.16852915070E+04  0.16878429217E+04  0.00000000000E+00 0. -1.
<mgrwt>
<rscale>  0 0.11902443E+03</rscale>
<asrwt>0</asrwt>
<pdfrwt beam="1">  1        2 0.42096966E+00 0.15271574E+03</pdfrwt>
<pdfrwt beam="2">  1        2 0.28088021E+00 0.92765919E+02</pdfrwt>
<totfact> 0.51103287E+00</totfact>
</mgrwt>
</event>
<event>
13    1  0.1675423E-008  0.6851346E+02  0.7546771E-02  0.1427129E+00
          4   -1    0    0  503    0 -0.00000000000E+00  0.00000000000E+00  0.10080521236E+04  0.10080521236E+04  0.00000000000E+00 0. -1.
          2   -1    0    0  502    0  0.00000000000E+00 -0.00000000000E+00 -0.36300232680E+04  0.36300232680E+04  0.00000000000E+00 0. -1.
         24    2    1    2    0    0  0.56788657064E+01  0.12259885333E+02 -0.18524304722E+04  0.18542582870E+04  0.81194741457E+02 0.  0.
         25    2    1    2    0    0  0.55919006203E+02  0.18520636893E+03  0.18555733756E+03  0.29577827232E+03  0.12499970605E+03 0.  0.
         24    2    1    2    0    0 -0.92805559256E+02 -0.93496698872E+02 -0.10923531277E+04  0.11031330418E+04  0.79452174116E+02 0.  0.
        -11    1    3    3    0    0 -0.19730068406E+02  0.35959025568E+02 -0.62979541191E+03  0.63112961267E+03  0.00000000000E+00 0.  1.
         12    1    3    3    0    0  0.25408934113E+02 -0.23699140235E+02 -0.12226350603E+04  0.12231286743E+04  0.00000000000E+00 0. -1.
        -13    1    5    5    0    0  0.47570500447E+01  0.21812256021E+01 -0.22674523569E+03  0.22680561981E+03  0.00000000000E+00 0.  1.
         14    1    5    5    0    0 -0.97562609301E+02 -0.95677924474E+02 -0.86560789198E+03  0.87632742204E+03  0.00000000000E+00 0. -1.
          5    1    4    4  501    0  0.63595187054E+02  0.19552772839E+03  0.14149409435E+03  0.24963595319E+03  0.47000000000E+01 0. -1.
         -5    1    4    4    0  501 -0.76761808508E+01 -0.10321359465E+02  0.44063243204E+02  0.46142319137E+02  0.47000000000E+01 0. -1.
          1    1    1    2  502    0  0.25433684818E+01 -0.41762550942E+02 -0.62157960381E+03  0.62298618224E+03  0.00000000000E+00 0. -1.
          3    1    1    2  503    0  0.28664318865E+02 -0.62207004448E+02  0.75883472176E+03  0.76191960831E+03  0.00000000000E+00 0. -1.
<mgrwt>
<rscale>  0 0.53540621E+02</rscale>
<asrwt>0</asrwt>
<pdfrwt beam="2">  1        2 0.53382695E+00 0.41839926E+02</pdfrwt>
<pdfrwt beam="1">  1        4 0.14824296E+00 0.68513461E+02</pdfrwt>
<totfact> 0.25655964E-01</totfact>
</mgrwt>
</event>
<event>
13    1  0.1675423E-008  0.1068068E+03  0.7546771E-02  0.1368794E+00
          2   -1    0    0  502    0  0.00000000000E+00  0.00000000000E+00  0.13935783772E+04  0.13935783772E+04  0.00000000000E+00 0. -1.
          2   -1    0    0  503    0 -0.00000000000E+00 -0.00000000000E+00 -0.14726836848E+04  0.14726836848E+04  0.00000000000E+00 0. -1.
         24    2    1    2    0    0  0.71265346099E+02 -0.40467689638E+01  0.72720788294E+02  0.12993804459E+03  0.80625408447E+02 0.  0.
         25    2    1    2    0    0 -0.70162254907E+02 -0.12374793721E+03 -0.68456821492E+03  0.71027772843E+03  0.12499806655E+03 0.  0.
         24    2    1    2    0    0  0.14855683919E+03  0.13052030336E+03  0.35968951058E+02  0.21684147508E+03  0.81374294567E+02 0.  0.
        -11    1    5    5    0    0  0.11045857995E+03  0.69847085958E+02 -0.11036674834E+02  0.13115457099E+03  0.00000000000E+00 0.  1.
         12    1    5    5    0    0  0.38098259246E+02  0.60673217397E+02  0.47005625892E+02  0.85686904090E+02  0.00000000000E+00 0. -1.
        -13    1    3    3    0    0  0.84086687461E+02 -0.19169659949E+02  0.67267370455E+02  0.10937525314E+03  0.00000000000E+00 0.  1.
         14    1    3    3    0    0 -0.12821341362E+02  0.15122890986E+02  0.54534178398E+01  0.20562791450E+02  0.00000000000E+00 0. -1.
          5    1    4    4  501    0 -0.99957619187E+01 -0.11482742774E+03 -0.30987411968E+03  0.33064983512E+03  0.47000000000E+01 0.  1.
         -5    1    4    4    0  501 -0.60166492988E+02 -0.89205094664E+01 -0.37469409524E+03  0.37962789330E+03  0.47000000000E+01 0.  1.
          1    1    1    2  502    0 -0.16456704060E+03  0.37248604939E+02  0.11461121859E+04  0.11584657579E+04  0.00000000000E+00 0. -1.
          1    1    1    2  503    0  0.14907110221E+02 -0.39974202123E+02 -0.64933901795E+03  0.65073905600E+03  0.00000000000E+00 0. -1.
<mgrwt>
<rscale>  0 0.67503559E+02</rscale>
<asrwt>0</asrwt>
<pdfrwt beam="1">  1        2 0.20493800E+00 0.10680675E+03</pdfrwt>
<pdfrwt beam="2">  1        2 0.21657113E+00 0.42663319E+02</pdfrwt>
<totfact> 0.49586465E+01</totfact>
</mgrwt>
</event>
<event>
13    1  0.1675423E-008  0.1095333E+03  0.7546771E-02  0.1338389E+00
          2   -1    0    0  503    0  0.00000000000E+00  0.00000000000E+00  0.19734432071E+04  0.19734432071E+04  0.00000000000E+00 0. -1.
          2   -1    0    0  502    0 -0.00000000000E+00 -0.00000000000E+00 -0.22403687438E+04  0.22403687438E+04  0.00000000000E+00 0. -1.
         24    2    1    2    0    0  0.34774914374E+01  0.29585875232E+02  0.25636452084E+03  0.27044646604E+03  0.80815261472E+02 0.  0.
         25    2    1    2    0    0  0.13013871034E+03 -0.65112496313E+02 -0.62197290348E+03  0.65088411289E+03  0.12499645853E+03 0.  0.
         24    2    1    2    0    0  0.24420595936E+02  0.74039616335E+02  0.76548294038E+02  0.13574983952E+03  0.80561450563E+02 0.  0.
        -11    1    5    5    0    0  0.18391086542E+02  0.21945480384E+02  0.78204965839E+02  0.83281767845E+02  0.00000000000E+00 0.  1.
         12    1    5    5    0    0  0.60295093941E+01  0.52094135950E+02 -0.16566718005E+01  0.52468071676E+02  0.00000000000E+00 0. -1.
        -13    1    3    3    0    0  0.22301463016E+01 -0.27450621451E+02  0.10896419015E+03  0.11239085775E+03  0.00000000000E+00 0.  1.
         14    1    3    3    0    0  0.12473451358E+01  0.57036496684E+02  0.14740033069E+03  0.15805560829E+03  0.00000000000E+00 0. -1.
          5    1    4    4  501    0  0.76169060724E+02 -0.19050194340E+02 -0.11732670023E+03  0.14125254087E+03  0.47000000000E+01 0. -1.
         -5    1    4    4    0  501  0.53969649616E+02 -0.46062301973E+02 -0.50464620325E+03  0.50963157202E+03  0.47000000000E+01 0. -1.
          1    1    1    2  502    0 -0.20731324726E+02 -0.49696468340E+02 -0.15638492280E+04  0.15647760014E+04  0.00000000000E+00 0. -1.
          1    1    1    2  503    0 -0.13730547299E+03  0.11183473086E+02  0.15859837798E+04  0.15919555310E+04  0.00000000000E+00 0. -1.
<mgrwt>
<rscale>  0 0.76798889E+02</rscale>
<asrwt>0</asrwt>
<pdfrwt beam="1">  1        2 0.29021224E+00 0.10953333E+03</pdfrwt>
<pdfrwt beam="2">  1        2 0.32946599E+00 0.53847254E+02</pdfrwt>
<totfact> 0.11000096E+01</totfact>
</mgrwt>
</event>
<event>
13    1  0.1675423E-008  0.1097591E+03  0.7546771E-02  0.1273919E+00
          2   -1    0    0  502    0  0.00000000000E+00  0.00000000000E+00  0.15330090291E+03  0.15330090291E+03  0.00000000000E+00 0. -1.
          2   -1    0    0  503    0 -0.00000000000E+00 -0.00000000000E+00 -0.33207215498E+04  0.33207215498E+04  0.00000000000E+00 0. -1.
         24    2    1    2    0    0 -0.31249879030E+01  0.51748342970E+01 -0.45213612161E+02  0.96651489480E+02  0.85209713265E+02 0.  0.
         25    2    1    2    0    0 -0.22502758332E+03  0.21188586863E+03 -0.20325970514E+03  0.39046660840E+03  0.12496651538E+03 0.  0.
         24    2    1    2    0    0  0.90756595698E+02 -0.73749532711E+02 -0.27670720053E+03  0.31088969320E+03  0.80061059695E+02 0.  0.
        -11    1    3    3    0    0 -0.72288306780E+01 -0.38636435031E+02 -0.10726552870E+02  0.40744190277E+02  0.00000000000E+00 0.  1.
         12    1    3    3    0    0  0.41038427750E+01  0.43811269328E+02 -0.34487059291E+02  0.55907299203E+02  0.00000000000E+00 0. -1.
        -13    1    5    5    0    0  0.40566358963E+02 -0.46789369355E+02 -0.22695257092E+03  0.23524953562E+03  0.00000000000E+00 0.  1.
         14    1    5    5    0    0  0.50190236735E+02 -0.26960163356E+02 -0.49754629612E+02  0.75640157585E+02  0.00000000000E+00 0. -1.
          5    1    4    4  501    0 -0.23354880126E+02  0.99456442106E+02 -0.68327969467E+02  0.12299526704E+03  0.47000000000E+01 0.  1.
         -5    1    4    4    0  501 -0.20167270319E+03  0.11242942652E+03 -0.13493173567E+03  0.26747134137E+03  0.47000000000E+01 0.  1.
          1    1    1    2  502    0  0.44614126257E+02 -0.11546760568E+03 -0.22475221439E+03  0.25658672237E+03  0.00000000000E+00 0. -1.
          1    1    1    2  503    0  0.92781849268E+02 -0.27843564531E+02 -0.24174879147E+04  0.24194279393E+04  0.00000000000E+00 0. -1.
<mgrwt>
<rscale>  0 0.10309508E+03</rscale>
<asrwt>0</asrwt>
<pdfrwt beam="1">  1        2 0.22544251E-01 0.10975914E+03</pdfrwt>
<pdfrwt beam="2">  1        2 0.48834139E+00 0.96835623E+02</pdfrwt>
<totfact> 0.70657181E+01</totfact>
</mgrwt>
</event>
<event>
13    1  0.1675423E-008  0.1841718E+03  0.7546771E-02  0.1208665E+00
         -1   -1    0    0    0  501 -0.00000000000E+00  0.00000000000E+00  0.59541548198E+03  0.59541548198E+03  0.00000000000E+00 0.  1.
          2   -1    0    0  503    0  0.00000000000E+00 -0.00000000000E+00 -0.34984744263E+04  0.34984744263E+04  0.00000000000E+00 0. -1.
         24    2    1    2    0    0 -0.14439199154E+01  0.11259871340E+03 -0.11598856746E+04  0.11682011667E+04  0.81722901903E+02 0.  0.
         25    2    1    2    0    0  0.37895605053E+02 -0.19016937179E+03  0.68963287447E+02  0.24079377939E+03  0.12500096931E+03 0.  0.
         24    2    1    2    0    0 -0.85877383358E+01 -0.16907641056E+03 -0.91102664505E+03  0.93007733833E+03  0.80085737942E+02 0.  0.
        -11    1    3    3    0    0 -0.29110084392E+02  0.10135541618E+03 -0.10004903648E+04  0.10060324485E+04  0.00000000000E+00 0.  1.
         12    1    3    3    0    0  0.27666164477E+02  0.11243297213E+02 -0.15939530977E+03  0.16216871821E+03  0.00000000000E+00 0. -1.
        -13    1    5    5    0    0  0.20660507407E+01 -0.14778107312E+03 -0.59225099337E+03  0.61041359199E+03  0.00000000000E+00 0.  1.
         14    1    5    5    0    0 -0.10653789076E+02 -0.21295337437E+02 -0.31877565168E+03  0.31966374633E+03  0.00000000000E+00 0. -1.
          5    1    4    4  502    0  0.55862353559E+02 -0.31992676319E+02  0.47392021510E+02  0.80076385945E+02  0.47000000000E+01 0.  1.
         -5    1    4    4    0  502 -0.17966748506E+02 -0.15817669547E+03  0.21571265937E+02  0.16071739344E+03  0.47000000000E+01 0.  1.
          1    1    1    2  503    0  0.67497241305E+02  0.89184389572E+02 -0.13056132801E+04  0.13103952725E+04  0.00000000000E+00 0. -1.
         -2    1    1    2    0  501 -0.95361188106E+02  0.15746267938E+03  0.40450336803E+03  0.44442235130E+03  0.00000000000E+00 0.  1.
<mgrwt>
<rscale>  0 0.14352368E+03</rscale>
<asrwt>0</asrwt>
<pdfrwt beam="2">  1        2 0.51448154E+00 0.11184692E+03</pdfrwt>
<pdfrwt beam="1">  1       -1 0.87561099E-01 0.18417178E+03</pdfrwt>
<totfact> 0.23544427E+00</totfact>
</mgrwt>
</event>
<event>
13    1  0.1675423E-008  0.1107080E+03  0.7546771E-02  0.1388084E+00
          2   -1    0    0  503    0  0.00000000000E+00  0.00000000000E+00  0.28444375185E+04  0.28444375185E+04  0.00000000000E+00 0. -1.
          2   -1    0    0  502    0 -0.00000000000E+00 -0.00000000000E+00 -0.16715850429E+04  0.16715850429E+04  0.00000000000E+00 0. -1.
         24    2    1    2    0    0 -0.10938102868E+03 -0.10812993279E+03  0.27202445380E+03  0.32265080314E+03  0.80311552756E+02 0.  0.
         25    2    1    2    0    0  0.19703932477E+03  0.10575242293E+03  0.49924699700E+03  0.56114228187E+03  0.12500010407E+03 0.  0.
         24    2    1    2    0    0 -0.40944072028E+02 -0.57837982929E+02  0.43952640509E+03  0.45244104163E+03  0.80608846147E+02 0.  0.
        -11    1    5    5    0    0 -0.60269185567E+02 -0.18570482268E+02  0.28051136651E+03  0.28751324192E+03  0.00000000000E+00 0.  1.
         12    1    5    5    0    0  0.19325113539E+02 -0.39267500660E+02  0.15901503858E+03  0.16492779971E+03  0.00000000000E+00 0. -1.
        -11    1    3    3    0    0 -0.10137939658E+03 -0.12063138397E+03  0.23690597008E+03  0.28452443042E+03  0.00000000000E+00 0.  1.
         12    1    3    3    0    0 -0.80016320986E+01  0.12501451184E+02  0.35118483720E+02  0.38126372719E+02  0.00000000000E+00 0. -1.
          5    1    4    4  501    0  0.10089736510E+03  0.54498441258E+02  0.39096500095E+03  0.40746298034E+03  0.47000000000E+01 0.  1.
         -5    1    4    4    0  501  0.96141959673E+02  0.51253981674E+02  0.10828199606E+03  0.15367930153E+03  0.47000000000E+01 0.  1.
          1    1    1    2  502    0 -0.73632871630E+02  0.82827115800E+02 -0.16067612445E+04  0.16105787244E+04  0.00000000000E+00 0. -1.
          1    1    1    2  503    0  0.26918647563E+02 -0.22611623014E+02  0.15688158642E+04  0.15692097103E+04  0.00000000000E+00 0. -1.
<mgrwt>
<rscale>  0 0.62385716E+02</rscale>
<asrwt>0</asrwt>
<pdfrwt beam="1">  1        2 0.41829964E+00 0.35155356E+02</pdfrwt>
<pdfrwt beam="2">  1        2 0.24582133E+00 0.11070795E+03</pdfrwt>
<totfact> 0.83902824E+00</totfact>
</mgrwt>
</event>
<event>
13    1  0.1675423E-008  0.1270870E+03  0.7546771E-02  0.1382056E+00
          2   -1    0    0  502    0  0.00000000000E+00  0.00000000000E+00  0.21112014583E+04  0.21112014583E+04  0.00000000000E+00 0. -1.
          2   -1    0    0  503    0 -0.00000000000E+00 -0.00000000000E+00 -0.57602161642E+03  0.57602161642E+03  0.00000000000E+00 0. -1.
         24    2    1    2    0    0 -0.72615284314E+01 -0.67980000314E+02  0.22062870081E+03  0.24497117371E+03  0.81607855552E+02 0.  0.
         25    2    1    2    0    0  0.32125742648E+02 -0.14424624815E+03 -0.17437805470E+03  0.26052205442E+03  0.12499996572E+03 0.  0.
         24    2    1    2    0    0 -0.25813280157E+02  0.12866139182E+02  0.13200326890E+03  0.15659768831E+03  0.79158764598E+02 0.  0.
        -11    1    3    3    0    0 -0.39648153923E+02 -0.61609273968E+02  0.14520375633E+03  0.16264012297E+03  0.00000000000E+00 0.  1.
         12    1    3    3    0    0  0.32386625492E+02 -0.63707263460E+01  0.75424944485E+02  0.82331050737E+02  0.00000000000E+00 0. -1.
        -13    1    5    5    0    0  0.99384806502E+01 -0.24288730686E+02  0.19039600232E+02  0.32422557162E+02  0.00000000000E+00 0.  1.
         14    1    5    5    0    0 -0.35751760807E+02  0.37154869868E+02  0.11296366867E+03  0.12417513114E+03  0.00000000000E+00 0. -1.
          5    1    4    4  501    0  0.25062593852E+02 -0.14509526687E+03 -0.19137265653E+03  0.24150849622E+03  0.47000000000E+01 0. -1.
         -5    1    4    4    0  501  0.70631487959E+01  0.84901871480E+00  0.16994601837E+02  0.19013558196E+02  0.47000000000E+01 0. -1.
          1    1    1    2  502    0 -0.23906398276E+02  0.17895889393E+03  0.16854225337E+04  0.16950654614E+04  0.00000000000E+00 0. -1.
          1    1    1    2  503    0  0.24855464216E+02  0.20401215353E+02 -0.32849660680E+03  0.33006669685E+03  0.00000000000E+00 0. -1.
<mgrwt>
<rscale>  0 0.63926512E+02</rscale>
<asrwt>0</asrwt>
<pdfrwt beam="1">  1        2 0.31047080E+00 0.12708695E+03</pdfrwt>
<pdfrwt beam="2">  1        2 0.84709062E-01 0.32155928E+02</pdfrwt>
<totfact> 0.71108106E+01</totfact>
</mgrwt>
</event>
<event>
13    1  0.1675423E-008  0.1180327E+03  0.7546771E-02  0.1321304E+00
          2   -1    0    0  502    0  0.00000000000E+00  0.00000000000E+00  0.23543436985E+04  0.23543436985E+04  0.00000000000E+00 0. -1.
          2   -1    0    0  503    0 -0.00000000000E+00 -0.00000000000E+00 -0.46518399527E+03  0.46518399527E+03  0.00000000000E+00 0. -1.
         24    2    1    2    0    0 -0.76691397228E+02 -0.86566986215E+02  0.69989237098E+03  0.71392923462E+03  0.80437600477E+02 0.  0.
         25    2    1    2    0    0 -0.10486932864E+03  0.14249455074E+02 -0.29577270789E+03  0.33809688238E+03  0.12500953598E+03 0.  0.
         24    2    1    2    0    0  0.10551504000E+02  0.33136035598E+02  0.51241925627E+03  0.51955784072E+03  0.78469895949E+02 0.  0.
        -11    1    3    3    0    0 -0.90717230628E+02 -0.76999213436E+02  0.53011791803E+03  0.54330792541E+03  0.00000000000E+00 0.  1.
         12    1    3    3    0    0  0.14025833399E+02 -0.95677727791E+01  0.16977445296E+03  0.17062130921E+03  0.00000000000E+00 0. -1.
        -13    1    5    5    0    0 -0.10745943543E+02  0.39226715361E+02  0.12384216910E+03  0.13034988817E+03  0.00000000000E+00 0.  1.
         14    1    5    5    0    0  0.21297447543E+02 -0.60906797631E+01  0.38857708717E+03  0.38920795255E+03  0.00000000000E+00 0. -1.
          5    1    4    4  501    0 -0.12270108361E+03 -0.10411117843E+02 -0.27384293850E+03  0.30029317718E+03  0.47000000000E+01 0. -1.
         -5    1    4    4    0  501  0.17831754966E+02  0.24660572916E+02 -0.21929769387E+02  0.37803705203E+02  0.47000000000E+01 0. -1.
          1    1    1    2  502    0  0.20973806193E+02 -0.54156248435E+02  0.10524483091E+04  0.10540494500E+04  0.00000000000E+00 0. -1.
          1    1    1    2  503    0  0.15003541568E+03  0.93337743979E+02 -0.79827525147E+02  0.19389428609E+03  0.00000000000E+00 0. -1.
<mgrwt>
<rscale>  0 0.82793986E+02</rscale>
<asrwt>0</asrwt>
<pdfrwt beam="1">  1        2 0.34622701E+00 0.58075811E+02</pdfrwt>
<pdfrwt beam="2">  1        2 0.68409412E-01 0.11803269E+03</pdfrwt>
<totfact> 0.73510003E+01</totfact>
</mgrwt>
</event>
<event>
13    1  0.1675423E-008  0.4615262E+02  0.7546771E-02  0.1486438E+00
          2   -1    0    0  503    0  0.00000000000E+00  0.00000000000E+00  0.79923456993E+03  0.79923456993E+03  0.00000000000E+00 0. -1.
          2   -1    0    0  502    0 -0.00000000000E+00 -0.00000000000E+00 -0.10502033784E+04  0.10502033784E+04  0.00000000000E+00 0. -1.
         24    2    1    2    0    0  0.16865831868E+03 -0.46159023764E+02 -0.99343805377E+02  0.21615361426E+03  0.79226948410E+02 0.  0.
         25    2    1    2    0    0 -0.15815098706E+03  0.10174509660E+03 -0.47883747794E+03  0.52940822261E+03  0.12499574592E+03 0.  0.
         24    2    1    2    0    0  0.13866768750E+02 -0.36915296476E+02 -0.84066062953E+02  0.12326445448E+03  0.81067850647E+02 0.  0.
        -11    1    3    3    0    0  0.17286078956E+03 -0.55153241368E+02 -0.90084669402E+02  0.20257833117E+03  0.00000000000E+00 0.  1.
         12    1    3    3    0    0 -0.42024708763E+01  0.89942176047E+01 -0.92591359753E+01  0.13575283083E+02  0.00000000000E+00 0. -1.
        -13    1    5    5    0    0  0.34968589000E+02  0.11711816649E+02 -0.29897570782E+02  0.47474557445E+02  0.00000000000E+00 0.  1.
         14    1    5    5    0    0 -0.21101820250E+02 -0.48627113124E+02 -0.54168492170E+02  0.75789897036E+02  0.00000000000E+00 0. -1.
          5    1    4    4  501    0 -0.89914982263E+02 -0.14014956236E+02 -0.20513377296E+03  0.22446175140E+03  0.47000000000E+01 0.  1.
         -5    1    4    4    0  501 -0.68236004792E+02  0.11576005284E+03 -0.27370370498E+03  0.30494647120E+03  0.47000000000E+01 0.  1.
          1    1    1    2  502    0 -0.29713212970E+02  0.27202690691E+02 -0.28246971708E+03  0.28532788590E+03  0.00000000000E+00 0. -1.
          1    1    1    2  503    0  0.53391125954E+01 -0.45873467051E+02  0.69374825491E+03  0.69528377106E+03  0.00000000000E+00 0. -1.
<mgrwt>
<rscale>  0 0.43118986E+02</rscale>
<asrwt>0</asrwt>
<pdfrwt beam="1">  1        2 0.11753449E+00 0.46152620E+02</pdfrwt>
<pdfrwt beam="2">  1        2 0.15444167E+00 0.40284754E+02</pdfrwt>
<totfact> 0.17982806E+02</totfact>
</mgrwt>
</event>
<event>
13    1  0.1675423E-008  0.1409990E+03  0.7546771E-02  0.1348212E+00
          2   -1    0    0  502    0  0.00000000000E+00  0.00000000000E+00  0.75815266594E+03  0.75815266594E+03  0.00000000000E+00 0. -1.
          4   -1    0    0  503    0 -0.00000000000E+00 -0.00000000000E+00 -0.25595478292E+04  0.25595478292E+04  0.00000000000E+00 0. -1.
         24    2    1    2    0    0  0.46302665307E+02  0.65662567440E+02  0.16763684680E+03  0.20257226973E+03  0.80485417817E+02 0.  0.
         25    2    1    2    0    0 -0.62758581885E+02 -0.35395667413E+03 -0.99025062304E+03  0.10608704582E+04  0.12500346364E+03 0.  0.
         24    2    1    2    0    0 -0.86677963195E+02  0.14616742937E+03 -0.53331856285E+02  0.19567585904E+03  0.81035598368E+02 0.  0.
        -13    1    3    3    0    0 -0.70010768260E+01  0.54941482618E+02  0.11106126241E+03  0.12410554217E+03  0.00000000000E+00 0.  1.
         14    1    3    3    0    0  0.53303742133E+02  0.10721084822E+02  0.56575584394E+02  0.78466727564E+02  0.00000000000E+00 0. -1.
        -13    1    5    5    0    0 -0.15889786884E+01  0.76831108846E+02 -0.92871480267E+01  0.77406687425E+02  0.00000000000E+00 0.  1.
         14    1    5    5    0    0 -0.85088984507E+02  0.69336320526E+02 -0.44044708258E+02  0.11826917161E+03  0.00000000000E+00 0. -1.
          5    1    4    4  501    0  0.12332288576E+02 -0.62890559818E+02 -0.31847022756E+03  0.32488872510E+03  0.47000000000E+01 0.  1.
         -5    1    4    4    0  501 -0.75090870461E+02 -0.29106611432E+03 -0.67178039548E+03  0.73598173312E+03  0.47000000000E+01 0.  1.
          1    1    1    2  502    0  0.19876654755E+02  0.32896215710E+02  0.46237918020E+03  0.46397386639E+03  0.00000000000E+00 0. -1.
          3    1    1    2  503    0  0.83257225018E+02  0.10923046161E+03 -0.13878287110E+04  0.13946080418E+04  0.00000000000E+00 0. -1.
<mgrwt>
<rscale>  0 0.73615780E+02</rscale>
<asrwt>0</asrwt>
<pdfrwt beam="1">  1        2 0.11149304E+00 0.38434911E+02</pdfrwt>
<pdfrwt beam="2">  1        4 0.37640409E+00 0.14099898E+03</pdfrwt>
<totfact> 0.29570653E-01</totfact>
</mgrwt>
</event>
<event>
13    1  0.1675423E-008  0.7157158E+02  0.7546771E-02  0.1366633E+00
          2   -1    0    0  502    0  0.00000000000E+00  0.00000000000E+00  0.27974094688E+03  0.27974094688E+03  0.00000000000E+00 0. -1.
          2   -1    0    0  503    0 -0.00000000000E+00 -0.00000000000E+00 -0.37390440594E+04  0.37390440594E+04  0.00000000000E+00 0. -1.
         24    2    1    2    0    0 -0.52115767683E+02  0.10301418937E+03 -0.11692583576E+03  0.18258175292E+03  0.79601940796E+02 0.  0.
         25    2    1    2    0    0  0.11587682326E+03 -0.15839875976E+03 -0.76955292018E+03  0.80396183564E+03  0.12500132379E+03 0.  0.
         24    2    1    2    0    0 -0.66022240099E+02  0.43570652121E+02 -0.82159982969E+03  0.82926246801E+03  0.79953879176E+02 0.  0.
        -11    1    5    5    0    0 -0.27957719369E+02 -0.14463901354E+02 -0.11396426177E+03  0.11823151642E+03  0.00000000000E+00 0.  1.
         12    1    5    5    0    0 -0.38064520730E+02  0.58034553475E+02 -0.70763556792E+03  0.71103095159E+03  0.00000000000E+00 0. -1.
        -13    1    3    3    0    0 -0.79016017872E+01  0.94695589024E+02 -0.84015679298E+02  0.12683975820E+03  0.00000000000E+00 0.  1.
         14    1    3    3    0    0 -0.44214165896E+02  0.83186003481E+01 -0.32910156462E+02  0.55741994725E+02  0.00000000000E+00 0. -1.
          5    1    4    4  501    0  0.11763027720E+03 -0.14247710249E+03 -0.76449603878E+03  0.78651947857E+03  0.47000000000E+01 0. -1.
         -5    1    4    4    0  501 -0.17534539404E+01 -0.15921657271E+02 -0.50568813984E+01  0.17442357079E+02  0.47000000000E+01 0. -1.
          1    1    1    2  502    0  0.63061272854E+02  0.34285593116E+02  0.21962843807E+03  0.23106033160E+03  0.00000000000E+00 0. -1.
          1    1    1    2  503    0 -0.60800088331E+02 -0.22471674850E+02 -0.19708529650E+04  0.19719186182E+04  0.00000000000E+00 0. -1.
<mgrwt>
<rscale>  0 0.68112163E+02</rscale>
<asrwt>0</asrwt>
<pdfrwt beam="1">  1        2 0.41138376E-01 0.71571579E+02</pdfrwt>
<pdfrwt beam="2">  1        2 0.54985940E+00 0.64819958E+02</pdfrwt>
<totfact> 0.22502633E+01</totfact>
</mgrwt>
</event>
<event>
13    1  0.1675423E-008  0.1571251E+03  0.7546771E-02  0.1324178E+00
          2   -1    0    0  503    0  0.00000000000E+00  0.00000000000E+00  0.74075372454E+03  0.74075372454E+03  0.00000000000E+00 0. -1.
         -1   -1    0    0    0  501 -0.00000000000E+00 -0.00000000000E+00 -0.88152538810E+03  0.88152538810E+03  0.00000000000E+00 0.  1.
         24    2    1    2    0    0  0.26185693620E+01  0.20594239851E+02  0.67750296106E+02  0.10745423083E+03  0.80779511508E+02 0.  0.
         25    2    1    2    0    0 -0.13018609406E+03  0.12269630388E+03  0.34599011956E+03  0.40907151113E+03  0.12501014483E+03 0.  0.
         24    2    1    2    0    0 -0.25719531773E+00 -0.14392931743E+03  0.49072212334E+02  0.17180240973E+03  0.79951681659E+02 0.  0.
        -13    1    5    5    0    0 -0.20986743519E+02 -0.13329512663E+03  0.23079759096E+02  0.13689671094E+03  0.00000000000E+00 0.  1.
         14    1    5    5    0    0  0.20729548202E+02 -0.10634190803E+02  0.25992453238E+02  0.34905698790E+02  0.00000000000E+00 0. -1.
        -13    1    3    3    0    0 -0.20091080149E+02 -0.87593584440E+01 -0.78133458680E+01  0.23268567544E+02  0.00000000000E+00 0.  1.
         14    1    3    3    0    0  0.22709649511E+02  0.29353598295E+02  0.75563641975E+02  0.84185663282E+02  0.00000000000E+00 0. -1.
          5    1    4    4  502    0  0.22654461665E+02  0.58784075680E+01  0.57874616862E+02  0.62604645082E+02  0.47000000000E+01 0.  1.
         -5    1    4    4    0  502 -0.15284055573E+03  0.11681789631E+03  0.28811550270E+03  0.34646686605E+03  0.47000000000E+01 0.  1.
          1    1    1    2  503    0 -0.25842060009E+02  0.33772978533E+02  0.15423960098E+03  0.15999462696E+03  0.00000000000E+00 0. -1.
         -2    1    1    2    0  501  0.15366678003E+03 -0.33134204836E+02 -0.75782389255E+03  0.77395633399E+03  0.00000000000E+00 0.  1.
<mgrwt>
<rscale>  0 0.81742517E+02</rscale>
<asrwt>0</asrwt>
<pdfrwt beam="1">  1        2 0.10893437E+00 0.42525594E+02</pdfrwt>
<pdfrwt beam="2">  1       -1 0.12963609E+00 0.15712512E+03</pdfrwt>
<totfact> 0.28589083E+01</totfact>
</mgrwt>
</event>
<event>
13    1  0.1675423E-008  0.1481625E+03  0.7546771E-02  0.1366299E+00
          2   -1    0    0  503    0  0.00000000000E+00  0.00000000000E+00  0.24967493267E+04  0.24967493267E+04  0.00000000000E+00 0. -1.
         -1   -1    0    0    0  501 -0.00000000000E+00 -0.00000000000E+00 -0.10781732649E+04  0.10781732649E+04  0.00000000000E+00 0.  1.
         24    2    1    2    0    0  0.54243433130E+02  0.81913000318E+02 -0.10320414500E+03  0.16358869457E+03  0.80362153932E+02 0.  0.
         25    2    1    2    0    0  0.45209750356E+01 -0.25939422676E+03 -0.23959234720E+02  0.28897351459E+03  0.12500337241E+03 0.  0.
         24    2    1    2    0    0 -0.24477645199E+02  0.52123637618E+02 -0.22536076789E+03  0.24586333782E+03  0.79657243655E+02 0.  0.
        -13    1    3    3    0    0  0.43941155174E+02  0.24894391859E+01 -0.53715134647E+02  0.69443056641E+02  0.00000000000E+00 0.  1.
         14    1    3    3    0    0  0.10302277956E+02  0.79423561132E+02 -0.49489010357E+02  0.94145637924E+02  0.00000000000E+00 0. -1.
        -13    1    5    5    0    0  0.27653680497E+02  0.99400818426E+01 -0.48403023773E+02  0.56624941346E+02  0.00000000000E+00 0.  1.
         14    1    5    5    0    0 -0.52131325696E+02  0.42183555776E+02 -0.17695774412E+03  0.18923839648E+03  0.00000000000E+00 0. -1.
          5    1    4    4  502    0  0.28481549760E+02 -0.13814690848E+03  0.44026280936E+02  0.14783832525E+03  0.47000000000E+01 0. -1.
         -5    1    4    4    0  502 -0.23960574724E+02 -0.12124731827E+03 -0.67985515656E+02  0.14113518933E+03  0.47000000000E+01 0. -1.
          1    1    1    2  503    0 -0.65041740782E+02  0.13168461715E+03  0.23210296604E+04  0.23256719353E+04  0.00000000000E+00 0. -1.
         -2    1    1    2    0  501  0.30754977815E+02 -0.63270283251E+01 -0.54992945094E+03  0.55082510923E+03  0.00000000000E+00 0.  1.
<mgrwt>
<rscale>  0 0.68206746E+02</rscale>
<asrwt>0</asrwt>
<pdfrwt beam="1">  1        2 0.36716902E+00 0.14816248E+03</pdfrwt>
<pdfrwt beam="2">  1       -1 0.15855489E+00 0.31399044E+02</pdfrwt>
<totfact> 0.21882133E+00</totfact>
</mgrwt>
</event>
<event>
13    1  0.1675423E-008  0.1340092E+03  0.7546771E-02  0.1360045E+00
          2   -1    0    0  503    0  0.00000000000E+00  0.00000000000E+00  0.79335451291E+03  0.79335451291E+03  0.00000000000E+00 0. -1.
          2   -1    0    0  502    0 -0.00000000000E+00 -0.00000000000E+00 -0.50950246974E+03  0.50950246974E+03  0.00000000000E+00 0. -1.
         24    2    1    2    0    0  0.75934548324E+02 -0.52049771217E+01  0.18204863977E+02  0.11099321383E+03  0.78707871445E+02 0.  0.
         25    2    1    2    0    0 -0.16757666150E+03 -0.85133542045E+02 -0.86414088564E+01  0.22590340069E+03  0.12501205956E+03 0.  0.
         24    2    1    2    0    0  0.66538122212E+02 -0.72627737010E+01  0.81525172914E+02  0.13326060762E+03  0.81436884362E+02 0.  0.
        -11    1    3    3    0    0  0.34455414955E+02  0.36274379619E+02  0.17166066951E+01  0.50059494354E+02  0.00000000000E+00 0.  1.
         12    1    3    3    0    0  0.41479133369E+02 -0.41479356741E+02  0.16488257282E+02  0.60933719473E+02  0.00000000000E+00 0. -1.
        -13    1    5    5    0    0  0.60946903916E+02  0.81606435870E+01  0.13066684325E+02  0.62863816620E+02  0.00000000000E+00 0.  1.
         14    1    5    5    0    0  0.55912182955E+01 -0.15423417288E+02  0.68458488589E+02  0.70396790998E+02  0.00000000000E+00 0. -1.
          5    1    4    4  501    0 -0.14638746129E+03 -0.85858313638E+02 -0.51875203888E+02  0.17752201447E+03  0.47000000000E+01 0. -1.
         -5    1    4    4    0  501 -0.21189200206E+02  0.72477159275E+00  0.43233795031E+02  0.48381386215E+02  0.47000000000E+01 0. -1.
          1    1    1    2  502    0  0.53807996440E+02  0.12027587631E+03 -0.30570442789E+03  0.33289155011E+03  0.00000000000E+00 0. -1.
          1    1    1    2  503    0 -0.28704005477E+02 -0.22674583443E+02  0.49846784302E+03  0.49980821041E+03  0.00000000000E+00 0. -1.
<mgrwt>
<rscale>  0 0.70014158E+02</rscale>
<asrwt>0</asrwt>
<pdfrwt beam="1">  1        2 0.11666978E+00 0.36579457E+02</pdfrwt>
<pdfrwt beam="2">  1        2 0.74926833E-01 0.13400916E+03</pdfrwt>
<totfact> 0.40978600E+02</totfact>
</mgrwt>
</event>
<event>
13    1  0.1675423E-008  0.1103464E+03  0.7546771E-02  0.1287270E+00
          2   -1    0    0  503    0  0.00000000000E+00  0.00000000000E+00  0.29794805908E+03  0.29794805908E+03  0.00000000000E+00 0. -1.
          2   -1    0    0  502    0 -0.00000000000E+00 -0.00000000000E+00 -0.17019424415E+04  0.17019424415E+04  0.00000000000E+00 0. -1.
         24    2    1    2    0    0  0.16341819753E+01  0.21891266688E+02 -0.50878947621E+02  0.98490820887E+02  0.81424052836E+02 0.  0.
         25    2    1    2    0    0 -0.46229391049E+02  0.59602466299E+02 -0.13180960052E+03  0.19669666082E+03  0.12500477992E+03 0.  0.
         24    2    1    2    0    0  0.25738775136E+02  0.16495302457E+01  0.15002591663E+01  0.85527080547E+02  0.81531743718E+02 0.  0.
        -11    1    3    3    0    0  0.22590641644E+02  0.46012547856E+02 -0.23402537196E+02  0.56348650359E+02  0.00000000000E+00 0.  1.
         12    1    3    3    0    0 -0.20956459669E+02 -0.24121281168E+02 -0.27476410425E+02  0.42142170528E+02  0.00000000000E+00 0. -1.
        -11    1    5    5    0    0 -0.23046274411E+02 -0.90831759923E+01  0.20429349733E+02  0.32109082529E+02  0.00000000000E+00 0.  1.
         12    1    5    5    0    0  0.48785049547E+02  0.10732706238E+02 -0.18929090567E+02  0.53417998018E+02  0.00000000000E+00 0. -1.
          5    1    4    4  501    0  0.37903061344E+02 -0.54331007050E+01 -0.25408231294E+02  0.46193385457E+02  0.47000000000E+01 0.  1.
         -5    1    4    4    0  501 -0.84132452393E+02  0.65035567005E+02 -0.10640136923E+03  0.15050327536E+03  0.47000000000E+01 0.  1.
          1    1    1    2  502    0  0.10297774259E+03 -0.47418193563E+02 -0.14080536663E+04  0.14126103594E+04  0.00000000000E+00 0. -1.
          1    1    1    2  503    0 -0.84121308654E+02 -0.35725069670E+02  0.18524757277E+03  0.20656557891E+03  0.00000000000E+00 0. -1.
<mgrwt>
<rscale>  0 0.96755685E+02</rscale>
<asrwt>0</asrwt>
<pdfrwt beam="1">  1        2 0.43815890E-01 0.84838891E+02</pdfrwt>
<pdfrwt beam="2">  1        2 0.25028566E+00 0.11034636E+03</pdfrwt>
<totfact> 0.22499515E+02</totfact>
</mgrwt>
</event>
<event>
13    1  0.1675423E-008  0.9829040E+02  0.7546771E-02  0.1362084E+00
          2   -1    0    0  503    0  0.00000000000E+00  0.00000000000E+00  0.12660543297E+04  0.12660543297E+04  0.00000000000E+00 0. -1.
          2   -1    0    0  502    0 -0.00000000000E+00 -0.00000000000E+00 -0.22184129284E+04  0.22184129284E+04  0.00000000000E+00 0. -1.
         24    2    1    2    0    0 -0.25719407977E+02  0.19054973719E+02  0.22149038208E+02  0.88203127433E+02  0.79149427195E+02 0.  0.
         25    2    1    2    0    0 -0.14673621760E+03  0.40589094301E+02 -0.31195968303E+02  0.19944589869E+03  0.12500594361E+03 0.  0.
         24    2    1    2    0    0  0.90985092829E+02 -0.89685996912E+02 -0.62865936262E+03  0.64681562227E+03  0.82680044992E+02 0.  0.
        -11    1    3    3    0    0 -0.40078469263E+02 -0.17700487487E+02  0.21340729256E+02  0.48734153126E+02  0.00000000000E+00 0.  1.
         12    1    3    3    0    0  0.14359061286E+02  0.36755461206E+02  0.80830895266E+00  0.39468974307E+02  0.00000000000E+00 0. -1.
        -11    1    5    5    0    0  0.86908517088E+02 -0.60390296874E+02 -0.58219553529E+03  0.59173619090E+03  0.00000000000E+00 0.  1.
         12    1    5    5    0    0  0.40765757410E+01 -0.29295700038E+02 -0.46463827328E+02  0.55079431374E+02  0.00000000000E+00 0. -1.
          5    1    4    4  501    0 -0.52439564859E+01  0.52146976193E+02 -0.22225740990E+02  0.57121622599E+02  0.47000000000E+01 0.  1.
         -5    1    4    4    0  501 -0.14149226111E+03 -0.11557881892E+02 -0.89702273123E+01  0.14232427610E+03  0.47000000000E+01 0.  1.
          1    1    1    2  502    0  0.97908003495E+02 -0.16147099850E+02 -0.14300696907E+04  0.14335082931E+04  0.00000000000E+00 0. -1.
          1    1    1    2  503    0 -0.16437470749E+02  0.46189028741E+02  0.11154173847E+04  0.11164943166E+04  0.00000000000E+00 0. -1.
<mgrwt>
<rscale>  0 0.69417960E+02</rscale>
<asrwt>0</asrwt>
<pdfrwt beam="1">  1        2 0.18618446E+00 0.49026695E+02</pdfrwt>
<pdfrwt beam="2">  1        2 0.32623719E+00 0.98290395E+02</pdfrwt>
<totfact> 0.24724579E+01</totfact>
</mgrwt>
</event>
<event>
13    1  0.1675423E-008  0.9326128E+02  0.7546771E-02  0.1453971E+00
          2   -1    0    0  502    0  0.00000000000E+00  0.00000000000E+00  0.62135508686E+03  0.62135508686E+03  0.00000000000E+00 0. -1.
          2   -1    0    0  503    0 -0.00000000000E+00 -0.00000000000E+00 -0.10536778824E+04  0.10536778824E+04  0.00000000000E+00 0. -1.
         24    2    1    2    0    0 -0.62011285588E+02  0.50806203898E+02 -0.54874010356E+03  0.55878283510E+03  0.68526532466E+02 0.  0.
         25    2    1    2    0    0 -0.42091186826E+02  0.10011840003E+02 -0.26630076863E+03  0.29734170692E+03  0.12499634535E+03 0.  0.
         24    2    1    2    0    0  0.22791290817E+02  0.55644183670E+01  0.39227058769E+03  0.40118218568E+03  0.80749776765E+02 0.  0.
        -11    1    5    5    0    0  0.15542159887E+02  0.41650000337E+02  0.16201568813E+03  0.16800406085E+03  0.00000000000E+00 0.  1.
         12    1    5    5    0    0  0.72491309307E+01 -0.36085581970E+02  0.23025489956E+03  0.23317812482E+03  0.00000000000E+00 0. -1.
        -13    1    3    3    0    0 -0.42673897814E+02  0.22748578262E+01 -0.13113080924E+03  0.13791854721E+03  0.00000000000E+00 0.  1.
         14    1    3    3    0    0 -0.19337387774E+02  0.48531346072E+02 -0.41760929432E+03  0.42086428789E+03  0.00000000000E+00 0. -1.
          5    1    4    4  501    0 -0.60362707003E+02  0.51956764885E+02 -0.20998969094E+03  0.22463508656E+03  0.47000000000E+01 0. -1.
         -5    1    4    4    0  501  0.18271520177E+02 -0.41944924882E+02 -0.56311077689E+02  0.72706620355E+02  0.47000000000E+01 0. -1.
          1    1    1    2  502    0  0.58897484897E+02 -0.77800532445E+02  0.19159459961E+03  0.21501238843E+03  0.00000000000E+00 0. -1.
          1    1    1    2  503    0  0.22413696700E+02  0.11418070177E+02 -0.20114711062E+03  0.20271385310E+03  0.00000000000E+00 0. -1.
<mgrwt>
<rscale>  0 0.48434861E+02</rscale>
<asrwt>0</asrwt>
<pdfrwt beam="1">  1        2 0.91375750E-01 0.93261281E+02</pdfrwt>
<pdfrwt beam="2">  1        2 0.15495263E+00 0.25154445E+02</pdfrwt>
<totfact> 0.23989132E+02</totfact>
</mgrwt>
</event>
<event>
13    1  0.1675423E-008  0.1727022E+04  0.7546771E-02  0.1157626E+00
          2   -1    0    0  503    0  0.00000000000E+00  0.00000000000E+00  0.66647001945E+03  0.66647001945E+03  0.00000000000E+00 0. -1.
          2   -1    0    0  502    0 -0.00000000000E+00 -0.00000000000E+00 -0.32681346126E+04  0.32681346126E+04  0.00000000000E+00 0. -1.
         24    2    1    2    0    0  0.13048919579E+02 -0.71990853227E+03  0.98138235476E+02  0.73102755483E+03  0.79571373816E+02 0.  0.
         25    2    1    2    0    0  0.78650414590E+02  0.85550143012E+03 -0.63529481886E+03  0.10757759077E+04  0.12500284861E+03 0.  0.
         24    2    1    2    0    0  0.11444394125E+03 -0.52583491208E+02 -0.25856550194E+03  0.29883865928E+03  0.81154089551E+02 0.  0.
        -11    1    3    3    0    0 -0.63304715175E+01 -0.21624305654E+02 -0.90828031292E+01  0.24293677724E+02  0.00000000000E+00 0.  1.
         12    1    3    3    0    0  0.19379391096E+02 -0.69828422661E+03  0.10722103861E+03  0.70673387711E+03  0.00000000000E+00 0. -1.
        -13    1    5    5    0    0  0.65277169100E+02 -0.68202219304E+02 -0.13310313851E+03  0.16318424252E+03  0.00000000000E+00 0.  1.
         14    1    5    5    0    0  0.49166772152E+02  0.15618728096E+02 -0.12546236343E+03  0.13565441677E+03  0.00000000000E+00 0. -1.
          5    1    4    4  501    0  0.91680090744E+02  0.47454134230E+03 -0.30623421761E+03  0.57218546873E+03  0.47000000000E+01 0. -1.
         -5    1    4    4    0  501 -0.13029676154E+02  0.38096008782E+03 -0.32906060125E+03  0.50359043902E+03  0.47000000000E+01 0. -1.
          1    1    1    2  502    0 -0.22563063442E+03 -0.74898510286E+02 -0.17786107253E+04  0.17944289014E+04  0.00000000000E+00 0. -1.
          1    1    1    2  503    0  0.19487359000E+02 -0.81108963576E+01 -0.27331782535E+02  0.34533608804E+02  0.00000000000E+00 0. -1.
<mgrwt>
<rscale>  0 0.19092883E+03</rscale>
<asrwt>0</asrwt>
<pdfrwt beam="1">  1        2 0.98010295E-01 0.17270219E+04</pdfrwt>
<pdfrwt beam="2">  1        2 0.48060804E+00 0.21107908E+02</pdfrwt>
<totfact> 0.19309048E+01</totfact>
</mgrwt>
</event>
<event>
13    1  0.1675423E-008  0.1560287E+03  0.7546771E-02  0.1260380E+00
          2   -1    0    0  502    0  0.00000000000E+00  0.00000000000E+00  0.27446022264E+04  0.27446022264E+04  0.00000000000E+00 0. -1.
          4   -1    0    0  503    0 -0.00000000000E+00 -0.00000000000E+00 -0.12616267330E+04  0.12616267330E+04  0.00000000000E+00 0. -1.
         24    2    1    2    0    0  0.69023834697E+02  0.10821119326E+03  0.54776038731E+03  0.56951109262E+03  0.88473106643E+02 0.  0.
         25    2    1    2    0    0  0.19796361717E+03 -0.23593497882E+03 -0.36377544447E+02  0.33437386794E+03  0.12501059901E+03 0.  0.
         24    2    1    2    0    0 -0.50453339029E+02  0.96828087859E+02  0.20240266536E+03  0.24381741533E+03  0.80986882009E+02 0.  0.
        -11    1    5    5    0    0  0.76811283603E+01  0.15067148511E+02 -0.10816817572E+01  0.16946643696E+02  0.00000000000E+00 0.  1.
         12    1    5    5    0    0 -0.58134467389E+02  0.81760939348E+02  0.20348434712E+03  0.22687077164E+03  0.00000000000E+00 0. -1.
        -13    1    3    3    0    0  0.25451343140E+02  0.40568513320E+02  0.38480263446E+03  0.38777137933E+03  0.00000000000E+00 0.  1.
         14    1    3    3    0    0  0.43572491557E+02  0.67642679938E+02  0.16295775286E+03  0.18173971329E+03  0.00000000000E+00 0. -1.
          5    1    4    4  501    0  0.43997185491E+02  0.66207164406E+01 -0.98987516402E+01  0.45822063478E+02  0.47000000000E+01 0. -1.
         -5    1    4    4    0  501  0.15396643168E+03 -0.24255569526E+03 -0.26478792806E+02  0.28855180446E+03  0.47000000000E+01 0. -1.
          1    1    1    2  502    0 -0.15366745535E+03 -0.14758038451E+02  0.18091218653E+04  0.18156963981E+04  0.00000000000E+00 0. -1.
          3    1    1    2  503    0 -0.62866657483E+02  0.45653736156E+02 -0.10399318802E+04  0.10428301854E+04  0.00000000000E+00 0. -1.
<mgrwt>
<rscale>  0 0.11010276E+03</rscale>
<asrwt>0</asrwt>
<pdfrwt beam="1">  1        2 0.40361797E+00 0.15602870E+03</pdfrwt>
<pdfrwt beam="2">  1        4 0.18553334E+00 0.77694789E+02</pdfrwt>
<totfact> 0.35262845E-01</totfact>
</mgrwt>
</event>
<event>
13    1  0.1675423E-008  0.5534952E+02  0.7546771E-02  0.1530247E+00
          2   -1    0    0  503    0  0.00000000000E+00  0.00000000000E+00  0.13358710533E+04  0.13358710533E+04  0.00000000000E+00 0. -1.
          2   -1    0    0  502    0 -0.00000000000E+00 -0.00000000000E+00 -0.50224163904E+03  0.50224163904E+03  0.00000000000E+00 0. -1.
         24    2    1    2    0    0  0.19939864353E+02  0.13881292523E+03  0.57569070001E+03  0.59760477192E+03  0.77749951386E+02 0.  0.
         25    2    1    2    0    0 -0.78560734588E+02 -0.11066485163E+03 -0.18356348022E+03  0.26026693030E+03  0.12499930133E+03 0.  0.
         24    2    1    2    0    0  0.25204848632E+02 -0.65954924844E+02  0.24324783467E+03  0.26593025031E+03  0.81018840114E+02 0.  0.
        -11    1    3    3    0    0  0.26928129000E+02  0.13406105211E+02  0.63885636668E+02  0.70613188293E+02  0.00000000000E+00 0.  1.
         12    1    3    3    0    0 -0.69882646469E+01  0.12540682002E+03  0.51180506334E+03  0.52699158363E+03  0.00000000000E+00 0. -1.
        -11    1    5    5    0    0 -0.43421882202E+01 -0.69247035533E+02  0.11523619080E+03  0.13451165823E+03  0.00000000000E+00 0.  1.
         12    1    5    5    0    0  0.29547036852E+02  0.32921106894E+01  0.12801164387E+03  0.13141859208E+03  0.00000000000E+00 0. -1.
          5    1    4    4  501    0 -0.50055276427E+00 -0.66334428706E+02 -0.15040925702E+03  0.16445528748E+03  0.47000000000E+01 0.  1.
         -5    1    4    4    0  501 -0.78060181824E+02 -0.44330422920E+02 -0.33154223203E+02  0.95811642815E+02  0.47000000000E+01 0.  1.
          1    1    1    2  502    0  0.19310059760E+02 -0.15788165047E+02 -0.25573635840E+03  0.25694985809E+03  0.00000000000E+00 0. -1.
          1    1    1    2  503    0  0.14105961843E+02  0.53595016283E+02  0.45399071824E+03  0.45736088177E+03  0.00000000000E+00 0. -1.
<mgrwt>
<rscale>  0 0.37156068E+02</rscale>
<asrwt>0</asrwt>
<pdfrwt beam="1">  1        2 0.19645163E+00 0.55349519E+02</pdfrwt>
<pdfrwt beam="2">  1        2 0.73859065E-01 0.24942826E+02</pdfrwt>
<totfact> 0.20988512E+02</totfact>
</mgrwt>
</event>
