<event>
13    1  0.2742815E-008  0.1855247E+03  0.7546771E-02  0.1393817E+00
          4   -1    0    0  503    0 -0.00000000000E+00  0.00000000000E+00  0.14520660644E+04  0.14520660644E+04  0.00000000000E+00 0. -1.
          2   -1    0    0  502    0  0.00000000000E+00 -0.00000000000E+00 -0.34629079404E+04  0.34629079404E+04  0.00000000000E+00 0. -1.
         25    2    1    2    0    0 -0.35800810663E+03  0.40427758908E+03  0.36845714656E+03  0.66557938761E+03  0.12500031566E+03 0.  0.
         24    2    1    2    0    0  0.24160163762E+03 -0.45681557034E+03 -0.66453055137E+03  0.84563303989E+03  0.80265608099E+02 0.  0.
         24    2    1    2    0    0 -0.83541594573E+02  0.78519938860E+02 -0.11166161991E+03  0.18128090970E+03  0.85146180397E+02 0.  0.
        -11    1    4    4    0    0  0.21635126632E+02 -0.11907698405E+02 -0.17954641321E+02  0.30532624038E+02  0.00000000000E+00 0.  1.
         12    1    4    4    0    0  0.21996651099E+03 -0.44490787194E+03 -0.64657591004E+03  0.81510041585E+03  0.00000000000E+00 0. -1.
        -13    1    5    5    0    0  0.73293206009E+01 -0.10412402731E+02 -0.10898367738E+01  0.12779859753E+02  0.00000000000E+00 0.  1.
         14    1    5    5    0    0 -0.90870915174E+02  0.88932341591E+02 -0.11057178314E+03  0.16850104994E+03  0.00000000000E+00 0. -1.
          5    1    3    3  501    0 -0.16019818439E+03  0.20818467681E+03  0.25066899617E+03  0.36312718651E+03  0.47000000000E+01 0.  1.
         -5    1    3    3    0  501 -0.19780992224E+03  0.19609291227E+03  0.11778815039E+03  0.30245220110E+03  0.47000000000E+01 0.  1.
          1    1    1    2  502    0  0.18251574159E+03 -0.35856990635E+02 -0.24090842664E+04  0.24162542752E+04  0.00000000000E+00 0. -1.
          3    1    1    2  503    0  0.17432321991E+02  0.98750330371E+01  0.80597741509E+03  0.80622639238E+03  0.00000000000E+00 0. -1.
<mgrwt>
<rscale>  0 0.60967127E+02</rscale>
<asrwt>0</asrwt>
<pdfrwt beam="2">  1        2 0.50925116E+00 0.18552465E+03</pdfrwt>
<pdfrwt beam="1">  1        4 0.21353913E+00 0.20035023E+02</pdfrwt>
<totfact> 0.91422674E-02</totfact>
</mgrwt>
</event>
<event>
13    1  0.2742815E-008  0.6440865E+02  0.7546771E-02  0.1505025E+00
          2   -1    0    0  503    0  0.00000000000E+00  0.00000000000E+00  0.20843017408E+04  0.20843017408E+04  0.00000000000E+00 0. -1.
          2   -1    0    0  502    0 -0.00000000000E+00 -0.00000000000E+00 -0.33692582729E+04  0.33692582729E+04  0.00000000000E+00 0. -1.
         25    2    1    2    0    0  0.13976265211E+03 -0.21540256078E+02 -0.10695259768E+04  0.10860516783E+04  0.12499940534E+03 0.  0.
         24    2    1    2    0    0  0.83066165971E+02  0.24092140751E+02  0.11804546820E+03  0.16680728171E+03  0.80059462235E+02 0.  0.
         24    2    1    2    0    0 -0.14579152820E+03  0.19951492890E+02  0.46434236061E+03  0.49313391346E+03  0.76902516067E+02 0.  0.
        -11    1    4    4    0    0  0.52816477179E+02 -0.19958870129E+02  0.90550555195E+02  0.10671147925E+03  0.00000000000E+00 0.  1.
         12    1    4    4    0    0  0.30249688792E+02  0.44051010880E+02  0.27494913006E+02  0.60095802456E+02  0.00000000000E+00 0. -1.
        -11    1    5    5    0    0 -0.10634820252E+03  0.48000491936E+02  0.30302554277E+03  0.32471289930E+03  0.00000000000E+00 0.  1.
         12    1    5    5    0    0 -0.39443325687E+02 -0.28048999045E+02  0.16131681785E+03  0.16842101415E+03  0.00000000000E+00 0. -1.
          5    1    3    3  501    0  0.80926406453E+02 -0.56195687846E+02 -0.36117436503E+03  0.37440092220E+03  0.47000000000E+01 0. -1.
         -5    1    3    3    0  501  0.58836245660E+02  0.34655431767E+02 -0.70835161181E+03  0.71165075614E+03  0.47000000000E+01 0. -1.
          1    1    1    2  502    0 -0.22502606120E+02  0.11751408355E+02 -0.22519085060E+04  0.22520515941E+04  0.00000000000E+00 0. -1.
          1    1    1    2  503    0 -0.54534683760E+02 -0.34254785918E+02  0.14540901219E+04  0.14555155461E+04  0.00000000000E+00 0. -1.
<mgrwt>
<rscale>  0 0.40436316E+02</rscale>
<asrwt>0</asrwt>
<pdfrwt beam="1">  1        2 0.30651497E+00 0.64408652E+02</pdfrwt>
<pdfrwt beam="2">  1        2 0.49547915E+00 0.25386273E+02</pdfrwt>
<totfact> 0.32106155E+00</totfact>
</mgrwt>
</event>
<event>
13    1  0.2742815E-008  0.1422063E+03  0.7546771E-02  0.1309983E+00
         -1   -1    0    0    0  501 -0.00000000000E+00  0.00000000000E+00  0.12682223543E+04  0.12682223543E+04  0.00000000000E+00 0.  1.
          2   -1    0    0  503    0  0.00000000000E+00 -0.00000000000E+00 -0.25280897043E+03  0.25280897043E+03  0.00000000000E+00 0. -1.
         25    2    1    2    0    0  0.11207633337E+03 -0.51504734272E+02  0.75308595586E+02  0.19107572257E+03  0.12499882012E+03 0.  0.
         24    2    1    2    0    0 -0.56989038187E+02 -0.64924885420E+02  0.20788969566E+03  0.24671584537E+03  0.10093359984E+03 0.  0.
         24    2    1    2    0    0  0.12229117475E+03  0.50527730780E+02  0.20548710466E+03  0.25658831709E+03  0.78130860037E+02 0.  0.
        -13    1    5    5    0    0  0.55139669632E+02  0.62762821874E+02  0.13265988257E+03  0.15677435830E+03  0.00000000000E+00 0.  1.
         14    1    5    5    0    0  0.67151505118E+02 -0.12235091093E+02  0.72827222087E+02  0.99813958797E+02  0.00000000000E+00 0. -1.
        -13    1    4    4    0    0  0.23532364725E+02 -0.31504460557E+02  0.10344476939E+03  0.11066672281E+03  0.00000000000E+00 0.  1.
         14    1    4    4    0    0 -0.80521402913E+02 -0.33420424863E+02  0.10444492627E+03  0.13604912256E+03  0.00000000000E+00 0. -1.
          5    1    3    3  502    0  0.34244650705E+02  0.38353983327E+02  0.27110499362E+01  0.51702649165E+02  0.47000000000E+01 0.  1.
         -5    1    3    3    0  502  0.77831682665E+02 -0.89858717599E+02  0.72597545650E+02  0.13937307340E+03  0.47000000000E+01 0.  1.
          1    1    1    2  503    0 -0.52058256400E+02  0.11762827618E+02 -0.13804675990E+03  0.14800450700E+03  0.00000000000E+00 0. -1.
         -2    1    1    2    0  501 -0.12532021353E+03  0.54139061295E+02  0.66477474790E+03  0.67864693275E+03  0.00000000000E+00 0.  1.
<mgrwt>
<rscale>  0 0.87118567E+02</rscale>
<asrwt>0</asrwt>
<pdfrwt beam="2">  1        2 0.37177790E-01 0.53370649E+02</pdfrwt>
<pdfrwt beam="1">  1       -1 0.18650329E+00 0.14220634E+03</pdfrwt>
<totfact> 0.33728549E+01</totfact>
</mgrwt>
</event>
<event>
13    1  0.2742815E-008  0.2388345E+03  0.7546771E-02  0.1334199E+00
          2   -1    0    0  503    0  0.00000000000E+00  0.00000000000E+00  0.19539403756E+04  0.19539403756E+04  0.00000000000E+00 0. -1.
         -3   -1    0    0    0  501 -0.00000000000E+00 -0.00000000000E+00 -0.21808854143E+03  0.21808854143E+03  0.00000000000E+00 0.  1.
         25    2    1    2    0    0  0.20104979108E+03  0.11351468319E+03  0.79418324282E+03  0.83645772202E+03  0.12501158250E+03 0.  0.
         24    2    1    2    0    0  0.26803704882E+02  0.56652123339E+02  0.21454542465E+03  0.23759229767E+03  0.80575796604E+02 0.  0.
         24    2    1    2    0    0 -0.38636654949E+02  0.13253173719E+02  0.24561885568E+03  0.26192879561E+03  0.81299655508E+02 0.  0.
        -13    1    5    5    0    0  0.23381859087E+02 -0.23910446424E+01  0.10262031421E+03  0.10527752522E+03  0.00000000000E+00 0.  1.
         14    1    5    5    0    0 -0.62018514036E+02  0.15644218362E+02  0.14299854147E+03  0.15665127039E+03  0.00000000000E+00 0. -1.
        -13    1    4    4    0    0 -0.19315628906E+01  0.67899206841E+02  0.17286725975E+03  0.18573401066E+03  0.00000000000E+00 0.  1.
         14    1    4    4    0    0  0.28735267773E+02 -0.11247083503E+02  0.41678164905E+02  0.51858287005E+02  0.00000000000E+00 0. -1.
          5    1    3    3  502    0  0.10897102786E+03  0.10257465042E+03  0.63280393833E+03  0.65027621684E+03  0.47000000000E+01 0. -1.
         -5    1    3    3    0  502  0.92078763224E+02  0.10940032766E+02  0.16137930450E+03  0.18618150519E+03  0.47000000000E+01 0. -1.
          1    1    1    2  503    0 -0.24221634161E+02 -0.83283381056E+01  0.57673560534E+03  0.57730408559E+03  0.00000000000E+00 0. -1.
         -4    1    1    2    0  501 -0.16499520685E+03 -0.17509164214E+03 -0.95231294346E+02  0.25874601611E+03  0.00000000000E+00 0.  1.
<mgrwt>
<rscale>  0 0.78213645E+02</rscale>
<asrwt>0</asrwt>
<pdfrwt beam="1">  1        2 0.28734416E+00 0.25613449E+02</pdfrwt>
<pdfrwt beam="2">  1       -3 0.32071845E-01 0.23883446E+03</pdfrwt>
<totfact> 0.66053419E+01</totfact>
</mgrwt>
</event>
<event>
13    1  0.2742815E-008  0.3096925E+03  0.7546771E-02  0.1232842E+00
          2   -1    0    0  503    0  0.00000000000E+00  0.00000000000E+00  0.15359369799E+04  0.15359369799E+04  0.00000000000E+00 0. -1.
          2   -1    0    0  502    0 -0.00000000000E+00 -0.00000000000E+00 -0.11370984796E+04  0.11370984796E+04  0.00000000000E+00 0. -1.
         25    2    1    2    0    0  0.72193020228E+02  0.89927474316E+01 -0.35071883271E+03  0.37936919960E+03  0.12499835324E+03 0.  0.
         24    2    1    2    0    0  0.89578509015E+02  0.71433144302E+02 -0.11408323687E+03  0.17991998914E+03  0.78925370924E+02 0.  0.
         24    2    1    2    0    0  0.27292334597E+02  0.16666690618E+03 -0.16230422208E+02  0.18786533789E+03  0.80667400060E+02 0.  0.
        -11    1    4    4    0    0  0.41982922848E+02 -0.92862163293E+01 -0.52176712791E+02  0.67610716474E+02  0.00000000000E+00 0.  1.
         12    1    4    4    0    0  0.47595586167E+02  0.80719360631E+02 -0.61906524084E+02  0.11230927267E+03  0.00000000000E+00 0. -1.
        -13    1    5    5    0    0  0.23742465777E+02  0.16456624712E+02  0.17632857330E+02  0.33844391496E+02  0.00000000000E+00 0.  1.
         14    1    5    5    0    0  0.35498688192E+01  0.15021028147E+03 -0.33863279538E+02  0.15402094640E+03  0.00000000000E+00 0. -1.
          5    1    3    3  501    0  0.52817837641E+02  0.15889138753E+01 -0.36413179878E+02  0.64344838870E+02  0.47000000000E+01 0.  1.
         -5    1    3    3    0  501  0.19375182588E+02  0.74038335562E+01 -0.31430565283E+03  0.31502436073E+03  0.47000000000E+01 0.  1.
          1    1    1    2  502    0 -0.19501289383E+02  0.47793634667E+02 -0.50103942176E+03  0.50369140747E+03  0.00000000000E+00 0. -1.
          1    1    1    2  503    0 -0.16956257446E+03 -0.29488643258E+03  0.13809104139E+04  0.14221895253E+04  0.00000000000E+00 0. -1.
<mgrwt>
<rscale>  0 0.12643595E+03</rscale>
<asrwt>0</asrwt>
<pdfrwt beam="1">  1        2 0.22587308E+00 0.30969251E+03</pdfrwt>
<pdfrwt beam="2">  1        2 0.16722037E+00 0.51619103E+02</pdfrwt>
<totfact> 0.56267684E+01</totfact>
</mgrwt>
</event>
<event>
13    1  0.2742815E-008  0.5382382E+02  0.7546771E-02  0.1440098E+00
          2   -1    0    0  503    0  0.00000000000E+00  0.00000000000E+00  0.71018475675E+03  0.71018475675E+03  0.00000000000E+00 0. -1.
          2   -1    0    0  502    0 -0.00000000000E+00 -0.00000000000E+00 -0.46593025580E+04  0.46593025580E+04  0.00000000000E+00 0. -1.
         25    2    1    2    0    0  0.13241882172E+03  0.61218882768E+02 -0.23679796294E+03  0.30492203738E+03  0.12498670997E+03 0.  0.
         24    2    1    2    0    0  0.11022325516E+03 -0.63723203876E+02  0.28971457998E+02  0.15704234784E+03  0.87253314817E+02 0.  0.
         24    2    1    2    0    0 -0.25413308131E+03  0.24692962890E+02  0.19417603022E+03  0.33085925514E+03  0.81056465315E+02 0.  0.
        -13    1    5    5    0    0 -0.14934916392E+03 -0.18445914416E+01  0.66286738205E+02  0.16340901732E+03  0.00000000000E+00 0.  1.
         14    1    5    5    0    0 -0.10478391739E+03  0.26537554331E+02  0.12788929201E+03  0.16745023782E+03  0.00000000000E+00 0. -1.
        -13    1    4    4    0    0  0.30250465889E+01 -0.41832830338E+02 -0.55668378818E+01  0.42309884010E+02  0.00000000000E+00 0.  1.
         14    1    4    4    0    0  0.10719820857E+03 -0.21890373538E+02  0.34538295879E+02  0.11473246383E+03  0.00000000000E+00 0. -1.
          5    1    3    3  501    0  0.15666272150E+03  0.48729490397E+02 -0.19640697672E+03  0.25596007901E+03  0.47000000000E+01 0.  1.
         -5    1    3    3    0  501 -0.24243899786E+02  0.12489392372E+02 -0.40390986227E+02  0.48961958366E+02  0.47000000000E+01 0.  1.
          1    1    1    2  502    0 -0.42569917039E+02 -0.22811904102E+02 -0.42536481259E+04  0.42539223030E+04  0.00000000000E+00 0. -1.
          1    1    1    2  503    0  0.54060921472E+02  0.62326231980E+00  0.31818079941E+03  0.32274137138E+03  0.00000000000E+00 0. -1.
<mgrwt>
<rscale>  0 0.50985471E+02</rscale>
<asrwt>0</asrwt>
<pdfrwt beam="1">  1        2 0.10443893E+00 0.53823820E+02</pdfrwt>
<pdfrwt beam="2">  1        2 0.68519157E+00 0.48296799E+02</pdfrwt>
<totfact> 0.20339467E+00</totfact>
</mgrwt>
</event>
<event>
13    1  0.2742815E-008  0.5405225E+02  0.7546771E-02  0.1487865E+00
          2   -1    0    0  502    0  0.00000000000E+00  0.00000000000E+00  0.21206083247E+04  0.21206083247E+04  0.00000000000E+00 0. -1.
          2   -1    0    0  503    0 -0.00000000000E+00 -0.00000000000E+00 -0.15565430459E+04  0.15565430459E+04  0.00000000000E+00 0. -1.
         25    2    1    2    0    0 -0.26935230522E+02 -0.11306588133E+03 -0.59544102625E+03  0.61942281688E+03  0.12500084065E+03 0.  0.
         24    2    1    2    0    0 -0.32580170071E+03 -0.18762649194E+02  0.20054415370E+03  0.39160917882E+03  0.81492368736E+02 0.  0.
         24    2    1    2    0    0  0.37652153724E+03  0.13301462754E+03  0.12017353961E+04  0.12688589915E+04  0.79836200371E+02 0.  0.
        -11    1    5    5    0    0  0.20012782608E+03  0.11145892667E+03  0.70616067147E+03  0.74238610779E+03  0.00000000000E+00 0.  1.
         12    1    5    5    0    0  0.17639371116E+03  0.21555700872E+02  0.49557472464E+03  0.52647288371E+03  0.00000000000E+00 0. -1.
        -11    1    4    4    0    0 -0.13051046764E+02 -0.12292347972E+01  0.34870761967E+02  0.37253333810E+02  0.00000000000E+00 0.  1.
         12    1    4    4    0    0 -0.31275065395E+03 -0.17533414397E+02  0.16567339173E+03  0.35435584501E+03  0.00000000000E+00 0. -1.
          5    1    3    3  501    0 -0.29891721821E+02 -0.13583922521E+03 -0.42081010655E+03  0.44322572795E+03  0.47000000000E+01 0.  1.
         -5    1    3    3    0  501  0.29564912996E+01  0.22773343880E+02 -0.17463091971E+03  0.17619708894E+03  0.47000000000E+01 0.  1.
          1    1    1    2  502    0  0.23951153794E+02  0.24210229034E+02  0.57584860050E+03  0.57685475091E+03  0.00000000000E+00 0. -1.
          1    1    1    2  503    0 -0.47735759799E+02 -0.25396326048E+02 -0.81862184525E+03  0.82040563239E+03  0.00000000000E+00 0. -1.
<mgrwt>
<rscale>  0 0.42904417E+02</rscale>
<asrwt>0</asrwt>
<pdfrwt beam="1">  1        2 0.31185417E+00 0.34055733E+02</pdfrwt>
<pdfrwt beam="2">  1        2 0.22890339E+00 0.54052249E+02</pdfrwt>
<totfact> 0.22392578E+01</totfact>
</mgrwt>
</event>
<event>
13    1  0.2742815E-008  0.1391897E+03  0.7546771E-02  0.1230086E+00
          2   -1    0    0  502    0  0.00000000000E+00  0.00000000000E+00  0.17475089457E+04  0.17475089457E+04  0.00000000000E+00 0. -1.
          2   -1    0    0  503    0 -0.00000000000E+00 -0.00000000000E+00 -0.47273335479E+04  0.47273335479E+04  0.00000000000E+00 0. -1.
         25    2    1    2    0    0  0.74761468995E+01 -0.27042896528E+03 -0.38990011284E+03  0.49074920220E+03  0.12499985374E+03 0.  0.
         24    2    1    2    0    0 -0.94543982230E+02  0.17744467317E+03  0.26562048268E+03  0.34280601116E+03  0.80848895216E+02 0.  0.
         24    2    1    2    0    0  0.12919289433E+03 -0.36928462740E+02  0.10991119592E+03  0.19261731666E+03  0.83465228584E+02 0.  0.
        -11    1    4    4    0    0 -0.75241949087E+02  0.17311360955E+03  0.20328381926E+03  0.27740581084E+03  0.00000000000E+00 0.  1.
         12    1    4    4    0    0 -0.19302033143E+02  0.43310636116E+01  0.62336663422E+02  0.65400200321E+02  0.00000000000E+00 0. -1.
        -11    1    5    5    0    0  0.40566991608E+02  0.93564440111E+01  0.76684477448E+02  0.87256707101E+02  0.00000000000E+00 0.  1.
         12    1    5    5    0    0  0.88625902721E+02 -0.46284906751E+02  0.33226718476E+02  0.10536060956E+03  0.00000000000E+00 0. -1.
          5    1    3    3  501    0  0.54492965416E+02 -0.95432278811E+02 -0.19982916792E+03  0.22810214701E+03  0.47000000000E+01 0. -1.
         -5    1    3    3    0  501 -0.47016818517E+02 -0.17499668647E+03 -0.19007094492E+03  0.26264705520E+03  0.47000000000E+01 0. -1.
          1    1    1    2  502    0 -0.12997438735E+03  0.50896313791E+02  0.12368507777E+04  0.12447022224E+04  0.00000000000E+00 0. -1.
          1    1    1    2  503    0  0.87849328351E+02  0.79016441068E+02 -0.42023069457E+04  0.42039677412E+04  0.00000000000E+00 0. -1.
<mgrwt>
<rscale>  0 0.12824295E+03</rscale>
<asrwt>0</asrwt>
<pdfrwt beam="1">  1        2 0.25698662E+00 0.13918970E+03</pdfrwt>
<pdfrwt beam="2">  1        2 0.69519610E+00 0.11815711E+03</pdfrwt>
<totfact> 0.36485405E-01</totfact>
</mgrwt>
</event>
<event>
13    1  0.2742815E-008  0.1825032E+03  0.7546771E-02  0.1393900E+00
          2   -1    0    0  503    0  0.00000000000E+00  0.00000000000E+00  0.30181890240E+04  0.30181890240E+04  0.00000000000E+00 0. -1.
          2   -1    0    0  502    0 -0.00000000000E+00 -0.00000000000E+00 -0.67207613533E+03  0.67207613533E+03  0.00000000000E+00 0. -1.
         25    2    1    2    0    0 -0.70093500643E+02  0.73783111078E+02  0.13661375494E+03  0.21129471865E+03  0.12500037512E+03 0.  0.
         24    2    1    2    0    0 -0.96984818781E+02 -0.72838435063E+02  0.17690332923E+04  0.17749474590E+04  0.79045558379E+02 0.  0.
         24    2    1    2    0    0 -0.18959153214E+02  0.44278578085E+01  0.59045953773E+03  0.59597762720E+03  0.78535412423E+02 0.  0.
        -11    1    5    5    0    0  0.14350035405E+02  0.59114203397E+00  0.20487341027E+02  0.25020074088E+02  0.00000000000E+00 0.  1.
         12    1    5    5    0    0 -0.33309188619E+02  0.38367157746E+01  0.56997219671E+03  0.57095755311E+03  0.00000000000E+00 0. -1.
        -13    1    4    4    0    0 -0.36426505966E+02 -0.68848938803E+02  0.73013125987E+03  0.73427428346E+03  0.00000000000E+00 0.  1.
         14    1    4    4    0    0 -0.60558312815E+02 -0.39894962599E+01  0.10389020324E+04  0.10406731755E+04  0.00000000000E+00 0. -1.
          5    1    3    3  501    0 -0.30923724546E+02  0.37566668417E+02  0.14858472337E+03  0.15641944040E+03  0.47000000000E+01 0.  1.
         -5    1    3    3    0  501 -0.39169776097E+02  0.36216442662E+02 -0.11970968431E+02  0.54875278257E+02  0.47000000000E+01 0.  1.
          1    1    1    2  502    0  0.18251535183E+03  0.14673662699E+02 -0.61546725698E+03  0.64212702361E+03  0.00000000000E+00 0. -1.
          1    1    1    2  503    0  0.35221208047E+01 -0.20046196522E+02  0.46547356071E+03  0.46591833088E+03  0.00000000000E+00 0. -1.
<mgrwt>
<rscale>  0 0.60946983E+02</rscale>
<asrwt>0</asrwt>
<pdfrwt beam="1">  1        2 0.44385132E+00 0.20353263E+02</pdfrwt>
<pdfrwt beam="2">  1        2 0.98834727E-01 0.18250315E+03</pdfrwt>
<totfact> 0.27329389E+01</totfact>
</mgrwt>
</event>
<event>
13    1  0.2742815E-008  0.6644768E+02  0.7546771E-02  0.1444128E+00
          2   -1    0    0  502    0  0.00000000000E+00  0.00000000000E+00  0.25367954735E+04  0.25367954735E+04  0.00000000000E+00 0. -1.
          2   -1    0    0  503    0 -0.00000000000E+00 -0.00000000000E+00 -0.12793548320E+04  0.12793548320E+04  0.00000000000E+00 0. -1.
         25    2    1    2    0    0  0.77433300926E+02  0.27854945029E+03 -0.34665036502E+03  0.46837676284E+03  0.12499841620E+03 0.  0.
         24    2    1    2    0    0  0.74628140948E+02  0.13180332129E+03  0.16485492270E+03  0.23020361073E+03  0.53619790474E+02 0.  0.
         24    2    1    2    0    0 -0.17206037929E+03 -0.43069430620E+03  0.16420140105E+04  0.17080973723E+04  0.79273344188E+02 0.  0.
        -11    1    4    4    0    0  0.49419903071E+02  0.84917506937E+02  0.14103560646E+03  0.17188470581E+03  0.00000000000E+00 0.  1.
         12    1    4    4    0    0  0.25208237876E+02  0.46885814349E+02  0.23819316240E+02  0.58318904912E+02  0.00000000000E+00 0. -1.
        -13    1    5    5    0    0 -0.87165984508E+02 -0.19895296407E+03  0.62883660770E+03  0.66529367196E+03  0.00000000000E+00 0.  1.
         14    1    5    5    0    0 -0.84894394778E+02 -0.23174134213E+03  0.10131774027E+04  0.10428037003E+04  0.00000000000E+00 0. -1.
          5    1    3    3  501    0 -0.13439671524E+01  0.30497553318E+02 -0.11778966834E+03  0.12177193015E+03  0.47000000000E+01 0.  1.
         -5    1    3    3    0  501  0.78777268078E+02  0.24805189697E+03 -0.22886069668E+03  0.34660483268E+03  0.47000000000E+01 0.  1.
          1    1    1    2  502    0 -0.25411452562E+02 -0.28205010638E+02  0.60137733802E+03  0.60257444954E+03  0.00000000000E+00 0. -1.
          1    1    1    2  503    0  0.45410389975E+02  0.48546545268E+02 -0.80415526460E+03  0.80689811015E+03  0.00000000000E+00 0. -1.
<mgrwt>
<rscale>  0 0.50225682E+02</rscale>
<asrwt>0</asrwt>
<pdfrwt beam="1">  1        2 0.37305816E+00 0.37963990E+02</pdfrwt>
<pdfrwt beam="2">  1        2 0.18814042E+00 0.66447681E+02</pdfrwt>
<totfact> 0.19005631E+01</totfact>
</mgrwt>
</event>
<event>
13    1  0.2742815E-008  0.1216633E+03  0.7546771E-02  0.1299206E+00
          2   -1    0    0  502    0  0.00000000000E+00  0.00000000000E+00  0.15941552812E+04  0.15941552812E+04  0.00000000000E+00 0. -1.
          4   -1    0    0  503    0 -0.00000000000E+00 -0.00000000000E+00 -0.11956751854E+04  0.11956751854E+04  0.00000000000E+00 0. -1.
         25    2    1    2    0    0  0.12740388029E+02  0.15335883148E+03 -0.66365434918E+03  0.69263490105E+03  0.12499904915E+03 0.  0.
         24    2    1    2    0    0  0.22264210910E+02  0.21155000772E+02 -0.99765418888E+02  0.13035046001E+03  0.78069677052E+02 0.  0.
         24    2    1    2    0    0  0.22795753636E+02 -0.42541437355E+02  0.17337980451E+03  0.19786592829E+03  0.82224988238E+02 0.  0.
        -11    1    4    4    0    0 -0.61274191565E+01  0.45820945140E+02 -0.52660740712E+02  0.70073232346E+02  0.00000000000E+00 0.  1.
         12    1    4    4    0    0  0.28391630066E+02 -0.24665944368E+02 -0.47104678176E+02  0.60277227669E+02  0.00000000000E+00 0. -1.
        -11    1    5    5    0    0  0.44584236952E+02 -0.72901524330E+01  0.13108985314E+03  0.13865586934E+03  0.00000000000E+00 0.  1.
         12    1    5    5    0    0 -0.21788483316E+02 -0.35251284923E+02  0.42289951374E+02  0.59210058952E+02  0.00000000000E+00 0. -1.
          5    1    3    3  501    0  0.16253405640E+02  0.39762792058E+02 -0.43608957673E+03  0.43822535499E+03  0.47000000000E+01 0.  1.
         -5    1    3    3    0  501 -0.35130176106E+01  0.11359603942E+03 -0.22756477245E+03  0.25440954606E+03  0.47000000000E+01 0.  1.
          1    1    1    2  502    0 -0.10948408580E+03 -0.86486414525E+02  0.13721474141E+04  0.13792226764E+04  0.00000000000E+00 0. -1.
          3    1    1    2  503    0  0.51683733221E+02 -0.45485980368E+02 -0.38362735478E+03  0.38975650094E+03  0.00000000000E+00 0. -1.
<mgrwt>
<rscale>  0 0.91522650E+02</rscale>
<asrwt>0</asrwt>
<pdfrwt beam="1">  1        2 0.23443460E+00 0.12166331E+03</pdfrwt>
<pdfrwt beam="2">  1        4 0.17583458E+00 0.68848985E+02</pdfrwt>
<totfact> 0.15567500E+00</totfact>
</mgrwt>
</event>
<event>
13    1  0.2742815E-008  0.6228532E+02  0.7546771E-02  0.1516444E+00
          2   -1    0    0  503    0  0.00000000000E+00  0.00000000000E+00  0.41814941168E+04  0.41814941168E+04  0.00000000000E+00 0. -1.
         -3   -1    0    0    0  501 -0.00000000000E+00 -0.00000000000E+00 -0.48920250160E+02  0.48920250160E+02  0.00000000000E+00 0.  1.
         25    2    1    2    0    0  0.71267920303E+02 -0.59503177142E+02  0.30761695611E+03  0.34480077166E+03  0.12505852989E+03 0.  0.
         24    2    1    2    0    0 -0.16978178531E+02 -0.21220125757E+02  0.28836573714E+03  0.30015727986E+03  0.78746695268E+02 0.  0.
         24    2    1    2    0    0 -0.82718083501E+02  0.11832649473E+03  0.15414978680E+04  0.15502993945E+04  0.79806609761E+02 0.  0.
        -11    1    5    5    0    0 -0.46499844060E+02  0.32725207878E+02  0.30096233533E+03  0.30628663376E+03  0.00000000000E+00 0.  1.
         12    1    5    5    0    0 -0.36218239442E+02  0.85601286852E+02  0.12405355327E+04  0.12440127608E+04  0.00000000000E+00 0. -1.
        -13    1    4    4    0    0  0.22079257538E+02 -0.34251156539E+02  0.11626477588E+03  0.12319956756E+03  0.00000000000E+00 0.  1.
         14    1    4    4    0    0 -0.39057436069E+02  0.13031030782E+02  0.17210096126E+03  0.17695771230E+03  0.00000000000E+00 0. -1.
          5    1    3    3  502    0  0.10662601328E+03 -0.39500232658E+02  0.24301882723E+03  0.26834607409E+03  0.47000000000E+01 0.  1.
         -5    1    3    3    0  502 -0.35358092977E+02 -0.20002944484E+02  0.64598128873E+02  0.76454697573E+02  0.47000000000E+01 0.  1.
          1    1    1    2  503    0 -0.24068458771E+02 -0.33346657343E+01  0.19658154279E+04  0.19659655916E+04  0.00000000000E+00 0. -1.
         -4    1    1    2    0  501  0.52496800500E+02 -0.34268526097E+02  0.29277877508E+02  0.69191329334E+02  0.00000000000E+00 0.  1.
<mgrwt>
<rscale>  0 0.38902849E+02</rscale>
<asrwt>0</asrwt>
<pdfrwt beam="1">  1        2 0.61492536E+00 0.24298368E+02</pdfrwt>
<pdfrwt beam="2">  1       -3 0.71941573E-02 0.62285320E+02</pdfrwt>
<totfact> 0.52529764E+01</totfact>
</mgrwt>
</event>
<event>
13    1  0.2742815E-008  0.1077186E+03  0.7546771E-02  0.1438535E+00
          2   -1    0    0  502    0  0.00000000000E+00  0.00000000000E+00  0.29906648431E+04  0.29906648431E+04  0.00000000000E+00 0. -1.
          2   -1    0    0  503    0 -0.00000000000E+00 -0.00000000000E+00 -0.61422953277E+03  0.61422953277E+03  0.00000000000E+00 0. -1.
         25    2    1    2    0    0 -0.25718025874E+02  0.98166683856E+02 -0.11752228024E+03  0.19933514453E+03  0.12499959527E+03 0.  0.
         24    2    1    2    0    0  0.42434319099E+02 -0.25781884900E+03  0.16583792501E+03  0.31546965531E+03  0.61218099570E+02 0.  0.
         24    2    1    2    0    0  0.41405927373E+02  0.24741804443E+03  0.15985020544E+03  0.30829973627E+03  0.81033941510E+02 0.  0.
        -11    1    5    5    0    0 -0.79137684212E+01  0.17954023396E+03  0.10819155933E+03  0.20976829325E+03  0.00000000000E+00 0.  1.
         12    1    5    5    0    0  0.49319695795E+02  0.67877810472E+02  0.51658646102E+02  0.98531443026E+02  0.00000000000E+00 0. -1.
        -11    1    4    4    0    0  0.40485324413E+01 -0.85523685932E+02  0.87262977004E+02  0.12225186553E+03  0.00000000000E+00 0.  1.
         12    1    4    4    0    0  0.38385786657E+02 -0.17229516307E+03  0.78574948003E+02  0.19321778978E+03  0.00000000000E+00 0. -1.
          5    1    3    3  501    0  0.38060396994E+02  0.45275926784E+02 -0.97224163282E+02  0.11389965448E+03  0.47000000000E+01 0. -1.
         -5    1    3    3    0  501 -0.63778422868E+02  0.52890757072E+02 -0.20298116963E+02  0.85435490047E+02  0.47000000000E+01 0. -1.
          1    1    1    2  502    0 -0.78294728241E+02 -0.74010113128E+02  0.24733692429E+04  0.24757146389E+04  0.00000000000E+00 0. -1.
          1    1    1    2  503    0  0.20172507643E+02 -0.13755766157E+02 -0.30509978276E+03  0.30607520090E+03  0.00000000000E+00 0. -1.
<mgrwt>
<rscale>  0 0.51284310E+02</rscale>
<asrwt>0</asrwt>
<pdfrwt beam="1">  1        2 0.43980365E+00 0.10771863E+03</pdfrwt>
<pdfrwt beam="2">  1        2 0.90327874E-01 0.24416207E+02</pdfrwt>
<totfact> 0.24494007E+01</totfact>
</mgrwt>
</event>
<event>
13    1  0.2742815E-008  0.1601176E+03  0.7546771E-02  0.1408520E+00
          2   -1    0    0  502    0  0.00000000000E+00  0.00000000000E+00  0.41578197712E+04  0.41578197712E+04  0.00000000000E+00 0. -1.
          2   -1    0    0  503    0 -0.00000000000E+00 -0.00000000000E+00 -0.18581660407E+04  0.18581660407E+04  0.00000000000E+00 0. -1.
         25    2    1    2    0    0 -0.12075880192E+03 -0.55554089675E+02 -0.55892984636E+03  0.58795877101E+03  0.12499599248E+03 0.  0.
         24    2    1    2    0    0  0.10189190955E+03  0.86738870926E+01  0.61532606949E+03  0.62895511312E+03  0.80629802048E+02 0.  0.
         24    2    1    2    0    0 -0.79361014008E+01 -0.11742011840E+03  0.43866677860E+03  0.46122303113E+03  0.80297421397E+02 0.  0.
        -13    1    4    4    0    0  0.91306019543E+02  0.13858122473E+02  0.60822056969E+03  0.61519191977E+03  0.00000000000E+00 0.  1.
         14    1    4    4    0    0  0.10585890003E+02 -0.51842353799E+01  0.71054997995E+01  0.13763193345E+02  0.00000000000E+00 0. -1.
        -13    1    5    5    0    0 -0.37184634299E+01 -0.10423139264E+03  0.43438308484E+03  0.44672886024E+03  0.00000000000E+00 0.  1.
         14    1    5    5    0    0 -0.42176379709E+01 -0.13188725769E+02  0.42836937676E+01  0.14494170889E+02  0.00000000000E+00 0. -1.
          5    1    3    3  501    0 -0.10921126902E+03 -0.75885047946E+02 -0.54350011785E+03  0.55955349154E+03  0.47000000000E+01 0. -1.
         -5    1    3    3    0  501 -0.11547532903E+02  0.20330958271E+02 -0.15429728505E+02  0.28405279475E+02  0.47000000000E+01 0. -1.
          1    1    1    2  502    0  0.62497661834E+01  0.16646643543E+03  0.30688764107E+04  0.30733943057E+04  0.00000000000E+00 0. -1.
          1    1    1    2  503    0  0.20553227593E+02 -0.21661144386E+01 -0.12642856820E+04  0.12644545911E+04  0.00000000000E+00 0. -1.
<mgrwt>
<rscale>  0 0.57525288E+02</rscale>
<asrwt>0</asrwt>
<pdfrwt beam="1">  1        2 0.61144409E+00 0.16011757E+03</pdfrwt>
<pdfrwt beam="2">  1        2 0.27325971E+00 0.20667056E+02</pdfrwt>
<totfact> 0.10294450E+00</totfact>
</mgrwt>
</event>
<event>
13    1  0.2742815E-008  0.1010629E+03  0.7546771E-02  0.1492115E+00
          2   -1    0    0  502    0  0.00000000000E+00  0.00000000000E+00  0.18597912815E+04  0.18597912815E+04  0.00000000000E+00 0. -1.
          4   -1    0    0  503    0 -0.00000000000E+00 -0.00000000000E+00 -0.26751918318E+04  0.26751918318E+04  0.00000000000E+00 0. -1.
         25    2    1    2    0    0 -0.73415500508E+02  0.26683526971E+03 -0.54434133256E+03  0.62331588817E+03  0.12499725290E+03 0.  0.
         24    2    1    2    0    0  0.83644370954E+02 -0.28222722568E+03 -0.13483073513E+03  0.33339550584E+03  0.79527658544E+02 0.  0.
         24    2    1    2    0    0  0.22330099518E+03  0.20091564202E+02  0.15938059266E+03  0.28187396372E+03  0.61512215904E+02 0.  0.
        -11    1    4    4    0    0  0.26956266311E+02 -0.23588566935E+02 -0.35970408019E+02  0.50763481328E+02  0.00000000000E+00 0.  1.
         12    1    4    4    0    0  0.56688104643E+02 -0.25863865874E+03 -0.98860327112E+02  0.28263202451E+03  0.00000000000E+00 0. -1.
        -11    1    5    5    0    0  0.20996734098E+03  0.27556142922E+01  0.15009870643E+03  0.25811528308E+03  0.00000000000E+00 0.  1.
         12    1    5    5    0    0  0.13333654200E+02  0.17335949910E+02  0.92818862261E+01  0.23758680635E+02  0.00000000000E+00 0. -1.
          5    1    3    3  501    0  0.16695423572E+02  0.46868184237E+02 -0.19101219337E+03  0.19744141378E+03  0.47000000000E+01 0. -1.
         -5    1    3    3    0  501 -0.90110924079E+02  0.21996708547E+03 -0.35332913919E+03  0.42587447438E+03  0.47000000000E+01 0. -1.
          1    1    1    2  502    0 -0.24886732075E+03 -0.13500037882E+02  0.14900001160E+04  0.15107010094E+04  0.00000000000E+00 0. -1.
          3    1    1    2  503    0  0.15337455127E+02  0.88004296511E+01 -0.17856091912E+04  0.17856967461E+04  0.00000000000E+00 0. -1.
<mgrwt>
<rscale>  0 0.42273927E+02</rscale>
<asrwt>0</asrwt>
<pdfrwt beam="1">  1        2 0.27349872E+00 0.10106287E+03</pdfrwt>
<pdfrwt beam="2">  1        4 0.39341057E+00 0.17682904E+02</pdfrwt>
<totfact> 0.74066116E-02</totfact>
</mgrwt>
</event>
<event>
13    1  0.2742815E-008  0.9529845E+02  0.7546771E-02  0.1433530E+00
          4   -1    0    0  503    0 -0.00000000000E+00  0.00000000000E+00  0.61399533374E+03  0.61399533374E+03  0.00000000000E+00 0. -1.
          2   -1    0    0  502    0  0.00000000000E+00 -0.00000000000E+00 -0.82134773753E+03  0.82134773753E+03  0.00000000000E+00 0. -1.
         25    2    1    2    0    0 -0.21064708787E+03 -0.16576989676E+02  0.68887694607E+02  0.25499326061E+03  0.12501622404E+03 0.  0.
         24    2    1    2    0    0  0.11881536134E+03  0.10465781109E+03 -0.25637684929E+03  0.31178498044E+03  0.80065208836E+02 0.  0.
         24    2    1    2    0    0  0.25314906303E+02  0.18195290659E+01 -0.34773454157E+02  0.91371978981E+02  0.80594604421E+02 0.  0.
        -11    1    5    5    0    0 -0.28039481571E+02 -0.81691232715E+01 -0.19013333540E+02  0.34849016544E+02  0.00000000000E+00 0.  1.
         12    1    5    5    0    0  0.53354387873E+02  0.99886523374E+01 -0.15760120617E+02  0.56522962437E+02  0.00000000000E+00 0. -1.
        -13    1    4    4    0    0  0.35340058261E+02  0.29870974270E+02 -0.20450428565E+02  0.50590659713E+02  0.00000000000E+00 0.  1.
         14    1    4    4    0    0  0.83475303077E+02  0.74786836820E+02 -0.23592642073E+03  0.26119432073E+03  0.00000000000E+00 0. -1.
          5    1    3    3  501    0  0.66384676476E+01  0.16477062399E+01  0.32917808682E+02  0.33947847015E+02  0.47000000000E+01 0.  1.
         -5    1    3    3    0  501 -0.21728555551E+03 -0.18224695916E+02  0.35969885925E+02  0.22104541359E+03  0.47000000000E+01 0.  1.
          1    1    1    2  502    0  0.28511504526E+02 -0.28768387003E+01 -0.37489451943E+03  0.37598814182E+03  0.00000000000E+00 0. -1.
          3    1    1    2  503    0  0.38005315700E+02 -0.87023511779E+02  0.38980472449E+03  0.40120470942E+03  0.00000000000E+00 0. -1.
<mgrwt>
<rscale>  0 0.52258000E+02</rscale>
<asrwt>0</asrwt>
<pdfrwt beam="2">  1        2 0.12078643E+00 0.28656275E+02</pdfrwt>
<pdfrwt beam="1">  1        4 0.90293432E-01 0.95298449E+02</pdfrwt>
<totfact> 0.21803342E+01</totfact>
</mgrwt>
</event>
<event>
13    1  0.2742815E-008  0.6206135E+02  0.7546771E-02  0.1504947E+00
          2   -1    0    0  502    0  0.00000000000E+00  0.00000000000E+00  0.27894396386E+04  0.27894396386E+04  0.00000000000E+00 0. -1.
          2   -1    0    0  503    0 -0.00000000000E+00 -0.00000000000E+00 -0.12730727279E+04  0.12730727279E+04  0.00000000000E+00 0. -1.
         25    2    1    2    0    0 -0.37101919247E+03  0.11677316953E+03  0.16597742722E+03  0.44097367727E+03  0.12497225049E+03 0.  0.
         24    2    1    2    0    0 -0.18139457565E+03 -0.69678897143E+03  0.40165860243E+03  0.83035362074E+03  0.98684546768E+02 0.  0.
         24    2    1    2    0    0  0.47487668835E+03  0.60990056497E+03  0.64171517432E+03  0.10077439683E+04  0.79138943157E+02 0.  0.
        -13    1    4    4    0    0 -0.47093276308E+02 -0.11757225256E+03  0.33463543530E+02  0.13099931295E+03  0.00000000000E+00 0.  1.
         14    1    4    4    0    0 -0.13430129935E+03 -0.57921671887E+03  0.36819505890E+03  0.69935430779E+03  0.00000000000E+00 0. -1.
        -13    1    5    5    0    0  0.19974865923E+03  0.30112272690E+03  0.26247329911E+03  0.44661690101E+03  0.00000000000E+00 0.  1.
         14    1    5    5    0    0  0.27512802912E+03  0.30877783806E+03  0.37924187521E+03  0.56112706725E+03  0.00000000000E+00 0. -1.
          5    1    3    3  501    0 -0.30495657058E+03  0.41048883164E+02  0.13101646087E+03  0.33447111052E+03  0.47000000000E+01 0.  1.
         -5    1    3    3    0  501 -0.66062621886E+02  0.75724286366E+02  0.34960966355E+02  0.10650256675E+03  0.47000000000E+01 0.  1.
          1    1    1    2  502    0  0.61361837589E+02 -0.90705405225E+01  0.10440723151E+04  0.10459132607E+04  0.00000000000E+00 0. -1.
          1    1    1    2  503    0  0.16175242184E+02 -0.20814222538E+02 -0.73705660833E+03  0.73752783961E+03  0.00000000000E+00 0. -1.
<mgrwt>
<rscale>  0 0.40447021E+02</rscale>
<asrwt>0</asrwt>
<pdfrwt beam="1">  1        2 0.41021171E+00 0.62061348E+02</pdfrwt>
<pdfrwt beam="2">  1        2 0.18721658E+00 0.26360393E+02</pdfrwt>
<totfact> 0.14246858E+01</totfact>
</mgrwt>
</event>
<event>
13    1  0.2742815E-008  0.3593568E+02  0.7546771E-02  0.1556473E+00
          2   -1    0    0  502    0  0.00000000000E+00  0.00000000000E+00  0.37240102642E+04  0.37240102642E+04  0.00000000000E+00 0. -1.
          2   -1    0    0  503    0 -0.00000000000E+00 -0.00000000000E+00 -0.18170289526E+04  0.18170289526E+04  0.00000000000E+00 0. -1.
         25    2    1    2    0    0 -0.14315886911E+03 -0.53321169850E+02 -0.85360928242E+03  0.87613437808E+03  0.12500012985E+03 0.  0.
         24    2    1    2    0    0  0.13013834200E+03  0.66325523821E+02  0.19877779649E+03  0.25952873929E+03  0.80669021139E+02 0.  0.
         24    2    1    2    0    0  0.73882418597E+01  0.18568940667E+02  0.75769399175E+02  0.11313677357E+03  0.81605980212E+02 0.  0.
        -13    1    4    4    0    0  0.56460109586E+02  0.57745045444E+02  0.54894298858E+02  0.97650490500E+02  0.00000000000E+00 0.  1.
         14    1    4    4    0    0  0.73678232418E+02  0.85804783775E+01  0.14388349763E+03  0.16187824879E+03  0.00000000000E+00 0. -1.
        -13    1    5    5    0    0 -0.12479365667E+02  0.12726484191E+02 -0.12950447152E+02  0.22032068644E+02  0.00000000000E+00 0.  1.
         14    1    5    5    0    0  0.19867607526E+02  0.58424564759E+01  0.88719846328E+02  0.91104704922E+02  0.00000000000E+00 0. -1.
          5    1    3    3  501    0  0.10528339211E+02 -0.12318278165E+02 -0.15049295932E+02  0.22608786158E+02  0.47000000000E+01 0.  1.
         -5    1    3    3    0  501 -0.15368720832E+03 -0.41002891686E+02 -0.83855998649E+03  0.85352559192E+03  0.47000000000E+01 0.  1.
          1    1    1    2  502    0  0.33006399519E+02 -0.14215740988E+02  0.33887552153E+04  0.33889457681E+04  0.00000000000E+00 0. -1.
          1    1    1    2  503    0 -0.27374114274E+02 -0.17357553650E+02 -0.90271181707E+03  0.90329355776E+03  0.00000000000E+00 0. -1.
<mgrwt>
<rscale>  0 0.34129115E+02</rscale>
<asrwt>0</asrwt>
<pdfrwt beam="1">  1        2 0.54764857E+00 0.35935676E+02</pdfrwt>
<pdfrwt beam="2">  1        2 0.26721014E+00 0.32413374E+02</pdfrwt>
<totfact> 0.26902285E+00</totfact>
</mgrwt>
</event>
<event>
13    1  0.2742815E-008  0.2757763E+03  0.7546771E-02  0.1279635E+00
          2   -1    0    0  503    0  0.00000000000E+00  0.00000000000E+00  0.26014058892E+04  0.26014058892E+04  0.00000000000E+00 0. -1.
          2   -1    0    0  502    0 -0.00000000000E+00 -0.00000000000E+00 -0.24793574575E+04  0.24793574575E+04  0.00000000000E+00 0. -1.
         25    2    1    2    0    0  0.48461827162E+03 -0.32959164978E+03 -0.12269223039E+03  0.61169163944E+03  0.12501101378E+03 0.  0.
         24    2    1    2    0    0 -0.25867445123E+03  0.73272706754E+03 -0.45935400681E+02  0.78123667497E+03  0.66477470274E+02 0.  0.
         24    2    1    2    0    0 -0.66103856781E+02 -0.14609332374E+03  0.40568830555E+02  0.18491664200E+03  0.82676207908E+02 0.  0.
        -11    1    4    4    0    0 -0.14185912316E+03  0.40203340508E+03 -0.58325685693E+02  0.43029844902E+03  0.00000000000E+00 0.  1.
         12    1    4    4    0    0 -0.11681532807E+03  0.33069366246E+03  0.12390285013E+02  0.35093822594E+03  0.00000000000E+00 0. -1.
        -11    1    5    5    0    0 -0.46135304306E+02 -0.20348551648E+02 -0.25635266112E+01  0.50488627692E+02  0.00000000000E+00 0.  1.
         12    1    5    5    0    0 -0.19968552475E+02 -0.12574477209E+03  0.43132357167E+02  0.13442801431E+03  0.00000000000E+00 0. -1.
          5    1    3    3  501    0  0.88501638659E+02 -0.59277964468E+02 -0.73693621968E+02  0.12961194789E+03  0.47000000000E+01 0.  1.
         -5    1    3    3    0  501  0.39611663296E+03 -0.27031368531E+03 -0.48998608425E+02  0.48207969155E+03  0.47000000000E+01 0.  1.
          1    1    1    2  502    0 -0.33434592339E+02 -0.14616479523E+02 -0.16162401224E+04  0.16166519869E+04  0.00000000000E+00 0. -1.
          1    1    1    2  503    0 -0.12640537127E+03 -0.24242561449E+03  0.18663473546E+04  0.18862664034E+04  0.00000000000E+00 0. -1.
<mgrwt>
<rscale>  0 0.10031476E+03</rscale>
<asrwt>0</asrwt>
<pdfrwt beam="1">  1        2 0.38255969E+00 0.27577625E+03</pdfrwt>
<pdfrwt beam="2">  1        2 0.36461139E+00 0.36489909E+02</pdfrwt>
<totfact> 0.39138851E+00</totfact>
</mgrwt>
</event>
<event>
13    1  0.2742815E-008  0.5284971E+02  0.7546771E-02  0.1521299E+00
          4   -1    0    0  503    0 -0.00000000000E+00  0.00000000000E+00  0.34249345470E+04  0.34249345470E+04  0.00000000000E+00 0. -1.
          2   -1    0    0  502    0  0.00000000000E+00 -0.00000000000E+00 -0.23078390217E+04  0.23078390217E+04  0.00000000000E+00 0. -1.
         25    2    1    2    0    0  0.30309763662E+03 -0.49475640111E+02  0.46278116277E+03  0.56930533026E+03  0.12500455259E+03 0.  0.
         24    2    1    2    0    0 -0.37256510804E+03  0.11964544561E+03 -0.10430132458E+04  0.11168811187E+04  0.80168634618E+02 0.  0.
         24    2    1    2    0    0  0.10250869931E+03 -0.10253781783E+03 -0.22655450971E+03  0.28404669555E+03  0.91288235090E+02 0.  0.
        -11    1    4    4    0    0 -0.52836715361E+02 -0.60435179201E+01 -0.10040973048E+03  0.11362375004E+03  0.00000000000E+00 0.  1.
         12    1    4    4    0    0 -0.31972839268E+03  0.12568896353E+03 -0.94260351532E+03  0.10032573686E+04  0.00000000000E+00 0. -1.
        -13    1    5    5    0    0  0.45039436148E+02  0.77813366805E+01 -0.76766417263E+02  0.89343062565E+02  0.00000000000E+00 0.  1.
         14    1    5    5    0    0  0.57469263165E+02 -0.11031915451E+03 -0.14978809244E+03  0.19470363299E+03  0.00000000000E+00 0. -1.
          5    1    3    3  501    0  0.17460660867E+03 -0.46279108856E+01  0.35488077797E+03  0.39556458628E+03  0.47000000000E+01 0.  1.
         -5    1    3    3    0  501  0.12849102795E+03 -0.44847729225E+02  0.10790038480E+03  0.17374074398E+03  0.47000000000E+01 0.  1.
          1    1    1    2  502    0 -0.20263325109E+02 -0.18916185098E+02 -0.91887450062E+03  0.91929253902E+03  0.00000000000E+00 0. -1.
          3    1    1    2  503    0 -0.12777902779E+02  0.51284197434E+02  0.28427566187E+04  0.28432478852E+04  0.00000000000E+00 0. -1.
<mgrwt>
<rscale>  0 0.38275564E+02</rscale>
<asrwt>0</asrwt>
<pdfrwt beam="2">  1        2 0.33938809E+00 0.27720469E+02</pdfrwt>
<pdfrwt beam="1">  1        4 0.50366685E+00 0.52849713E+02</pdfrwt>
<totfact> 0.80331651E-03</totfact>
</mgrwt>
</event>
<event>
13    1  0.2742815E-008  0.1126099E+03  0.7546771E-02  0.1541897E+00
          2   -1    0    0  503    0  0.00000000000E+00  0.00000000000E+00  0.14049676830E+04  0.14049676830E+04  0.00000000000E+00 0. -1.
          2   -1    0    0  502    0 -0.00000000000E+00 -0.00000000000E+00 -0.38197290202E+04  0.38197290202E+04  0.00000000000E+00 0. -1.
         25    2    1    2    0    0  0.15156039831E+03  0.66898768360E+01 -0.22556886712E+04  0.22642369007E+04  0.12498821018E+03 0.  0.
         24    2    1    2    0    0 -0.25607416800E+03 -0.13125243821E+03 -0.28309826396E+02  0.29917139600E+03  0.76817288798E+02 0.  0.
         24    2    1    2    0    0  0.16114860885E+03  0.21453764066E+03 -0.11666849447E+03  0.30316216769E+03  0.79375619209E+02 0.  0.
        -11    1    5    5    0    0  0.10696726534E+03  0.14128424775E+03 -0.11645289568E+03  0.21204837050E+03  0.00000000000E+00 0.  1.
         12    1    5    5    0    0  0.54181343511E+02  0.73253392904E+02 -0.21559878645E+00  0.91113797196E+02  0.00000000000E+00 0. -1.
        -11    1    4    4    0    0 -0.14316521958E+03 -0.91851509603E+02 -0.50731927253E+02  0.17750129114E+03  0.00000000000E+00 0.  1.
         12    1    4    4    0    0 -0.11290894842E+03 -0.39400928607E+02  0.22422100858E+02  0.12167010486E+03  0.00000000000E+00 0. -1.
          5    1    3    3  501    0  0.16556717462E+03 -0.20851130634E+01 -0.16477121100E+04  0.16560175495E+04  0.47000000000E+01 0. -1.
         -5    1    3    3    0  501 -0.14006776308E+02  0.87749898994E+01 -0.60797656120E+03  0.60821935122E+03  0.47000000000E+01 0. -1.
          1    1    1    2  502    0  0.11358168713E+02 -0.20042038879E+00 -0.11833776842E+04  0.11834322083E+04  0.00000000000E+00 0. -1.
          1    1    1    2  503    0 -0.67993007880E+02 -0.89774658893E+02  0.11692833390E+04  0.11746940306E+04  0.00000000000E+00 0. -1.
<mgrwt>
<rscale>  0 0.35766484E+02</rscale>
<asrwt>0</asrwt>
<pdfrwt beam="1">  1        2 0.20661290E+00 0.11260990E+03</pdfrwt>
<pdfrwt beam="2">  1        2 0.56172485E+00 0.11359937E+02</pdfrwt>
<totfact> 0.44438269E+00</totfact>
</mgrwt>
</event>
<event>
13    1  0.2742815E-008  0.1124709E+03  0.7546771E-02  0.1331444E+00
          2   -1    0    0  502    0  0.00000000000E+00  0.00000000000E+00  0.60389894594E+03  0.60389894594E+03  0.00000000000E+00 0. -1.
          2   -1    0    0  503    0 -0.00000000000E+00 -0.00000000000E+00 -0.18139983333E+04  0.18139983333E+04  0.00000000000E+00 0. -1.
         25    2    1    2    0    0 -0.64162296664E+02  0.72572508709E+02 -0.32072407360E+03  0.35759181221E+03  0.12499761375E+03 0.  0.
         24    2    1    2    0    0  0.10047263838E+03 -0.36987063594E+02  0.53102794450E+02  0.14435593993E+03  0.80968738902E+02 0.  0.
         24    2    1    2    0    0 -0.73670026907E+02  0.72896706790E+02  0.24184629005E+02  0.13317688401E+03  0.80062372117E+02 0.  0.
        -11    1    5    5    0    0 -0.86118285262E+02  0.70523680413E+02  0.34823942374E+02  0.11663042278E+03  0.00000000000E+00 0.  1.
         12    1    5    5    0    0  0.12448258354E+02  0.23730263766E+01 -0.10639313369E+02  0.16546461229E+02  0.00000000000E+00 0. -1.
        -11    1    4    4    0    0  0.92189568247E+02  0.40905395334E+01  0.34701020866E+02  0.98589096031E+02  0.00000000000E+00 0.  1.
         12    1    4    4    0    0  0.82830701289E+01 -0.41077603127E+02  0.18401773585E+02  0.45766843899E+02  0.00000000000E+00 0. -1.
          5    1    3    3  501    0 -0.56095250729E+02 -0.20029295269E+02 -0.17265651969E+03  0.18270252766E+03  0.47000000000E+01 0.  1.
         -5    1    3    3    0  501 -0.80670459350E+01  0.92601803978E+02 -0.14806755391E+03  0.17488928455E+03  0.47000000000E+01 0.  1.
          1    1    1    2  502    0 -0.12456413642E+02 -0.13344099942E+03  0.39646599541E+03  0.41850561296E+03  0.00000000000E+00 0. -1.
          1    1    1    2  503    0  0.49816098837E+02  0.24958847512E+02 -0.13631287327E+04  0.13642670302E+04  0.00000000000E+00 0. -1.
<mgrwt>
<rscale>  0 0.79162795E+02</rscale>
<asrwt>0</asrwt>
<pdfrwt beam="1">  1        2 0.88808668E-01 0.11247093E+03</pdfrwt>
<pdfrwt beam="2">  1        2 0.26676446E+00 0.55718828E+02</pdfrwt>
<totfact> 0.99755412E+01</totfact>
</mgrwt>
</event>
<event>
13    1  0.2742815E-008  0.5052799E+02  0.7546771E-02  0.1470068E+00
          2   -1    0    0  503    0  0.00000000000E+00  0.00000000000E+00  0.98796317757E+03  0.98796317757E+03  0.00000000000E+00 0. -1.
         -1   -1    0    0    0  501 -0.00000000000E+00 -0.00000000000E+00 -0.53499193717E+03  0.53499193717E+03  0.00000000000E+00 0.  1.
         25    2    1    2    0    0 -0.29912645817E+02  0.11793582858E+03 -0.39268540794E+02  0.17880443285E+03  0.12500152347E+03 0.  0.
         24    2    1    2    0    0  0.25334303336E+03 -0.69496563070E+02 -0.53946234485E+02  0.27948659258E+03  0.78677152875E+02 0.  0.
         24    2    1    2    0    0 -0.25822767079E+03 -0.22935905990E+02  0.20195756295E+03  0.33313637686E+03  0.54638837917E+02 0.  0.
        -11    1    5    5    0    0 -0.51091124599E+02 -0.23132202027E+02  0.28216744972E+02  0.62782055400E+02  0.00000000000E+00 0.  1.
         12    1    5    5    0    0 -0.20713654619E+03  0.19629603627E+00  0.17374081798E+03  0.27035432146E+03  0.00000000000E+00 0. -1.
        -11    1    4    4    0    0  0.16613862948E+03 -0.28210700906E+02  0.86875639560E+00  0.16851896803E+03  0.00000000000E+00 0.  1.
         12    1    4    4    0    0  0.87204403888E+02 -0.41285862164E+02 -0.54814990881E+02  0.11096762455E+03  0.00000000000E+00 0. -1.
          5    1    3    3  502    0 -0.29508119498E+02  0.12266019317E+03  0.12263804383E+02  0.12684140886E+03  0.47000000000E+01 0. -1.
         -5    1    3    3    0  502 -0.40452631968E+00 -0.47243645930E+01 -0.51532345177E+02  0.51963023986E+02  0.47000000000E+01 0. -1.
          1    1    1    2  503    0 -0.14122458723E+02 -0.38830267657E+02  0.53374707795E+03  0.53534397984E+03  0.00000000000E+00 0. -1.
         -2    1    1    2    0  501  0.48919741963E+02  0.13326908140E+02 -0.18951862523E+03  0.19618373262E+03  0.00000000000E+00 0.  1.
<mgrwt>
<rscale>  0 0.45691901E+02</rscale>
<asrwt>0</asrwt>
<pdfrwt beam="1">  1        2 0.14528870E+00 0.41318683E+02</pdfrwt>
<pdfrwt beam="2">  1       -1 0.78675285E-01 0.50527986E+02</pdfrwt>
<totfact> 0.63691094E+01</totfact>
</mgrwt>
</event>
<event>
13    1  0.2742815E-008  0.8091743E+02  0.7546771E-02  0.1393312E+00
          2   -1    0    0  502    0  0.00000000000E+00  0.00000000000E+00  0.39672633038E+04  0.39672633038E+04  0.00000000000E+00 0. -1.
          2   -1    0    0  503    0 -0.00000000000E+00 -0.00000000000E+00 -0.10943506959E+04  0.10943506959E+04  0.00000000000E+00 0. -1.
         25    2    1    2    0    0 -0.11556708981E+02 -0.14747328210E+03  0.26575958436E+03  0.32883341540E+03  0.12498532693E+03 0.  0.
         24    2    1    2    0    0 -0.52993401577E+02  0.17013786736E+03  0.17655786542E+04  0.17763420765E+04  0.79799712022E+02 0.  0.
         24    2    1    2    0    0  0.39593012068E+02  0.15994507019E+02  0.51935504757E+03  0.52730748203E+03  0.80623100350E+02 0.  0.
        -11    1    5    5    0    0  0.61073098316E+02  0.90520022325E+01  0.45366436869E+03  0.45784628589E+03  0.00000000000E+00 0.  1.
         12    1    5    5    0    0 -0.21480086248E+02  0.69425047865E+01  0.65690678879E+02  0.69461196142E+02  0.00000000000E+00 0. -1.
        -13    1    4    4    0    0 -0.24181973880E+01  0.44292247948E+02  0.80674287561E+03  0.80796145839E+03  0.00000000000E+00 0.  1.
         14    1    4    4    0    0 -0.50575204189E+02  0.12584561941E+03  0.95883577860E+03  0.96838061811E+03  0.00000000000E+00 0. -1.
          5    1    3    3  501    0  0.77312733364E+00 -0.14111666824E+03  0.12887796925E+03  0.19117042852E+03  0.47000000000E+01 0. -1.
         -5    1    3    3    0  501 -0.12329836314E+02 -0.63566138621E+01  0.13688161511E+03  0.13766298688E+03  0.47000000000E+01 0. -1.
          1    1    1    2  502    0  0.18929743184E+02  0.42057920772E+02  0.13737328110E+04  0.13745068352E+04  0.00000000000E+00 0. -1.
          1    1    1    2  503    0  0.60273553049E+01 -0.80717013054E+02 -0.10515134893E+04  0.10546241906E+04  0.00000000000E+00 0. -1.
<mgrwt>
<rscale>  0 0.61090449E+02</rscale>
<asrwt>0</asrwt>
<pdfrwt beam="1">  1        2 0.58342107E+00 0.46121620E+02</pdfrwt>
<pdfrwt beam="2">  1        2 0.16093393E+00 0.80917430E+02</pdfrwt>
<totfact> 0.37593735E+00</totfact>
</mgrwt>
</event>
<event>
13    1  0.2742815E-008  0.4507750E+02  0.7546771E-02  0.1574425E+00
          2   -1    0    0  502    0  0.00000000000E+00  0.00000000000E+00  0.10675656962E+04  0.10675656962E+04  0.00000000000E+00 0. -1.
          2   -1    0    0  503    0 -0.00000000000E+00 -0.00000000000E+00 -0.29117349803E+04  0.29117349803E+04  0.00000000000E+00 0. -1.
         25    2    1    2    0    0  0.26445689003E+03 -0.92579515112E+02 -0.41282580120E+03  0.51435217902E+03  0.12499843451E+03 0.  0.
         24    2    1    2    0    0 -0.40727698667E+03  0.14054236923E+02 -0.70064430442E+03  0.81425931098E+03  0.77741358110E+02 0.  0.
         24    2    1    2    0    0  0.10264910166E+03  0.78791312030E+02  0.17036927019E+03  0.22867966999E+03  0.80770008780E+02 0.  0.
        -11    1    4    4    0    0 -0.30864558539E+03  0.11995028187E+02 -0.45898348803E+03  0.55323758040E+03  0.00000000000E+00 0.  1.
         12    1    4    4    0    0 -0.98631401280E+02  0.20592087357E+01 -0.24166081639E+03  0.26102173058E+03  0.00000000000E+00 0. -1.
        -13    1    5    5    0    0  0.72343394521E+02  0.54010507784E+02  0.52403471523E+02  0.10438786093E+03  0.00000000000E+00 0.  1.
         14    1    5    5    0    0  0.30305707143E+02  0.24780804245E+02  0.11796579867E+03  0.12429180906E+03  0.00000000000E+00 0. -1.
          5    1    3    3  501    0  0.19097378627E+02 -0.44726168731E+02 -0.30720276032E+02  0.57714516365E+02  0.47000000000E+01 0. -1.
         -5    1    3    3    0  501  0.24535951140E+03 -0.47853346382E+02 -0.38210552517E+03  0.45663766266E+03  0.47000000000E+01 0. -1.
          1    1    1    2  502    0  0.38905297453E+02  0.22778643160E+02  0.75972211759E+03  0.76105859479E+03  0.00000000000E+00 0. -1.
          1    1    1    2  503    0  0.12656975256E+01 -0.23044677000E+02 -0.16607905663E+04  0.16609509217E+04  0.00000000000E+00 0. -1.
<mgrwt>
<rscale>  0 0.32254643E+02</rscale>
<asrwt>0</asrwt>
<pdfrwt beam="1">  1        2 0.15699495E+00 0.45077496E+02</pdfrwt>
<pdfrwt beam="2">  1        2 0.42819632E+00 0.23079409E+02</pdfrwt>
<totfact> 0.17971730E+01</totfact>
</mgrwt>
</event>
<event>
13    1  0.2742815E-008  0.5477555E+02  0.7546771E-02  0.1512097E+00
          2   -1    0    0  502    0  0.00000000000E+00  0.00000000000E+00  0.18333262450E+04  0.18333262450E+04  0.00000000000E+00 0. -1.
          2   -1    0    0  503    0 -0.00000000000E+00 -0.00000000000E+00 -0.25088926209E+04  0.25088926209E+04  0.00000000000E+00 0. -1.
         25    2    1    2    0    0  0.91408350842E+01  0.34052403317E+02 -0.69296212542E+03  0.70502729888E+03  0.12499545537E+03 0.  0.
         24    2    1    2    0    0  0.32987953659E+02 -0.62086099135E+02 -0.17071220190E+02  0.10912400289E+03  0.81692916806E+02 0.  0.
         24    2    1    2    0    0  0.38910395630E+02  0.46918883788E+02 -0.22472943822E+02  0.10272200253E+03  0.79569944421E+02 0.  0.
        -11    1    4    4    0    0 -0.11704877532E+02  0.10273026600E+02 -0.18347130173E+02  0.24065668891E+02  0.00000000000E+00 0.  1.
         12    1    4    4    0    0  0.44692831191E+02 -0.72359125736E+02  0.12759099830E+01  0.85058334003E+02  0.00000000000E+00 0. -1.
        -13    1    5    5    0    0  0.26097888482E+02 -0.19505951300E+02 -0.76417258672E+01  0.33466070782E+02  0.00000000000E+00 0.  1.
         14    1    5    5    0    0  0.12812507149E+02  0.66424835088E+02 -0.14831217955E+02  0.69255931746E+02  0.00000000000E+00 0. -1.
          5    1    3    3  501    0 -0.35946019532E+02  0.96210195490E-01 -0.64271327672E+02  0.73790372931E+02  0.47000000000E+01 0.  1.
         -5    1    3    3    0  501  0.45086854616E+02  0.33956193121E+02 -0.62869079774E+03  0.63123692595E+03  0.47000000000E+01 0.  1.
          1    1    1    2  502    0 -0.53377519203E+02 -0.12230104861E+02  0.17405919527E+04  0.17414531520E+04  0.00000000000E+00 0. -1.
          1    1    1    2  503    0 -0.27661665170E+02 -0.66550831089E+01 -0.16836520392E+04  0.16838924095E+04  0.00000000000E+00 0. -1.
<mgrwt>
<rscale>  0 0.39476801E+02</rscale>
<asrwt>0</asrwt>
<pdfrwt beam="1">  1        2 0.26960680E+00 0.54775554E+02</pdfrwt>
<pdfrwt beam="2">  1        2 0.36895479E+00 0.28450973E+02</pdfrwt>
<totfact> 0.11252579E+01</totfact>
</mgrwt>
</event>
<event>
13    1  0.2742815E-008  0.1102350E+03  0.7546771E-02  0.1366629E+00
          2   -1    0    0  502    0  0.00000000000E+00  0.00000000000E+00  0.39472086667E+04  0.39472086667E+04  0.00000000000E+00 0. -1.
          2   -1    0    0  503    0 -0.00000000000E+00 -0.00000000000E+00 -0.15487019435E+04  0.15487019435E+04  0.00000000000E+00 0. -1.
         25    2    1    2    0    0 -0.29181585879E+02  0.34505312276E+01 -0.63167969374E+03  0.64459801226E+03  0.12499556315E+03 0.  0.
         24    2    1    2    0    0 -0.13411122095E+03 -0.18228341734E+02 -0.12629286523E+03  0.20177761456E+03  0.80288392076E+02 0.  0.
         24    2    1    2    0    0  0.11883192299E+03 -0.89743384688E+02  0.64003719448E+03  0.66209173698E+03  0.80888545803E+02 0.  0.
        -11    1    5    5    0    0  0.11828744977E+03 -0.67447483735E+02  0.60796762421E+03  0.62302946634E+03  0.00000000000E+00 0.  1.
         12    1    5    5    0    0  0.54447321587E+00 -0.22295900954E+02  0.32069570264E+02  0.39062270637E+02  0.00000000000E+00 0. -1.
        -13    1    4    4    0    0 -0.28843828995E+02 -0.29944380596E+02 -0.68503646982E+01  0.42137393095E+02  0.00000000000E+00 0.  1.
         14    1    4    4    0    0 -0.10526739196E+03  0.11716038863E+02 -0.11944250053E+03  0.15964022146E+03  0.00000000000E+00 0. -1.
          5    1    3    3  501    0 -0.72730275230E+02 -0.51572234969E+00 -0.25044227679E+03  0.26083209716E+03  0.47000000000E+01 0.  1.
         -5    1    3    3    0  501  0.43548689351E+02  0.39662535773E+01 -0.38123741695E+03  0.38376591510E+03  0.47000000000E+01 0.  1.
          1    1    1    2  502    0  0.41697845027E+02 -0.57064601763E+01  0.32476730755E+04  0.32479457630E+04  0.00000000000E+00 0. -1.
          1    1    1    2  503    0  0.27630388150E+01  0.11022765537E+03 -0.73123098779E+03  0.73949748336E+03  0.00000000000E+00 0. -1.
<mgrwt>
<rscale>  0 0.68113191E+02</rscale>
<asrwt>0</asrwt>
<pdfrwt beam="1">  1        2 0.58047186E+00 0.42086506E+02</pdfrwt>
<pdfrwt beam="2">  1        2 0.22775029E+00 0.11023502E+03</pdfrwt>
<totfact> 0.22618113E+00</totfact>
</mgrwt>
</event>
<event>
13    1  0.2742815E-008  0.1498166E+03  0.7546771E-02  0.1338405E+00
          2   -1    0    0  503    0  0.00000000000E+00  0.00000000000E+00  0.16254583715E+04  0.16254583715E+04  0.00000000000E+00 0. -1.
          2   -1    0    0  502    0 -0.00000000000E+00 -0.00000000000E+00 -0.10844221349E+04  0.10844221349E+04  0.00000000000E+00 0. -1.
         25    2    1    2    0    0  0.10285521329E+03  0.16652754614E+03 -0.92349337420E+02  0.24992612500E+03  0.12499619718E+03 0.  0.
         24    2    1    2    0    0 -0.21381402543E+02 -0.80553021395E+02 -0.90434325240E+02  0.14836786659E+03  0.82998210974E+02 0.  0.
         24    2    1    2    0    0 -0.74298175454E+02  0.54411278185E+02  0.56074230800E+02  0.13466496440E+03  0.80681641085E+02 0.  0.
        -11    1    5    5    0    0  0.14903600958E+02  0.23135509352E+02  0.82540240149E+01  0.28731481461E+02  0.00000000000E+00 0.  1.
         12    1    5    5    0    0 -0.89201776412E+02  0.31275768833E+02  0.47820206785E+02  0.10593348294E+03  0.00000000000E+00 0. -1.
        -11    1    4    4    0    0 -0.79063776938E+01  0.13831052198E+02  0.13985121310E+01  0.15992643600E+02  0.00000000000E+00 0.  1.
         12    1    4    4    0    0 -0.13475024849E+02 -0.94384073593E+02 -0.91832837371E+02  0.13237522299E+03  0.00000000000E+00 0. -1.
          5    1    3    3  501    0  0.20913507259E+01  0.11972989386E+03 -0.35216507939E+02  0.12490762051E+03  0.47000000000E+01 0.  1.
         -5    1    3    3    0  501  0.10076386257E+03  0.46797652279E+02 -0.57132829481E+02  0.12501850448E+03  0.47000000000E+01 0.  1.
          1    1    1    2  502    0  0.31667722677E+02 -0.14676148010E+03 -0.74684320794E+03  0.76178511008E+03  0.00000000000E+00 0. -1.
          1    1    1    2  503    0 -0.38843357973E+02  0.63756771675E+01  0.14145888763E+04  0.14151364403E+04  0.00000000000E+00 0. -1.
<mgrwt>
<rscale>  0 0.76793562E+02</rscale>
<asrwt>0</asrwt>
<pdfrwt beam="1">  1        2 0.23903800E+00 0.39363126E+02</pdfrwt>
<pdfrwt beam="2">  1        2 0.15947384E+00 0.14981664E+03</pdfrwt>
<totfact> 0.60550667E+01</totfact>
</mgrwt>
</event>
<event>
13    1  0.2742815E-008  0.5043981E+02  0.7546771E-02  0.1468865E+00
          2   -1    0    0  503    0  0.00000000000E+00  0.00000000000E+00  0.27596396743E+04  0.27596396743E+04  0.00000000000E+00 0. -1.
          2   -1    0    0  502    0 -0.00000000000E+00 -0.00000000000E+00 -0.14577811826E+04  0.14577811826E+04  0.00000000000E+00 0. -1.
         25    2    1    2    0    0  0.62979074884E+02 -0.14072159365E+02 -0.38078278382E+03  0.40593494794E+03  0.12499305565E+03 0.  0.
         24    2    1    2    0    0 -0.55267503700E+02  0.79701255036E+02 -0.93322309057E+01  0.12587766942E+03  0.79695107160E+02 0.  0.
         24    2    1    2    0    0 -0.54264679721E+02 -0.11047918645E+01  0.73114367130E+03  0.73770505961E+03  0.81803489355E+02 0.  0.
        -11    1    4    4    0    0  0.70792762075E+01 -0.29646470950E+01  0.17334567329E+02  0.18957650395E+02  0.00000000000E+00 0.  1.
         12    1    4    4    0    0 -0.62346779908E+02  0.82665902131E+02 -0.26666798235E+02  0.10692001902E+03  0.00000000000E+00 0. -1.
        -13    1    5    5    0    0  0.62499544778E+01 -0.29778262744E+02  0.18751101825E+03  0.18996365133E+03  0.00000000000E+00 0.  1.
         14    1    5    5    0    0 -0.60514634199E+02  0.28673470879E+02  0.54363265305E+03  0.54774140828E+03  0.00000000000E+00 0. -1.
          5    1    3    3  501    0  0.70921242041E+02 -0.18700743602E+02 -0.95700229662E+02  0.12066550601E+03  0.47000000000E+01 0. -1.
         -5    1    3    3    0  501 -0.79421671565E+01  0.46285842366E+01 -0.28508255416E+03  0.28526944193E+03  0.47000000000E+01 0. -1.
          1    1    1    2  502    0  0.39093242152E+02 -0.14653550883E+02 -0.99277260473E+03  0.99365006558E+03  0.00000000000E+00 0. -1.
          1    1    1    2  503    0  0.74598663857E+01 -0.49870752924E+02  0.19536024399E+04  0.19542531143E+04  0.00000000000E+00 0. -1.
<mgrwt>
<rscale>  0 0.45889315E+02</rscale>
<asrwt>0</asrwt>
<pdfrwt beam="1">  1        2 0.40582936E+00 0.50439810E+02</pdfrwt>
<pdfrwt beam="2">  1        2 0.21437959E+00 0.41749349E+02</pdfrwt>
<totfact> 0.11992821E+01</totfact>
</mgrwt>
</event>
<event>
13    1  0.2742815E-008  0.1693440E+03  0.7546771E-02  0.1357153E+00
          2   -1    0    0  502    0  0.00000000000E+00  0.00000000000E+00  0.19636776483E+04  0.19636776483E+04  0.00000000000E+00 0. -1.
          2   -1    0    0  503    0 -0.00000000000E+00 -0.00000000000E+00 -0.25843565118E+04  0.25843565118E+04  0.00000000000E+00 0. -1.
         25    2    1    2    0    0  0.47793928075E+03  0.10469193898E+03 -0.98788993177E+02  0.51455924835E+03  0.12500238682E+03 0.  0.
         24    2    1    2    0    0 -0.31318626578E+03 -0.49500211391E+03  0.26220526314E+03  0.64701487884E+03  0.82243076170E+02 0.  0.
         24    2    1    2    0    0 -0.27630697654E+03  0.51095754581E+03 -0.26835876849E+03  0.64391590299E+03  0.72028484663E+02 0.  0.
        -11    1    4    4    0    0 -0.11417690911E+03 -0.12274612975E+03  0.52410222551E+02  0.17564114088E+03  0.00000000000E+00 0.  1.
         12    1    4    4    0    0 -0.19900935668E+03 -0.37225598415E+03  0.20979504059E+03  0.47137373796E+03  0.00000000000E+00 0. -1.
        -13    1    5    5    0    0 -0.16701639908E+03  0.26089450912E+03 -0.17314830196E+03  0.35488132795E+03  0.00000000000E+00 0.  1.
         14    1    5    5    0    0 -0.10929057745E+03  0.25006303668E+03 -0.95210466524E+02  0.28903457504E+03  0.00000000000E+00 0. -1.
          5    1    3    3  501    0  0.14972264788E+03 -0.16239851457E+02 -0.61563669502E+02  0.16276602676E+03  0.47000000000E+01 0. -1.
         -5    1    3    3    0  501  0.32821663287E+03  0.12093179044E+03 -0.37225323674E+02  0.35179322159E+03  0.47000000000E+01 0. -1.
          1    1    1    2  502    0  0.91535478532E+02 -0.14253369147E+03  0.11068245704E+04  0.11197121177E+04  0.00000000000E+00 0. -1.
          1    1    1    2  503    0  0.20018483035E+02  0.21886320586E+02 -0.16225609353E+04  0.16228320121E+04  0.00000000000E+00 0. -1.
<mgrwt>
<rscale>  0 0.70872018E+02</rscale>
<asrwt>0</asrwt>
<pdfrwt beam="1">  1        2 0.28877613E+00 0.16934399E+03</pdfrwt>
<pdfrwt beam="2">  1        2 0.38005243E+00 0.29660592E+02</pdfrwt>
<totfact> 0.79762074E+00</totfact>
</mgrwt>
</event>
<event>
13    1  0.2742815E-008  0.2660249E+02  0.7546771E-02  0.1686552E+00
          2   -1    0    0  503    0  0.00000000000E+00  0.00000000000E+00  0.17306163632E+04  0.17306163632E+04  0.00000000000E+00 0. -1.
          2   -1    0    0  502    0 -0.00000000000E+00 -0.00000000000E+00 -0.11728940491E+04  0.11728940491E+04  0.00000000000E+00 0. -1.
         25    2    1    2    0    0  0.11408631920E+03  0.28990756035E+03 -0.72230225115E+03  0.79649694705E+03  0.12499905145E+03 0.  0.
         24    2    1    2    0    0  0.54789600638E+02 -0.67051776155E+03  0.74011974173E+03  0.10018557799E+04  0.57808328245E+02 0.  0.
         24    2    1    2    0    0 -0.17173483418E+03  0.40054684529E+03  0.37215943993E+03  0.57833374573E+03  0.77695844032E+02 0.  0.
        -11    1    5    5    0    0 -0.13432362940E+03  0.25669141586E+03  0.20656121419E+03  0.35581013982E+03  0.00000000000E+00 0.  1.
         12    1    5    5    0    0 -0.37411204779E+02  0.14385542943E+03  0.16559822574E+03  0.22252360591E+03  0.00000000000E+00 0. -1.
        -13    1    4    4    0    0 -0.12085053300E+02 -0.11417661114E+03  0.12044679302E+03  0.16640245489E+03  0.00000000000E+00 0.  1.
         14    1    4    4    0    0  0.66874653938E+02 -0.55634115042E+03  0.61967294871E+03  0.83545332506E+03  0.00000000000E+00 0. -1.
          5    1    3    3  501    0  0.13211555973E+03  0.23691259249E+03 -0.65414462808E+03  0.70817327120E+03  0.47000000000E+01 0.  1.
         -5    1    3    3    0  501 -0.18029240521E+02  0.52994967860E+02 -0.68157623073E+02  0.88323675848E+02  0.47000000000E+01 0.  1.
          1    1    1    2  502    0 -0.17564024301E+02 -0.19992769171E+02 -0.17825036390E+03  0.18022596372E+03  0.00000000000E+00 0. -1.
          1    1    1    2  503    0  0.20422938635E+02  0.56125082176E-01  0.34599574746E+03  0.34659797581E+03  0.00000000000E+00 0. -1.
<mgrwt>
<rscale>  0 0.23308862E+02</rscale>
<asrwt>0</asrwt>
<pdfrwt beam="1">  1        2 0.25450241E+00 0.20423016E+02</pdfrwt>
<pdfrwt beam="2">  1        2 0.17248442E+00 0.26602490E+02</pdfrwt>
<totfact> 0.57486363E+01</totfact>
</mgrwt>
</event>
<event>
13    1  0.2742815E-008  0.2071569E+03  0.7546771E-02  0.1330935E+00
          2   -1    0    0  502    0  0.00000000000E+00  0.00000000000E+00  0.20946891262E+04  0.20946891262E+04  0.00000000000E+00 0. -1.
          2   -1    0    0  503    0 -0.00000000000E+00 -0.00000000000E+00 -0.16573512748E+04  0.16573512748E+04  0.00000000000E+00 0. -1.
         25    2    1    2    0    0 -0.96930304775E+01 -0.26114706366E+03 -0.18280225308E+03  0.34253874557E+03  0.12499753911E+03 0.  0.
         24    2    1    2    0    0  0.31567397546E+03  0.45123280460E+03 -0.16072157364E+03  0.57915924188E+03  0.79579523087E+02 0.  0.
         24    2    1    2    0    0 -0.52684579600E+03 -0.16345117340E+03  0.31852865961E+03  0.64030158876E+03  0.65137076436E+02 0.  0.
        -13    1    4    4    0    0  0.89380336839E+02  0.18642445148E+03 -0.79387573577E+02  0.22146175192E+03  0.00000000000E+00 0.  1.
         14    1    4    4    0    0  0.22629363862E+03  0.26480835312E+03 -0.81334000060E+02  0.35769748996E+03  0.00000000000E+00 0. -1.
        -13    1    5    5    0    0 -0.30623652678E+03 -0.12570476216E+03  0.17533813834E+03  0.37460106823E+03  0.00000000000E+00 0.  1.
         14    1    5    5    0    0 -0.22060926922E+03 -0.37746411241E+02  0.14319052127E+03  0.26570052053E+03  0.00000000000E+00 0. -1.
          5    1    3    3  501    0  0.23305326991E+02 -0.51293499353E+01  0.29250076659E+01  0.24496819523E+02  0.47000000000E+01 0. -1.
         -5    1    3    3    0  501 -0.32998357468E+02 -0.25601771373E+03 -0.18572726074E+03  0.31804192604E+03  0.47000000000E+01 0. -1.
          1    1    1    2  502    0  0.19949824268E+02  0.22920658417E+02  0.13136158117E+04  0.13139672191E+04  0.00000000000E+00 0. -1.
          1    1    1    2  503    0  0.20091502676E+03 -0.49555225954E+02 -0.85128279326E+03  0.87607360564E+03  0.00000000000E+00 0. -1.
<mgrwt>
<rscale>  0 0.79339883E+02</rscale>
<asrwt>0</asrwt>
<pdfrwt beam="1">  1        2 0.30804252E+00 0.30386709E+02</pdfrwt>
<pdfrwt beam="2">  1        2 0.24372813E+00 0.20715692E+03</pdfrwt>
<totfact> 0.18646264E+01</totfact>
</mgrwt>
</event>
<event>
13    1  0.2742815E-008  0.3782043E+02  0.7546771E-02  0.1558659E+00
          2   -1    0    0  503    0  0.00000000000E+00  0.00000000000E+00  0.39824549583E+03  0.39824549583E+03  0.00000000000E+00 0. -1.
          2   -1    0    0  502    0 -0.00000000000E+00 -0.00000000000E+00 -0.14799680055E+04  0.14799680055E+04  0.00000000000E+00 0. -1.
         25    2    1    2    0    0 -0.13513517697E+03  0.16153413622E+02 -0.71816154349E+03  0.74155493550E+03  0.12500108397E+03 0.  0.
         24    2    1    2    0    0  0.12790777954E+03 -0.39288867199E+02 -0.63439578489E+01  0.15614980601E+03  0.80240270210E+02 0.  0.
         24    2    1    2    0    0  0.13226208094E+01  0.48306903925E+02  0.18480992578E+03  0.20194648080E+03  0.65516151813E+02 0.  0.
        -11    1    5    5    0    0 -0.14862282657E+01  0.61769355683E+02  0.11259758200E+03  0.12843627855E+03  0.00000000000E+00 0.  1.
         12    1    5    5    0    0  0.28088490751E+01 -0.13462451758E+02  0.72212343783E+02  0.73510202252E+02  0.00000000000E+00 0. -1.
        -11    1    4    4    0    0  0.81458415857E+02 -0.54939605611E+02 -0.28580677961E+02  0.10232638434E+03  0.00000000000E+00 0.  1.
         12    1    4    4    0    0  0.46449363686E+02  0.15650738412E+02  0.22236720112E+02  0.53823421677E+02  0.00000000000E+00 0. -1.
          5    1    3    3  501    0 -0.29274817745E+02  0.62279868402E+02 -0.28712583832E+03  0.29529499487E+03  0.47000000000E+01 0. -1.
         -5    1    3    3    0  501 -0.10586035922E+03 -0.46126454780E+02 -0.43103570517E+03  0.44625994063E+03  0.47000000000E+01 0. -1.
          1    1    1    2  502    0 -0.24211467845E+02 -0.29111198087E+02 -0.65779111703E+03  0.65887996682E+03  0.00000000000E+00 0. -1.
          1    1    1    2  503    0  0.30116244459E+02  0.39397477390E+01  0.11576418295E+03  0.11968231217E+03  0.00000000000E+00 0. -1.
<mgrwt>
<rscale>  0 0.33892686E+02</rscale>
<asrwt>0</asrwt>
<pdfrwt beam="1">  1        2 0.58565515E-01 0.30372846E+02</pdfrwt>
<pdfrwt beam="2">  1        2 0.21764235E+00 0.37820432E+02</pdfrwt>
<totfact> 0.23247356E+02</totfact>
</mgrwt>
</event>
<event>
13    1  0.2742815E-008  0.5167163E+02  0.7546771E-02  0.1491720E+00
          2   -1    0    0  503    0  0.00000000000E+00  0.00000000000E+00  0.10596615626E+04  0.10596615626E+04  0.00000000000E+00 0. -1.
          2   -1    0    0  502    0 -0.00000000000E+00 -0.00000000000E+00 -0.48430883374E+03  0.48430883374E+03  0.00000000000E+00 0. -1.
         25    2    1    2    0    0  0.16664002931E+03 -0.53209938311E+02 -0.17540112641E+03  0.27746976314E+03  0.12499486953E+03 0.  0.
         24    2    1    2    0    0 -0.68219772621E+02 -0.45592649550E+02 -0.10493168901E+02  0.11854340283E+03  0.84910568783E+02 0.  0.
         24    2    1    2    0    0 -0.10463530711E+03  0.66956676092E+02  0.74069727163E+03  0.75457556408E+03  0.72938945264E+02 0.  0.
        -11    1    5    5    0    0 -0.18006831663E+02  0.53412142460E+02  0.29378262430E+03  0.29914099232E+03  0.00000000000E+00 0.  1.
         12    1    5    5    0    0 -0.86628475446E+02  0.13544533632E+02  0.44691464733E+03  0.45543457176E+03  0.00000000000E+00 0. -1.
        -13    1    4    4    0    0 -0.88489344508E+02 -0.34634179280E+02 -0.90600496904E+01  0.95456665384E+02  0.00000000000E+00 0.  1.
         14    1    4    4    0    0  0.20269571887E+02 -0.10958470270E+02 -0.14331192111E+01  0.23086737444E+02  0.00000000000E+00 0. -1.
          5    1    3    3  501    0  0.11157929063E+03 -0.38243469260E+02 -0.30873280494E+02  0.12201536988E+03  0.47000000000E+01 0.  1.
         -5    1    3    3    0  501  0.55060738687E+02 -0.14966469050E+02 -0.14452784592E+03  0.15545439327E+03  0.47000000000E+01 0.  1.
          1    1    1    2  502    0 -0.34679611627E+02 -0.22541565530E+00 -0.18148539125E+03  0.18476924395E+03  0.00000000000E+00 0. -1.
          1    1    1    2  503    0  0.40894662042E+02  0.32071327424E+02  0.20203514379E+03  0.20861242233E+03  0.00000000000E+00 0. -1.
<mgrwt>
<rscale>  0 0.42331903E+02</rscale>
<asrwt>0</asrwt>
<pdfrwt beam="1">  1        2 0.15583258E+00 0.51671633E+02</pdfrwt>
<pdfrwt beam="2">  1        2 0.71221887E-01 0.34680344E+02</pdfrwt>
<totfact> 0.30296137E+02</totfact>
</mgrwt>
</event>
<event>
13    1  0.2742815E-008  0.5858223E+02  0.7546771E-02  0.1556745E+00
          2   -1    0    0  503    0  0.00000000000E+00  0.00000000000E+00  0.16472569694E+04  0.16472569694E+04  0.00000000000E+00 0. -1.
          2   -1    0    0  502    0 -0.00000000000E+00 -0.00000000000E+00 -0.70807184338E+03  0.70807184338E+03  0.00000000000E+00 0. -1.
         25    2    1    2    0    0 -0.28298469828E+02  0.30340787605E+02 -0.36754604254E+03  0.39041731619E+03  0.12495687497E+03 0.  0.
         24    2    1    2    0    0 -0.32218122481E+02  0.42143358878E+00 -0.13926021552E+00  0.86877828969E+02  0.80681799376E+02 0.  0.
         24    2    1    2    0    0  0.24688610974E+02 -0.13618627929E+02  0.66389843171E+03  0.66947822740E+03  0.81516714824E+02 0.  0.
        -13    1    5    5    0    0  0.74181642092E+01  0.69138236079E+01  0.77028281053E+01  0.12734350315E+02  0.00000000000E+00 0.  1.
         14    1    5    5    0    0  0.17270446765E+02 -0.20532451537E+02  0.65619560361E+03  0.65674387709E+03  0.00000000000E+00 0. -1.
        -13    1    4    4    0    0 -0.25233553460E+02 -0.11596396490E+02 -0.37701988442E+02  0.46825725453E+02  0.00000000000E+00 0.  1.
         14    1    4    4    0    0 -0.69845690217E+01  0.12017830079E+02  0.37562728226E+02  0.40052103516E+02  0.00000000000E+00 0. -1.
          5    1    3    3  501    0 -0.26504053422E+02  0.62109380424E+02 -0.98867346946E+02  0.11982020813E+03  0.47000000000E+01 0.  1.
         -5    1    3    3    0  501 -0.17944164053E+01 -0.31768592819E+02 -0.26867869560E+03  0.27059710805E+03  0.47000000000E+01 0.  1.
          1    1    1    2  502    0 -0.13475212851E+02  0.14573576999E+02 -0.28151384285E+03  0.28221271096E+03  0.00000000000E+00 0. -1.
          1    1    1    2  503    0  0.49303194185E+02 -0.31717170264E+02  0.92448583994E+03  0.92634272928E+03  0.00000000000E+00 0. -1.
<mgrwt>
<rscale>  0 0.34099567E+02</rscale>
<asrwt>0</asrwt>
<pdfrwt beam="1">  1        2 0.24224367E+00 0.58582227E+02</pdfrwt>
<pdfrwt beam="2">  1        2 0.10412821E+00 0.19848690E+02</pdfrwt>
<totfact> 0.10404693E+02</totfact>
</mgrwt>
</event>
<event>
13    1  0.2742815E-008  0.1463030E+03  0.7546771E-02  0.1466181E+00
          2   -1    0    0  502    0  0.00000000000E+00  0.00000000000E+00  0.28296028654E+04  0.28296028654E+04  0.00000000000E+00 0. -1.
          2   -1    0    0  503    0 -0.00000000000E+00 -0.00000000000E+00 -0.12113326417E+04  0.12113326417E+04  0.00000000000E+00 0. -1.
         25    2    1    2    0    0  0.26602097404E+03 -0.25445029601E+03 -0.64595842373E+03  0.75392172512E+03  0.12499428245E+03 0.  0.
         24    2    1    2    0    0 -0.88798120596E+02  0.20579448195E+03  0.45529410916E+03  0.51896296417E+03  0.10859722519E+03 0.  0.
         24    2    1    2    0    0 -0.29626719736E+02  0.10058589259E+03  0.25551672052E+03  0.28707971467E+03  0.78298810952E+02 0.  0.
        -11    1    4    4    0    0 -0.82641539601E+02  0.20600395804E+03  0.35633111617E+03  0.41980843148E+03  0.00000000000E+00 0.  1.
         12    1    4    4    0    0 -0.61565809946E+01 -0.20947608543E+00  0.98962992997E+02  0.99154532689E+02  0.00000000000E+00 0. -1.
        -13    1    5    5    0    0 -0.55867768311E+01 -0.72596232656E+01  0.52207292698E+00  0.91753346239E+01  0.00000000000E+00 0.  1.
         14    1    5    5    0    0 -0.24039942905E+02  0.10784551586E+03  0.25499464760E+03  0.27790438004E+03  0.00000000000E+00 0. -1.
          5    1    3    3  501    0  0.11716265017E+03 -0.17195981064E+03 -0.43971419847E+03  0.48648528180E+03  0.47000000000E+01 0.  1.
         -5    1    3    3    0  501  0.14885832387E+03 -0.82490485367E+02 -0.20624422527E+03  0.26743644332E+03  0.47000000000E+01 0.  1.
          1    1    1    2  502    0 -0.13600888217E+03 -0.42926705080E+02  0.20145566422E+04  0.20195988667E+04  0.00000000000E+00 0. -1.
          1    1    1    2  503    0 -0.11587251538E+02 -0.90033734511E+01 -0.46113882443E+03  0.46137223641E+03  0.00000000000E+00 0. -1.
<mgrwt>
<rscale>  0 0.46334057E+02</rscale>
<asrwt>0</asrwt>
<pdfrwt beam="1">  1        2 0.41611807E+00 0.14630302E+03</pdfrwt>
<pdfrwt beam="2">  1        2 0.17813715E+00 0.14673961E+02</pdfrwt>
<totfact> 0.13378943E+01</totfact>
</mgrwt>
</event>
<event>
13    1  0.2742815E-008  0.1394885E+03  0.7546771E-02  0.1320061E+00
         -1   -1    0    0    0  501  0.00000000000E+00  0.00000000000E+00  0.14927845893E+04  0.14927845893E+04  0.00000000000E+00 0.  1.
         -3   -1    0    0    0  502 -0.00000000000E+00 -0.00000000000E+00 -0.21165192202E+03  0.21165192202E+03  0.00000000000E+00 0.  1.
         25    2    1    2    0    0 -0.54086199092E+00  0.14533797601E+03  0.25150910153E+02  0.19333837779E+03  0.12499496087E+03 0.  0.
         24    2    1    2    0    0  0.10122104840E+03 -0.70307175588E+02  0.84299336019E+02  0.16907802850E+03  0.79323401906E+02 0.  0.
         24    2    1    2    0    0 -0.74540382031E+02  0.77760863328E+02  0.33577743569E+03  0.36146622030E+03  0.79424943703E+02 0.  0.
        -11    1    4    4    0    0  0.10616759124E+03 -0.56961826239E+02  0.93171945444E+02  0.15230633111E+03  0.00000000000E+00 0.  1.
         12    1    4    4    0    0 -0.49465428417E+01 -0.13345349348E+02 -0.88726094253E+01  0.16771697390E+02  0.00000000000E+00 0. -1.
        -13    1    5    5    0    0 -0.76841643671E+02  0.75675389160E+02  0.21391530409E+03  0.23956452169E+03  0.00000000000E+00 0.  1.
         14    1    5    5    0    0  0.23012616399E+01  0.20854741672E+01  0.12186213159E+03  0.12190169861E+03  0.00000000000E+00 0. -1.
          5    1    3    3  503    0  0.45193754546E+02  0.13694569845E+03  0.25921959865E+02  0.14659685460E+03  0.47000000000E+01 0.  1.
         -5    1    3    3    0  503 -0.45734616537E+02  0.83922775544E+01 -0.77104971227E+00  0.46741523189E+02  0.47000000000E+01 0.  1.
         -2    1    1    2    0  501 -0.75705172365E+02 -0.14925717722E+03  0.89087181638E+03  0.90645549879E+03  0.00000000000E+00 0.  1.
         -4    1    1    2    0  502  0.49565367990E+02 -0.35344865277E+01 -0.54966830940E+02  0.74098385965E+02  0.00000000000E+00 0.  1.
<mgrwt>
<rscale>  0 0.83254767E+02</rscale>
<asrwt>0</asrwt>
<pdfrwt beam="1">  1       -1 0.21952714E+00 0.13948852E+03</pdfrwt>
<pdfrwt beam="2">  1       -3 0.31125283E-01 0.49691230E+02</pdfrwt>
<totfact> 0.54685859E+00</totfact>
</mgrwt>
</event>
<event>
13    1  0.2742815E-008  0.1131074E+03  0.7546771E-02  0.1461301E+00
          2   -1    0    0  502    0  0.00000000000E+00  0.00000000000E+00  0.39526222628E+04  0.39526222628E+04  0.00000000000E+00 0. -1.
          2   -1    0    0  503    0 -0.00000000000E+00 -0.00000000000E+00 -0.20098415673E+04  0.20098415673E+04  0.00000000000E+00 0. -1.
         25    2    1    2    0    0  0.24037663404E+03  0.98713682537E+03 -0.49718185083E+03  0.11379955774E+04  0.12499641281E+03 0.  0.
         24    2    1    2    0    0 -0.48367444550E+03 -0.12086187387E+04  0.90842553936E+03  0.15892905994E+04  0.76859767177E+02 0.  0.
         24    2    1    2    0    0  0.34332277742E+03  0.16507996670E+03  0.25105789645E+03  0.46333810561E+03  0.80809701400E+02 0.  0.
        -11    1    5    5    0    0  0.25301713959E+03  0.15386318281E+03  0.16989788799E+03  0.34140422419E+03  0.00000000000E+00 0.  1.
         12    1    5    5    0    0  0.90305637829E+02  0.11216783882E+02  0.81160008462E+02  0.12193388142E+03  0.00000000000E+00 0. -1.
        -11    1    4    4    0    0 -0.14410175360E+03 -0.45834590462E+03  0.34257325372E+03  0.59008704259E+03  0.00000000000E+00 0.  1.
         12    1    4    4    0    0 -0.33957269190E+03 -0.75027283410E+03  0.56585228564E+03  0.99920355676E+03  0.00000000000E+00 0. -1.
          5    1    3    3  501    0  0.24841602469E+03  0.95816090733E+03 -0.46477002478E+03  0.10935337725E+04  0.47000000000E+01 0. -1.
         -5    1    3    3    0  501 -0.80393906488E+01  0.28975918038E+02 -0.32411826046E+02  0.44461804909E+02  0.47000000000E+01 0. -1.
          1    1    1    2  502    0 -0.10658094039E+03  0.37865263342E+02  0.20244508303E+04  0.20276080586E+04  0.00000000000E+00 0. -1.
          1    1    1    2  503    0  0.65559744246E+01  0.18536683314E+02 -0.74397171982E+03  0.74423148907E+03  0.00000000000E+00 0. -1.
<mgrwt>
<rscale>  0 0.47158285E+02</rscale>
<asrwt>0</asrwt>
<pdfrwt beam="1">  1        2 0.58126798E+00 0.11310740E+03</pdfrwt>
<pdfrwt beam="2">  1        2 0.29556494E+00 0.19661878E+02</pdfrwt>
<totfact> 0.13195714E+00</totfact>
</mgrwt>
</event>
<event>
13    1  0.2742815E-008  0.2236290E+03  0.7546771E-02  0.1367185E+00
          2   -1    0    0  502    0  0.00000000000E+00  0.00000000000E+00  0.26826392854E+04  0.26826392854E+04  0.00000000000E+00 0. -1.
          2   -1    0    0  503    0 -0.00000000000E+00 -0.00000000000E+00 -0.23286993472E+04  0.23286993472E+04  0.00000000000E+00 0. -1.
         25    2    1    2    0    0 -0.27420916428E+03  0.37909737090E+03 -0.11268679618E+04  0.12265241186E+04  0.12499811093E+03 0.  0.
         24    2    1    2    0    0  0.85129558735E+02 -0.45222959995E+03 -0.26137852500E+03  0.53526515239E+03  0.80195992358E+02 0.  0.
         24    2    1    2    0    0 -0.20870046052E+01  0.22375080670E+03  0.25397943823E+03  0.34847642077E+03  0.82834061241E+02 0.  0.
        -11    1    4    4    0    0  0.10236646325E+02 -0.22155453333E+03 -0.15409603370E+03  0.27006811691E+03  0.00000000000E+00 0.  1.
         12    1    4    4    0    0  0.74892912410E+02 -0.23067506662E+03 -0.10728249129E+03  0.26519703548E+03  0.00000000000E+00 0. -1.
        -13    1    5    5    0    0  0.29727866480E+02  0.10116488871E+03  0.15627879953E+03  0.18852358986E+03  0.00000000000E+00 0.  1.
         14    1    5    5    0    0 -0.31814871085E+02  0.12258591800E+03  0.97700638703E+02  0.15995283091E+03  0.00000000000E+00 0. -1.
          5    1    3    3  501    0 -0.11993457320E+03  0.11660807142E+03 -0.54037420323E+03  0.56569259646E+03  0.47000000000E+01 0.  1.
         -5    1    3    3    0  501 -0.15427459108E+03  0.26248929948E+03 -0.58649375859E+03  0.66083152214E+03  0.47000000000E+01 0.  1.
          1    1    1    2  502    0  0.17209742294E+03 -0.14269378182E+03  0.21887941238E+04  0.22001815277E+04  0.00000000000E+00 0. -1.
          1    1    1    2  503    0  0.19069187212E+02 -0.79247958296E+01 -0.70058713710E+03  0.70089141311E+03  0.00000000000E+00 0. -1.
<mgrwt>
<rscale>  0 0.67955961E+02</rscale>
<asrwt>0</asrwt>
<pdfrwt beam="1">  1        2 0.39450578E+00 0.22362895E+03</pdfrwt>
<pdfrwt beam="2">  1        2 0.34245579E+00 0.20650334E+02</pdfrwt>
<totfact> 0.46485140E+00</totfact>
</mgrwt>
</event>
<event>
13    1  0.2742815E-008  0.1449291E+03  0.7546771E-02  0.1366101E+00
          2   -1    0    0  502    0  0.00000000000E+00  0.00000000000E+00  0.12424746377E+04  0.12424746377E+04  0.00000000000E+00 0. -1.
          2   -1    0    0  503    0 -0.00000000000E+00 -0.00000000000E+00 -0.17061335109E+04  0.17061335109E+04  0.00000000000E+00 0. -1.
         25    2    1    2    0    0  0.43660295127E+02  0.66753725649E+02 -0.10215854602E+04  0.10322926174E+04  0.12501565577E+03 0.  0.
         24    2    1    2    0    0 -0.25935446480E+02 -0.86355735984E+01  0.37547470113E+01  0.80933444612E+02  0.76084846166E+02 0.  0.
         24    2    1    2    0    0  0.15346649134E+03  0.15679806426E+03  0.66833895510E+02  0.24313425835E+03  0.80683957964E+02 0.  0.
        -11    1    4    4    0    0  0.11996550054E+02  0.25215686218E+02 -0.73912378357E+01  0.28885609590E+02  0.00000000000E+00 0.  1.
         12    1    4    4    0    0 -0.37931996534E+02 -0.33851259817E+02  0.11145984847E+02  0.52047835022E+02  0.00000000000E+00 0. -1.
        -13    1    5    5    0    0  0.89217588866E+02  0.39704410043E+02  0.46042369955E+02  0.10796350388E+03  0.00000000000E+00 0.  1.
         14    1    5    5    0    0  0.64248902478E+02  0.11709365422E+03  0.20791525555E+02  0.13517075446E+03  0.00000000000E+00 0. -1.
          5    1    3    3  501    0  0.85729829400E+02  0.61273842022E+02 -0.74641042251E+03  0.75382670170E+03  0.47000000000E+01 0. -1.
         -5    1    3    3    0  501 -0.42069534272E+02  0.54798836269E+01 -0.27517503768E+03  0.27846591569E+03  0.47000000000E+01 0. -1.
          1    1    1    2  502    0 -0.14039255951E+03 -0.22414790237E+03  0.10224837469E+04  0.10561370013E+04  0.00000000000E+00 0. -1.
          1    1    1    2  503    0 -0.30798780478E+02  0.92316860601E+01 -0.53514580245E+03  0.53611082697E+03  0.00000000000E+00 0. -1.
<mgrwt>
<rscale>  0 0.68263056E+02</rscale>
<asrwt>0</asrwt>
<pdfrwt beam="1">  1        2 0.18271686E+00 0.14492907E+03</pdfrwt>
<pdfrwt beam="2">  1        2 0.25090198E+00 0.32152588E+02</pdfrwt>
<totfact> 0.46544288E+01</totfact>
</mgrwt>
</event>
<event>
13    1  0.2742815E-008  0.5839502E+02  0.7546771E-02  0.1535460E+00
          2   -1    0    0  502    0  0.00000000000E+00  0.00000000000E+00  0.42313618231E+03  0.42313618231E+03  0.00000000000E+00 0. -1.
          2   -1    0    0  503    0 -0.00000000000E+00 -0.00000000000E+00 -0.11558530375E+04  0.11558530375E+04  0.00000000000E+00 0. -1.
         25    2    1    2    0    0  0.84676416011E+02  0.11784956398E+03 -0.34863011029E+03  0.39777389986E+03  0.12499002540E+03 0.  0.
         24    2    1    2    0    0 -0.28625806656E+03  0.10080536036E+02 -0.10449975846E+03  0.32379976759E+03  0.10899904630E+03 0.  0.
         24    2    1    2    0    0  0.15541895448E+03 -0.63618270507E+02 -0.64044130671E+01  0.18632135077E+03  0.80450565519E+02 0.  0.
        -11    1    5    5    0    0  0.40517863646E+02 -0.32357374319E+02  0.32325525951E+02  0.61103490696E+02  0.00000000000E+00 0.  1.
         12    1    5    5    0    0  0.11490109084E+03 -0.31260896188E+02 -0.38729939018E+02  0.12521786008E+03  0.00000000000E+00 0. -1.
        -13    1    4    4    0    0 -0.14762310254E+03 -0.29563289172E+02 -0.97641772420E+02  0.17944493359E+03  0.00000000000E+00 0.  1.
         14    1    4    4    0    0 -0.13863496402E+03  0.39643825207E+02 -0.68579860387E+01  0.14435483400E+03  0.00000000000E+00 0. -1.
          5    1    3    3  501    0  0.36925349064E+02  0.13499893532E+03 -0.26828191731E+03  0.30263091563E+03  0.47000000000E+01 0. -1.
         -5    1    3    3    0  501  0.47751066946E+02 -0.17149371345E+02 -0.80348192984E+02  0.95142984228E+02  0.47000000000E+01 0. -1.
          1    1    1    2  502    0  0.40088029482E+02 -0.42288481401E+02  0.19440445455E+03  0.20294939694E+03  0.00000000000E+00 0. -1.
          1    1    1    2  503    0  0.60746665824E+01 -0.22023348106E+02 -0.46758702788E+03  0.46814480460E+03  0.00000000000E+00 0. -1.
<mgrwt>
<rscale>  0 0.36525052E+02</rscale>
<asrwt>0</asrwt>
<pdfrwt beam="1">  1        2 0.62225910E-01 0.58395016E+02</pdfrwt>
<pdfrwt beam="2">  1        2 0.16997839E+00 0.22845775E+02</pdfrwt>
<totfact> 0.32501587E+02</totfact>
</mgrwt>
</event>
<event>
13    1  0.2742815E-008  0.9466322E+02  0.7546771E-02  0.1373080E+00
          2   -1    0    0  503    0  0.00000000000E+00  0.00000000000E+00  0.68185422808E+03  0.68185422808E+03  0.00000000000E+00 0. -1.
          2   -1    0    0  502    0 -0.00000000000E+00 -0.00000000000E+00 -0.33574922946E+04  0.33574922946E+04  0.00000000000E+00 0. -1.
         25    2    1    2    0    0 -0.52349205530E+01  0.46189518970E+02 -0.29237933388E+03  0.32134949829E+03  0.12497579411E+03 0.  0.
         24    2    1    2    0    0  0.38337631925E+02 -0.70103589211E+00  0.16704543237E+03  0.18836987678E+03  0.78158611349E+02 0.  0.
         24    2    1    2    0    0 -0.14298634127E+02 -0.10462445436E+03  0.17121950324E+03  0.21658091645E+03  0.80252399927E+02 0.  0.
        -13    1    5    5    0    0 -0.38298933463E+02 -0.54624495702E+02  0.50306379226E+02  0.83554626598E+02  0.00000000000E+00 0.  1.
         14    1    5    5    0    0  0.24000299336E+02 -0.49999958657E+02  0.12091312401E+03  0.13302628985E+03  0.00000000000E+00 0. -1.
        -13    1    4    4    0    0  0.60184205944E+02 -0.60779489094E+01  0.14387274755E+03  0.15607193084E+03  0.00000000000E+00 0.  1.
         14    1    4    4    0    0 -0.21846574020E+02  0.53769130173E+01  0.23172684819E+02  0.32297945936E+02  0.00000000000E+00 0. -1.
          5    1    3    3  501    0  0.19949435829E+02  0.11121629977E+02  0.23507742311E+01  0.23436868023E+02  0.47000000000E+01 0.  1.
         -5    1    3    3    0  501 -0.25184356382E+02  0.35067888993E+02 -0.29473010811E+03  0.29791263027E+03  0.47000000000E+01 0.  1.
          1    1    1    2  502    0 -0.80580941603E+01 -0.45756532536E+02 -0.30077021254E+04  0.30080609482E+04  0.00000000000E+00 0. -1.
          1    1    1    2  503    0 -0.10745983084E+02  0.10489250382E+03  0.28617845711E+03  0.30498528296E+03  0.00000000000E+00 0. -1.
<mgrwt>
<rscale>  0 0.66318291E+02</rscale>
<asrwt>0</asrwt>
<pdfrwt beam="1">  1        2 0.10027268E+00 0.94663216E+02</pdfrwt>
<pdfrwt beam="2">  1        2 0.49374886E+00 0.46460662E+02</pdfrwt>
<totfact> 0.15481871E+01</totfact>
</mgrwt>
</event>
<event>
13    1  0.2742815E-008  0.2561047E+03  0.7546771E-02  0.1127274E+00
          2   -1    0    0  502    0  0.00000000000E+00  0.00000000000E+00  0.18172665476E+04  0.18172665476E+04  0.00000000000E+00 0. -1.
          2   -1    0    0  503    0 -0.00000000000E+00 -0.00000000000E+00 -0.19989203435E+04  0.19989203435E+04  0.00000000000E+00 0. -1.
         25    2    1    2    0    0 -0.69550783709E+02  0.73896725786E+02 -0.21488593450E+03  0.26850814718E+03  0.12499049026E+03 0.  0.
         24    2    1    2    0    0 -0.19911211184E+03 -0.12662811973E+02  0.53722572442E+02  0.22183280215E+03  0.80732257689E+02 0.  0.
         24    2    1    2    0    0  0.58318793352E+03  0.25868957456E+03  0.47806988714E+03  0.80154651615E+03  0.83051422457E+02 0.  0.
        -13    1    4    4    0    0 -0.97274289693E+02 -0.46623577841E+02  0.25989249757E+02  0.11095713834E+03  0.00000000000E+00 0.  1.
         14    1    4    4    0    0 -0.10183782214E+03  0.33960765867E+02  0.27733322685E+02  0.11087566381E+03  0.00000000000E+00 0. -1.
        -13    1    5    5    0    0  0.98100606526E+02  0.57110515582E+02  0.12369473395E+03  0.16788605421E+03  0.00000000000E+00 0.  1.
         14    1    5    5    0    0  0.48508732699E+03  0.20157905898E+03  0.35437515319E+03  0.63366046194E+03  0.00000000000E+00 0. -1.
          5    1    3    3  501    0 -0.46020973386E+01 -0.11444134308E+02 -0.13258901102E+03  0.13324444962E+03  0.47000000000E+01 0. -1.
         -5    1    3    3    0  501 -0.64948686370E+02  0.85340860095E+02 -0.82296923480E+02  0.13526369756E+03  0.47000000000E+01 0. -1.
          1    1    1    2  502    0 -0.15902406464E+03 -0.18642501116E+03  0.99092942016E+03  0.10207762016E+04  0.00000000000E+00 0. -1.
          1    1    1    2  503    0 -0.15550097333E+03 -0.13349847722E+03 -0.14894897412E+04  0.15035232241E+04  0.00000000000E+00 0. -1.
<mgrwt>
<rscale>  0 0.22910115E+03</rscale>
<asrwt>0</asrwt>
<pdfrwt beam="1">  1        2 0.26724508E+00 0.25610468E+03</pdfrwt>
<pdfrwt beam="2">  1        2 0.29395887E+00 0.20494486E+03</pdfrwt>
<totfact> 0.13713904E+01</totfact>
</mgrwt>
</event>
<event>
13    1  0.2742815E-008  0.6310293E+02  0.7546771E-02  0.1440016E+00
         -1   -1    0    0    0  501 -0.00000000000E+00  0.00000000000E+00  0.78460530609E+03  0.78460530609E+03  0.00000000000E+00 0.  1.
          2   -1    0    0  503    0  0.00000000000E+00 -0.00000000000E+00 -0.38910401120E+03  0.38910401120E+03  0.00000000000E+00 0. -1.
         25    2    1    2    0    0 -0.32928120741E+01  0.10535663356E+03  0.12348728332E+03  0.20489699226E+03  0.12499122148E+03 0.  0.
         24    2    1    2    0    0 -0.37732821560E+02 -0.79362139358E+02 -0.55512408679E+02  0.13078175739E+03  0.79373330304E+02 0.  0.
         24    2    1    2    0    0  0.34253906163E+02  0.27807463132E+02 -0.65534781011E+02  0.11263445722E+03  0.80281556643E+02 0.  0.
        -11    1    4    4    0    0 -0.97134063726E+01  0.16128693303E+02 -0.10511449900E+02  0.21563292652E+02  0.00000000000E+00 0.  1.
         12    1    4    4    0    0 -0.28019415187E+02 -0.95490832661E+02 -0.45000958779E+02  0.10921846474E+03  0.00000000000E+00 0. -1.
        -13    1    5    5    0    0  0.43651137095E+02  0.37773973528E+02 -0.14122267616E+02  0.59428387900E+02  0.00000000000E+00 0.  1.
         14    1    5    5    0    0 -0.93972309311E+01 -0.99665103953E+01 -0.51412513394E+02  0.53206069317E+02  0.00000000000E+00 0. -1.
          5    1    3    3  502    0  0.13461373028E+02 -0.87769104906E+01 -0.16456219718E+02  0.23476368734E+02  0.47000000000E+01 0.  1.
         -5    1    3    3    0  502 -0.16754185102E+02  0.11413354405E+03  0.13994350304E+03  0.18142062352E+03  0.47000000000E+01 0.  1.
          1    1    1    2  503    0 -0.34447642865E+02 -0.53559790020E+02 -0.15926992508E+03  0.17152900700E+03  0.00000000000E+00 0. -1.
         -2    1    1    2    0  501  0.41219370335E+02 -0.24216731033E+00  0.55233112634E+03  0.55386710342E+03  0.00000000000E+00 0.  1.
<mgrwt>
<rscale>  0 0.51001058E+02</rscale>
<asrwt>0</asrwt>
<pdfrwt beam="2">  1        2 0.57221178E-01 0.63102930E+02</pdfrwt>
<pdfrwt beam="1">  1       -1 0.11538313E+00 0.41220082E+02</pdfrwt>
<totfact> 0.79626871E+01</totfact>
</mgrwt>
</event>
<event>
13    1  0.2742815E-008  0.7186106E+02  0.7546771E-02  0.1412131E+00
          2   -1    0    0  503    0  0.00000000000E+00  0.00000000000E+00  0.22686469567E+04  0.22686469567E+04  0.00000000000E+00 0. -1.
          2   -1    0    0  502    0 -0.00000000000E+00 -0.00000000000E+00 -0.18943328764E+04  0.18943328764E+04  0.00000000000E+00 0. -1.
         25    2    1    2    0    0 -0.89722582200E+02 -0.21165552792E+03 -0.84471849900E+03  0.88432078620E+03  0.12500282436E+03 0.  0.
         24    2    1    2    0    0 -0.21516272850E+02  0.85471380547E+01  0.29672308612E+02  0.85868324551E+02  0.77181083800E+02 0.  0.
         24    2    1    2    0    0  0.71994302848E+02  0.16241115018E+03  0.36407944204E+03  0.41296501368E+03  0.80160470712E+02 0.  0.
        -11    1    4    4    0    0 -0.42050824560E+02 -0.15635118322E+02  0.39701007613E+01  0.45038766315E+02  0.00000000000E+00 0.  1.
         12    1    4    4    0    0  0.20534551710E+02  0.24182256377E+02  0.25702207851E+02  0.40829558237E+02  0.00000000000E+00 0. -1.
        -11    1    5    5    0    0  0.76003393159E+02  0.16700785012E+03  0.36304324772E+03  0.40677824117E+03  0.00000000000E+00 0.  1.
         12    1    5    5    0    0 -0.40090903102E+01 -0.45966999428E+01  0.10361943222E+01  0.61867725151E+01  0.00000000000E+00 0. -1.
          5    1    3    3  501    0  0.14185357369E+02 -0.29355699799E+02 -0.27872204694E+03  0.28066180881E+03  0.47000000000E+01 0.  1.
         -5    1    3    3    0  501 -0.10390793957E+03 -0.18229982812E+03 -0.56599645206E+03  0.60365897738E+03  0.47000000000E+01 0.  1.
          1    1    1    2  502    0  0.71315037767E+02  0.94576150271E+01 -0.97566995038E+03  0.97831852337E+03  0.00000000000E+00 0. -1.
          1    1    1    2  503    0 -0.32070485565E+02  0.31239624656E+02  0.18009507790E+04  0.18015071853E+04  0.00000000000E+00 0. -1.
<mgrwt>
<rscale>  0 0.56721086E+02</rscale>
<asrwt>0</asrwt>
<pdfrwt beam="1">  1        2 0.33362455E+00 0.44770863E+02</pdfrwt>
<pdfrwt beam="2">  1        2 0.27857836E+00 0.71861058E+02</pdfrwt>
<totfact> 0.12441434E+01</totfact>
</mgrwt>
</event>
<event>
13    1  0.2742815E-008  0.1553971E+03  0.7546771E-02  0.1320675E+00
          2   -1    0    0  502    0  0.00000000000E+00  0.00000000000E+00  0.12521644530E+04  0.12521644530E+04  0.00000000000E+00 0. -1.
          2   -1    0    0  503    0 -0.00000000000E+00 -0.00000000000E+00 -0.21973288812E+04  0.21973288812E+04  0.00000000000E+00 0. -1.
         25    2    1    2    0    0  0.97645228413E+02 -0.14321661640E+03 -0.99891167450E+02  0.23589909211E+03  0.12499818591E+03 0.  0.
         24    2    1    2    0    0 -0.21687626413E+03  0.29188149243E+03 -0.22778233113E+03  0.43675661856E+03  0.81494993205E+02 0.  0.
         24    2    1    2    0    0 -0.21214730886E+02 -0.83317242387E+01  0.27974478762E+02  0.69175045951E+02  0.59018074222E+02 0.  0.
        -11    1    4    4    0    0 -0.18228676124E+03  0.18831485768E+03 -0.14335579050E+03  0.29873371356E+03  0.00000000000E+00 0.  1.
         12    1    4    4    0    0 -0.34589502892E+02  0.10356663475E+03 -0.84426540623E+02  0.13802290500E+03  0.00000000000E+00 0. -1.
        -13    1    5    5    0    0 -0.23519247853E+02  0.22366055497E+02  0.13365312575E+02  0.35100242710E+02  0.00000000000E+00 0.  1.
         14    1    5    5    0    0  0.23045169673E+01 -0.30697779736E+02  0.14609166187E+02  0.34074803240E+02  0.00000000000E+00 0. -1.
          5    1    3    3  501    0  0.67723506108E+02 -0.76426522337E+02 -0.12212947615E+03  0.15926451438E+03  0.47000000000E+01 0. -1.
         -5    1    3    3    0  501  0.29921722305E+02 -0.66790094060E+02  0.22238308702E+02  0.76634577732E+02  0.47000000000E+01 0. -1.
          1    1    1    2  502    0  0.11487174924E+03 -0.10408679750E+03  0.10249762568E+04  0.10366320018E+04  0.00000000000E+00 0. -1.
          1    1    1    2  503    0  0.25574017364E+02 -0.36246354297E+02 -0.16704416651E+04  0.16710305758E+04  0.00000000000E+00 0. -1.
<mgrwt>
<rscale>  0 0.83026800E+02</rscale>
<asrwt>0</asrwt>
<pdfrwt beam="1">  1        2 0.18414183E+00 0.15539712E+03</pdfrwt>
<pdfrwt beam="2">  1        2 0.32313659E+00 0.44360214E+02</pdfrwt>
<totfact> 0.26288705E+01</totfact>
</mgrwt>
</event>
<event>
13    1  0.2742815E-008  0.7865773E+02  0.7546771E-02  0.1448879E+00
         -1   -1    0    0    0  501  0.00000000000E+00  0.00000000000E+00  0.67497571868E+03  0.67497571868E+03  0.00000000000E+00 0.  1.
         -1   -1    0    0    0  502 -0.00000000000E+00 -0.00000000000E+00 -0.51633578517E+03  0.51633578517E+03  0.00000000000E+00 0.  1.
         25    2    1    2    0    0  0.49346844647E+02  0.30589833874E+02 -0.22033235915E+03  0.25988956499E+03  0.12500155393E+03 0.  0.
         24    2    1    2    0    0 -0.27876322412E+02 -0.60642392573E+02  0.91501042167E+02  0.13897972848E+03  0.80550202244E+02 0.  0.
         24    2    1    2    0    0 -0.72002324604E+02 -0.66707543746E+02  0.16208271742E+03  0.20565649754E+03  0.79934701803E+02 0.  0.
        -11    1    5    5    0    0 -0.70947646528E+01 -0.13818832089E+02 -0.69548180627E+01  0.17019556400E+02  0.00000000000E+00 0.  1.
         12    1    5    5    0    0 -0.64907559951E+02 -0.52888711657E+02  0.16903753549E+03  0.18863694114E+03  0.00000000000E+00 0. -1.
        -13    1    4    4    0    0 -0.28274829346E+02  0.10598467568E+02  0.12726051289E+02  0.32768061748E+02  0.00000000000E+00 0.  1.
         14    1    4    4    0    0  0.39850693390E+00 -0.71240860141E+02  0.78774990878E+02  0.10621166673E+03  0.00000000000E+00 0. -1.
          5    1    3    3  503    0  0.25523550579E+02  0.74665185794E+02 -0.17555371071E+03  0.19252931451E+03  0.47000000000E+01 0.  1.
         -5    1    3    3    0  503  0.23823294068E+02 -0.44075351920E+02 -0.44778648444E+02  0.67360250471E+02  0.47000000000E+01 0.  1.
         -2    1    1    2    0  501  0.36216865444E+02  0.69305490825E+02  0.35072255230E+03  0.35933441401E+03  0.00000000000E+00 0.  1.
         -2    1    1    2    0  502  0.14314936926E+02  0.27454611620E+02 -0.22533401923E+03  0.22745129883E+03  0.00000000000E+00 0.  1.
<mgrwt>
<rscale>  0 0.49350134E+02</rscale>
<asrwt>0</asrwt>
<pdfrwt beam="1">  1       -1 0.99261135E-01 0.78657727E+02</pdfrwt>
<pdfrwt beam="2">  1       -1 0.75931733E-01 0.30962447E+02</pdfrwt>
<totfact> 0.17744157E+01</totfact>
</mgrwt>
</event>
<event>
13    1  0.2742815E-008  0.5524365E+02  0.7546771E-02  0.1523892E+00
          2   -1    0    0  503    0  0.00000000000E+00  0.00000000000E+00  0.22190992929E+04  0.22190992929E+04  0.00000000000E+00 0. -1.
         -1   -1    0    0    0  501 -0.00000000000E+00 -0.00000000000E+00 -0.42458546650E+03  0.42458546650E+03  0.00000000000E+00 0.  1.
         25    2    1    2    0    0  0.11902259467E+02 -0.11261718050E+03 -0.60493938067E+02  0.17918401447E+03  0.12499240527E+03 0.  0.
         24    2    1    2    0    0  0.43269303250E+03 -0.15808002167E+03  0.37797378574E+03  0.60332035774E+03  0.94438962995E+02 0.  0.
         24    2    1    2    0    0 -0.43470083526E+03  0.19017750704E+03  0.49473122880E+03  0.69073938932E+03  0.85027141883E+02 0.  0.
        -11    1    5    5    0    0 -0.22651997946E+03  0.61444325659E+02  0.27780637417E+03  0.36367992491E+03  0.00000000000E+00 0.  1.
         12    1    5    5    0    0 -0.20818085580E+03  0.12873318138E+03  0.21692485462E+03  0.32705946441E+03  0.00000000000E+00 0. -1.
        -11    1    4    4    0    0  0.38345052287E+03 -0.14677445843E+03  0.29280536624E+03  0.50429359270E+03  0.00000000000E+00 0.  1.
         12    1    4    4    0    0  0.49242509628E+02 -0.11305563241E+02  0.85168419495E+02  0.99026765038E+02  0.00000000000E+00 0. -1.
          5    1    3    3  502    0 -0.46120963112E+02 -0.93754987672E+02 -0.21966355916E+02  0.10687259585E+03  0.47000000000E+01 0. -1.
         -5    1    3    3    0  502  0.58023222579E+02 -0.18862192827E+02 -0.38527582151E+02  0.72311418622E+02  0.47000000000E+01 0. -1.
          1    1    1    2  503    0 -0.33075560657E+01  0.25854256043E+02  0.10681421465E+04  0.10684601198E+04  0.00000000000E+00 0. -1.
         -2    1    1    2    0  501 -0.65869006371E+01  0.54665439084E+02 -0.85839396556E+02  0.10198087807E+03  0.00000000000E+00 0.  1.
<mgrwt>
<rscale>  0 0.37946328E+02</rscale>
<asrwt>0</asrwt>
<pdfrwt beam="1">  1        2 0.32633813E+00 0.26064967E+02</pdfrwt>
<pdfrwt beam="2">  1       -1 0.62439040E-01 0.55243646E+02</pdfrwt>
<totfact> 0.27078847E+01</totfact>
</mgrwt>
</event>
<event>
13    1  0.2742815E-008  0.6083289E+02  0.7546771E-02  0.1493428E+00
          2   -1    0    0  503    0  0.00000000000E+00  0.00000000000E+00  0.37074858158E+04  0.37074858158E+04  0.00000000000E+00 0. -1.
          2   -1    0    0  502    0 -0.00000000000E+00 -0.00000000000E+00 -0.79208188552E+03  0.79208188552E+03  0.00000000000E+00 0. -1.
         25    2    1    2    0    0 -0.59249115477E+02 -0.37860543202E+02 -0.23641475928E+03  0.27651525641E+03  0.12499948081E+03 0.  0.
         24    2    1    2    0    0  0.58129253617E+02 -0.29071619130E+02 -0.45084035938E+02  0.11168318004E+03  0.78844107217E+02 0.  0.
         24    2    1    2    0    0  0.63396033443E+02  0.38920195687E+01  0.16401650982E+04  0.16434582439E+04  0.82336172452E+02 0.  0.
        -11    1    5    5    0    0  0.33046059629E+02 -0.38458723497E+02  0.93255608240E+03  0.93393359629E+03  0.00000000000E+00 0.  1.
         12    1    5    5    0    0  0.30349973814E+02  0.42350743066E+02  0.70760901576E+03  0.70952464759E+03  0.00000000000E+00 0. -1.
        -13    1    4    4    0    0  0.60658265877E+02 -0.50491311359E+02 -0.43351410035E+02  0.90045224715E+02  0.00000000000E+00 0.  1.
         14    1    4    4    0    0 -0.25290122593E+01  0.21419692229E+02 -0.17326259030E+01  0.21637955327E+02  0.00000000000E+00 0. -1.
          5    1    3    3  501    0 -0.54749537612E+02 -0.33538752651E+02 -0.31892963179E+02  0.71844351889E+02  0.47000000000E+01 0.  1.
         -5    1    3    3    0  501 -0.44995778650E+01 -0.43217905512E+01 -0.20452179610E+03  0.20467090452E+03  0.47000000000E+01 0.  1.
          1    1    1    2  502    0 -0.14795688841E+02  0.25069997359E+02 -0.45466192065E+03  0.45559288764E+03  0.00000000000E+00 0. -1.
          1    1    1    2  503    0 -0.47480482743E+02  0.37970145404E+02  0.20113995480E+04  0.20123181334E+04  0.00000000000E+00 0. -1.
<mgrwt>
<rscale>  0 0.42081724E+02</rscale>
<asrwt>0</asrwt>
<pdfrwt beam="1">  1        2 0.54521849E+00 0.60832885E+02</pdfrwt>
<pdfrwt beam="2">  1        2 0.11648263E+00 0.29110431E+02</pdfrwt>
<totfact> 0.80442282E+00</totfact>
</mgrwt>
</event>
<event>
13    1  0.2742815E-008  0.1481830E+03  0.7546771E-02  0.1346512E+00
          2   -1    0    0  502    0  0.00000000000E+00  0.00000000000E+00  0.21750751149E+04  0.21750751149E+04  0.00000000000E+00 0. -1.
          4   -1    0    0  503    0 -0.00000000000E+00 -0.00000000000E+00 -0.21449321422E+04  0.21449321422E+04  0.00000000000E+00 0. -1.
         25    2    1    2    0    0 -0.51321186338E+03  0.47169644740E+02 -0.24928503443E+03  0.58598450993E+03  0.12499370143E+03 0.  0.
         24    2    1    2    0    0  0.80811757567E+02  0.71974515572E+01  0.93241001466E+02  0.14796257596E+03  0.81343076291E+02 0.  0.
         24    2    1    2    0    0  0.29224940663E+03 -0.52208674126E+02  0.10906565825E+04  0.11331486578E+04  0.79741069634E+02 0.  0.
        -11    1    5    5    0    0  0.22111595511E+03 -0.55226729762E+02  0.92828905801E+03  0.95585711930E+03  0.00000000000E+00 0.  1.
         12    1    5    5    0    0  0.71133451520E+02  0.30180556359E+01  0.16236752453E+03  0.17729153846E+03  0.00000000000E+00 0. -1.
        -13    1    4    4    0    0  0.53366829249E+02 -0.22892896096E+02  0.89999147526E+02  0.10710718795E+03  0.00000000000E+00 0.  1.
         14    1    4    4    0    0  0.27444928318E+02  0.30090347653E+02  0.32418539401E+01  0.40855388008E+02  0.00000000000E+00 0. -1.
          5    1    3    3  501    0 -0.68528187964E+02 -0.35093591124E+02 -0.24384641406E+02  0.80897301686E+02  0.47000000000E+01 0. -1.
         -5    1    3    3    0  501 -0.44468367541E+03  0.82263235865E+02 -0.22490039302E+03  0.50508720825E+03  0.47000000000E+01 0. -1.
          1    1    1    2  502    0 -0.37192709951E+01 -0.36921221256E+02  0.77051105834E+03  0.77140410978E+03  0.00000000000E+00 0. -1.
          3    1    1    2  503    0  0.14386997017E+03  0.34762799084E+02 -0.16749806352E+04  0.16815074037E+04  0.00000000000E+00 0. -1.
<mgrwt>
<rscale>  0 0.74153811E+02</rscale>
<asrwt>0</asrwt>
<pdfrwt beam="1">  1        2 0.31986399E+00 0.37108079E+02</pdfrwt>
<pdfrwt beam="2">  1        4 0.31543120E+00 0.14818303E+03</pdfrwt>
<totfact> 0.13715803E-01</totfact>
</mgrwt>
</event>
<event>
13    1  0.2742815E-008  0.1308701E+03  0.7546771E-02  0.1321609E+00
          2   -1    0    0  502    0  0.00000000000E+00  0.00000000000E+00  0.20548291762E+04  0.20548291762E+04  0.00000000000E+00 0. -1.
          2   -1    0    0  503    0 -0.00000000000E+00 -0.00000000000E+00 -0.33822403773E+04  0.33822403773E+04  0.00000000000E+00 0. -1.
         25    2    1    2    0    0 -0.10992989674E+03  0.24528922069E+03 -0.10529602287E+03  0.31458587232E+03  0.12500253856E+03 0.  0.
         24    2    1    2    0    0 -0.40153422373E+02 -0.59518797948E+02 -0.54630299375E+02  0.12115370674E+03  0.80863875797E+02 0.  0.
         24    2    1    2    0    0  0.11744177331E+03 -0.26716097234E+02  0.13761320965E+03  0.20033833436E+03  0.81803012002E+02 0.  0.
        -13    1    4    4    0    0  0.20117747852E+02 -0.80027214063E+01  0.46631082984E+01  0.22147503416E+02  0.00000000000E+00 0.  1.
         14    1    4    4    0    0 -0.60271170226E+02 -0.51516076542E+02 -0.59293407674E+02  0.99006203322E+02  0.00000000000E+00 0. -1.
        -13    1    5    5    0    0  0.68827927908E+02  0.25025566497E+02  0.56184338155E+02  0.92305159621E+02  0.00000000000E+00 0.  1.
         14    1    5    5    0    0  0.48613845404E+02 -0.51741663732E+02  0.81428871498E+02  0.10803317474E+03  0.00000000000E+00 0. -1.
          5    1    3    3  501    0  0.14524399131E+02  0.14731930872E+02  0.15266138482E+02  0.26136811999E+02  0.47000000000E+01 0.  1.
         -5    1    3    3    0  501 -0.12445429587E+03  0.23055728982E+03 -0.12056216135E+03  0.28844906032E+03  0.47000000000E+01 0.  1.
          1    1    1    2  502    0  0.43397659719E+02 -0.29074423549E+02  0.17461631070E+04  0.17469442679E+04  0.00000000000E+00 0. -1.
          1    1    1    2  503    0 -0.10756113919E+02 -0.12997990196E+03 -0.30512611955E+04  0.30540473722E+04  0.00000000000E+00 0. -1.
<mgrwt>
<rscale>  0 0.82681492E+02</rscale>
<asrwt>0</asrwt>
<pdfrwt beam="1">  1        2 0.30218077E+00 0.52236759E+02</pdfrwt>
<pdfrwt beam="2">  1        2 0.49738828E+00 0.13087009E+03</pdfrwt>
<totfact> 0.24524046E+00</totfact>
</mgrwt>
</event>
<event>
13    1  0.2742815E-008  0.1018833E+03  0.7546771E-02  0.1388938E+00
         -3   -1    0    0    0  502 -0.00000000000E+00  0.00000000000E+00  0.10473448309E+04  0.10473448309E+04  0.00000000000E+00 0.  1.
         -1   -1    0    0    0  501  0.00000000000E+00 -0.00000000000E+00 -0.95012087543E+03  0.95012087543E+03  0.00000000000E+00 0.  1.
         25    2    1    2    0    0 -0.24081388908E+03 -0.18341966311E+03  0.72511964547E+03  0.79564976971E+03  0.12500381516E+03 0.  0.
         24    2    1    2    0    0  0.25978226755E+03  0.20180441888E+03 -0.34585651431E+03  0.48416100239E+03  0.81137523545E+02 0.  0.
         24    2    1    2    0    0 -0.38906719512E+02  0.43674119060E+02  0.13131024241E+02  0.10162172265E+03  0.82057231358E+02 0.  0.
        -11    1    5    5    0    0 -0.49249202334E+02  0.48831853106E+02  0.34398899210E+02  0.77416523270E+02  0.00000000000E+00 0.  1.
         12    1    5    5    0    0  0.10342482822E+02 -0.51577340454E+01 -0.21267874969E+02  0.24205199382E+02  0.00000000000E+00 0. -1.
        -13    1    4    4    0    0  0.77491561675E+02  0.48394956638E+02 -0.49502755716E+02  0.10391119662E+03  0.00000000000E+00 0.  1.
         14    1    4    4    0    0  0.18229070587E+03  0.15340946224E+03 -0.29635375860E+03  0.38024980577E+03  0.00000000000E+00 0. -1.
          5    1    3    3  503    0 -0.20880882569E+02  0.69577990545E+01  0.14429445023E+03  0.14603903790E+03  0.47000000000E+01 0.  1.
         -5    1    3    3    0  503 -0.21993300651E+03 -0.19037746217E+03  0.58082519524E+03  0.64961073181E+03  0.47000000000E+01 0.  1.
         -2    1    1    2    0  501  0.23081146897E+02 -0.99867082873E+02 -0.44748014755E+03  0.45906933685E+03  0.00000000000E+00 0.  1.
         -4    1    1    2    0  502 -0.31428058489E+01  0.37808208046E+02  0.15230994759E+03  0.15696387470E+03  0.00000000000E+00 0.  1.
<mgrwt>
<rscale>  0 0.62171635E+02</rscale>
<asrwt>0</asrwt>
<pdfrwt beam="2">  1       -1 0.13972366E+00 0.10188335E+03</pdfrwt>
<pdfrwt beam="1">  1       -3 0.15402130E+00 0.37938606E+02</pdfrwt>
<totfact> 0.71608565E-01</totfact>
</mgrwt>
</event>
<event>
13    1  0.2742815E-008  0.1151684E+03  0.7546771E-02  0.1279404E+00
          4   -1    0    0  503    0 -0.00000000000E+00  0.00000000000E+00  0.19411007549E+03  0.19411007549E+03  0.00000000000E+00 0. -1.
          2   -1    0    0  502    0  0.00000000000E+00 -0.00000000000E+00 -0.10571042945E+04  0.10571042945E+04  0.00000000000E+00 0. -1.
         25    2    1    2    0    0 -0.20153528956E+03  0.34275600424E+02 -0.56560833095E+02  0.24620155073E+03  0.12499914406E+03 0.  0.
         24    2    1    2    0    0  0.31098594900E+02  0.26184320777E+02 -0.16103442547E+03  0.18476860316E+03  0.80960541429E+02 0.  0.
         24    2    1    2    0    0 -0.24964398573E+01  0.27775485175E+01 -0.21145953484E+03  0.22571067902E+03  0.78843064125E+02 0.  0.
        -11    1    5    5    0    0  0.28463767040E+02  0.13613741563E+02 -0.39026945460E+02  0.50185879143E+02  0.00000000000E+00 0.  1.
         12    1    5    5    0    0 -0.30960206897E+02 -0.10836193046E+02 -0.17243258938E+03  0.17552479988E+03  0.00000000000E+00 0. -1.
        -11    1    4    4    0    0 -0.20332977520E+02  0.15004806310E+02 -0.14649730847E+02  0.29209395767E+02  0.00000000000E+00 0.  1.
         12    1    4    4    0    0  0.51431572419E+02  0.11179514467E+02 -0.14638469462E+03  0.15555920739E+03  0.00000000000E+00 0. -1.
          5    1    3    3  501    0 -0.16149924736E+03  0.21484590525E+02  0.14367461847E+02  0.16362184600E+03  0.47000000000E+01 0.  1.
         -5    1    3    3    0  501 -0.40036042199E+02  0.12791009899E+02 -0.70928294942E+02  0.82579704725E+02  0.47000000000E+01 0.  1.
          1    1    1    2  502    0  0.91712851473E+02  0.28825661489E+02 -0.45923115889E+03  0.46918591537E+03  0.00000000000E+00 0. -1.
          3    1    1    2  503    0  0.81220283046E+02 -0.92063131207E+02  0.25291733262E+02  0.12534762174E+03  0.00000000000E+00 0. -1.
<mgrwt>
<rscale>  0 0.10042515E+03</rscale>
<asrwt>0</asrwt>
<pdfrwt beam="2">  1        2 0.15545651E+00 0.87569272E+02</pdfrwt>
<pdfrwt beam="1">  1        4 0.28545600E-01 0.11516837E+03</pdfrwt>
<totfact> 0.16094619E+02</totfact>
</mgrwt>
</event>
<event>
13    1  0.2742815E-008  0.1584016E+03  0.7546771E-02  0.1429509E+00
          2   -1    0    0  503    0  0.00000000000E+00  0.00000000000E+00  0.11022323634E+04  0.11022323634E+04  0.00000000000E+00 0. -1.
          2   -1    0    0  502    0 -0.00000000000E+00 -0.00000000000E+00 -0.14635387536E+04  0.14635387536E+04  0.00000000000E+00 0. -1.
         25    2    1    2    0    0 -0.84014775767E+02 -0.13391579583E+03 -0.91903230161E+03  0.94087108837E+03  0.12500444237E+03 0.  0.
         24    2    1    2    0    0 -0.53765182591E+01  0.10908504306E+02 -0.87083600235E+02  0.11965092714E+03  0.81147326018E+02 0.  0.
         24    2    1    2    0    0 -0.11583871511E+03  0.79843745947E+02  0.49798133894E+02  0.16716714626E+03  0.75308491991E+02 0.  0.
        -11    1    5    5    0    0  0.84034962863E+01 -0.46367375475E-01  0.12081575165E+02  0.14716839274E+02  0.00000000000E+00 0.  1.
         12    1    5    5    0    0 -0.12424221139E+03  0.79890113322E+02  0.37716558730E+02  0.15245030699E+03  0.00000000000E+00 0. -1.
        -11    1    4    4    0    0 -0.21932751850E+02 -0.26173759166E+01 -0.94480802252E+02  0.97028440442E+02  0.00000000000E+00 0.  1.
         12    1    4    4    0    0  0.16556233591E+02  0.13525880222E+02  0.73972020175E+01  0.22622486694E+02  0.00000000000E+00 0. -1.
          5    1    3    3  501    0 -0.91340384769E+02 -0.13845131644E+03 -0.62430397354E+03  0.64597939154E+03  0.47000000000E+01 0. -1.
         -5    1    3    3    0  501  0.73256090017E+01  0.45355206132E+01 -0.29472832807E+03  0.29489169683E+03  0.47000000000E+01 0. -1.
          1    1    1    2  502    0  0.11006711851E+02 -0.13954241809E+02 -0.36071318301E+03  0.36115075657E+03  0.00000000000E+00 0. -1.
          1    1    1    2  503    0  0.19422329728E+03  0.57117787383E+02  0.95572456080E+03  0.97693119868E+03  0.00000000000E+00 0. -1.
<mgrwt>
<rscale>  0 0.53058674E+02</rscale>
<asrwt>0</asrwt>
<pdfrwt beam="1">  1        2 0.16209300E+00 0.15840160E+03</pdfrwt>
<pdfrwt beam="2">  1        2 0.21522629E+00 0.17772692E+02</pdfrwt>
<totfact> 0.75235827E+01</totfact>
</mgrwt>
</event>
<event>
13    1  0.2742815E-008  0.4797232E+02  0.7546771E-02  0.1475530E+00
          2   -1    0    0  503    0  0.00000000000E+00  0.00000000000E+00  0.12711965776E+04  0.12711965776E+04  0.00000000000E+00 0. -1.
         -3   -1    0    0    0  501 -0.00000000000E+00 -0.00000000000E+00 -0.41927696484E+03  0.41927696484E+03  0.00000000000E+00 0.  1.
         25    2    1    2    0    0  0.94208909784E+01  0.16808668042E+01 -0.17710689782E+03  0.21699332650E+03  0.12501068750E+03 0.  0.
         24    2    1    2    0    0  0.14712724229E+03  0.54650589291E+02  0.16957866916E+02  0.17609043972E+03  0.78020262602E+02 0.  0.
         24    2    1    2    0    0 -0.10970737761E+03 -0.17264365206E+02  0.43636969966E+03  0.45751984811E+03  0.81068672262E+02 0.  0.
        -13    1    5    5    0    0 -0.41249723783E+02 -0.37436420229E+02  0.10840363200E+03  0.12187851616E+03  0.00000000000E+00 0.  1.
         14    1    5    5    0    0 -0.68457653829E+02  0.20172055023E+02  0.32796606766E+03  0.33564133195E+03  0.00000000000E+00 0. -1.
        -13    1    4    4    0    0  0.12496120340E+03  0.68028281124E+02  0.32432619348E+02  0.14592814734E+03  0.00000000000E+00 0.  1.
         14    1    4    4    0    0  0.22166038892E+02 -0.13377691833E+02 -0.15474752433E+02  0.30162292382E+02  0.00000000000E+00 0. -1.
          5    1    3    3  502    0  0.86724389066E+00  0.66570717012E+01  0.18941908494E+02  0.20638667908E+02  0.47000000000E+01 0.  1.
         -5    1    3    3    0  502  0.85536470877E+01 -0.49762048969E+01 -0.19604880631E+03  0.19635465859E+03  0.47000000000E+01 0.  1.
          1    1    1    2  503    0 -0.40969559569E+02  0.85706722567E+01  0.70278062422E+03  0.70402597041E+03  0.00000000000E+00 0. -1.
         -4    1    1    2    0  501 -0.58711960861E+01 -0.47637763146E+02 -0.12708168017E+03  0.13584395775E+03  0.00000000000E+00 0.  1.
<mgrwt>
<rscale>  0 0.44810157E+02</rscale>
<asrwt>0</asrwt>
<pdfrwt beam="1">  1        2 0.18694067E+00 0.41856436E+02</pdfrwt>
<pdfrwt beam="2">  1       -3 0.61658377E-01 0.47972315E+02</pdfrwt>
<totfact> 0.33471902E+01</totfact>
</mgrwt>
</event>
<event>
13    1  0.2742815E-008  0.7738921E+02  0.7546771E-02  0.1343535E+00
         -3   -1    0    0    0  501 -0.00000000000E+00  0.00000000000E+00  0.69445671361E+03  0.69445671361E+03  0.00000000000E+00 0.  1.
          2   -1    0    0  503    0  0.00000000000E+00 -0.00000000000E+00 -0.30472488688E+04  0.30472488688E+04  0.00000000000E+00 0. -1.
         25    2    1    2    0    0  0.94497603720E+02  0.47769456135E+02  0.22485828164E+03  0.27820477000E+03  0.12499971671E+03 0.  0.
         24    2    1    2    0    0  0.26135169273E+02 -0.10404607163E+03 -0.13316243565E+03  0.18902894430E+03  0.80567210563E+02 0.  0.
         24    2    1    2    0    0 -0.11380101452E+03  0.83614244518E+02 -0.34775162616E+03  0.38409267198E+03  0.81571897011E+02 0.  0.
        -11    1    5    5    0    0  0.74415395149E+01  0.25098282023E+02 -0.83766151554E+02  0.87761428982E+02  0.00000000000E+00 0.  1.
         12    1    5    5    0    0 -0.12124255403E+03  0.58515962495E+02 -0.26398547461E+03  0.29633124300E+03  0.00000000000E+00 0. -1.
        -13    1    4    4    0    0  0.20361841852E+02 -0.11596134236E+03 -0.13005143801E+03  0.17542808799E+03  0.00000000000E+00 0.  1.
         14    1    4    4    0    0  0.57733274208E+01  0.11915270728E+02 -0.31109976403E+01  0.13600856310E+02  0.00000000000E+00 0. -1.
          5    1    3    3  502    0  0.10694366838E+03 -0.30917147893E+01  0.17825252988E+03  0.20794845832E+03  0.47000000000E+01 0. -1.
         -5    1    3    3    0  502 -0.12446064662E+02  0.50861170925E+02  0.46605751762E+02  0.70256311678E+02  0.47000000000E+01 0. -1.
          1    1    1    2  503    0 -0.70915425026E+02  0.16874332487E+02 -0.24892003498E+04  0.24902674801E+04  0.00000000000E+00 0. -1.
         -4    1    1    2    0  501  0.64083666549E+02 -0.44211961507E+02  0.39246397479E+03  0.40011171611E+03  0.00000000000E+00 0.  1.
<mgrwt>
<rscale>  0 0.75108710E+02</rscale>
<asrwt>0</asrwt>
<pdfrwt beam="2">  1        2 0.44812484E+00 0.72895409E+02</pdfrwt>
<pdfrwt beam="1">  1       -3 0.10212599E+00 0.77389212E+02</pdfrwt>
<totfact> 0.15115224E+00</totfact>
</mgrwt>
</event>
<event>
13    1  0.2742815E-008  0.1219991E+03  0.7546771E-02  0.1275917E+00
          2   -1    0    0  503    0  0.00000000000E+00  0.00000000000E+00  0.80495188212E+03  0.80495188212E+03  0.00000000000E+00 0. -1.
          2   -1    0    0  502    0 -0.00000000000E+00 -0.00000000000E+00 -0.40155111437E+04  0.40155111437E+04  0.00000000000E+00 0. -1.
         25    2    1    2    0    0 -0.17300657002E+03  0.95457677215E+02 -0.97777459048E+03  0.10053447035E+04  0.12502552417E+03 0.  0.
         24    2    1    2    0    0  0.24853892730E+02  0.11853222513E+03 -0.18557589198E+03  0.23509692232E+03  0.78514628070E+02 0.  0.
         24    2    1    2    0    0 -0.21748297703E+02 -0.12360147132E+01 -0.60044505468E+02  0.10282350799E+03  0.80578005512E+02 0.  0.
        -11    1    4    4    0    0  0.15560933594E+02  0.11985601462E+03 -0.12528715255E+03  0.17408181263E+03  0.00000000000E+00 0.  1.
         12    1    4    4    0    0  0.92929591358E+01 -0.13237894864E+01 -0.60288739433E+02  0.61015109691E+02  0.00000000000E+00 0. -1.
        -13    1    5    5    0    0  0.69021381006E+01  0.25372635746E+02 -0.57985148161E+02  0.63668575940E+02  0.00000000000E+00 0.  1.
         14    1    5    5    0    0 -0.28650435804E+02 -0.26608650459E+02 -0.20593573073E+01  0.39154932046E+02  0.00000000000E+00 0. -1.
          5    1    3    3  501    0 -0.64353193024E+02 -0.25502066808E+02 -0.23852567920E+03  0.24841151041E+03  0.47000000000E+01 0.  1.
         -5    1    3    3    0  501 -0.10865337699E+03  0.12095974402E+03 -0.73924891127E+03  0.75693319310E+03  0.47000000000E+01 0.  1.
          1    1    1    2  502    0  0.34779283709E+02 -0.78076770338E+02 -0.27192855066E+04  0.27206284654E+04  0.00000000000E+00 0. -1.
          1    1    1    2  503    0  0.13512169128E+03 -0.13467711730E+03  0.73212123297E+03  0.75656942652E+03  0.00000000000E+00 0. -1.
<mgrwt>
<rscale>  0 0.10211164E+03</rscale>
<asrwt>0</asrwt>
<pdfrwt beam="1">  1        2 0.11837528E+00 0.12199913E+03</pdfrwt>
<pdfrwt beam="2">  1        2 0.59051635E+00 0.85466075E+02</pdfrwt>
<totfact> 0.44523348E+00</totfact>
</mgrwt>
</event>
<event>
13    1  0.2742815E-008  0.7919502E+02  0.7546771E-02  0.1391412E+00
          2   -1    0    0  502    0  0.00000000000E+00  0.00000000000E+00  0.30328203064E+04  0.30328203064E+04  0.00000000000E+00 0. -1.
          2   -1    0    0  503    0 -0.00000000000E+00 -0.00000000000E+00 -0.57713012364E+03  0.57713012364E+03  0.00000000000E+00 0. -1.
         25    2    1    2    0    0  0.60138331905E+02 -0.94844455132E+02 -0.25104428554E+03  0.30209328002E+03  0.12500010757E+03 0.  0.
         24    2    1    2    0    0 -0.10456258175E+03  0.74517615887E+02  0.28908460940E+03  0.32639389141E+03  0.80478893956E+02 0.  0.
         24    2    1    2    0    0  0.88481479289E+02  0.26593253251E+02  0.83642098500E+03  0.84475589518E+03  0.74001925673E+02 0.  0.
        -11    1    4    4    0    0 -0.66204449982E+02  0.53579095446E+01  0.87524215360E+02  0.10987367595E+03  0.00000000000E+00 0.  1.
         12    1    4    4    0    0 -0.38358131769E+02  0.69159706342E+02  0.20156039404E+03  0.21652021546E+03  0.00000000000E+00 0. -1.
        -11    1    5    5    0    0 -0.10613471409E+02  0.85816762185E+01  0.19482990923E+03  0.19530741019E+03  0.00000000000E+00 0.  1.
         12    1    5    5    0    0  0.99094950697E+02  0.18011577033E+02  0.64159107577E+03  0.64944848500E+03  0.00000000000E+00 0. -1.
          5    1    3    3  501    0  0.14540620168E+00 -0.50995841336E+02 -0.21184539032E+03  0.21794760007E+03  0.47000000000E+01 0.  1.
         -5    1    3    3    0  501  0.59992925703E+02 -0.43848613796E+02 -0.39198895220E+02  0.84145679941E+02  0.47000000000E+01 0.  1.
          1    1    1    2  502    0  0.16706323615E+02  0.44835779780E+02  0.18529789137E+04  0.18535965588E+04  0.00000000000E+00 0. -1.
          1    1    1    2  503    0 -0.60763553058E+02 -0.51102193785E+02 -0.27175003976E+03  0.28311080463E+03  0.00000000000E+00 0. -1.
<mgrwt>
<rscale>  0 0.61556924E+02</rscale>
<asrwt>0</asrwt>
<pdfrwt beam="1">  1        2 0.44600298E+00 0.47847136E+02</pdfrwt>
<pdfrwt beam="2">  1        2 0.84872079E-01 0.79195021E+02</pdfrwt>
<totfact> 0.27784870E+01</totfact>
</mgrwt>
</event>
<event>
13    1  0.4118142E-008  0.6842439E+03  0.7546771E-02  0.1183166E+00
          2   -1    0    0  503    0  0.00000000000E+00  0.00000000000E+00  0.31977174276E+04  0.31977174276E+04  0.00000000000E+00 0. -1.
          2   -1    0    0  502    0 -0.00000000000E+00 -0.00000000000E+00 -0.18432892220E+04  0.18432892220E+04  0.00000000000E+00 0. -1.
         25    2    1    2    0    0  0.15030950673E+02  0.17416408928E+02 -0.27197405313E+03  0.30020712863E+03  0.12500069490E+03 0.  0.
         24    2    1    2    0    0  0.14992052985E+03  0.14165714665E+03 -0.53347521218E+03  0.57779875172E+03  0.81930964885E+02 0.  0.
         24    2    1    2    0    0  0.46035382626E+03 -0.52933750009E+03  0.69374961610E+03  0.98997803005E+03  0.81511568435E+02 0.  0.
        -11    1    5    5    0    0  0.10983264918E+03 -0.81452907807E+02  0.15301883490E+03  0.20521342756E+03  0.00000000000E+00 0.  1.
         12    1    5    5    0    0  0.35052117708E+03 -0.44788459228E+03  0.54073078119E+03  0.78476460249E+03  0.00000000000E+00 0. -1.
        -13    1    4    4    0    0  0.70192068067E+02  0.15615256638E+02 -0.15010027006E+03  0.16643573454E+03  0.00000000000E+00 0.  1.
         14    1    4    4    0    0  0.79728461781E+02  0.12604189001E+03 -0.38337494212E+03  0.41136301718E+03  0.00000000000E+00 0. -1.
          5    1    3    3  501    0 -0.25307762736E+02  0.50351742692E+02 -0.21736946284E+03  0.22460488468E+03  0.47000000000E+01 0. -1.
         -5    1    3    3    0  501  0.40338713409E+02 -0.32935333764E+02 -0.54604590293E+02  0.75602243953E+02  0.47000000000E+01 0. -1.
          1    1    1    2  502    0 -0.27971628642E+02  0.28296103637E+02 -0.80188339181E+03  0.80286988707E+03  0.00000000000E+00 0. -1.
          1    1    1    2  503    0 -0.59733367814E+03  0.34196784088E+03  0.22680112467E+04  0.23701528521E+04  0.00000000000E+00 0. -1.
<mgrwt>
<rscale>  0 0.16499899E+03</rscale>
<asrwt>0</asrwt>
<pdfrwt beam="1">  1        2 0.47025256E+00 0.68424392E+03</pdfrwt>
<pdfrwt beam="2">  1        2 0.27107194E+00 0.39787957E+02</pdfrwt>
<totfact> 0.31727894E+00</totfact>
</mgrwt>
</event>
<event>
13    1  0.2742815E-008  0.2824807E+02  0.7546771E-02  0.1681638E+00
         -1   -1    0    0    0  501 -0.00000000000E+00  0.00000000000E+00  0.20851465163E+04  0.20851465163E+04  0.00000000000E+00 0.  1.
          2   -1    0    0  503    0  0.00000000000E+00 -0.00000000000E+00 -0.56066776653E+03  0.56066776653E+03  0.00000000000E+00 0. -1.
         25    2    1    2    0    0  0.12746804051E+03 -0.11612298401E+03  0.24272616515E+03  0.32291108297E+03  0.12499170970E+03 0.  0.
         24    2    1    2    0    0 -0.15299800693E+03  0.45370892805E+03  0.10430319683E+04  0.11508454364E+04  0.85260484168E+02 0.  0.
         24    2    1    2    0    0  0.33351772608E+02 -0.35513747877E+03 -0.27738360336E+03  0.45948601173E+03  0.83371230042E+02 0.  0.
        -11    1    5    5    0    0  0.47443564807E+02 -0.10856408897E+03 -0.10488771965E+03  0.15823554275E+03  0.00000000000E+00 0.  1.
         12    1    5    5    0    0 -0.14091792199E+02 -0.24657338980E+03 -0.17249588371E+03  0.30125046898E+03  0.00000000000E+00 0. -1.
        -13    1    4    4    0    0  0.73952879391E+01  0.62004085490E+02  0.11549120310E+03  0.13129133594E+03  0.00000000000E+00 0.  1.
         14    1    4    4    0    0 -0.16039329487E+03  0.39170484256E+03  0.92754076516E+03  0.10195541005E+04  0.00000000000E+00 0. -1.
          5    1    3    3  502    0  0.11985960413E+03 -0.27314576638E+02  0.12773351588E+03  0.17734247060E+03  0.47000000000E+01 0.  1.
         -5    1    3    3    0  502  0.76084363819E+01 -0.88808407372E+02  0.11499264926E+03  0.14556861237E+03  0.47000000000E+01 0.  1.
          1    1    1    2  503    0  0.97741978204E+01  0.26524547942E+02 -0.96037537554E+02  0.10011141397E+03  0.00000000000E+00 0. -1.
         -2    1    1    2    0  501 -0.17596004008E+02 -0.89730132122E+01  0.61214175730E+03  0.61246033778E+03  0.00000000000E+00 0.  1.
<mgrwt>
<rscale>  0 0.23620980E+02</rscale>
<asrwt>0</asrwt>
<pdfrwt beam="2">  1        2 0.82451143E-01 0.28248067E+02</pdfrwt>
<pdfrwt beam="1">  1       -1 0.30663919E+00 0.19751818E+02</pdfrwt>
<totfact> 0.34295424E+00</totfact>
</mgrwt>
</event>
<event>
13    1  0.2742815E-008  0.8273231E+02  0.7546771E-02  0.1473592E+00
          2   -1    0    0  503    0  0.00000000000E+00  0.00000000000E+00  0.25125511064E+04  0.25125511064E+04  0.00000000000E+00 0. -1.
          2   -1    0    0  502    0 -0.00000000000E+00 -0.00000000000E+00 -0.31213554678E+03  0.31213554678E+03  0.00000000000E+00 0. -1.
         25    2    1    2    0    0 -0.36276105153E+02 -0.17638704120E+03 -0.83047651651E+02  0.23441556207E+03  0.12500159675E+03 0.  0.
         24    2    1    2    0    0  0.60946935417E+02  0.58150698129E+02  0.12327131220E+03  0.16978958183E+03  0.80849570549E+02 0.  0.
         24    2    1    2    0    0  0.30051417035E+01  0.54819511141E+02  0.11423409650E+03  0.14990489061E+03  0.80048970933E+02 0.  0.
        -11    1    4    4    0    0  0.68321273790E+02  0.36669302509E+02  0.48065159792E+02  0.91228799097E+02  0.00000000000E+00 0.  1.
         12    1    4    4    0    0 -0.73743383729E+01  0.21481395620E+02  0.75206152406E+02  0.78560782735E+02  0.00000000000E+00 0. -1.
        -11    1    5    5    0    0  0.15142142690E+02 -0.73548561791E+01 -0.25695406617E+01  0.17028826556E+02  0.00000000000E+00 0.  1.
         12    1    5    5    0    0 -0.12137000987E+02  0.62174367320E+02  0.11680363716E+03  0.13287606405E+03  0.00000000000E+00 0. -1.
          5    1    3    3  501    0 -0.20791076903E+02 -0.12492806050E+02  0.26800585687E+02  0.36451343939E+02  0.47000000000E+01 0.  1.
         -5    1    3    3    0  501 -0.15485028250E+02 -0.16389423515E+03 -0.10984823734E+03  0.19796421813E+03  0.47000000000E+01 0.  1.
          1    1    1    2  502    0 -0.16143210427E+02 -0.18572238835E+02 -0.11015733114E+03  0.11287235668E+03  0.00000000000E+00 0. -1.
          1    1    1    2  503    0 -0.11532761541E+02  0.81989070765E+02  0.21561151338E+04  0.21577042620E+04  0.00000000000E+00 0. -1.
<mgrwt>
<rscale>  0 0.45120273E+02</rscale>
<asrwt>0</asrwt>
<pdfrwt beam="1">  1        2 0.36949280E+00 0.82732309E+02</pdfrwt>
<pdfrwt beam="2">  1        2 0.45902288E-01 0.24607546E+02</pdfrwt>
<totfact> 0.88113365E+01</totfact>
</mgrwt>
</event>
<event>
13    1  0.2742815E-008  0.1060658E+03  0.7546771E-02  0.1385083E+00
          2   -1    0    0  503    0  0.00000000000E+00  0.00000000000E+00  0.22032979741E+04  0.22032979741E+04  0.00000000000E+00 0. -1.
         -3   -1    0    0    0  501 -0.00000000000E+00 -0.00000000000E+00 -0.56456328265E+03  0.56456328265E+03  0.00000000000E+00 0.  1.
         25    2    1    2    0    0  0.95040845722E+01  0.39252833376E+02 -0.13626298407E+03  0.18927523054E+03  0.12500559794E+03 0.  0.
         24    2    1    2    0    0 -0.49067661169E+02 -0.11179754871E+03  0.13785383094E+02  0.14759639214E+03  0.81782216378E+02 0.  0.
         24    2    1    2    0    0  0.10265702939E+03  0.10006370623E+03  0.37919838276E+02  0.16906112100E+03  0.81194442603E+02 0.  0.
        -13    1    5    5    0    0 -0.12726898103E+02  0.42158832766E+01  0.93976521757E+01  0.16372644060E+02  0.00000000000E+00 0.  1.
         14    1    5    5    0    0  0.11538392750E+03  0.95847822958E+02  0.28522186101E+02  0.15268847694E+03  0.00000000000E+00 0. -1.
        -13    1    4    4    0    0 -0.43595379354E+02 -0.98283027059E+02  0.42324413759E+02  0.11554854611E+03  0.00000000000E+00 0.  1.
         14    1    4    4    0    0 -0.54722818156E+01 -0.13514521651E+02 -0.28539030664E+02  0.32047846027E+02  0.00000000000E+00 0. -1.
          5    1    3    3  502    0  0.54703404395E+02 -0.15331828631E+02 -0.39969804368E+02  0.69621854922E+02  0.47000000000E+01 0.  1.
         -5    1    3    3    0  502 -0.45199319822E+02  0.54584662007E+02 -0.96293179702E+02  0.11965337561E+03  0.47000000000E+01 0.  1.
          1    1    1    2  503    0 -0.99134317143E+02 -0.38214399557E+02  0.19898744208E+04  0.19927087504E+04  0.00000000000E+00 0. -1.
         -4    1    1    2    0  501  0.36040864347E+02  0.10695408657E+02 -0.26658196668E+03  0.26921976270E+03  0.00000000000E+00 0.  1.
<mgrwt>
<rscale>  0 0.63146448E+02</rscale>
<asrwt>0</asrwt>
<pdfrwt beam="1">  1        2 0.32401441E+00 0.10606576E+03</pdfrwt>
<pdfrwt beam="2">  1       -3 0.83024013E-01 0.37594357E+02</pdfrwt>
<totfact> 0.58450224E+00</totfact>
</mgrwt>
</event>
<event>
13    1  0.2742815E-008  0.9093557E+02  0.7546771E-02  0.1440797E+00
          2   -1    0    0  503    0  0.00000000000E+00  0.00000000000E+00  0.12218506254E+04  0.12218506254E+04  0.00000000000E+00 0. -1.
          2   -1    0    0  502    0 -0.00000000000E+00 -0.00000000000E+00 -0.92615549117E+03  0.92615549117E+03  0.00000000000E+00 0. -1.
         25    2    1    2    0    0  0.10959675805E+03  0.12748181358E+03 -0.31642399952E+03  0.37948946487E+03  0.12500017723E+03 0.  0.
         24    2    1    2    0    0 -0.27323001271E+01 -0.70300376455E+02  0.92019255148E+02  0.13670205369E+03  0.72596830316E+02 0.  0.
         24    2    1    2    0    0 -0.12206429771E+03  0.45332533760E+02  0.73218806592E+03  0.74788431042E+03  0.79226551779E+02 0.  0.
        -11    1    4    4    0    0 -0.31598502295E+02 -0.51904008985E+02  0.79917924240E+02  0.10039604629E+03  0.00000000000E+00 0.  1.
         12    1    4    4    0    0  0.28866202167E+02 -0.18396367470E+02  0.12101330908E+02  0.36306007401E+02  0.00000000000E+00 0. -1.
        -13    1    5    5    0    0 -0.47033932677E+02 -0.12655158674E+02  0.38168943038E+03  0.38478456977E+03  0.00000000000E+00 0.  1.
         14    1    5    5    0    0 -0.75030365028E+02  0.57987692435E+02  0.35049863554E+03  0.36309974066E+03  0.00000000000E+00 0. -1.
          5    1    3    3  501    0  0.68838127017E+02  0.83300605848E+02 -0.29709576020E+03  0.31617346409E+03  0.47000000000E+01 0.  1.
         -5    1    3    3    0  501  0.40758631029E+02  0.44181207736E+02 -0.19328239329E+02  0.63316000789E+02  0.47000000000E+01 0.  1.
          1    1    1    2  502    0  0.25626006084E+02 -0.12328766518E+02 -0.54149537581E+03  0.54224158149E+03  0.00000000000E+00 0. -1.
          1    1    1    2  503    0 -0.10426166297E+02 -0.90185204372E+02  0.32940718845E+03  0.34168870604E+03  0.00000000000E+00 0. -1.
<mgrwt>
<rscale>  0 0.50852524E+02</rscale>
<asrwt>0</asrwt>
<pdfrwt beam="1">  1        2 0.17968392E+00 0.90935572E+02</pdfrwt>
<pdfrwt beam="2">  1        2 0.13619934E+00 0.28437487E+02</pdfrwt>
<totfact> 0.11926101E+02</totfact>
</mgrwt>
</event>
<event>
13    1  0.2742815E-008  0.1482093E+03  0.7546771E-02  0.1427378E+00
          2   -1    0    0  503    0  0.00000000000E+00  0.00000000000E+00  0.85804447793E+03  0.85804447793E+03  0.00000000000E+00 0. -1.
         -3   -1    0    0    0  501 -0.00000000000E+00 -0.00000000000E+00 -0.57183556863E+03  0.57183556863E+03  0.00000000000E+00 0.  1.
         25    2    1    2    0    0  0.10030473103E+03 -0.10719285072E+03 -0.23715986421E+03  0.30564584698E+03  0.12499294489E+03 0.  0.
         24    2    1    2    0    0  0.81932599385E+02  0.30050746413E+01 -0.49298856478E+02  0.12472379510E+03  0.80022912341E+02 0.  0.
         24    2    1    2    0    0 -0.88196796873E+02  0.10993547589E+02  0.10156109546E+03  0.15622296582E+03  0.78685614128E+02 0.  0.
        -11    1    4    4    0    0 -0.77895624732E+01  0.20840278917E+02 -0.38540383984E+01  0.22579816670E+02  0.00000000000E+00 0.  1.
         12    1    4    4    0    0  0.89722161858E+02 -0.17835204276E+02 -0.45444818079E+02  0.10214397843E+03  0.00000000000E+00 0. -1.
        -13    1    5    5    0    0 -0.41634046242E+02 -0.80793666125E+01  0.96796964452E+02  0.10568028340E+03  0.00000000000E+00 0.  1.
         14    1    5    5    0    0 -0.46562750632E+02  0.19072914202E+02  0.47641310125E+01  0.50542682426E+02  0.00000000000E+00 0. -1.
          5    1    3    3  502    0 -0.12329521946E+02 -0.24995214544E+01  0.84229807355E+01  0.15852486347E+02  0.47000000000E+01 0.  1.
         -5    1    3    3    0  502  0.11263425298E+03 -0.10469332926E+03 -0.24558284495E+03  0.28979336063E+03  0.47000000000E+01 0.  1.
          1    1    1    2  503    0 -0.10525395322E+03  0.77479801340E+02  0.65017518030E+03  0.66318118140E+03  0.00000000000E+00 0. -1.
         -4    1    1    2    0  501  0.11213419677E+02  0.15714427144E+02 -0.17906864578E+03  0.18010625726E+03  0.00000000000E+00 0.  1.
<mgrwt>
<rscale>  0 0.53490034E+02</rscale>
<asrwt>0</asrwt>
<pdfrwt beam="1">  1        2 0.12618301E+00 0.14820927E+03</pdfrwt>
<pdfrwt beam="2">  1       -3 0.84093466E-01 0.19305025E+02</pdfrwt>
<totfact> 0.26305777E+01</totfact>
</mgrwt>
</event>
<event>
13    1  0.2742815E-008  0.3250520E+03  0.7546771E-02  0.1151335E+00
          2   -1    0    0  503    0  0.00000000000E+00  0.00000000000E+00  0.15177997980E+04  0.15177997980E+04  0.00000000000E+00 0. -1.
          2   -1    0    0  502    0 -0.00000000000E+00 -0.00000000000E+00 -0.71150473514E+03  0.71150473514E+03  0.00000000000E+00 0. -1.
         25    2    1    2    0    0 -0.88134609825E+02 -0.81635329627E+02 -0.40587887416E+03  0.44135462331E+03  0.12499682612E+03 0.  0.
         24    2    1    2    0    0  0.15874925225E+03 -0.18467327030E+03  0.80262423403E+02  0.27283107422E+03  0.93215860227E+02 0.  0.
         24    2    1    2    0    0  0.22224075080E+03 -0.94106039343E+02  0.33432950839E+03  0.41983271816E+03  0.78970837015E+02 0.  0.
        -11    1    5    5    0    0  0.17902410736E+03 -0.38365934061E+02  0.25054622206E+03  0.31031433305E+03  0.00000000000E+00 0.  1.
         12    1    5    5    0    0  0.43216643446E+02 -0.55740105282E+02  0.83783286330E+02  0.10951838510E+03  0.00000000000E+00 0. -1.
        -11    1    4    4    0    0  0.55786077203E+02 -0.70659409821E+02 -0.16142559031E+02  0.91462674453E+02  0.00000000000E+00 0.  1.
         12    1    4    4    0    0  0.10296317505E+03 -0.11401386048E+03  0.96404982434E+02  0.18136839977E+03  0.00000000000E+00 0. -1.
          5    1    3    3  501    0 -0.94949933610E+02 -0.83186149602E+02 -0.41200746980E+03  0.43093812844E+03  0.47000000000E+01 0.  1.
         -5    1    3    3    0  501  0.68153237842E+01  0.15508199750E+01  0.61285956389E+01  0.10416494870E+02  0.47000000000E+01 0.  1.
          1    1    1    2  502    0  0.18551607651E+02  0.11932032589E+03 -0.72063051763E+02  0.14062213818E+03  0.00000000000E+00 0. -1.
          1    1    1    2  503    0 -0.31140700088E+03  0.24109431337E+03  0.86964505699E+03  0.95466397925E+03  0.00000000000E+00 0. -1.
<mgrwt>
<rscale>  0 0.19811939E+03</rscale>
<asrwt>0</asrwt>
<pdfrwt beam="1">  1        2 0.22320585E+00 0.32505197E+03</pdfrwt>
<pdfrwt beam="2">  1        2 0.10463305E+00 0.12075389E+03</pdfrwt>
<totfact> 0.99606926E+01</totfact>
</mgrwt>
</event>
<event>
13    1  0.2742815E-008  0.1484701E+03  0.7546771E-02  0.1418657E+00
          2   -1    0    0  503    0  0.00000000000E+00  0.00000000000E+00  0.19471697734E+04  0.19471697734E+04  0.00000000000E+00 0. -1.
         -3   -1    0    0    0  501 -0.00000000000E+00 -0.00000000000E+00 -0.64183411304E+03  0.64183411304E+03  0.00000000000E+00 0.  1.
         25    2    1    2    0    0 -0.51865520864E+01  0.13307471075E+03 -0.67635417563E+02  0.19477040036E+03  0.12500072074E+03 0.  0.
         24    2    1    2    0    0 -0.72458525328E+02  0.87566831059E+02 -0.46793559432E+02  0.14725715254E+03  0.81097743351E+02 0.  0.
         24    2    1    2    0    0  0.27272109057E+02 -0.59796642313E+02  0.43316132722E+03  0.44564316373E+03  0.81545616730E+02 0.  0.
        -11    1    5    5    0    0  0.42197141866E+02 -0.46977815572E+02  0.16358482561E+03  0.17534967667E+03  0.00000000000E+00 0.  1.
         12    1    5    5    0    0 -0.14925032809E+02 -0.12818826742E+02  0.26957650161E+03  0.27029348705E+03  0.00000000000E+00 0. -1.
        -11    1    4    4    0    0 -0.36005624249E+02 -0.83569276314E+01 -0.10745268129E+02  0.38492908492E+02  0.00000000000E+00 0.  1.
         12    1    4    4    0    0 -0.36452901079E+02  0.95923758690E+02 -0.36048291304E+02  0.10876424405E+03  0.00000000000E+00 0. -1.
          5    1    3    3  502    0  0.41227390867E+01  0.35739127391E+02  0.36765389059E+02  0.51653325516E+02  0.47000000000E+01 0.  1.
         -5    1    3    3    0  502 -0.93092911731E+01  0.97335583355E+02 -0.10440080662E+03  0.14311707485E+03  0.47000000000E+01 0.  1.
          1    1    1    2  503    0  0.64636545792E+02 -0.14597929242E+03  0.13891328494E+04  0.13982767645E+04  0.00000000000E+00 0. -1.
         -4    1    1    2    0  501 -0.14263577434E+02 -0.14865607068E+02 -0.40252953925E+03  0.40305640533E+03  0.00000000000E+00 0.  1.
<mgrwt>
<rscale>  0 0.55306033E+02</rscale>
<asrwt>0</asrwt>
<pdfrwt beam="1">  1        2 0.28634849E+00 0.14847008E+03</pdfrwt>
<pdfrwt beam="2">  1       -3 0.94387370E-01 0.20601843E+02</pdfrwt>
<totfact> 0.55090513E+00</totfact>
</mgrwt>
</event>
<event>
13    1  0.2742815E-008  0.1471086E+03  0.7546771E-02  0.1328433E+00
          4   -1    0    0  503    0 -0.00000000000E+00  0.00000000000E+00  0.13037276928E+04  0.13037276928E+04  0.00000000000E+00 0. -1.
          2   -1    0    0  502    0  0.00000000000E+00 -0.00000000000E+00 -0.10363663500E+04  0.10363663500E+04  0.00000000000E+00 0. -1.
         25    2    1    2    0    0  0.35475547722E+02  0.53496202551E+02 -0.50832779504E+01  0.14060861221E+03  0.12499833575E+03 0.  0.
         24    2    1    2    0    0 -0.27751943769E+01 -0.55990657514E+02 -0.11029871303E+03  0.14652724637E+03  0.78496957902E+02 0.  0.
         24    2    1    2    0    0  0.24810495680E+01 -0.10335215246E+03 -0.32333329813E+03  0.34826324559E+03  0.77814160195E+02 0.  0.
        -11    1    5    5    0    0 -0.15998535059E+02  0.69569776733E+01 -0.48547044029E+02  0.51586511283E+02  0.00000000000E+00 0.  1.
         12    1    5    5    0    0  0.18479584627E+02 -0.11030913013E+03 -0.27478625410E+03  0.29667673431E+03  0.00000000000E+00 0. -1.
        -13    1    4    4    0    0  0.33197251472E+02 -0.10705986735E+02 -0.62171660180E+02  0.71288084466E+02  0.00000000000E+00 0.  1.
         14    1    4    4    0    0 -0.35972445849E+02 -0.45284670779E+02 -0.48127052848E+02  0.75239161902E+02  0.00000000000E+00 0. -1.
          5    1    3    3  501    0  0.51378103289E+02 -0.26658494861E+02 -0.84651195955E+01  0.58686736964E+02  0.47000000000E+01 0.  1.
         -5    1    3    3    0  501 -0.15902555567E+02  0.80154697412E+02  0.33818416451E+01  0.81921875245E+02  0.47000000000E+01 0.  1.
          1    1    1    2  502    0 -0.69165885883E+02  0.13338739140E+03 -0.48759578861E+03  0.51022129417E+03  0.00000000000E+00 0. -1.
          3    1    1    2  503    0  0.33984482970E+02 -0.27540783981E+02  0.11936724205E+04  0.11944736445E+04  0.00000000000E+00 0. -1.
<mgrwt>
<rscale>  0 0.80218175E+02</rscale>
<asrwt>0</asrwt>
<pdfrwt beam="2">  1        2 0.15240682E+00 0.14710863E+03</pdfrwt>
<pdfrwt beam="1">  1        4 0.19172466E+00 0.43742884E+02</pdfrwt>
<totfact> 0.23868206E+00</totfact>
</mgrwt>
</event>
<event>
13    1  0.2742815E-008  0.3347930E+02  0.7546771E-02  0.1637023E+00
          2   -1    0    0  503    0  0.00000000000E+00  0.00000000000E+00  0.98677359067E+03  0.98677359067E+03  0.00000000000E+00 0. -1.
          2   -1    0    0  502    0 -0.00000000000E+00 -0.00000000000E+00 -0.33485254956E+04  0.33485254956E+04  0.00000000000E+00 0. -1.
         25    2    1    2    0    0  0.99131076599E+01  0.56811220294E+02 -0.51021586970E+02  0.14681509772E+03  0.12500274447E+03 0.  0.
         24    2    1    2    0    0  0.23882541992E+01 -0.17374134802E+02 -0.26450223094E+02  0.88939241635E+02  0.83084355222E+02 0.  0.
         24    2    1    2    0    0 -0.21748402673E+02 -0.70950431960E+01  0.70373158395E+03  0.70860003123E+03  0.79702756222E+02 0.  0.
        -11    1    4    4    0    0 -0.32127898457E+02 -0.29939532905E+02 -0.41758964793E+00  0.43917557662E+02  0.00000000000E+00 0.  1.
         12    1    4    4    0    0  0.34516152656E+02  0.12565398103E+02 -0.26032633446E+02  0.45021683974E+02  0.00000000000E+00 0. -1.
        -13    1    5    5    0    0  0.14466593989E+02  0.28425426786E+02  0.24297336319E+03  0.24505783491E+03  0.00000000000E+00 0.  1.
         14    1    5    5    0    0 -0.36214996662E+02 -0.35520469982E+02  0.46075822076E+03  0.46354219632E+03  0.00000000000E+00 0. -1.
          5    1    3    3  501    0 -0.22279993401E+01 -0.38957649167E+02 -0.25505641807E+02  0.46853923781E+02  0.47000000000E+01 0.  1.
         -5    1    3    3    0  501  0.12141107000E+02  0.95768869461E+02 -0.25515945163E+02  0.99961173935E+02  0.47000000000E+01 0.  1.
          1    1    1    2  502    0  0.26877313325E+02 -0.19963049563E+02 -0.31888229153E+04  0.31889986670E+04  0.00000000000E+00 0. -1.
          1    1    1    2  503    0 -0.17430272512E+02 -0.12378992733E+02  0.20081123648E+03  0.20194604863E+03  0.00000000000E+00 0. -1.
<mgrwt>
<rscale>  0 0.26753466E+02</rscale>
<asrwt>0</asrwt>
<pdfrwt beam="1">  1        2 0.14511376E+00 0.21378818E+02</pdfrwt>
<pdfrwt beam="2">  1        2 0.49243022E+00 0.33479304E+02</pdfrwt>
<totfact> 0.11448255E+01</totfact>
</mgrwt>
</event>
<event>
13    1  0.2742815E-008  0.1227201E+03  0.7546771E-02  0.1308356E+00
          2   -1    0    0  503    0  0.00000000000E+00  0.00000000000E+00  0.51854411392E+03  0.51854411392E+03  0.00000000000E+00 0. -1.
         -3   -1    0    0    0  501 -0.00000000000E+00 -0.00000000000E+00 -0.68776427605E+03  0.68776427605E+03  0.00000000000E+00 0.  1.
         25    2    1    2    0    0  0.11346503169E+03  0.32953990043E+02 -0.28287078097E+03  0.33106199722E+03  0.12500355356E+03 0.  0.
         24    2    1    2    0    0 -0.60051799122E+01 -0.11425762288E+03 -0.13970744073E+03  0.19672927997E+03  0.78060066822E+02 0.  0.
         24    2    1    2    0    0 -0.18470887694E+02  0.14072896633E+03  0.25315984195E+03  0.30223456396E+03  0.84320877730E+02 0.  0.
        -11    1    5    5    0    0  0.17145085663E+02  0.36935283242E+01  0.61472278352E+02  0.63925246340E+02  0.00000000000E+00 0.  1.
         12    1    5    5    0    0 -0.35615973357E+02  0.13703543801E+03  0.19168756360E+03  0.23830931762E+03  0.00000000000E+00 0. -1.
        -11    1    4    4    0    0  0.12892561848E+02  0.77475302198E+01 -0.14617270440E+02  0.20973959346E+02  0.00000000000E+00 0.  1.
         12    1    4    4    0    0 -0.18897741761E+02 -0.12200515310E+03 -0.12509017029E+03  0.17575532063E+03  0.00000000000E+00 0. -1.
          5    1    3    3  502    0  0.13940529551E+03  0.20309082014E+02 -0.21410391794E+03  0.25633742003E+03  0.47000000000E+01 0. -1.
         -5    1    3    3    0  502 -0.25940263821E+02  0.12644908029E+02 -0.68766863033E+02  0.74724577199E+02  0.47000000000E+01 0. -1.
          1    1    1    2  503    0 -0.54061412216E+02 -0.11157623751E+03  0.16126582869E+03  0.20341720815E+03  0.00000000000E+00 0. -1.
         -4    1    1    2    0  501 -0.34927551866E+02  0.52150904009E+02 -0.16106761107E+03  0.17286534066E+03  0.00000000000E+00 0.  1.
<mgrwt>
<rscale>  0 0.87765182E+02</rscale>
<asrwt>0</asrwt>
<pdfrwt beam="1">  1        2 0.76256488E-01 0.12272009E+03</pdfrwt>
<pdfrwt beam="2">  1       -3 0.10114181E+00 0.62766637E+02</pdfrwt>
<totfact> 0.33991394E+01</totfact>
</mgrwt>
</event>
<event>
13    1  0.2742815E-008  0.7085785E+02  0.7546771E-02  0.1403082E+00
          2   -1    0    0  502    0  0.00000000000E+00  0.00000000000E+00  0.14526457987E+04  0.14526457987E+04  0.00000000000E+00 0. -1.
          2   -1    0    0  503    0 -0.00000000000E+00 -0.00000000000E+00 -0.13078818604E+04  0.13078818604E+04  0.00000000000E+00 0. -1.
         25    2    1    2    0    0 -0.80006214927E+02 -0.21117892979E+03 -0.70469301015E+03  0.75047692768E+03  0.12500338240E+03 0.  0.
         24    2    1    2    0    0  0.11128844973E+03  0.14802258839E+03  0.51791527474E+03  0.55647992806E+03  0.84485932637E+02 0.  0.
         24    2    1    2    0    0 -0.56985003748E+02 -0.36911863258E+02  0.26178423218E+03  0.28179359410E+03  0.79163559524E+02 0.  0.
        -13    1    4    4    0    0  0.70391364667E+02  0.71182491900E+02  0.16505380159E+03  0.19304053666E+03  0.00000000000E+00 0.  1.
         14    1    4    4    0    0  0.40897085063E+02  0.76840096487E+02  0.35286147315E+03  0.36343939141E+03  0.00000000000E+00 0. -1.
        -13    1    5    5    0    0 -0.42629887575E+02 -0.61260704953E+02  0.16775890133E+03  0.18361162888E+03  0.00000000000E+00 0.  1.
         14    1    5    5    0    0 -0.14355116173E+02  0.24348841695E+02  0.94025330859E+02  0.98181965224E+02  0.00000000000E+00 0. -1.
          5    1    3    3  501    0 -0.90730447442E+02 -0.75938771900E+02 -0.26371831285E+03  0.28908156237E+03  0.47000000000E+01 0.  1.
         -5    1    3    3    0  501  0.10724232515E+02 -0.13524015789E+03 -0.44097469730E+03  0.46139536531E+03  0.47000000000E+01 0.  1.
          1    1    1    2  502    0 -0.12417013348E+02  0.69698480550E+02  0.61766357276E+03  0.62170760774E+03  0.00000000000E+00 0. -1.
          1    1    1    2  503    0  0.38119782294E+02  0.30369724108E+02 -0.54790613120E+03  0.55006960155E+03  0.00000000000E+00 0. -1.
<mgrwt>
<rscale>  0 0.58766510E+02</rscale>
<asrwt>0</asrwt>
<pdfrwt beam="1">  1        2 0.21362438E+00 0.70857848E+02</pdfrwt>
<pdfrwt beam="2">  1        2 0.19233557E+00 0.48738465E+02</pdfrwt>
<totfact> 0.56825952E+01</totfact>
</mgrwt>
</event>
<event>
13    1  0.2742815E-008  0.6516420E+02  0.7546771E-02  0.1439799E+00
          2   -1    0    0  503    0  0.00000000000E+00  0.00000000000E+00  0.26800983236E+04  0.26800983236E+04  0.00000000000E+00 0. -1.
          2   -1    0    0  502    0 -0.00000000000E+00 -0.00000000000E+00 -0.35438784752E+04  0.35438784752E+04  0.00000000000E+00 0. -1.
         25    2    1    2    0    0  0.49086234049E+03  0.65957262991E+03 -0.18536897210E+04  0.20316920275E+04  0.12500008517E+03 0.  0.
         24    2    1    2    0    0 -0.90601975044E+03 -0.65708197697E+03  0.13977955004E+03  0.11303279940E+04  0.73990126452E+02 0.  0.
         24    2    1    2    0    0  0.37646704207E+03  0.17637223871E+02  0.48052866717E+02  0.38796396202E+03  0.78539495790E+02 0.  0.
        -11    1    5    5    0    0  0.30096550914E+03  0.81000172764E+00  0.85052700752E+01  0.30108675397E+03  0.00000000000E+00 0.  1.
         12    1    5    5    0    0  0.75501532930E+02  0.16827222144E+02  0.39547596641E+02  0.86877208058E+02  0.00000000000E+00 0. -1.
        -13    1    4    4    0    0 -0.36213849809E+03 -0.22221311158E+03  0.67835026441E+02  0.43026102493E+03  0.00000000000E+00 0.  1.
         14    1    4    4    0    0 -0.54388125234E+03 -0.43486886539E+03  0.71944523599E+02  0.70006696909E+03  0.00000000000E+00 0. -1.
          5    1    3    3  501    0  0.34210943734E+03  0.38088670892E+03 -0.10513357078E+04  0.11693769335E+04  0.47000000000E+01 0.  1.
         -5    1    3    3    0  501  0.14875290315E+03  0.27868592100E+03 -0.80235401321E+03  0.86231509396E+03  0.47000000000E+01 0.  1.
          1    1    1    2  502    0  0.28304757444E+02 -0.58736397670E+02 -0.93459197469E+03  0.93686353481E+03  0.00000000000E+00 0. -1.
          1    1    1    2  503    0  0.10385610433E+02  0.38608520859E+02  0.17366691274E+04  0.17371292804E+04  0.00000000000E+00 0. -1.
<mgrwt>
<rscale>  0 0.51042418E+02</rscale>
<asrwt>0</asrwt>
<pdfrwt beam="1">  1        2 0.39413211E+00 0.39980980E+02</pdfrwt>
<pdfrwt beam="2">  1        2 0.52115860E+00 0.65164196E+02</pdfrwt>
<totfact> 0.11735727E+00</totfact>
</mgrwt>
</event>
<event>
13    1  0.2742815E-008  0.6980300E+02  0.7546771E-02  0.1388516E+00
          2   -1    0    0  502    0  0.00000000000E+00  0.00000000000E+00  0.34575539405E+04  0.34575539405E+04  0.00000000000E+00 0. -1.
          2   -1    0    0  503    0 -0.00000000000E+00 -0.00000000000E+00 -0.34369489902E+04  0.34369489902E+04  0.00000000000E+00 0. -1.
         25    2    1    2    0    0  0.68593290656E+02 -0.89606712506E+02 -0.18030034788E+03  0.24674104520E+03  0.12505409026E+03 0.  0.
         24    2    1    2    0    0  0.16544470453E+03  0.40060821872E+03 -0.31114301013E+03  0.53918143437E+03  0.77767289115E+02 0.  0.
         24    2    1    2    0    0 -0.22006453118E+03 -0.43293973960E+03  0.68211001811E+03  0.84297499579E+03  0.97301339775E+02 0.  0.
        -11    1    4    4    0    0  0.83647532075E+02  0.23395022230E+03 -0.13266739112E+03  0.28165626712E+03  0.00000000000E+00 0.  1.
         12    1    4    4    0    0  0.81797172451E+02  0.16665799642E+03 -0.17847561900E+03  0.25752516725E+03  0.00000000000E+00 0. -1.
        -13    1    5    5    0    0 -0.88971386990E+02 -0.22745471911E+03  0.26913098931E+03  0.36343231331E+03  0.00000000000E+00 0.  1.
         14    1    5    5    0    0 -0.13109314419E+03 -0.20548502048E+03  0.41297902880E+03  0.47954268248E+03  0.00000000000E+00 0. -1.
          5    1    3    3  501    0  0.47269439792E+02 -0.99117621956E+02 -0.62259071456E+02  0.12632095986E+03  0.47000000000E+01 0.  1.
         -5    1    3    3    0  501  0.21323850864E+02  0.95109094502E+01 -0.11804127642E+03  0.12042008534E+03  0.47000000000E+01 0.  1.
          1    1    1    2  502    0  0.47090004366E+01  0.69610081258E+02  0.25470101404E+04  0.25479655401E+04  0.00000000000E+00 0. -1.
          1    1    1    2  503    0 -0.18682464434E+02  0.52328152125E+02 -0.27170718502E+04  0.27176399152E+04  0.00000000000E+00 0. -1.
<mgrwt>
<rscale>  0 0.62277432E+02</rscale>
<asrwt>0</asrwt>
<pdfrwt beam="1">  1        2 0.50846382E+00 0.69803000E+02</pdfrwt>
<pdfrwt beam="2">  1        2 0.50543367E+00 0.55563207E+02</pdfrwt>
<totfact> 0.49349037E-01</totfact>
</mgrwt>
</event>
<event>
13    1  0.2742815E-008  0.1014604E+03  0.7546771E-02  0.1319056E+00
          2   -1    0    0  503    0  0.00000000000E+00  0.00000000000E+00  0.29935559357E+04  0.29935559357E+04  0.00000000000E+00 0. -1.
          2   -1    0    0  502    0 -0.00000000000E+00 -0.00000000000E+00 -0.20791830787E+04  0.20791830787E+04  0.00000000000E+00 0. -1.
         25    2    1    2    0    0  0.85124755526E+02  0.32166236841E+02 -0.37594047197E+03  0.40649462105E+03  0.12500299069E+03 0.  0.
         24    2    1    2    0    0 -0.67178334098E+02 -0.63535917234E+02 -0.56865306353E+02  0.13516517770E+03  0.80537077457E+02 0.  0.
         24    2    1    2    0    0  0.51540115858E+02  0.70732445075E+02  0.42168189606E+03  0.43734069725E+03  0.76103887414E+02 0.  0.
        -11    1    5    5    0    0  0.65047954978E+02  0.66963685613E+02  0.40464432641E+03  0.41527388857E+03  0.00000000000E+00 0.  1.
         12    1    5    5    0    0 -0.13507839119E+02  0.37687594621E+01  0.17037569649E+02  0.22066808675E+02  0.00000000000E+00 0. -1.
        -11    1    4    4    0    0 -0.58225159302E+02 -0.71908712821E+02 -0.70873561862E+02  0.11655082122E+03  0.00000000000E+00 0.  1.
         12    1    4    4    0    0 -0.89531747969E+01  0.83727955874E+01  0.14008255509E+02  0.18614356484E+02  0.00000000000E+00 0. -1.
          5    1    3    3  501    0  0.11191514684E+03  0.20518316949E+02 -0.34658702293E+03  0.36481592055E+03  0.47000000000E+01 0.  1.
         -5    1    3    3    0  501 -0.26790391315E+02  0.11647919892E+02 -0.29353449034E+02  0.41678700494E+02  0.47000000000E+01 0.  1.
          1    1    1    2  502    0 -0.31210131680E+02 -0.96691652175E+02 -0.15820175553E+04  0.15852769138E+04  0.00000000000E+00 0. -1.
          1    1    1    2  503    0 -0.38276405606E+02  0.57328887492E+02  0.25075142945E+04  0.25084616046E+04  0.00000000000E+00 0. -1.
<mgrwt>
<rscale>  0 0.83629629E+02</rscale>
<asrwt>0</asrwt>
<pdfrwt beam="1">  1        2 0.44022881E+00 0.68932464E+02</pdfrwt>
<pdfrwt beam="2">  1        2 0.30576222E+00 0.10146039E+03</pdfrwt>
<totfact> 0.40363289E+00</totfact>
</mgrwt>
</event>
<event>
13    1  0.2742815E-008  0.3337015E+02  0.7546771E-02  0.1567063E+00
          2   -1    0    0  503    0  0.00000000000E+00  0.00000000000E+00  0.10706514697E+04  0.10706514697E+04  0.00000000000E+00 0. -1.
          2   -1    0    0  502    0 -0.00000000000E+00 -0.00000000000E+00 -0.20254784582E+04  0.20254784582E+04  0.00000000000E+00 0. -1.
         25    2    1    2    0    0 -0.10394302424E+03  0.12520411540E+03 -0.85451912121E+03  0.87880944840E+03  0.12499158080E+03 0.  0.
         24    2    1    2    0    0  0.32842748182E+02 -0.32333768544E+02 -0.41305186433E+01  0.93968862677E+02  0.81786106841E+02 0.  0.
         24    2    1    2    0    0  0.66321460967E+02 -0.11793310130E+03  0.23446079042E+03  0.28236176445E+03  0.80309097928E+02 0.  0.
        -11    1    4    4    0    0  0.53892118000E+02 -0.35284090582E+02 -0.19993638703E+02  0.67446816228E+02  0.00000000000E+00 0.  1.
         12    1    4    4    0    0 -0.21049369818E+02  0.29503220376E+01  0.15863120060E+02  0.26522046450E+02  0.00000000000E+00 0. -1.
        -11    1    5    5    0    0  0.80323348608E+02 -0.74107492789E+02  0.14298837737E+03  0.17997065562E+03  0.00000000000E+00 0.  1.
         12    1    5    5    0    0 -0.14001887641E+02 -0.43825608510E+02  0.91472413051E+02  0.10239110883E+03  0.00000000000E+00 0. -1.
          5    1    3    3  501    0 -0.24597571089E+02  0.21625884938E+01 -0.21701791042E+02  0.33208056656E+02  0.47000000000E+01 0.  1.
         -5    1    3    3    0  501 -0.79345453152E+02  0.12304152690E+03 -0.83281733017E+03  0.84560139174E+03  0.47000000000E+01 0.  1.
          1    1    1    2  502    0 -0.27330901320E+02  0.19178935031E+02 -0.10852043331E+04  0.10857178521E+04  0.00000000000E+00 0. -1.
          1    1    1    2  503    0  0.32109716411E+02  0.58838194138E+01  0.75456619405E+03  0.75527200029E+03  0.00000000000E+00 0. -1.
<mgrwt>
<rscale>  0 0.33005250E+02</rscale>
<asrwt>0</asrwt>
<pdfrwt beam="1">  1        2 0.15744875E+00 0.32644344E+02</pdfrwt>
<pdfrwt beam="2">  1        2 0.29786448E+00 0.33370146E+02</pdfrwt>
<totfact> 0.44670038E+01</totfact>
</mgrwt>
</event>
<event>
13    1  0.2742815E-008  0.9454433E+02  0.7546771E-02  0.1529772E+00
          2   -1    0    0  503    0  0.00000000000E+00  0.00000000000E+00  0.29425018184E+04  0.29425018184E+04  0.00000000000E+00 0. -1.
          2   -1    0    0  502    0 -0.00000000000E+00 -0.00000000000E+00 -0.79736451065E+03  0.79736451065E+03  0.00000000000E+00 0. -1.
         25    2    1    2    0    0 -0.62775732087E+02  0.12268022936E+03 -0.15114015709E+03  0.23970049733E+03  0.12498699980E+03 0.  0.
         24    2    1    2    0    0  0.23538910781E+02 -0.12002684780E+03  0.17143660427E+03  0.23091243820E+03  0.94707551542E+02 0.  0.
         24    2    1    2    0    0 -0.60012922193E+02 -0.12365991485E+02  0.61010591048E+03  0.61839654831E+03  0.80191024381E+02 0.  0.
        -11    1    5    5    0    0 -0.49610540441E+02 -0.12648482179E+02  0.15630355411E+03  0.16447489429E+03  0.00000000000E+00 0.  1.
         12    1    5    5    0    0 -0.10402381752E+02  0.28249069348E+00  0.45380235637E+03  0.45392165402E+03  0.00000000000E+00 0. -1.
        -13    1    4    4    0    0  0.58436007544E+02 -0.94939288269E+02  0.12929232667E+03  0.17071830942E+03  0.00000000000E+00 0.  1.
         14    1    4    4    0    0 -0.34897096763E+02 -0.25087559534E+02  0.42144277599E+02  0.60194128785E+02  0.00000000000E+00 0. -1.
          5    1    3    3  501    0  0.28973512139E+02  0.20234549022E+02 -0.73532697849E+02  0.81719330839E+02  0.47000000000E+01 0. -1.
         -5    1    3    3    0  501 -0.91749244226E+02  0.10244568034E+03 -0.77607459240E+02  0.15798116649E+03  0.47000000000E+01 0. -1.
          1    1    1    2  502    0  0.74055634355E+01 -0.12638426949E+02 -0.56689382101E+03  0.56708304199E+03  0.00000000000E+00 0. -1.
          1    1    1    2  503    0  0.91844180063E+02  0.22351036878E+02  0.20816287711E+04  0.20837738032E+04  0.00000000000E+00 0. -1.
<mgrwt>
<rscale>  0 0.37214407E+02</rscale>
<asrwt>0</asrwt>
<pdfrwt beam="1">  1        2 0.43272085E+00 0.94544326E+02</pdfrwt>
<pdfrwt beam="2">  1        2 0.11725949E+00 0.14648283E+02</pdfrwt>
<totfact> 0.20363206E+01</totfact>
</mgrwt>
</event>
<event>
13    1  0.2742815E-008  0.4905690E+02  0.7546771E-02  0.1507030E+00
          2   -1    0    0  502    0  0.00000000000E+00  0.00000000000E+00  0.12845070898E+04  0.12845070898E+04  0.00000000000E+00 0. -1.
          2   -1    0    0  503    0 -0.00000000000E+00 -0.00000000000E+00 -0.93500841046E+03  0.93500841046E+03  0.00000000000E+00 0. -1.
         25    2    1    2    0    0 -0.10286398153E+03  0.74118737386E+02 -0.45072226707E+03  0.48461182687E+03  0.12499389899E+03 0.  0.
         24    2    1    2    0    0 -0.85629153585E+01 -0.40627146684E+02  0.53844908172E+03  0.54729678555E+03  0.88783271527E+02 0.  0.
         24    2    1    2    0    0  0.68986318020E+02  0.22834671662E+02  0.53332334106E+03  0.54440919363E+03  0.81652003538E+02 0.  0.
        -13    1    4    4    0    0 -0.39010630867E+02 -0.51152565821E+02  0.31157237339E+03  0.31814424114E+03  0.00000000000E+00 0.  1.
         14    1    4    4    0    0  0.30447715508E+02  0.10525419137E+02  0.22687670833E+03  0.22915254441E+03  0.00000000000E+00 0. -1.
        -13    1    5    5    0    0  0.29658145611E+02  0.89677262234E+01  0.46955902518E+02  0.56257288381E+02  0.00000000000E+00 0.  1.
         14    1    5    5    0    0  0.39328172409E+02  0.13866945439E+02  0.48636743855E+03  0.48815190525E+03  0.00000000000E+00 0. -1.
          5    1    3    3  501    0 -0.72265902955E+02 -0.78562816351E+01 -0.10389897075E+03  0.12689037794E+03  0.47000000000E+01 0.  1.
         -5    1    3    3    0  501 -0.30598078579E+02  0.81975019022E+02 -0.34682329632E+03  0.35772144893E+03  0.47000000000E+01 0.  1.
          1    1    1    2  502    0 -0.62567346193E+00 -0.32872224363E+02  0.18303973052E+03  0.18596913064E+03  0.00000000000E+00 0. -1.
          1    1    1    2  503    0  0.43066252334E+02 -0.23454038001E+02 -0.45459120687E+03  0.45722856358E+03  0.00000000000E+00 0. -1.
<mgrwt>
<rscale>  0 0.40160945E+02</rscale>
<asrwt>0</asrwt>
<pdfrwt beam="1">  1        2 0.18889810E+00 0.32878178E+02</pdfrwt>
<pdfrwt beam="2">  1        2 0.13750124E+00 0.49056900E+02</pdfrwt>
<totfact> 0.11441399E+02</totfact>
</mgrwt>
</event>
<event>
13    1  0.2742815E-008  0.7725558E+02  0.7546771E-02  0.1497498E+00
          2   -1    0    0  503    0  0.00000000000E+00  0.00000000000E+00  0.22049699128E+04  0.22049699128E+04  0.00000000000E+00 0. -1.
          2   -1    0    0  502    0 -0.00000000000E+00 -0.00000000000E+00 -0.19480340949E+04  0.19480340949E+04  0.00000000000E+00 0. -1.
         25    2    1    2    0    0 -0.46993745144E+02 -0.71273020313E+02 -0.22324655455E+03  0.26972532651E+03  0.12499788853E+03 0.  0.
         24    2    1    2    0    0 -0.39988935533E+01  0.10614898067E+02  0.90904652891E+02  0.12184067645E+03  0.80329492157E+02 0.  0.
         24    2    1    2    0    0  0.30219760634E+02 -0.26117311952E+02  0.88666721908E+03  0.89142660520E+03  0.82869096418E+02 0.  0.
        -13    1    5    5    0    0 -0.93356959076E+01 -0.45794729277E+02  0.38755540194E+03  0.39036329492E+03  0.00000000000E+00 0.  1.
         14    1    5    5    0    0  0.39555456541E+02  0.19677417325E+02  0.49911181714E+03  0.50106331027E+03  0.00000000000E+00 0. -1.
        -13    1    4    4    0    0  0.41763826409E+01 -0.28537309102E+02  0.82191327859E+01  0.29989570295E+02  0.00000000000E+00 0.  1.
         14    1    4    4    0    0 -0.81752761941E+01  0.39152207169E+02  0.82685520105E+02  0.91851106156E+02  0.00000000000E+00 0. -1.
          5    1    3    3  501    0 -0.40318858790E+02  0.17895154092E+02 -0.22126497038E+02  0.49573367702E+02  0.47000000000E+01 0.  1.
         -5    1    3    3    0  501 -0.66748863538E+01 -0.89168174405E+02 -0.20112005751E+03  0.22015195881E+03  0.47000000000E+01 0.  1.
          1    1    1    2  502    0  0.62740768659E+00  0.77244608637E+02 -0.16827096346E+04  0.16844817713E+04  0.00000000000E+00 0. -1.
          1    1    1    2  503    0  0.20145470377E+02  0.95308255616E+01  0.11853201352E+04  0.11855296283E+04  0.00000000000E+00 0. -1.
<mgrwt>
<rscale>  0 0.41493815E+02</rscale>
<asrwt>0</asrwt>
<pdfrwt beam="1">  1        2 0.32426028E+00 0.22286243E+02</pdfrwt>
<pdfrwt beam="2">  1        2 0.28647560E+00 0.77255584E+02</pdfrwt>
<totfact> 0.13682529E+01</totfact>
</mgrwt>
</event>
<event>
13    1  0.2742815E-008  0.1136044E+03  0.7546771E-02  0.1347317E+00
          2   -1    0    0  502    0  0.00000000000E+00  0.00000000000E+00  0.87996062257E+03  0.87996062257E+03  0.00000000000E+00 0. -1.
          2   -1    0    0  503    0 -0.00000000000E+00 -0.00000000000E+00 -0.17479032685E+04  0.17479032685E+04  0.00000000000E+00 0. -1.
         25    2    1    2    0    0  0.13551527871E+02 -0.13941341785E+03 -0.26309429851E+03  0.32320784775E+03  0.12499983183E+03 0.  0.
         24    2    1    2    0    0 -0.27990517177E+02  0.13680848009E+03 -0.44222488086E+02  0.16795339253E+03  0.82174718332E+02 0.  0.
         24    2    1    2    0    0  0.77911120856E+02  0.23956767217E+02 -0.13678636353E+03  0.17849250140E+03  0.80653545234E+02 0.  0.
        -11    1    4    4    0    0 -0.45091309095E+02  0.30726257794E+02 -0.15787319600E+02  0.56802891952E+02  0.00000000000E+00 0.  1.
         12    1    4    4    0    0  0.17100791919E+02  0.10608222230E+03 -0.28435168485E+02  0.11115050058E+03  0.00000000000E+00 0. -1.
        -13    1    5    5    0    0  0.47907635200E+02 -0.25769007430E+02 -0.83609577897E+02  0.99748407358E+02  0.00000000000E+00 0.  1.
         14    1    5    5    0    0  0.30003485656E+02  0.49725774647E+02 -0.53176785633E+02  0.78744094039E+02  0.00000000000E+00 0. -1.
          5    1    3    3  501    0  0.14928236168E+02  0.10470501109E+00 -0.12795728317E+03  0.12891089758E+03  0.47000000000E+01 0.  1.
         -5    1    3    3    0  501 -0.13767082976E+01 -0.13951812286E+03 -0.13513701533E+03  0.19429695017E+03  0.47000000000E+01 0.  1.
          1    1    1    2  502    0  0.47280824963E+02  0.86743869038E+01  0.76366389853E+03  0.76517532064E+03  0.00000000000E+00 0. -1.
          1    1    1    2  503    0 -0.11075295651E+03 -0.30026216362E+02 -0.11875033943E+04  0.11930348287E+04  0.00000000000E+00 0. -1.
<mgrwt>
<rscale>  0 0.73898295E+02</rscale>
<asrwt>0</asrwt>
<pdfrwt beam="1">  1        2 0.12940598E+00 0.48069964E+02</pdfrwt>
<pdfrwt beam="2">  1        2 0.25704460E+00 0.11360437E+03</pdfrwt>
<totfact> 0.66554691E+01</totfact>
</mgrwt>
</event>
<event>
13    1  0.2742815E-008  0.5100035E+02  0.7546771E-02  0.1444043E+00
          2   -1    0    0  503    0  0.00000000000E+00  0.00000000000E+00  0.30833695153E+04  0.30833695153E+04  0.00000000000E+00 0. -1.
          2   -1    0    0  502    0 -0.00000000000E+00 -0.00000000000E+00 -0.11072463508E+04  0.11072463508E+04  0.00000000000E+00 0. -1.
         25    2    1    2    0    0  0.16556507973E+02 -0.47226564533E+02 -0.44596489753E+03  0.46584567665E+03  0.12499215286E+03 0.  0.
         24    2    1    2    0    0  0.26104701522E+02 -0.13499072353E+02 -0.70688982492E+02  0.11131737623E+03  0.80814266119E+02 0.  0.
         24    2    1    2    0    0 -0.43027782664E+02  0.62308007772E+02  0.59496189976E+03  0.60515801613E+03  0.80640463800E+02 0.  0.
        -11    1    5    5    0    0 -0.59132296743E+02  0.44389124968E+02  0.54141866488E+03  0.54644413586E+03  0.00000000000E+00 0.  1.
         12    1    5    5    0    0  0.16104514079E+02  0.17918882804E+02  0.53543234880E+02  0.58713880268E+02  0.00000000000E+00 0. -1.
        -13    1    4    4    0    0  0.27683338221E+02  0.25462984787E+02 -0.60119918330E+02  0.70916397183E+02  0.00000000000E+00 0.  1.
         14    1    4    4    0    0 -0.15786366999E+01 -0.38962057141E+02 -0.10569064162E+02  0.40400979044E+02  0.00000000000E+00 0. -1.
          5    1    3    3  501    0  0.65147164254E+02 -0.50114801153E+02 -0.32738577129E+03  0.33757840503E+03  0.47000000000E+01 0. -1.
         -5    1    3    3    0  501 -0.48590656281E+02  0.28882366200E+01 -0.11857912624E+03  0.12826727162E+03  0.47000000000E+01 0. -1.
          1    1    1    2  502    0  0.20029971185E+02 -0.47002609958E+02 -0.55381415644E+03  0.55616595091E+03  0.00000000000E+00 0. -1.
          1    1    1    2  503    0 -0.19663398016E+02  0.45420239073E+02  0.24516293013E+04  0.24521288462E+04  0.00000000000E+00 0. -1.
<mgrwt>
<rscale>  0 0.50241487E+02</rscale>
<asrwt>0</asrwt>
<pdfrwt beam="1">  1        2 0.45343669E+00 0.49493912E+02</pdfrwt>
<pdfrwt beam="2">  1        2 0.16283035E+00 0.51000354E+02</pdfrwt>
<totfact> 0.12129195E+01</totfact>
</mgrwt>
</event>
<event>
13    1  0.2742815E-008  0.6127831E+02  0.7546771E-02  0.1610636E+00
          2   -1    0    0  502    0  0.00000000000E+00  0.00000000000E+00  0.10061514284E+04  0.10061514284E+04  0.00000000000E+00 0. -1.
          2   -1    0    0  503    0 -0.00000000000E+00 -0.00000000000E+00 -0.21155634397E+04  0.21155634397E+04  0.00000000000E+00 0. -1.
         25    2    1    2    0    0  0.42075194306E+03 -0.17067347191E+03 -0.44698918608E+03  0.64929529385E+03  0.12499365799E+03 0.  0.
         24    2    1    2    0    0 -0.38356462541E+03 -0.41992231683E+03 -0.69204342596E+03  0.90211024140E+03  0.10687474060E+03 0.  0.
         24    2    1    2    0    0  0.19346217581E+02  0.55188666588E+03 -0.37473729666E+03  0.67293281718E+03  0.86356046850E+02 0.  0.
        -11    1    4    4    0    0 -0.20234099754E+03 -0.17577361766E+03 -0.39253902610E+03  0.47531582234E+03  0.00000000000E+00 0.  1.
         12    1    4    4    0    0 -0.18122362787E+03 -0.24414869917E+03 -0.29950439985E+03  0.42679441906E+03  0.00000000000E+00 0. -1.
        -13    1    5    5    0    0 -0.10237933947E+02  0.96283215878E+02 -0.31780291531E+02  0.10190809527E+03  0.00000000000E+00 0.  1.
         14    1    5    5    0    0  0.29584151529E+02  0.45560345000E+03 -0.34295700512E+03  0.57102472191E+03  0.00000000000E+00 0. -1.
          5    1    3    3  501    0  0.26755890108E+03 -0.14174210019E+03 -0.36099509354E+03  0.47118800502E+03  0.47000000000E+01 0.  1.
         -5    1    3    3    0  501  0.15319304199E+03 -0.28931371715E+02 -0.85994092533E+02  0.17810728883E+03  0.47000000000E+01 0.  1.
          1    1    1    2  502    0 -0.55897102680E+02  0.25099074812E+02  0.64923531632E+03  0.65212034595E+03  0.00000000000E+00 0. -1.
          1    1    1    2  503    0 -0.63643255355E+00  0.13610048051E+02 -0.24487741895E+03  0.24525616968E+03  0.00000000000E+00 0. -1.
<mgrwt>
<rscale>  0 0.28894846E+02</rscale>
<asrwt>0</asrwt>
<pdfrwt beam="1">  1        2 0.14796345E+00 0.61278312E+02</pdfrwt>
<pdfrwt beam="2">  1        2 0.31111227E+00 0.13624920E+02</pdfrwt>
<totfact> 0.48064834E+01</totfact>
</mgrwt>
</event>
<event>
13    1  0.2742815E-008  0.9431597E+02  0.7546771E-02  0.1315497E+00
          2   -1    0    0  502    0  0.00000000000E+00  0.00000000000E+00  0.16935880841E+04  0.16935880841E+04  0.00000000000E+00 0. -1.
          2   -1    0    0  503    0 -0.00000000000E+00 -0.00000000000E+00 -0.23082564617E+04  0.23082564617E+04  0.00000000000E+00 0. -1.
         25    2    1    2    0    0 -0.27164369319E+03 -0.43050552868E+03 -0.67417240952E+03  0.85396829511E+03  0.12501241950E+03 0.  0.
         24    2    1    2    0    0  0.67419784384E+02  0.11909557058E+03  0.44096430626E+02  0.16478349909E+03  0.80497975877E+02 0.  0.
         24    2    1    2    0    0  0.12678813901E+03  0.17445820320E+03  0.34134328134E+03  0.41162927198E+03  0.80078242853E+02 0.  0.
        -13    1    4    4    0    0  0.73153149528E+01 -0.10542316720E+02  0.13549897205E+02  0.18661564483E+02  0.00000000000E+00 0.  1.
         14    1    4    4    0    0  0.60104469431E+02  0.12963788730E+03  0.30546533421E+02  0.14612193461E+03  0.00000000000E+00 0. -1.
        -13    1    5    5    0    0 -0.72783372629E+01  0.13916720781E+02  0.53905418087E+02  0.56146624206E+02  0.00000000000E+00 0.  1.
         14    1    5    5    0    0  0.13406647628E+03  0.16054148242E+03  0.28743786325E+03  0.35548264777E+03  0.00000000000E+00 0. -1.
          5    1    3    3  501    0 -0.20507888589E+03 -0.28224249606E+03 -0.36680155514E+03  0.50624465121E+03  0.47000000000E+01 0. -1.
         -5    1    3    3    0  501 -0.66564807301E+02 -0.14826303262E+03 -0.30737085437E+03  0.34772364391E+03  0.47000000000E+01 0. -1.
          1    1    1    2  502    0  0.72132066006E+02  0.60575927982E+02  0.11197736522E+04  0.11237283970E+04  0.00000000000E+00 0. -1.
          1    1    1    2  503    0  0.53037037840E+01  0.76375826919E+02 -0.14457093323E+04  0.14477350827E+04  0.00000000000E+00 0. -1.
<mgrwt>
<rscale>  0 0.84975336E+02</rscale>
<asrwt>0</asrwt>
<pdfrwt beam="1">  1        2 0.24905707E+00 0.94315971E+02</pdfrwt>
<pdfrwt beam="2">  1        2 0.33944948E+00 0.76559756E+02</pdfrwt>
<totfact> 0.13527216E+01</totfact>
</mgrwt>
</event>
<event>
13    1  0.2742815E-008  0.1745888E+03  0.7546771E-02  0.1214924E+00
          2   -1    0    0  502    0  0.00000000000E+00  0.00000000000E+00  0.30512356205E+04  0.30512356205E+04  0.00000000000E+00 0. -1.
          2   -1    0    0  503    0 -0.00000000000E+00 -0.00000000000E+00 -0.16131705831E+04  0.16131705831E+04  0.00000000000E+00 0. -1.
         25    2    1    2    0    0 -0.83086742709E+02 -0.11335745715E+03 -0.17171453682E+03  0.25468850960E+03  0.12500813919E+03 0.  0.
         24    2    1    2    0    0  0.94149810799E+02 -0.33543528437E+02  0.65163190066E+02  0.14385994052E+03  0.80374660020E+02 0.  0.
         24    2    1    2    0    0  0.52005665828E+02  0.12216849098E+03  0.12067015894E+04  0.12166756010E+04  0.80876837073E+02 0.  0.
        -11    1    4    4    0    0  0.16513203722E+02 -0.44814529004E+02  0.12488057484E+02  0.49365772421E+02  0.00000000000E+00 0.  1.
         12    1    4    4    0    0  0.77636607077E+02  0.11271000567E+02  0.52675132582E+02  0.94494168099E+02  0.00000000000E+00 0. -1.
        -11    1    5    5    0    0 -0.96048168979E+01 -0.64036557937E+01  0.56160020823E+02  0.57334171783E+02  0.00000000000E+00 0.  1.
         12    1    5    5    0    0  0.61610482726E+02  0.12857214677E+03  0.11505415686E+04  0.11593414293E+04  0.00000000000E+00 0. -1.
          5    1    3    3  501    0  0.30365565230E+02 -0.10577149285E+02 -0.47187327902E+02  0.57294655539E+02  0.47000000000E+01 0.  1.
         -5    1    3    3    0  501 -0.11345230794E+03 -0.10278030786E+03 -0.12452720892E+03  0.19739385406E+03  0.47000000000E+01 0.  1.
          1    1    1    2  502    0  0.11035612726E+03 -0.23517487790E+01  0.16860544494E+04  0.16896637571E+04  0.00000000000E+00 0. -1.
          1    1    1    2  503    0 -0.17342486118E+03  0.27084243383E+02 -0.13481396547E+04  0.13595183954E+04  0.00000000000E+00 0. -1.
<mgrwt>
<rscale>  0 0.13882118E+03</rscale>
<asrwt>0</asrwt>
<pdfrwt beam="1">  1        2 0.44871112E+00 0.11038118E+03</pdfrwt>
<pdfrwt beam="2">  1        2 0.23723097E+00 0.17458882E+03</pdfrwt>
<totfact> 0.56102340E+00</totfact>
</mgrwt>
</event>
<event>
13    1  0.2742815E-008  0.3885990E+02  0.7546771E-02  0.1529245E+00
          2   -1    0    0  502    0  0.00000000000E+00  0.00000000000E+00  0.77286042751E+03  0.77286042751E+03  0.00000000000E+00 0. -1.
          2   -1    0    0  503    0 -0.00000000000E+00 -0.00000000000E+00 -0.38680497059E+03  0.38680497059E+03  0.00000000000E+00 0. -1.
         25    2    1    2    0    0  0.50423295266E+02  0.25971414144E+02 -0.10746474820E+03  0.17432797491E+03  0.12499819067E+03 0.  0.
         24    2    1    2    0    0 -0.91715096528E+02 -0.27949769950E+02  0.53027009916E+02  0.13634776860E+03  0.81154184425E+02 0.  0.
         24    2    1    2    0    0  0.69113373741E+02  0.24029806871E+02  0.41870000468E+03  0.43248161136E+03  0.79853366892E+02 0.  0.
        -11    1    5    5    0    0  0.81318103919E+01  0.43146958700E+02  0.15059714635E+03  0.15686709940E+03  0.00000000000E+00 0.  1.
         12    1    5    5    0    0  0.60981563349E+02 -0.19117151829E+02  0.26810285833E+03  0.27561451197E+03  0.00000000000E+00 0. -1.
        -13    1    4    4    0    0 -0.86001847416E+02 -0.47718864081E+02  0.59284520247E+02  0.11483928809E+03  0.00000000000E+00 0.  1.
         14    1    4    4    0    0 -0.57132491120E+01  0.19769094132E+02 -0.62575103309E+01  0.21508480508E+02  0.00000000000E+00 0. -1.
          5    1    3    3  501    0  0.81287245159E+02 -0.17509613713E+02 -0.58442788709E+02  0.10174405314E+03  0.47000000000E+01 0. -1.
         -5    1    3    3    0  501 -0.30863949892E+02  0.43481027857E+02 -0.49021959490E+02  0.72583921764E+02  0.47000000000E+01 0. -1.
          1    1    1    2  502    0  0.37448713350E+01 -0.38859942727E+02  0.21576426218E+03  0.21926772686E+03  0.00000000000E+00 0. -1.
          1    1    1    2  503    0 -0.31566443815E+02  0.16808491661E+02 -0.19397107165E+03  0.19724031637E+03  0.00000000000E+00 0. -1.
<mgrwt>
<rscale>  0 0.37279113E+02</rscale>
<asrwt>0</asrwt>
<pdfrwt beam="1">  1        2 0.11365595E+00 0.38859901E+02</pdfrwt>
<pdfrwt beam="2">  1        2 0.56883084E-01 0.35762631E+02</pdfrwt>
<totfact> 0.56615266E+02</totfact>
</mgrwt>
</event>
<event>
13    1  0.2742815E-008  0.1079344E+03  0.7546771E-02  0.1561702E+00
          2   -1    0    0  503    0  0.00000000000E+00  0.00000000000E+00  0.13972717629E+04  0.13972717629E+04  0.00000000000E+00 0. -1.
         -1   -1    0    0    0  501 -0.00000000000E+00 -0.00000000000E+00 -0.62465263293E+03  0.62465263293E+03  0.00000000000E+00 0.  1.
         25    2    1    2    0    0 -0.62026591860E+02 -0.37306637587E+02 -0.35547064819E+03  0.38369836057E+03  0.12500386743E+03 0.  0.
         24    2    1    2    0    0  0.33804439678E+01  0.56412586553E+02  0.30700998068E+03  0.32232309064E+03  0.80269790083E+02 0.  0.
         24    2    1    2    0    0  0.15477339312E+03  0.92433526770E+01  0.52847030264E+03  0.55621051735E+03  0.77775549206E+02 0.  0.
        -13    1    4    4    0    0  0.23896718260E+02  0.67276863246E+02  0.18864963196E+03  0.20170749394E+03  0.00000000000E+00 0.  1.
         14    1    4    4    0    0 -0.20516274292E+02 -0.10864276693E+02  0.11836034872E+03  0.12061559670E+03  0.00000000000E+00 0. -1.
        -13    1    5    5    0    0  0.12012880868E+02 -0.18288784645E+02  0.31106185144E+02  0.38031351603E+02  0.00000000000E+00 0.  1.
         14    1    5    5    0    0  0.14276051226E+03  0.27532137322E+02  0.49736411749E+03  0.51817916575E+03  0.00000000000E+00 0. -1.
          5    1    3    3  502    0 -0.46501039933E+02  0.26869937595E+02 -0.27136238254E+03  0.27666581451E+03  0.47000000000E+01 0. -1.
         -5    1    3    3    0  502 -0.15525551928E+02 -0.64176575181E+02 -0.84108265651E+02  0.10703254606E+03  0.47000000000E+01 0. -1.
          1    1    1    2  503    0  0.60372241312E+01  0.85167286827E+01  0.51346699579E+03  0.51357310922E+03  0.00000000000E+00 0. -1.
         -2    1    1    2    0  501 -0.10216446936E+03 -0.36866030326E+02 -0.22085750096E+03  0.24611931806E+03  0.00000000000E+00 0.  1.
<mgrwt>
<rscale>  0 0.33567531E+02</rscale>
<asrwt>0</asrwt>
<pdfrwt beam="1">  1        2 0.20548114E+00 0.10439480E+02</pdfrwt>
<pdfrwt beam="2">  1       -1 0.91860681E-01 0.10793441E+03</pdfrwt>
<totfact> 0.31363271E+01</totfact>
</mgrwt>
</event>
<event>
13    1  0.2742815E-008  0.6446569E+02  0.7546771E-02  0.1399042E+00
          2   -1    0    0  503    0  0.00000000000E+00  0.00000000000E+00  0.43316008812E+03  0.43316008812E+03  0.00000000000E+00 0. -1.
          2   -1    0    0  502    0 -0.00000000000E+00 -0.00000000000E+00 -0.32725590584E+04  0.32725590584E+04  0.00000000000E+00 0. -1.
         25    2    1    2    0    0 -0.78676697642E+02 -0.10197382188E+03 -0.10558521892E+04  0.10709985388E+04  0.12500136613E+03 0.  0.
         24    2    1    2    0    0  0.53013584868E+02  0.83002920776E+02 -0.24993818255E+03  0.28145808933E+03  0.83962110001E+02 0.  0.
         24    2    1    2    0    0  0.19264577798E+01  0.50478303364E+00 -0.60215020561E+02  0.10108874304E+03  0.81173389868E+02 0.  0.
        -13    1    5    5    0    0  0.24922801766E+02  0.31317298982E+02 -0.43656427791E+02  0.59226708087E+02  0.00000000000E+00 0.  1.
         14    1    5    5    0    0 -0.22996343986E+02 -0.30812515948E+02 -0.16558592771E+02  0.41862034952E+02  0.00000000000E+00 0. -1.
        -13    1    4    4    0    0 -0.14375664108E+02  0.41164123362E+02 -0.13452919347E+03  0.14141869985E+03  0.00000000000E+00 0.  1.
         14    1    4    4    0    0  0.67389248976E+02  0.41838797415E+02 -0.11540898908E+03  0.14003938948E+03  0.00000000000E+00 0. -1.
          5    1    3    3  501    0 -0.11048633223E+03 -0.58350806410E+02 -0.70990176305E+03  0.72082914023E+03  0.47000000000E+01 0. -1.
         -5    1    3    3    0  501  0.31809634588E+02 -0.43623015466E+02 -0.34595042619E+03  0.35016939859E+03  0.47000000000E+01 0. -1.
          1    1    1    2  502    0 -0.36577315913E+02  0.41488498052E+02 -0.18596938346E+04  0.18605161526E+04  0.00000000000E+00 0. -1.
          1    1    1    2  503    0  0.60313970908E+02 -0.23022379986E+02  0.38630025674E+03  0.39165762270E+03  0.00000000000E+00 0. -1.
<mgrwt>
<rscale>  0 0.59712621E+02</rscale>
<asrwt>0</asrwt>
<pdfrwt beam="1">  1        2 0.63700010E-01 0.64465692E+02</pdfrwt>
<pdfrwt beam="2">  1        2 0.48125871E+00 0.55309995E+02</pdfrwt>
<totfact> 0.27449824E+01</totfact>
</mgrwt>
</event>
<event>
13    1  0.7060227E-008  0.3718585E+02  0.7546771E-02  0.1724804E+00
          2   -1    0    0  503    0  0.00000000000E+00  0.00000000000E+00  0.99554307418E+03  0.99554307418E+03  0.00000000000E+00 0. -1.
          2   -1    0    0  502    0 -0.00000000000E+00 -0.00000000000E+00 -0.18551449164E+04  0.18551449164E+04  0.00000000000E+00 0. -1.
         25    2    1    2    0    0  0.59378451684E+02  0.11340160044E+03 -0.20007175346E+03  0.26840248331E+03  0.12500185201E+03 0.  0.
         24    2    1    2    0    0 -0.31661092014E+03 -0.41559523161E+03 -0.89516766119E+03  0.10416045596E+04  0.10321359267E+03 0.  0.
         24    2    1    2    0    0  0.26275481319E+03  0.33805870182E+03 -0.86179200029E+02  0.44435669935E+03  0.81867234020E+02 0.  0.
        -11    1    4    4    0    0 -0.24824670827E+03 -0.24579118003E+03 -0.57502928806E+03  0.67282866650E+03  0.00000000000E+00 0.  1.
         12    1    4    4    0    0 -0.68364211869E+02 -0.16980405158E+03 -0.32013837314E+03  0.36877589313E+03  0.00000000000E+00 0. -1.
        -13    1    5    5    0    0  0.67120175144E+02  0.79587518508E+02  0.14046678204E+02  0.10505522444E+03  0.00000000000E+00 0.  1.
         14    1    5    5    0    0  0.19563463804E+03  0.25847118332E+03 -0.10022587823E+03  0.33930147491E+03  0.00000000000E+00 0. -1.
          5    1    3    3  501    0 -0.28012192698E+02  0.16132095700E+02 -0.43239017239E+01  0.32950168096E+02  0.47000000000E+01 0. -1.
         -5    1    3    3    0  501  0.87390644382E+02  0.97269504742E+02 -0.19574785174E+03  0.23545231521E+03  0.47000000000E+01 0. -1.
          1    1    1    2  502    0  0.63938304720E+01 -0.36640899209E+02 -0.38631017497E+03  0.38809662180E+03  0.00000000000E+00 0. -1.
          1    1    1    2  503    0 -0.11916175201E+02  0.77582855048E+00  0.70812694748E+03  0.70822762646E+03  0.00000000000E+00 0. -1.
<mgrwt>
<rscale>  0 0.21072525E+02</rscale>
<asrwt>0</asrwt>
<pdfrwt beam="1">  1        2 0.14640339E+00 0.11941404E+02</pdfrwt>
<pdfrwt beam="2">  1        2 0.27281543E+00 0.37185852E+02</pdfrwt>
<totfact> 0.60935273E+01</totfact>
</mgrwt>
</event>
<event>
13    1  0.2742815E-008  0.1831731E+03  0.7546771E-02  0.1183742E+00
         -1   -1    0    0    0  501 -0.00000000000E+00  0.00000000000E+00  0.10655448549E+04  0.10655448549E+04  0.00000000000E+00 0.  1.
          2   -1    0    0  503    0  0.00000000000E+00 -0.00000000000E+00 -0.18056159087E+04  0.18056159087E+04  0.00000000000E+00 0. -1.
         25    2    1    2    0    0 -0.15638911163E+02  0.11768140344E+03  0.26140698621E+03  0.31313301723E+03  0.12500074313E+03 0.  0.
         24    2    1    2    0    0  0.64747234739E+01  0.18561577101E+03  0.30438804969E+02  0.20524137073E+03  0.81867960271E+02 0.  0.
         24    2    1    2    0    0 -0.16507679981E+03 -0.20603491949E+02 -0.86602423072E+02  0.20394172159E+03  0.80108628800E+02 0.  0.
        -13    1    4    4    0    0 -0.83456125301E+01  0.91964531688E+02 -0.24659286981E+02  0.95578265163E+02  0.00000000000E+00 0.  1.
         14    1    4    4    0    0  0.14820336004E+02  0.93651239320E+02  0.55098091950E+02  0.10966310556E+03  0.00000000000E+00 0. -1.
        -13    1    5    5    0    0 -0.23246785211E+02 -0.32620037274E+02 -0.32809763929E+02  0.51777992077E+02  0.00000000000E+00 0.  1.
         14    1    5    5    0    0 -0.14183001459E+03  0.12016545325E+02 -0.53792659142E+02  0.15216372951E+03  0.00000000000E+00 0. -1.
          5    1    3    3  502    0 -0.26738265680E+02  0.25470293617E+02  0.19584156840E+03  0.19934813924E+03  0.47000000000E+01 0.  1.
         -5    1    3    3    0  502  0.11099354517E+02  0.92211109823E+02  0.65565417813E+02  0.11378487799E+03  0.47000000000E+01 0.  1.
          1    1    1    2  503    0  0.10167094706E+03 -0.15408064963E+03 -0.15323959227E+04  0.15434750053E+04  0.00000000000E+00 0. -1.
         -2    1    1    2    0  501  0.72570040434E+02 -0.12861303286E+03  0.58708150085E+03  0.60536964875E+03  0.00000000000E+00 0.  1.
<mgrwt>
<rscale>  0 0.16446877E+03</rscale>
<asrwt>0</asrwt>
<pdfrwt beam="2">  1        2 0.26553175E+00 0.18317311E+03</pdfrwt>
<pdfrwt beam="1">  1       -1 0.15669777E+00 0.14767438E+03</pdfrwt>
<totfact> 0.43595800E+00</totfact>
</mgrwt>
</event>
<event>
13    1  0.2742815E-008  0.1243035E+03  0.7546771E-02  0.1258525E+00
          2   -1    0    0  503    0  0.00000000000E+00  0.00000000000E+00  0.22721426649E+04  0.22721426649E+04  0.00000000000E+00 0. -1.
          2   -1    0    0  502    0 -0.00000000000E+00 -0.00000000000E+00 -0.19908455425E+04  0.19908455425E+04  0.00000000000E+00 0. -1.
         25    2    1    2    0    0 -0.13506710803E+03 -0.23671775256E+02 -0.25478291330E+03  0.31518560602E+03  0.12499662682E+03 0.  0.
         24    2    1    2    0    0  0.53380394723E+01 -0.28428974531E+02  0.25312238131E+02  0.89609602782E+02  0.80947330118E+02 0.  0.
         24    2    1    2    0    0 -0.10006306832E+03 -0.10042462811E+02  0.12479660389E+03  0.17830479940E+03  0.78134118298E+02 0.  0.
        -11    1    4    4    0    0  0.36772954997E+02 -0.14155189533E+02  0.36099605458E+02  0.53439696146E+02  0.00000000000E+00 0.  1.
         12    1    4    4    0    0 -0.31434915524E+02 -0.14273784998E+02 -0.10787367327E+02  0.36169906636E+02  0.00000000000E+00 0. -1.
        -13    1    5    5    0    0 -0.33263786489E+02 -0.41766705923E+02  0.51368725731E+02  0.74092396361E+02  0.00000000000E+00 0.  1.
         14    1    5    5    0    0 -0.66799281836E+02  0.31724243112E+02  0.73427878163E+02  0.10421240304E+03  0.00000000000E+00 0. -1.
          5    1    3    3  501    0 -0.53765935908E+01  0.33008341261E+02 -0.99262191837E+02  0.10485004091E+03  0.47000000000E+01 0. -1.
         -5    1    3    3    0  501 -0.12969051444E+03 -0.56680116518E+02 -0.15552072146E+03  0.21033556510E+03  0.47000000000E+01 0. -1.
          1    1    1    2  502    0  0.12026288920E+03  0.27353132510E+02 -0.16430212304E+04  0.16476438086E+04  0.00000000000E+00 0. -1.
          1    1    1    2  503    0  0.10952924768E+03  0.34790080089E+02  0.20289924242E+04  0.20322443906E+04  0.00000000000E+00 0. -1.
<mgrwt>
<rscale>  0 0.11111166E+03</rscale>
<asrwt>0</asrwt>
<pdfrwt beam="1">  1        2 0.33413863E+00 0.99319862E+02</pdfrwt>
<pdfrwt beam="2">  1        2 0.29277140E+00 0.12430345E+03</pdfrwt>
<totfact> 0.95474948E+00</totfact>
</mgrwt>
</event>
<event>
13    1  0.2742815E-008  0.2286077E+03  0.7546771E-02  0.1253997E+00
          2   -1    0    0  502    0  0.00000000000E+00  0.00000000000E+00  0.23069276090E+04  0.23069276090E+04  0.00000000000E+00 0. -1.
          4   -1    0    0  503    0 -0.00000000000E+00 -0.00000000000E+00 -0.41616355433E+03  0.41616355433E+03  0.00000000000E+00 0. -1.
         25    2    1    2    0    0  0.14750119935E+03  0.16009612324E+03 -0.74855206511E+02  0.26194289173E+03  0.12499361624E+03 0.  0.
         24    2    1    2    0    0 -0.74078489855E+02  0.36985487924E+01  0.63518090112E+02  0.12688721265E+03  0.81021694869E+02 0.  0.
         24    2    1    2    0    0 -0.55306424924E+02  0.11125178920E+03  0.83591991967E+03  0.84919407097E+03  0.83262817816E+02 0.  0.
        -11    1    4    4    0    0 -0.50164036521E+02  0.41412092065E+02  0.34515162213E+02  0.73638905152E+02  0.00000000000E+00 0.  1.
         12    1    4    4    0    0 -0.23914453334E+02 -0.37713543273E+02  0.29002927898E+02  0.53248307495E+02  0.00000000000E+00 0. -1.
        -13    1    5    5    0    0  0.75011000543E+01  0.21674202582E+02  0.36555080162E+03  0.36626960851E+03  0.00000000000E+00 0.  1.
         14    1    5    5    0    0 -0.62807524979E+02  0.89577586617E+02  0.47036911806E+03  0.48292446246E+03  0.00000000000E+00 0. -1.
          5    1    3    3  501    0  0.14988131694E+03  0.17241060008E+03 -0.86371696398E+02  0.24427849706E+03  0.47000000000E+01 0.  1.
         -5    1    3    3    0  501 -0.23801175906E+01 -0.12314476844E+02  0.11516489886E+02  0.17664394668E+02  0.47000000000E+01 0.  1.
          1    1    1    2  502    0  0.45226077853E+02 -0.33827322654E+02  0.12004808423E+04  0.12018086115E+04  0.00000000000E+00 0. -1.
          3    1    1    2  503    0 -0.63342362428E+02 -0.24121913857E+03 -0.13429959096E+03  0.28325837644E+03  0.00000000000E+00 0. -1.
<mgrwt>
<rscale>  0 0.11362723E+03</rscale>
<asrwt>0</asrwt>
<pdfrwt beam="1">  1        2 0.33925405E+00 0.56477304E+02</pdfrwt>
<pdfrwt beam="2">  1        4 0.61200524E-01 0.22860773E+03</pdfrwt>
<totfact> 0.93958023E+00</totfact>
</mgrwt>
</event>
<event>
13    1  0.2742815E-008  0.1008082E+03  0.7546771E-02  0.1355734E+00
          2   -1    0    0  502    0  0.00000000000E+00  0.00000000000E+00  0.24374560276E+03  0.24374560276E+03  0.00000000000E+00 0. -1.
          2   -1    0    0  503    0 -0.00000000000E+00 -0.00000000000E+00 -0.49333336166E+04  0.49333336166E+04  0.00000000000E+00 0. -1.
         25    2    1    2    0    0 -0.18823644466E+02  0.30896923835E+02 -0.11321501376E+04  0.11396042505E+04  0.12499985718E+03 0.  0.
         24    2    1    2    0    0 -0.36118359416E+02 -0.27938531915E+02 -0.54860867452E+03  0.55586016810E+03  0.76967209063E+02 0.  0.
         24    2    1    2    0    0  0.41160412166E+01  0.68993108030E+02 -0.49366654863E+02  0.11677938042E+03  0.80145906497E+02 0.  0.
        -11    1    5    5    0    0  0.19995258306E+02  0.74611318702E+02 -0.59159261089E+02  0.97295824195E+02  0.00000000000E+00 0.  1.
         12    1    5    5    0    0 -0.15879217089E+02 -0.56182106718E+01  0.97926062262E+01  0.19483556226E+02  0.00000000000E+00 0. -1.
        -13    1    4    4    0    0 -0.50399274320E+02  0.75937053053E+01 -0.29331794187E+03  0.29771322819E+03  0.00000000000E+00 0.  1.
         14    1    4    4    0    0  0.14280914904E+02 -0.35532237221E+02 -0.25529073265E+03  0.25814693992E+03  0.00000000000E+00 0. -1.
          5    1    3    3  501    0 -0.67349052849E+02  0.31458248125E+02 -0.85142938891E+03  0.85468099932E+03  0.47000000000E+01 0.  1.
         -5    1    3    3    0  501  0.48525408383E+02 -0.56132428979E+00 -0.28072074865E+03  0.28492325118E+03  0.47000000000E+01 0.  1.
          1    1    1    2  502    0  0.91828811259E+01 -0.10038896350E+03  0.18993763313E+03  0.21503156461E+03  0.00000000000E+00 0. -1.
          1    1    1    2  503    0  0.41643081539E+02  0.28437463553E+02 -0.31494001800E+04  0.31498038557E+04  0.00000000000E+00 0. -1.
<mgrwt>
<rscale>  0 0.71298012E+02</rscale>
<asrwt>0</asrwt>
<pdfrwt beam="1">  1        2 0.35844944E-01 0.10080816E+03</pdfrwt>
<pdfrwt beam="2">  1        2 0.72549019E+00 0.50426536E+02</pdfrwt>
<totfact> 0.35903807E+00</totfact>
</mgrwt>
</event>
<event>
13    1  0.2742815E-008  0.3557809E+02  0.7546771E-02  0.1628867E+00
         -3   -1    0    0    0  501 -0.00000000000E+00  0.00000000000E+00  0.63244776792E+03  0.63244776792E+03  0.00000000000E+00 0.  1.
          2   -1    0    0  503    0  0.00000000000E+00 -0.00000000000E+00 -0.42695662941E+04  0.42695662941E+04  0.00000000000E+00 0. -1.
         25    2    1    2    0    0 -0.32001896533E+03 -0.92004848751E+01  0.31232932715E+03  0.46440345253E+03  0.12499668407E+03 0.  0.
         24    2    1    2    0    0 -0.13395587184E+03  0.31847507539E+03 -0.40013549027E+03  0.53461619493E+03  0.79595955042E+02 0.  0.
         24    2    1    2    0    0  0.42928105391E+03 -0.28815717751E+03 -0.24632669029E+04  0.25175610759E+04  0.55795644345E+02 0.  0.
        -11    1    5    5    0    0  0.18327261120E+03 -0.91138359555E+02 -0.10013750619E+04  0.10220797744E+04  0.00000000000E+00 0.  1.
         12    1    5    5    0    0  0.24600844270E+03 -0.19701881795E+03 -0.14618918410E+04  0.14954813015E+04  0.00000000000E+00 0. -1.
        -13    1    4    4    0    0 -0.26014827054E+01  0.93281231188E+02 -0.11863087319E+03  0.15093521749E+03  0.00000000000E+00 0.  1.
         14    1    4    4    0    0 -0.13135438913E+03  0.22519384420E+03 -0.28150461708E+03  0.38368097744E+03  0.00000000000E+00 0. -1.
          5    1    3    3  502    0 -0.18488582292E+03 -0.21521898112E+02  0.97270003622E+02  0.21007023402E+03  0.47000000000E+01 0.  1.
         -5    1    3    3    0  502 -0.13513314241E+03  0.12321413237E+02  0.21505932353E+03  0.25433321851E+03  0.47000000000E+01 0.  1.
          1    1    1    2  503    0  0.16241423214E+02  0.13448675837E+02 -0.12335332719E+04  0.12337134933E+04  0.00000000000E+00 0. -1.
         -4    1    1    2    0  501  0.84523600482E+01 -0.34566088848E+02  0.14748781167E+03  0.15171984537E+03  0.00000000000E+00 0.  1.
<mgrwt>
<rscale>  0 0.27390254E+02</rscale>
<asrwt>0</asrwt>
<pdfrwt beam="2">  1        2 0.62787740E+00 0.21086743E+02</pdfrwt>
<pdfrwt beam="1">  1       -3 0.93007023E-01 0.35578089E+02</pdfrwt>
<totfact> 0.44515252E-01</totfact>
</mgrwt>
</event>
<event>
13    1  0.2742815E-008  0.2986056E+02  0.7546771E-02  0.1622395E+00
          2   -1    0    0  503    0  0.00000000000E+00  0.00000000000E+00  0.13670168116E+04  0.13670168116E+04  0.00000000000E+00 0. -1.
          2   -1    0    0  502    0 -0.00000000000E+00 -0.00000000000E+00 -0.20832549058E+04  0.20832549058E+04  0.00000000000E+00 0. -1.
         25    2    1    2    0    0  0.46558631788E+03 -0.28594254417E+03 -0.17826501594E+03  0.58816479399E+03  0.12500260405E+03 0.  0.
         24    2    1    2    0    0 -0.17856506741E+03  0.53683778037E+03 -0.10986866900E+03  0.58222839200E+03  0.82695164893E+02 0.  0.
         24    2    1    2    0    0 -0.23606162137E+03 -0.27324927064E+03  0.25679241192E+03  0.45103211546E+03  0.84245910099E+02 0.  0.
        -11    1    5    5    0    0 -0.13295889360E+03 -0.10613178438E+03  0.85230070090E+02  0.19027923662E+03  0.00000000000E+00 0.  1.
         12    1    5    5    0    0 -0.10310272777E+03 -0.16711748625E+03  0.17156234183E+03  0.26075287884E+03  0.00000000000E+00 0. -1.
        -11    1    4    4    0    0 -0.15700545132E+03  0.48509355512E+03 -0.12334226898E+03  0.52457581366E+03  0.00000000000E+00 0.  1.
         12    1    4    4    0    0 -0.21559616096E+02  0.51744225249E+02  0.13473599986E+02  0.57652578341E+02  0.00000000000E+00 0. -1.
          5    1    3    3  501    0  0.27235730381E+03 -0.10824157547E+03 -0.13239540630E+03  0.32162924806E+03  0.47000000000E+01 0. -1.
         -5    1    3    3    0  501  0.19322901407E+03 -0.17770096871E+03 -0.45869609647E+02  0.26653554594E+03  0.47000000000E+01 0. -1.
          1    1    1    2  502    0 -0.28367096426E+02  0.93070183740E+01 -0.12563966976E+04  0.12567513575E+04  0.00000000000E+00 0. -1.
          1    1    1    2  503    0 -0.22592532671E+02  0.13047016065E+02  0.57149987647E+03  0.57209505850E+03  0.00000000000E+00 0. -1.
<mgrwt>
<rscale>  0 0.27911260E+02</rscale>
<asrwt>0</asrwt>
<pdfrwt beam="1">  1        2 0.20103189E+00 0.26089215E+02</pdfrwt>
<pdfrwt beam="2">  1        2 0.30636101E+00 0.29860555E+02</pdfrwt>
<totfact> 0.30902472E+01</totfact>
</mgrwt>
</event>
<event>
13    1  0.2742815E-008  0.7630558E+02  0.7546771E-02  0.1361685E+00
          2   -1    0    0  503    0  0.00000000000E+00  0.00000000000E+00  0.16080105719E+04  0.16080105719E+04  0.00000000000E+00 0. -1.
          2   -1    0    0  502    0 -0.00000000000E+00 -0.00000000000E+00 -0.58834106546E+04  0.58834106546E+04  0.00000000000E+00 0. -1.
         25    2    1    2    0    0 -0.41330712695E+02 -0.16436449239E+01 -0.96868416967E+03  0.97759071399E+03  0.12499461636E+03 0.  0.
         24    2    1    2    0    0  0.22746859709E+02 -0.50398715816E+02  0.89387960201E+02  0.13431280493E+03  0.83619806006E+02 0.  0.
         24    2    1    2    0    0  0.18359638511E+02  0.17198889831E+02  0.25447833274E+03  0.26777274978E+03  0.79436424590E+02 0.  0.
        -11    1    4    4    0    0 -0.52217496645E+01 -0.16732467078E+02  0.88828072462E+02  0.90540977361E+02  0.00000000000E+00 0.  1.
         12    1    4    4    0    0  0.27968609373E+02 -0.33666248737E+02  0.55988773811E+00  0.43771827568E+02  0.00000000000E+00 0. -1.
        -13    1    5    5    0    0  0.15207109150E+02 -0.31151594995E+02  0.11552545060E+03  0.12061429341E+03  0.00000000000E+00 0.  1.
         14    1    5    5    0    0  0.31525293606E+01  0.48350484826E+02  0.13895288214E+03  0.14715845637E+03  0.00000000000E+00 0. -1.
          5    1    3    3  501    0  0.56627190876E+00 -0.12602618562E+02 -0.74817441908E+01  0.15401725703E+02  0.47000000000E+01 0.  1.
         -5    1    3    3    0  501 -0.41896984604E+02  0.10958973639E+02 -0.96120242548E+03  0.96218898828E+03  0.47000000000E+01 0.  1.
          1    1    1    2  502    0  0.62711263414E+02 -0.90666922596E+01 -0.48797727463E+04  0.48801841116E+04  0.00000000000E+00 0. -1.
          1    1    1    2  503    0 -0.62487048939E+02  0.43910163169E+02  0.12291905403E+04  0.12315608463E+04  0.00000000000E+00 0. -1.
<mgrwt>
<rscale>  0 0.69533973E+02</rscale>
<asrwt>0</asrwt>
<pdfrwt beam="1">  1        2 0.23647214E+00 0.76305585E+02</pdfrwt>
<pdfrwt beam="2">  1        2 0.86520746E+00 0.63363297E+02</pdfrwt>
<totfact> 0.21258943E-02</totfact>
</mgrwt>
</event>
<event>
13    1  0.2742815E-008  0.7007613E+02  0.7546771E-02  0.1448958E+00
          2   -1    0    0  502    0  0.00000000000E+00  0.00000000000E+00  0.95462935027E+03  0.95462935027E+03  0.00000000000E+00 0. -1.
          2   -1    0    0  503    0 -0.00000000000E+00 -0.00000000000E+00 -0.33910066779E+04  0.33910066779E+04  0.00000000000E+00 0. -1.
         25    2    1    2    0    0 -0.53062521575E+02  0.34279677728E+02 -0.23197947698E+03  0.27097896905E+03  0.12499758570E+03 0.  0.
         24    2    1    2    0    0 -0.67159510754E+02 -0.95507199402E+02 -0.47706726115E+01  0.14108984342E+03  0.79066804510E+02 0.  0.
         24    2    1    2    0    0  0.12279289720E+03  0.10196118030E+03  0.32234074782E+03  0.36865009737E+03  0.80778454420E+02 0.  0.
        -11    1    4    4    0    0 -0.70950614008E+02 -0.80474411662E+02 -0.30068659208E+02  0.11141923006E+03  0.00000000000E+00 0.  1.
         12    1    4    4    0    0  0.37911032537E+01 -0.15032787741E+02  0.25297986596E+02  0.29670613357E+02  0.00000000000E+00 0. -1.
        -13    1    5    5    0    0  0.79534788954E+02  0.81643998716E+02  0.28818812733E+03  0.30990953828E+03  0.00000000000E+00 0.  1.
         14    1    5    5    0    0  0.43258108249E+02  0.20317181585E+02  0.34152620483E+02  0.58740559095E+02  0.00000000000E+00 0. -1.
          5    1    3    3  501    0 -0.54475407338E+02 -0.38219160851E+02 -0.97777436009E+02  0.11836718825E+03  0.47000000000E+01 0. -1.
         -5    1    3    3    0  501  0.14128857624E+01  0.72498838579E+02 -0.13420204097E+03  0.15261178081E+03  0.47000000000E+01 0. -1.
          1    1    1    2  502    0  0.19538513909E+02 -0.67521828620E+02  0.51900622765E+03  0.52374460876E+03  0.00000000000E+00 0. -1.
          1    1    1    2  503    0 -0.22109378784E+02  0.26788169993E+02 -0.30409741535E+04  0.30411725096E+04  0.00000000000E+00 0. -1.
<mgrwt>
<rscale>  0 0.49335627E+02</rscale>
<asrwt>0</asrwt>
<pdfrwt beam="1">  1        2 0.14038667E+00 0.70076132E+02</pdfrwt>
<pdfrwt beam="2">  1        2 0.49867745E+00 0.34733711E+02</pdfrwt>
<totfact> 0.10597059E+01</totfact>
</mgrwt>
</event>
<event>
13    1  0.2742815E-008  0.1285842E+03  0.7546771E-02  0.1304392E+00
          2   -1    0    0  503    0  0.00000000000E+00  0.00000000000E+00  0.30884924338E+04  0.30884924338E+04  0.00000000000E+00 0. -1.
          2   -1    0    0  502    0 -0.00000000000E+00 -0.00000000000E+00 -0.63782787661E+03  0.63782787661E+03  0.00000000000E+00 0. -1.
         25    2    1    2    0    0 -0.38497060986E+03  0.29954637887E+03  0.26691114568E+03  0.56991033625E+03  0.12500331245E+03 0.  0.
         24    2    1    2    0    0  0.15877967561E+03 -0.30965683641E+03  0.77916804533E+03  0.85716758004E+03  0.80839814987E+02 0.  0.
         24    2    1    2    0    0  0.86593879065E+02  0.13904890409E+03  0.33207751364E+03  0.37883971284E+03  0.80068441599E+02 0.  0.
        -11    1    4    4    0    0  0.53278101956E+02 -0.10422599188E+03  0.17669699714E+03  0.21195150938E+03  0.00000000000E+00 0.  1.
         12    1    4    4    0    0  0.10550157365E+03 -0.20543084453E+03  0.60247104819E+03  0.64521607066E+03  0.00000000000E+00 0. -1.
        -11    1    5    5    0    0  0.23876251294E+02  0.19527004340E+02  0.14444397603E+03  0.14770051282E+03  0.00000000000E+00 0.  1.
         12    1    5    5    0    0  0.62717627770E+02  0.11952189974E+03  0.18763353761E+03  0.23113920002E+03  0.00000000000E+00 0. -1.
          5    1    3    3  501    0 -0.26869832144E+03  0.17806030245E+03  0.11215484936E+03  0.34132837486E+03  0.47000000000E+01 0.  1.
         -5    1    3    3    0  501 -0.11627228842E+03  0.12148607642E+03  0.15475629632E+03  0.22858196138E+03  0.47000000000E+01 0.  1.
          1    1    1    2  502    0  0.90784398786E+02 -0.90532245229E+02 -0.41359051957E+03  0.43300694263E+03  0.00000000000E+00 0. -1.
          1    1    1    2  503    0  0.48812656400E+02 -0.38406201316E+02  0.14860983721E+04  0.14873957386E+04  0.00000000000E+00 0. -1.
<mgrwt>
<rscale>  0 0.89366816E+02</rscale>
<asrwt>0</asrwt>
<pdfrwt beam="1">  1        2 0.45419006E+00 0.62110480E+02</pdfrwt>
<pdfrwt beam="2">  1        2 0.93798219E-01 0.12858422E+03</pdfrwt>
<totfact> 0.21994457E+01</totfact>
</mgrwt>
</event>
<event>
13    1  0.2742815E-008  0.4351275E+02  0.7546771E-02  0.1591949E+00
          2   -1    0    0  503    0  0.00000000000E+00  0.00000000000E+00  0.13523594463E+04  0.13523594463E+04  0.00000000000E+00 0. -1.
          2   -1    0    0  502    0 -0.00000000000E+00 -0.00000000000E+00 -0.25567038740E+04  0.25567038740E+04  0.00000000000E+00 0. -1.
         25    2    1    2    0    0 -0.23529537408E+03 -0.74835073498E+02 -0.11571128169E+04  0.11897535451E+04  0.12505688986E+03 0.  0.
         24    2    1    2    0    0  0.43496635577E+03  0.19290386795E+03  0.66859739153E+03  0.82429241136E+03  0.77639387798E+02 0.  0.
         24    2    1    2    0    0 -0.19119536096E+03 -0.14047825369E+03  0.21602082202E+03  0.33467404266E+03  0.95141544416E+02 0.  0.
        -11    1    5    5    0    0 -0.12481612134E+03 -0.50357553582E+02  0.16132365856E+03  0.21009585946E+03  0.00000000000E+00 0.  1.
         12    1    5    5    0    0 -0.66379239619E+02 -0.90120700108E+02  0.54697163455E+02  0.12457818320E+03  0.00000000000E+00 0. -1.
        -13    1    4    4    0    0  0.29332948741E+03  0.16052230615E+03  0.42661433676E+03  0.54204187226E+03  0.00000000000E+00 0.  1.
         14    1    4    4    0    0  0.14163686836E+03  0.32381561801E+02  0.24198305478E+03  0.28225053910E+03  0.00000000000E+00 0. -1.
          5    1    3    3  501    0 -0.17040355251E+03  0.41876003305E+01 -0.81539451991E+03  0.83303374470E+03  0.47000000000E+01 0. -1.
         -5    1    3    3    0  501 -0.64891821568E+02 -0.79022673828E+02 -0.34171829701E+03  0.35671980039E+03  0.47000000000E+01 0. -1.
          1    1    1    2  502    0 -0.46463407760E+01 -0.20958089189E+02 -0.12444956642E+04  0.12446807977E+04  0.00000000000E+00 0. -1.
          1    1    1    2  503    0 -0.38292799539E+01  0.43367548430E+02  0.31264583980E+03  0.31566252357E+03  0.00000000000E+00 0. -1.
<mgrwt>
<rscale>  0 0.30562822E+02</rscale>
<asrwt>0</asrwt>
<pdfrwt beam="1">  1        2 0.19887639E+00 0.43512751E+02</pdfrwt>
<pdfrwt beam="2">  1        2 0.37598586E+00 0.21466951E+02</pdfrwt>
<totfact> 0.19274590E+01</totfact>
</mgrwt>
</event>
<event>
13    1  0.2742815E-008  0.4608739E+02  0.7546771E-02  0.1489546E+00
         -3   -1    0    0    0  501 -0.00000000000E+00  0.00000000000E+00  0.24012668371E+03  0.24012668371E+03  0.00000000000E+00 0.  1.
          2   -1    0    0  503    0  0.00000000000E+00 -0.00000000000E+00 -0.19608659939E+04  0.19608659939E+04  0.00000000000E+00 0. -1.
         25    2    1    2    0    0 -0.14590528536E+03 -0.39441457310E+02 -0.17818227872E+03  0.26498576366E+03  0.12499819856E+03 0.  0.
         24    2    1    2    0    0  0.21860525546E+02  0.16921869578E+03 -0.76167167129E+02  0.20314697625E+03  0.79714534617E+02 0.  0.
         24    2    1    2    0    0  0.17841771205E+03 -0.19241301515E+03 -0.58989905688E+03  0.65298074847E+03  0.97710348447E+02 0.  0.
        -13    1    4    4    0    0  0.45308267660E+02  0.10983193623E+03 -0.72521069628E+02  0.13919482345E+03  0.00000000000E+00 0.  1.
         14    1    4    4    0    0 -0.23447742114E+02  0.59386759555E+02 -0.36460975001E+01  0.63952152799E+02  0.00000000000E+00 0. -1.
        -13    1    5    5    0    0  0.11513971533E+03 -0.11261316751E+03 -0.24368452150E+03  0.29209763019E+03  0.00000000000E+00 0.  1.
         14    1    5    5    0    0  0.63277996716E+02 -0.79799847639E+02 -0.34621453539E+03  0.36088311829E+03  0.00000000000E+00 0. -1.
          5    1    3    3  502    0 -0.11185327910E+03  0.20242839529E+02 -0.61072311878E+02  0.12912337463E+03  0.47000000000E+01 0.  1.
         -5    1    3    3    0  502 -0.34052006260E+02 -0.59684296840E+02 -0.11710996684E+03  0.13586238903E+03  0.47000000000E+01 0.  1.
          1    1    1    2  503    0 -0.37068973013E+02  0.27155138221E+02 -0.97379184019E+03  0.97487540656E+03  0.00000000000E+00 0. -1.
         -4    1    1    2    0  501 -0.17303979224E+02  0.35480638451E+02  0.97301032743E+02  0.10500378267E+03  0.00000000000E+00 0.  1.
<mgrwt>
<rscale>  0 0.42653439E+02</rscale>
<asrwt>0</asrwt>
<pdfrwt beam="2">  1        2 0.28836265E+00 0.46087388E+02</pdfrwt>
<pdfrwt beam="1">  1       -3 0.35312747E-01 0.39475352E+02</pdfrwt>
<totfact> 0.45074244E+01</totfact>
</mgrwt>
</event>
<event>
13    1  0.2742815E-008  0.1175593E+03  0.7546771E-02  0.1400094E+00
          4   -1    0    0  503    0 -0.00000000000E+00  0.00000000000E+00  0.21199337631E+04  0.21199337631E+04  0.00000000000E+00 0. -1.
          2   -1    0    0  502    0  0.00000000000E+00 -0.00000000000E+00 -0.23512348492E+03  0.23512348492E+03  0.00000000000E+00 0. -1.
         25    2    1    2    0    0  0.98018644574E+02 -0.10458860584E+03  0.99975362397E+03  0.10176834475E+04  0.12500343799E+03 0.  0.
         24    2    1    2    0    0 -0.75423085859E+02 -0.72587715657E+02  0.31346102363E+03  0.34017515439E+03  0.80645545319E+02 0.  0.
         24    2    1    2    0    0 -0.97708415251E+02  0.52251456162E+02  0.28627633188E+02  0.14016424207E+03  0.80927895633E+02 0.  0.
        -11    1    5    5    0    0 -0.10411470568E+03  0.41282865516E+02  0.43902518338E+02  0.12029787214E+03  0.00000000000E+00 0.  1.
         12    1    5    5    0    0  0.64062904334E+01  0.10968590646E+02 -0.15274885151E+02  0.19866369931E+02  0.00000000000E+00 0. -1.
        -13    1    4    4    0    0 -0.52085741471E+02 -0.65523809257E+02  0.30171471054E+03  0.31311030102E+03  0.00000000000E+00 0.  1.
         14    1    4    4    0    0 -0.23337344388E+02 -0.70639064004E+01  0.11746313089E+02  0.27064853369E+02  0.00000000000E+00 0. -1.
          5    1    3    3  501    0  0.10359503823E+02 -0.51826710782E+02  0.67683019320E+03  0.67890686231E+03  0.47000000000E+01 0.  1.
         -5    1    3    3    0  501  0.87659140752E+02 -0.52761895056E+02  0.32292343078E+03  0.33877658519E+03  0.47000000000E+01 0.  1.
          1    1    1    2  502    0  0.67268383435E+02  0.95887414757E+02 -0.13481156403E+03  0.17858776418E+03  0.00000000000E+00 0. -1.
          3    1    1    2  503    0  0.78444731009E+01  0.29037450576E+02  0.67777956138E+03  0.67844663984E+03  0.00000000000E+00 0. -1.
<mgrwt>
<rscale>  0 0.59464235E+02</rscale>
<asrwt>0</asrwt>
<pdfrwt beam="2">  1        2 0.34576984E-01 0.11755934E+03</pdfrwt>
<pdfrwt beam="1">  1        4 0.31175496E+00 0.30078386E+02</pdfrwt>
<totfact> 0.28177464E+00</totfact>
</mgrwt>
</event>
<event>
13    1  0.2742815E-008  0.8906932E+02  0.7546771E-02  0.1342469E+00
          2   -1    0    0  503    0  0.00000000000E+00  0.00000000000E+00  0.13852386094E+04  0.13852386094E+04  0.00000000000E+00 0. -1.
          2   -1    0    0  502    0 -0.00000000000E+00 -0.00000000000E+00 -0.21877653654E+04  0.21877653654E+04  0.00000000000E+00 0. -1.
         25    2    1    2    0    0 -0.57940299748E+02 -0.47092473949E+02 -0.67695202170E+03  0.69243317067E+03  0.12499950692E+03 0.  0.
         24    2    1    2    0    0  0.28933224478E+02 -0.16034130856E+03  0.21531543611E+02  0.18284324821E+03  0.80134757357E+02 0.  0.
         24    2    1    2    0    0 -0.70346703447E+02  0.91443562999E+02  0.15071907136E+03  0.20591670152E+03  0.79842755403E+02 0.  0.
        -11    1    4    4    0    0  0.45760747837E+02 -0.15697034003E+03  0.24794925435E+02  0.16537388554E+03  0.00000000000E+00 0.  1.
         12    1    4    4    0    0 -0.16827523358E+02 -0.33709685327E+01 -0.32633818248E+01  0.17469362672E+02  0.00000000000E+00 0. -1.
        -11    1    5    5    0    0 -0.57145701349E+01 -0.80119167545E+01 -0.42882388865E+01  0.10734808552E+02  0.00000000000E+00 0.  1.
         12    1    5    5    0    0 -0.64632133312E+02  0.99455479754E+02  0.15500731025E+03  0.19518189296E+03  0.00000000000E+00 0. -1.
          5    1    3    3  501    0 -0.55019669703E+02 -0.87858031561E+02 -0.51380131231E+03  0.52417561589E+03  0.47000000000E+01 0.  1.
         -5    1    3    3    0  501 -0.29206300449E+01  0.40765557612E+02 -0.16315070939E+03  0.16825755478E+03  0.47000000000E+01 0.  1.
          1    1    1    2  502    0  0.39261909881E+02  0.50441928356E+02 -0.13922815042E+04  0.13937480664E+04  0.00000000000E+00 0. -1.
          1    1    1    2  503    0  0.60091868836E+02  0.65548291158E+02  0.10944561550E+04  0.10980627880E+04  0.00000000000E+00 0. -1.
<mgrwt>
<rscale>  0 0.75454582E+02</rscale>
<asrwt>0</asrwt>
<pdfrwt beam="1">  1        2 0.20371156E+00 0.89069319E+02</pdfrwt>
<pdfrwt beam="2">  1        2 0.32173020E+00 0.63920933E+02</pdfrwt>
<totfact> 0.22484831E+01</totfact>
</mgrwt>
</event>
<event>
13    1  0.2742815E-008  0.1268924E+03  0.7546771E-02  0.1247440E+00
          2   -1    0    0  502    0  0.00000000000E+00  0.00000000000E+00  0.45175743190E+04  0.45175743190E+04  0.00000000000E+00 0. -1.
          2   -1    0    0  503    0 -0.00000000000E+00 -0.00000000000E+00 -0.13174859052E+04  0.13174859052E+04  0.00000000000E+00 0. -1.
         25    2    1    2    0    0  0.12778548296E+03  0.12130317466E+02 -0.61850554818E+03  0.64393377156E+03  0.12500125904E+03 0.  0.
         24    2    1    2    0    0 -0.76255842798E+02 -0.64371502173E+01 -0.17765342809E+02  0.11197451383E+03  0.79789058641E+02 0.  0.
         24    2    1    2    0    0 -0.35732102336E+02  0.50005662629E+02  0.16023650219E+03  0.18657333781E+03  0.73188279906E+02 0.  0.
        -11    1    5    5    0    0  0.11230853568E+02  0.39902229066E+02  0.42282183138E+02  0.59212354853E+02  0.00000000000E+00 0.  1.
         12    1    5    5    0    0 -0.46962955904E+02  0.10103433563E+02  0.11795431906E+03  0.12736098296E+03  0.00000000000E+00 0. -1.
        -13    1    4    4    0    0  0.23745337204E+01  0.20872015217E+02 -0.19580202663E+02  0.28716959552E+02  0.00000000000E+00 0.  1.
         14    1    4    4    0    0 -0.78630376518E+02 -0.27309165434E+02  0.18148598538E+01  0.83257554278E+02  0.00000000000E+00 0. -1.
          5    1    3    3  501    0  0.94165286757E+02 -0.50863999107E+02 -0.39362297672E+03  0.40794041898E+03  0.47000000000E+01 0. -1.
         -5    1    3    3    0  501  0.33620196201E+02  0.62994316573E+02 -0.22488257147E+03  0.23599335258E+03  0.47000000000E+01 0. -1.
          1    1    1    2  502    0  0.14102764145E+03 -0.11403628920E+03  0.42708818406E+04  0.42747309585E+04  0.00000000000E+00 0. -1.
          1    1    1    2  503    0 -0.15682517927E+03  0.58337459326E+02 -0.59475903801E+03  0.61784764247E+03  0.00000000000E+00 0. -1.
<mgrwt>
<rscale>  0 0.11740515E+03</rscale>
<asrwt>0</asrwt>
<pdfrwt beam="1">  1        2 0.66434916E+00 0.10862719E+03</pdfrwt>
<pdfrwt beam="2">  1        2 0.19374793E+00 0.12689245E+03</pdfrwt>
<totfact> 0.92136920E-01</totfact>
</mgrwt>
</event>
<event>
13    1  0.2742815E-008  0.7321459E+02  0.7546771E-02  0.1445966E+00
          2   -1    0    0  503    0  0.00000000000E+00  0.00000000000E+00  0.78411400290E+03  0.78411400290E+03  0.00000000000E+00 0. -1.
         -1   -1    0    0    0  501 -0.00000000000E+00 -0.00000000000E+00 -0.22684172259E+03  0.22684172259E+03  0.00000000000E+00 0.  1.
         25    2    1    2    0    0 -0.69346557421E+02  0.44302749520E+02 -0.13440556379E+03  0.20114964583E+03  0.12499858319E+03 0.  0.
         24    2    1    2    0    0  0.45402705604E+01 -0.39580991637E+01  0.31215599551E+02  0.88529897538E+02  0.82624745065E+02 0.  0.
         24    2    1    2    0    0  0.25840128103E+02  0.53317885015E+01  0.26818835273E+03  0.28150204783E+03  0.81377332266E+02 0.  0.
        -11    1    4    4    0    0  0.27949438089E+02 -0.28048495489E+02 -0.40785175424E+01  0.39806073582E+02  0.00000000000E+00 0.  1.
         12    1    4    4    0    0 -0.23409167528E+02  0.24090396326E+02  0.35294117093E+02  0.48723823956E+02  0.00000000000E+00 0. -1.
        -11    1    5    5    0    0 -0.20411036733E+01 -0.23476187273E+02  0.20708037990E+03  0.20841684484E+03  0.00000000000E+00 0.  1.
         12    1    5    5    0    0  0.27881231776E+02  0.28807975774E+02  0.61107972823E+02  0.73085202990E+02  0.00000000000E+00 0. -1.
          5    1    3    3  502    0 -0.39841564324E+02 -0.33431420360E+02 -0.96342074171E+02  0.10958510561E+03  0.47000000000E+01 0. -1.
         -5    1    3    3    0  502 -0.29504993097E+02  0.77734169881E+02 -0.38063489619E+02  0.91564540225E+02  0.47000000000E+01 0. -1.
          1    1    1    2  503    0  0.67999905557E+02 -0.28005367637E+02  0.39849225159E+03  0.40522137450E+03  0.00000000000E+00 0. -1.
         -2    1    1    2    0  501 -0.29033746799E+02 -0.17671071221E+02 -0.62183597664E+01  0.34552759796E+02  0.00000000000E+00 0.  1.
<mgrwt>
<rscale>  0 0.49884482E+02</rscale>
<asrwt>0</asrwt>
<pdfrwt beam="1">  1        2 0.11531088E+00 0.73214586E+02</pdfrwt>
<pdfrwt beam="2">  1       -1 0.33359077E-01 0.33988604E+02</pdfrwt>
<totfact> 0.38140415E+02</totfact>
</mgrwt>
</event>
<event>
13    1  0.2742815E-008  0.1739054E+03  0.7546771E-02  0.1207962E+00
          2   -1    0    0  502    0  0.00000000000E+00  0.00000000000E+00  0.24902048813E+04  0.24902048813E+04  0.00000000000E+00 0. -1.
          2   -1    0    0  503    0 -0.00000000000E+00 -0.00000000000E+00 -0.49912384071E+03  0.49912384071E+03  0.00000000000E+00 0. -1.
         25    2    1    2    0    0 -0.30158198172E+03  0.89193750408E+02 -0.18053149421E+03  0.38356718647E+03  0.12499979730E+03 0.  0.
         24    2    1    2    0    0  0.37569618649E+02 -0.91904574212E+02  0.11942194340E+03  0.17516202577E+03  0.81007454601E+02 0.  0.
         24    2    1    2    0    0 -0.24438257190E+02  0.61974986530E+02  0.34159105277E+03  0.35731736618E+03  0.80951377213E+02 0.  0.
        -13    1    4    4    0    0  0.38458699764E+02 -0.42617363505E+02  0.11125920925E+03  0.12519553867E+03  0.00000000000E+00 0.  1.
         14    1    4    4    0    0 -0.88908111517E+00 -0.49287210707E+02  0.81627341469E+01  0.49966487101E+02  0.00000000000E+00 0. -1.
        -13    1    5    5    0    0  0.15815434237E+02 -0.10016781025E+02  0.33494049914E+02  0.38370760246E+02  0.00000000000E+00 0.  1.
         14    1    5    5    0    0 -0.40253691427E+02  0.71991767556E+02  0.30809700285E+03  0.31894660593E+03  0.00000000000E+00 0. -1.
          5    1    3    3  501    0 -0.10494514273E+03 -0.18833184441E+02 -0.96688262185E+02  0.14401000612E+03  0.47000000000E+01 0.  1.
         -5    1    3    3    0  501 -0.19663683898E+03  0.10802693485E+03 -0.83843232022E+02  0.23955718034E+03  0.47000000000E+01 0.  1.
          1    1    1    2  502    0  0.12058179992E+03  0.40170986279E+02  0.18366210924E+04  0.18410135023E+04  0.00000000000E+00 0. -1.
          1    1    1    2  503    0  0.16786882033E+03 -0.99435149005E+02 -0.12602155379E+03  0.23226864127E+03  0.00000000000E+00 0. -1.
<mgrwt>
<rscale>  0 0.14406444E+03</rscale>
<asrwt>0</asrwt>
<pdfrwt beam="1">  1        2 0.36620660E+00 0.11934398E+03</pdfrwt>
<pdfrwt beam="2">  1        2 0.73400566E-01 0.17390541E+03</pdfrwt>
<totfact> 0.53033713E+01</totfact>
</mgrwt>
</event>
<event>
13    1  0.2742815E-008  0.9046282E+02  0.7546771E-02  0.1357054E+00
          2   -1    0    0  502    0  0.00000000000E+00  0.00000000000E+00  0.16244377989E+04  0.16244377989E+04  0.00000000000E+00 0. -1.
          2   -1    0    0  503    0 -0.00000000000E+00 -0.00000000000E+00 -0.56425669338E+03  0.56425669338E+03  0.00000000000E+00 0. -1.
         25    2    1    2    0    0 -0.74630453190E+02 -0.15724656614E+03 -0.24986878874E+03  0.32917471929E+03  0.12500158849E+03 0.  0.
         24    2    1    2    0    0 -0.39288416056E+02  0.17485891373E+02  0.78440573283E+02  0.12174127600E+03  0.82575291167E+02 0.  0.
         24    2    1    2    0    0  0.12609541313E+03  0.24834146246E+03  0.62396886167E+03  0.68786149246E+03  0.79011121352E+02 0.  0.
        -13    1    5    5    0    0  0.12405008701E+03  0.25279321579E+03  0.62162649556E+03  0.68243119361E+03  0.00000000000E+00 0.  1.
         14    1    5    5    0    0  0.20453261190E+01 -0.44517533296E+01  0.23423661104E+01  0.54302988533E+01  0.00000000000E+00 0. -1.
        -13    1    4    4    0    0 -0.42260762226E+02  0.24091969310E+02  0.60858304800E+01  0.49024813532E+02  0.00000000000E+00 0.  1.
         14    1    4    4    0    0  0.29723461702E+01 -0.66060779369E+01  0.72354742803E+02  0.72716462466E+02  0.00000000000E+00 0. -1.
          5    1    3    3  501    0 -0.62158778465E+02 -0.17813120790E+03 -0.22928269103E+03  0.29696310103E+03  0.47000000000E+01 0. -1.
         -5    1    3    3    0  501 -0.12471674726E+02  0.20884641757E+02 -0.20586097710E+02  0.32211618256E+02  0.47000000000E+01 0. -1.
          1    1    1    2  502    0  0.41359778858E+02 -0.93685058141E+02  0.82205966769E+03  0.82841391748E+03  0.00000000000E+00 0. -1.
          1    1    1    2  503    0 -0.53536322739E+02 -0.14895729544E+02 -0.21441920843E+03  0.22150308701E+03  0.00000000000E+00 0. -1.
<mgrwt>
<rscale>  0 0.70901448E+02</rscale>
<asrwt>0</asrwt>
<pdfrwt beam="1">  1        2 0.23888791E+00 0.90462820E+02</pdfrwt>
<pdfrwt beam="2">  1        2 0.82978926E-01 0.55569961E+02</pdfrwt>
<totfact> 0.12813067E+02</totfact>
</mgrwt>
</event>
<event>
13    1  0.2742815E-008  0.6611707E+02  0.7546771E-02  0.1458242E+00
          2   -1    0    0  502    0  0.00000000000E+00  0.00000000000E+00  0.45421990964E+03  0.45421990964E+03  0.00000000000E+00 0. -1.
          2   -1    0    0  503    0 -0.00000000000E+00 -0.00000000000E+00 -0.97791987669E+03  0.97791987669E+03  0.00000000000E+00 0. -1.
         25    2    1    2    0    0  0.46523607171E+02 -0.25277320140E+02 -0.32691363714E+03  0.35397837008E+03  0.12499908557E+03 0.  0.
         24    2    1    2    0    0 -0.38341079478E+02 -0.43636014757E+02  0.36341158060E+02  0.10576142716E+03  0.80564629618E+02 0.  0.
         24    2    1    2    0    0 -0.41903801253E+02  0.30566370414E+02  0.12149720862E+03  0.15802901850E+03  0.86725817528E+02 0.  0.
        -11    1    4    4    0    0 -0.20769988342E+01 -0.50849715077E+02 -0.39878078899E+01  0.51048115140E+02  0.00000000000E+00 0.  1.
         12    1    4    4    0    0 -0.36264080644E+02  0.72137003195E+01  0.40328965950E+02  0.54713312017E+02  0.00000000000E+00 0. -1.
        -11    1    5    5    0    0 -0.48232303310E+02  0.40863888372E+02  0.12910250711E+03  0.14374863407E+03  0.00000000000E+00 0.  1.
         12    1    5    5    0    0  0.63285020569E+01 -0.10297517959E+02 -0.76052984869E+01  0.14280384430E+02  0.00000000000E+00 0. -1.
          5    1    3    3  501    0  0.53172200592E+02 -0.17444247909E+02 -0.45334491090E+02  0.72172645672E+02  0.47000000000E+01 0. -1.
         -5    1    3    3    0  501 -0.66485934217E+01 -0.78330722318E+01 -0.28157914605E+03  0.28180572441E+03  0.47000000000E+01 0. -1.
          1    1    1    2  502    0  0.12284978364E+02  0.65240722174E+02  0.22455922792E+03  0.23416686223E+03  0.00000000000E+00 0. -1.
          1    1    1    2  503    0  0.21436295197E+02 -0.26893757690E+02 -0.57918392450E+03  0.58020410836E+03  0.00000000000E+00 0. -1.
<mgrwt>
<rscale>  0 0.47685201E+02</rscale>
<asrwt>0</asrwt>
<pdfrwt beam="1">  1        2 0.66797047E-01 0.66117072E+02</pdfrwt>
<pdfrwt beam="2">  1        2 0.14381174E+00 0.34391699E+02</pdfrwt>
<totfact> 0.36493992E+02</totfact>
</mgrwt>
</event>
<event>
13    1  0.2742815E-008  0.4683490E+02  0.7546771E-02  0.1465944E+00
          2   -1    0    0  503    0  0.00000000000E+00  0.00000000000E+00  0.39401569280E+04  0.39401569280E+04  0.00000000000E+00 0. -1.
          2   -1    0    0  502    0 -0.00000000000E+00 -0.00000000000E+00 -0.15671389337E+04  0.15671389337E+04  0.00000000000E+00 0. -1.
         25    2    1    2    0    0  0.13930545689E+03 -0.10422599530E+02 -0.43624417799E+03  0.47481471737E+03  0.12500156837E+03 0.  0.
         24    2    1    2    0    0  0.61569164488E+02  0.39453657006E+02 -0.55439684725E+01  0.10642194531E+03  0.77120307255E+02 0.  0.
         24    2    1    2    0    0 -0.22003045348E+03 -0.30251408517E+02  0.21910434081E+04  0.22037522501E+04  0.80772614537E+02 0.  0.
        -11    1    4    4    0    0  0.60099015864E+02  0.13149127126E+02 -0.31777292470E+02  0.69242960428E+02  0.00000000000E+00 0.  1.
         12    1    4    4    0    0  0.14701486237E+01  0.26304529880E+02  0.26233323998E+02  0.37178984886E+02  0.00000000000E+00 0. -1.
        -13    1    5    5    0    0 -0.42342609920E+02 -0.15655863126E+02  0.80870728726E+03  0.80996634445E+03  0.00000000000E+00 0.  1.
         14    1    5    5    0    0 -0.17768784356E+03 -0.14595545391E+02  0.13823361209E+04  0.13937859056E+04  0.00000000000E+00 0. -1.
          5    1    3    3  501    0  0.53645038920E+02  0.63000130705E+01 -0.35865868075E+02  0.65007160053E+02  0.47000000000E+01 0.  1.
         -5    1    3    3    0  501  0.85660417967E+02 -0.16722612600E+02 -0.40037830992E+03  0.40980755731E+03  0.47000000000E+01 0.  1.
          1    1    1    2  502    0  0.14696212455E+02 -0.44479618312E+02 -0.10484339578E+04  0.10494799565E+04  0.00000000000E+00 0. -1.
          1    1    1    2  503    0  0.44596196513E+01  0.45699969352E+02  0.16721966904E+04  0.16728269925E+04  0.00000000000E+00 0. -1.
<mgrwt>
<rscale>  0 0.46373704E+02</rscale>
<asrwt>0</asrwt>
<pdfrwt beam="1">  1        2 0.57943484E+00 0.45917049E+02</pdfrwt>
<pdfrwt beam="2">  1        2 0.23046161E+00 0.46834900E+02</pdfrwt>
<totfact> 0.23572389E+00</totfact>
</mgrwt>
</event>
<event>
13    1  0.2742815E-008  0.1222842E+03  0.7546771E-02  0.1275845E+00
          2   -1    0    0  503    0  0.00000000000E+00  0.00000000000E+00  0.21651046585E+04  0.21651046585E+04  0.00000000000E+00 0. -1.
         -1   -1    0    0    0  501 -0.00000000000E+00 -0.00000000000E+00 -0.21534484398E+04  0.21534484398E+04  0.00000000000E+00 0.  1.
         25    2    1    2    0    0  0.31082395668E+03  0.44159739125E+02 -0.63684526921E+03  0.72094100118E+03  0.12498966224E+03 0.  0.
         24    2    1    2    0    0 -0.24859750711E+03  0.19045142974E+03  0.34544568764E+03  0.47292519385E+03  0.79076217882E+02 0.  0.
         24    2    1    2    0    0 -0.71852171666E+02 -0.39992367673E+02  0.35119702633E+02  0.12055127031E+03  0.80852280211E+02 0.  0.
        -11    1    4    4    0    0 -0.16965005453E+03  0.83401439391E+02  0.22034826181E+03  0.29032791388E+03  0.00000000000E+00 0.  1.
         12    1    4    4    0    0 -0.78947452584E+02  0.10704999035E+03  0.12509742583E+03  0.18259727997E+03  0.00000000000E+00 0. -1.
        -13    1    5    5    0    0 -0.66544553941E+02 -0.59993652839E+02  0.41716650089E+02  0.98831649459E+02  0.00000000000E+00 0.  1.
         14    1    5    5    0    0 -0.53076177258E+01  0.20001285166E+02 -0.65969474566E+01  0.21719620852E+02  0.00000000000E+00 0. -1.
          5    1    3    3  502    0  0.19630710825E+03  0.76362980310E+02 -0.47852502995E+03  0.52285378434E+03  0.47000000000E+01 0. -1.
         -5    1    3    3    0  502  0.11451684843E+03 -0.32203241186E+02 -0.15832023926E+03  0.19808721685E+03  0.47000000000E+01 0. -1.
          1    1    1    2  503    0 -0.30814454818E+02 -0.79566898819E+02  0.16322015860E+04  0.16344303103E+04  0.00000000000E+00 0. -1.
         -2    1    1    2    0  501  0.40440176920E+02 -0.11505190237E+03 -0.13642654884E+04  0.13697053226E+04  0.00000000000E+00 0.  1.
<mgrwt>
<rscale>  0 0.10214671E+03</rscale>
<asrwt>0</asrwt>
<pdfrwt beam="1">  1        2 0.31839774E+00 0.85325389E+02</pdfrwt>
<pdfrwt beam="2">  1       -1 0.31668359E+00 0.12228423E+03</pdfrwt>
<totfact> 0.30135853E-01</totfact>
</mgrwt>
</event>
<event>
13    1  0.2742815E-008  0.3320660E+02  0.7546771E-02  0.1576436E+00
          2   -1    0    0  502    0  0.00000000000E+00  0.00000000000E+00  0.26748941046E+04  0.26748941046E+04  0.00000000000E+00 0. -1.
          2   -1    0    0  503    0 -0.00000000000E+00 -0.00000000000E+00 -0.12755619787E+04  0.12755619787E+04  0.00000000000E+00 0. -1.
         25    2    1    2    0    0  0.96127082671E+02  0.11756859660E+03 -0.69408343233E+03  0.72141555012E+03  0.12500317593E+03 0.  0.
         24    2    1    2    0    0 -0.37177447667E+02 -0.46696139288E+02 -0.11414381607E+03  0.15194509699E+03  0.80596586234E+02 0.  0.
         24    2    1    2    0    0 -0.48588107479E+02 -0.47626430809E+02  0.22327289227E+03  0.24675357299E+03  0.80046613051E+02 0.  0.
        -11    1    4    4    0    0 -0.34563344404E+02  0.18781445797E+01 -0.92383485575E+02  0.98655261443E+02  0.00000000000E+00 0.  1.
         12    1    4    4    0    0 -0.26141032632E+01 -0.48574283868E+02 -0.21760330492E+02  0.53289835544E+02  0.00000000000E+00 0. -1.
        -13    1    5    5    0    0 -0.41198995125E+02 -0.43030472631E+02  0.22881086170E+03  0.23643897565E+03  0.00000000000E+00 0.  1.
         14    1    5    5    0    0 -0.73891123538E+01 -0.45959581776E+01 -0.55379694284E+01  0.10314597342E+02  0.00000000000E+00 0. -1.
          5    1    3    3  501    0  0.36144169341E+02  0.31007063102E+02 -0.48406676774E+03  0.48642631977E+03  0.47000000000E+01 0.  1.
         -5    1    3    3    0  501  0.59982913329E+02  0.86561533499E+02 -0.21001666459E+03  0.23498923034E+03  0.47000000000E+01 0.  1.
          1    1    1    2  502    0 -0.33130072363E+02 -0.22949073373E+01  0.24066336831E+04  0.24068628031E+04  0.00000000000E+00 0. -1.
          1    1    1    2  503    0  0.22768544839E+02 -0.20951119166E+02 -0.42234720112E+03  0.42347906008E+03  0.00000000000E+00 0. -1.
<mgrwt>
<rscale>  0 0.32053879E+02</rscale>
<asrwt>0</asrwt>
<pdfrwt beam="1">  1        2 0.39336678E+00 0.33206604E+02</pdfrwt>
<pdfrwt beam="2">  1        2 0.18758264E+00 0.30941170E+02</pdfrwt>
<totfact> 0.17646352E+01</totfact>
</mgrwt>
</event>
<event>
13    1  0.2742815E-008  0.1781333E+03  0.7546771E-02  0.1224393E+00
          2   -1    0    0  502    0  0.00000000000E+00  0.00000000000E+00  0.24740924465E+04  0.24740924465E+04  0.00000000000E+00 0. -1.
          2   -1    0    0  503    0 -0.00000000000E+00 -0.00000000000E+00 -0.18089929906E+04  0.18089929906E+04  0.00000000000E+00 0. -1.
         25    2    1    2    0    0  0.30605462111E+03 -0.91762071975E+02 -0.10645275858E+03  0.35923058676E+03  0.12499886278E+03 0.  0.
         24    2    1    2    0    0 -0.76638486893E+02 -0.79185775321E+02 -0.21204003014E+03  0.24611340632E+03  0.58881148980E+02 0.  0.
         24    2    1    2    0    0 -0.63319661507E+02 -0.17376869821E+02  0.35662057584E+02  0.10781618435E+03  0.77725234759E+02 0.  0.
        -11    1    4    4    0    0 -0.53039669445E+02 -0.84942780511E+02 -0.16129329969E+03  0.18985260341E+03  0.00000000000E+00 0.  1.
         12    1    4    4    0    0 -0.23598817448E+02  0.57570051898E+01 -0.50746730445E+02  0.56260802914E+02  0.00000000000E+00 0. -1.
        -13    1    5    5    0    0 -0.31425350174E+02  0.28790053631E+02  0.26248761180E+01  0.42700231806E+02  0.00000000000E+00 0.  1.
         14    1    5    5    0    0 -0.31894311332E+02 -0.46166923452E+02  0.33037181466E+02  0.65115952543E+02  0.00000000000E+00 0. -1.
          5    1    3    3  501    0  0.21585966124E+03 -0.12180953109E+03 -0.75709763474E+02  0.25920457847E+03  0.47000000000E+01 0. -1.
         -5    1    3    3    0  501  0.90194959877E+02  0.30047459116E+02 -0.30742995111E+02  0.10002600829E+03  0.47000000000E+01 0. -1.
          1    1    1    2  502    0  0.16228224557E+02  0.96587953362E+02  0.22499119448E+04  0.22520427055E+04  0.00000000000E+00 0. -1.
          1    1    1    2  503    0 -0.18232469727E+03  0.91736763754E+02 -0.13019817578E+04  0.13178825542E+04  0.00000000000E+00 0. -1.
<mgrwt>
<rscale>  0 0.13208591E+03</rscale>
<asrwt>0</asrwt>
<pdfrwt beam="1">  1        2 0.36383713E+00 0.97941758E+02</pdfrwt>
<pdfrwt beam="2">  1        2 0.26602838E+00 0.17813328E+03</pdfrwt>
<totfact> 0.90335214E+00</totfact>
</mgrwt>
</event>
<event>
13    1  0.2742815E-008  0.6730275E+02  0.7546771E-02  0.1374550E+00
          2   -1    0    0  502    0  0.00000000000E+00  0.00000000000E+00  0.17267337369E+04  0.17267337369E+04  0.00000000000E+00 0. -1.
          2   -1    0    0  503    0 -0.00000000000E+00 -0.00000000000E+00 -0.11382652768E+04  0.11382652768E+04  0.00000000000E+00 0. -1.
         25    2    1    2    0    0 -0.85500489985E+02  0.12802843349E+02 -0.19664280046E+03  0.24853193979E+03  0.12500195014E+03 0.  0.
         24    2    1    2    0    0  0.28723649017E+01  0.42694810996E+02  0.17663610517E+03  0.19881903294E+03  0.80607672375E+02 0.  0.
         24    2    1    2    0    0  0.13582827828E+03 -0.11097093745E+03  0.18771910125E+03  0.27128763599E+03  0.87147290995E+02 0.  0.
        -13    1    4    4    0    0  0.32654375319E+01 -0.11957515142E+02 -0.15014205800E+01  0.12485972705E+02  0.00000000000E+00 0.  1.
         14    1    4    4    0    0 -0.39307263020E+00  0.54652326137E+02  0.17813752575E+03  0.18633306024E+03  0.00000000000E+00 0. -1.
        -13    1    5    5    0    0  0.13447015687E+03 -0.94890558663E+02  0.12539072635E+03  0.20690402477E+03  0.00000000000E+00 0.  1.
         14    1    5    5    0    0  0.13581214072E+01 -0.16080378790E+02  0.62328374901E+02  0.64383611219E+02  0.00000000000E+00 0. -1.
          5    1    3    3  501    0 -0.95002862370E+02 -0.35256423912E+02 -0.14720916855E+03  0.17877692410E+03  0.47000000000E+01 0. -1.
         -5    1    3    3    0  501  0.95023723851E+01  0.48059267261E+02 -0.49433631917E+02  0.69755015698E+02  0.47000000000E+01 0. -1.
          1    1    1    2  502    0  0.13732444251E+02  0.63084947295E+02  0.12814294186E+04  0.12830548100E+04  0.00000000000E+00 0. -1.
          1    1    1    2  503    0 -0.66932597445E+02 -0.76116641861E+01 -0.86067336447E+03  0.86330559499E+03  0.00000000000E+00 0. -1.
<mgrwt>
<rscale>  0 0.65918284E+02</rscale>
<asrwt>0</asrwt>
<pdfrwt beam="1">  1        2 0.25393143E+00 0.64562300E+02</pdfrwt>
<pdfrwt beam="2">  1        2 0.16739195E+00 0.67302748E+02</pdfrwt>
<totfact> 0.50592862E+01</totfact>
</mgrwt>
</event>
<event>
13    1  0.2742815E-008  0.7518714E+02  0.7546771E-02  0.1448117E+00
          2   -1    0    0  502    0  0.00000000000E+00  0.00000000000E+00  0.28880545049E+04  0.28880545049E+04  0.00000000000E+00 0. -1.
          2   -1    0    0  503    0 -0.00000000000E+00 -0.00000000000E+00 -0.42267329659E+04  0.42267329659E+04  0.00000000000E+00 0. -1.
         25    2    1    2    0    0 -0.96435064258E+02  0.10431483182E+03 -0.74132138495E+02  0.20322345381E+03  0.12499156958E+03 0.  0.
         24    2    1    2    0    0  0.72848792243E+03 -0.56063055877E+03 -0.22954434602E+03  0.95105691616E+03  0.82567393235E+02 0.  0.
         24    2    1    2    0    0 -0.60825613467E+03  0.39431390531E+03  0.31251798839E+03  0.79105446047E+03  0.51387596634E+02 0.  0.
        -13    1    5    5    0    0 -0.12015674477E+03  0.84783727309E+02  0.42194379885E+02  0.15299114165E+03  0.00000000000E+00 0.  1.
         14    1    5    5    0    0 -0.48809938990E+03  0.30953017800E+03  0.27032360850E+03  0.63806331882E+03  0.00000000000E+00 0. -1.
        -13    1    4    4    0    0  0.22637111090E+03 -0.13598001207E+03 -0.43445153840E+02  0.26762272872E+03  0.00000000000E+00 0.  1.
         14    1    4    4    0    0  0.50211681153E+03 -0.42465054670E+03 -0.18609919218E+03  0.68343418744E+03  0.00000000000E+00 0. -1.
          5    1    3    3  501    0  0.20673296791E+02  0.48929486967E+02 -0.46341526359E+02  0.70647766846E+02  0.47000000000E+01 0.  1.
         -5    1    3    3    0  501 -0.11710836105E+03  0.55385344851E+02 -0.27790612136E+02  0.13257568697E+03  0.47000000000E+01 0.  1.
          1    1    1    2  502    0  0.60928257210E+01  0.74951602710E+02  0.19101450873E+04  0.19116247330E+04  0.00000000000E+00 0. -1.
          1    1    1    2  503    0 -0.29889549229E+02 -0.12949781068E+02 -0.32576650521E+04  0.32578279073E+04  0.00000000000E+00 0. -1.
<mgrwt>
<rscale>  0 0.49489038E+02</rscale>
<asrwt>0</asrwt>
<pdfrwt beam="1">  1        2 0.42471390E+00 0.75187138E+02</pdfrwt>
<pdfrwt beam="2">  1        2 0.62157837E+00 0.32574253E+02</pdfrwt>
<totfact> 0.36223264E-01</totfact>
</mgrwt>
</event>
<event>
13    1  0.2742815E-008  0.7545459E+02  0.7546771E-02  0.1386278E+00
          2   -1    0    0  502    0  0.00000000000E+00  0.00000000000E+00  0.28618488844E+04  0.28618488844E+04  0.00000000000E+00 0. -1.
          2   -1    0    0  503    0 -0.00000000000E+00 -0.00000000000E+00 -0.19024790908E+04  0.19024790908E+04  0.00000000000E+00 0. -1.
         25    2    1    2    0    0 -0.66538787534E+01 -0.54636871578E+01 -0.31886941459E+03  0.34258956816E+03  0.12496312525E+03 0.  0.
         24    2    1    2    0    0  0.12691225113E+02  0.19535475386E+01 -0.63064991153E+02  0.10349608222E+03  0.81051603208E+02 0.  0.
         24    2    1    2    0    0 -0.21536930562E+02  0.71068796397E+02  0.67627650831E+03  0.68503710033E+03  0.80070593387E+02 0.  0.
        -11    1    4    4    0    0  0.21830217219E+00 -0.23641624801E+02  0.95499500449E+01  0.25498541623E+02  0.00000000000E+00 0.  1.
         12    1    4    4    0    0  0.12472922940E+02  0.25595172339E+02 -0.72614941198E+02  0.77997540595E+02  0.00000000000E+00 0. -1.
        -13    1    5    5    0    0 -0.96424849270E+01  0.28773840816E+02  0.55864035602E+03  0.55946399241E+03  0.00000000000E+00 0.  1.
         14    1    5    5    0    0 -0.11894445635E+02  0.42294955581E+02  0.11763615229E+03  0.12557310791E+03  0.00000000000E+00 0. -1.
          5    1    3    3  501    0 -0.26083485691E+02  0.42976210380E+02 -0.25511189173E+03  0.26006051255E+03  0.47000000000E+01 0. -1.
         -5    1    3    3    0  501  0.19429606937E+02 -0.48439897538E+02 -0.63757522858E+02  0.82529055612E+02  0.47000000000E+01 0. -1.
          1    1    1    2  502    0 -0.46357996804E+02 -0.24292999422E+02  0.21478375699E+04  0.21484751431E+04  0.00000000000E+00 0. -1.
          1    1    1    2  503    0  0.61857581007E+02 -0.43265657355E+02 -0.14828098790E+04  0.14847300814E+04  0.00000000000E+00 0. -1.
<mgrwt>
<rscale>  0 0.62841900E+02</rscale>
<asrwt>0</asrwt>
<pdfrwt beam="1">  1        2 0.42086013E+00 0.52337498E+02</pdfrwt>
<pdfrwt beam="2">  1        2 0.27977634E+00 0.75454589E+02</pdfrwt>
<totfact> 0.61812500E+00</totfact>
</mgrwt>
</event>
<event>
13    1  0.2742815E-008  0.9181124E+02  0.7546771E-02  0.1351847E+00
          2   -1    0    0  503    0  0.00000000000E+00  0.00000000000E+00  0.39429910444E+03  0.39429910444E+03  0.00000000000E+00 0. -1.
          2   -1    0    0  502    0 -0.00000000000E+00 -0.00000000000E+00 -0.44162029719E+04  0.44162029719E+04  0.00000000000E+00 0. -1.
         25    2    1    2    0    0 -0.64957615964E+02 -0.95378144423E+02 -0.98536104480E+03  0.99993776295E+03  0.12499063509E+03 0.  0.
         24    2    1    2    0    0 -0.57061676235E+02  0.22749517119E+02 -0.34489515858E+03  0.35960135095E+03  0.81159631386E+02 0.  0.
         24    2    1    2    0    0  0.47372636772E+01 -0.18788135811E+02 -0.28612635222E+03  0.29655891987E+03  0.75521306937E+02 0.  0.
        -11    1    5    5    0    0 -0.11217270945E+02 -0.45493895829E+02 -0.17083496080E+03  0.17714430715E+03  0.00000000000E+00 0.  1.
         12    1    5    5    0    0  0.15954534622E+02  0.26705760019E+02 -0.11529139142E+03  0.11941461271E+03  0.00000000000E+00 0. -1.
        -13    1    4    4    0    0 -0.14985490016E+02 -0.24372056937E+02 -0.46535644612E+02  0.54627175378E+02  0.00000000000E+00 0.  1.
         14    1    4    4    0    0 -0.42076186219E+02  0.47121574056E+02 -0.29835951397E+03  0.30497417557E+03  0.00000000000E+00 0. -1.
          5    1    3    3  501    0 -0.16995313417E+02 -0.36484380730E+02 -0.77799353964E+03  0.77904812974E+03  0.47000000000E+01 0. -1.
         -5    1    3    3    0  501 -0.47962302548E+02 -0.58893763693E+02 -0.20736750515E+03  0.22088963321E+03  0.47000000000E+01 0. -1.
          1    1    1    2  502    0  0.46943323093E+02  0.32724851143E+02 -0.27740599849E+04  0.27746501386E+04  0.00000000000E+00 0. -1.
          1    1    1    2  503    0  0.70338705429E+02  0.58691911972E+02  0.36853867311E+03  0.37975390398E+03  0.00000000000E+00 0. -1.
<mgrwt>
<rscale>  0 0.72483176E+02</rscale>
<asrwt>0</asrwt>
<pdfrwt beam="1">  1        2 0.57985162E-01 0.91811242E+02</pdfrwt>
<pdfrwt beam="2">  1        2 0.64944162E+00 0.57224046E+02</pdfrwt>
<totfact> 0.56462557E+00</totfact>
</mgrwt>
</event>
<event>
13    1  0.2742815E-008  0.1274777E+03  0.7546771E-02  0.1279191E+00
          2   -1    0    0  502    0  0.00000000000E+00  0.00000000000E+00  0.13761193413E+04  0.13761193413E+04  0.00000000000E+00 0. -1.
          2   -1    0    0  503    0 -0.00000000000E+00 -0.00000000000E+00 -0.15485681773E+04  0.15485681773E+04  0.00000000000E+00 0. -1.
         25    2    1    2    0    0  0.10040711352E+03  0.33862739673E+03 -0.27248636961E+03  0.46327909823E+03  0.12501439503E+03 0.  0.
         24    2    1    2    0    0 -0.20976986579E+03 -0.32444655076E+03  0.22828426628E+03  0.45565132432E+03  0.78964943075E+02 0.  0.
         24    2    1    2    0    0  0.68012758344E+02 -0.52912457582E+02  0.16171849606E+03  0.19994812901E+03  0.80005742690E+02 0.  0.
        -11    1    5    5    0    0  0.75594386608E+01  0.79027434449E+01  0.82450686270E+02  0.83172796834E+02  0.00000000000E+00 0.  1.
         12    1    5    5    0    0  0.60453319683E+02 -0.60815201027E+02  0.79267809785E+02  0.11677533218E+03  0.00000000000E+00 0. -1.
        -11    1    4    4    0    0 -0.38589009756E+01 -0.54642766655E+02  0.36284105258E+02  0.65705854829E+02  0.00000000000E+00 0.  1.
         12    1    4    4    0    0 -0.20591096481E+03 -0.26980378410E+03  0.19200016102E+03  0.38994546949E+03  0.00000000000E+00 0. -1.
          5    1    3    3  501    0  0.11389815501E+03  0.23274944488E+03 -0.23561151096E+03  0.35025700265E+03  0.47000000000E+01 0. -1.
         -5    1    3    3    0  501 -0.13491041489E+02  0.10587795185E+03 -0.36874858656E+02  0.11302209558E+03  0.47000000000E+01 0. -1.
          1    1    1    2  502    0 -0.79196638049E+02 -0.35151248410E+01  0.75193780361E+03  0.75610510122E+03  0.00000000000E+00 0. -1.
          1    1    1    2  503    0  0.12054663198E+03  0.42246736446E+02 -0.10419030323E+04  0.10497038658E+04  0.00000000000E+00 0. -1.
<mgrwt>
<rscale>  0 0.10052733E+03</rscale>
<asrwt>0</asrwt>
<pdfrwt beam="1">  1        2 0.20237049E+00 0.79274609E+02</pdfrwt>
<pdfrwt beam="2">  1        2 0.22773062E+00 0.12747768E+03</pdfrwt>
<totfact> 0.43486604E+01</totfact>
</mgrwt>
</event>
<event>
13    1  0.2742815E-008  0.8834594E+02  0.7546771E-02  0.1331779E+00
          2   -1    0    0  502    0  0.00000000000E+00  0.00000000000E+00  0.15053456773E+04  0.15053456773E+04  0.00000000000E+00 0. -1.
          2   -1    0    0  503    0 -0.00000000000E+00 -0.00000000000E+00 -0.69838794258E+03  0.69838794258E+03  0.00000000000E+00 0. -1.
         25    2    1    2    0    0  0.85128042143E+02 -0.10759798984E+02 -0.48362810696E+03  0.50683611294E+03  0.12499657078E+03 0.  0.
         24    2    1    2    0    0 -0.25098765081E+02 -0.26500891748E+02 -0.41133644336E+02  0.97172574261E+02  0.80114213595E+02 0.  0.
         24    2    1    2    0    0 -0.46147075062E+02 -0.21327596290E+02  0.39371710559E+03  0.40537300479E+03  0.82034717526E+02 0.  0.
        -13    1    4    4    0    0 -0.47326996774E+02  0.61901704670E+01 -0.16061490564E+02  0.50360046795E+02  0.00000000000E+00 0.  1.
         14    1    4    4    0    0  0.22228231693E+02 -0.32691062215E+02 -0.25072153772E+02  0.46812527466E+02  0.00000000000E+00 0. -1.
        -13    1    5    5    0    0  0.15481807125E+01 -0.40575189405E+02  0.11519421241E+03  0.12214110459E+03  0.00000000000E+00 0.  1.
         14    1    5    5    0    0 -0.47695255775E+02  0.19247593115E+02  0.27852289318E+03  0.28323190020E+03  0.00000000000E+00 0. -1.
          5    1    3    3  501    0  0.11238419929E+03  0.13970191645E+02 -0.33538335735E+03  0.35401901205E+03  0.47000000000E+01 0.  1.
         -5    1    3    3    0  501 -0.27256157144E+02 -0.24729990629E+02 -0.14824474961E+03  0.15281710089E+03  0.47000000000E+01 0.  1.
          1    1    1    2  502    0 -0.69650987977E+02 -0.12286356100E+02  0.10489737387E+04  0.10513553724E+04  0.00000000000E+00 0. -1.
          1    1    1    2  503    0  0.55768785977E+02  0.70874643123E+02 -0.11097135825E+03  0.14299655548E+03  0.00000000000E+00 0. -1.
<mgrwt>
<rscale>  0 0.79046725E+02</rscale>
<asrwt>0</asrwt>
<pdfrwt beam="1">  1        2 0.22137436E+00 0.70726336E+02</pdfrwt>
<pdfrwt beam="2">  1        2 0.10270411E+00 0.88345940E+02</pdfrwt>
<totfact> 0.11678858E+02</totfact>
</mgrwt>
</event>
<event>
13    1  0.2742815E-008  0.3253236E+03  0.7546771E-02  0.1316649E+00
          2   -1    0    0  503    0  0.00000000000E+00  0.00000000000E+00  0.24840300177E+04  0.24840300177E+04  0.00000000000E+00 0. -1.
          2   -1    0    0  502    0 -0.00000000000E+00 -0.00000000000E+00 -0.30714463172E+04  0.30714463172E+04  0.00000000000E+00 0. -1.
         25    2    1    2    0    0 -0.11071727050E+03  0.46082322303E+02 -0.98362520482E+03  0.99876185152E+03  0.12499919235E+03 0.  0.
         24    2    1    2    0    0 -0.19707110772E+02 -0.51993804688E+02  0.36338410101E+02  0.10604354061E+03  0.82662122622E+02 0.  0.
         24    2    1    2    0    0 -0.13047227694E+03  0.21624645832E+03  0.11095035569E+03  0.28680034143E+03  0.78478714506E+02 0.  0.
        -11    1    5    5    0    0 -0.23823906925E+02  0.27096539479E+02 -0.11045042358E+02  0.37733194320E+02  0.00000000000E+00 0.  1.
         12    1    5    5    0    0 -0.10664837001E+03  0.18914991884E+03  0.12199539805E+03  0.24906714711E+03  0.00000000000E+00 0. -1.
        -13    1    4    4    0    0  0.17301039597E+02 -0.32488274469E+02 -0.15062455175E+02  0.39770485351E+02  0.00000000000E+00 0.  1.
         14    1    4    4    0    0 -0.37008150368E+02 -0.19505530219E+02  0.51400865276E+02  0.66273055264E+02  0.00000000000E+00 0. -1.
          5    1    3    3  501    0 -0.64013980471E+02 -0.56520989957E+01 -0.16459170393E+03  0.17675478755E+03  0.47000000000E+01 0.  1.
         -5    1    3    3    0  501 -0.46703290026E+02  0.51734421298E+02 -0.81903350089E+03  0.82200706397E+03  0.47000000000E+01 0.  1.
          1    1    1    2  502    0  0.12586208973E+02  0.18003911291E+02 -0.19445188665E+04  0.19446429430E+04  0.00000000000E+00 0. -1.
          1    1    1    2  503    0  0.24831044923E+03 -0.22833888723E+03  0.21934390060E+04  0.22192276584E+04  0.00000000000E+00 0. -1.
<mgrwt>
<rscale>  0 0.84536472E+02</rscale>
<asrwt>0</asrwt>
<pdfrwt beam="1">  1        2 0.36529853E+00 0.32532356E+03</pdfrwt>
<pdfrwt beam="2">  1        2 0.45168328E+00 0.21967100E+02</pdfrwt>
<totfact> 0.24897220E+00</totfact>
</mgrwt>
</event>
<event>
13    1  0.5037758E-008  0.1998000E+02  0.7546771E-02  0.1777112E+00
          2   -1    0    0  502    0  0.00000000000E+00  0.00000000000E+00  0.24906628365E+04  0.24906628365E+04  0.00000000000E+00 0. -1.
          2   -1    0    0  503    0 -0.00000000000E+00 -0.00000000000E+00 -0.31923262500E+04  0.31923262500E+04  0.00000000000E+00 0. -1.
         25    2    1    2    0    0  0.15707790199E+03 -0.36122949049E+03 -0.44147724613E+03  0.60472199834E+03  0.12500529720E+03 0.  0.
         24    2    1    2    0    0  0.88538930028E+03  0.11581028210E+04  0.37258704690E+03  0.15068100815E+04  0.80865055225E+02 0.  0.
         24    2    1    2    0    0 -0.10418534153E+04 -0.80851296767E+03  0.74565933822E+03  0.15179137791E+04  0.94353771773E+02 0.  0.
        -11    1    5    5    0    0 -0.56505855126E+03 -0.47803560752E+03  0.45794952727E+03  0.87036025756E+03  0.00000000000E+00 0.  1.
         12    1    5    5    0    0 -0.47679486404E+03 -0.33047736015E+03  0.28770981095E+03  0.64755352155E+03  0.00000000000E+00 0. -1.
        -13    1    4    4    0    0  0.44450992121E+03  0.64540571472E+03  0.21111762183E+03  0.81160843816E+03  0.00000000000E+00 0.  1.
         14    1    4    4    0    0  0.44087937908E+03  0.51269710625E+03  0.16146942507E+03  0.69520164333E+03  0.00000000000E+00 0. -1.
          5    1    3    3  501    0  0.72984175581E+01 -0.39215046007E+02 -0.11679107446E+03  0.12350437970E+03  0.47000000000E+01 0.  1.
         -5    1    3    3    0  501  0.14977948443E+03 -0.32201444448E+03 -0.32468617168E+03  0.48121761864E+03  0.47000000000E+01 0.  1.
          1    1    1    2  502    0 -0.17590381686E+02  0.94810432175E+01  0.33721688779E+03  0.33780843850E+03  0.00000000000E+00 0. -1.
          1    1    1    2  503    0  0.16976594711E+02  0.21585939771E+01 -0.17156494403E+04  0.17157347890E+04  0.00000000000E+00 0. -1.
<mgrwt>
<rscale>  0 0.18491167E+02</rscale>
<asrwt>0</asrwt>
<pdfrwt beam="1">  1        2 0.36627395E+00 0.19979997E+02</pdfrwt>
<pdfrwt beam="2">  1        2 0.46945974E+00 0.17113278E+02</pdfrwt>
<totfact> 0.32835038E+00</totfact>
</mgrwt>
</event>
<event>
13    1  0.2742815E-008  0.1282766E+03  0.7546771E-02  0.1360554E+00
          2   -1    0    0  503    0  0.00000000000E+00  0.00000000000E+00  0.24225451829E+04  0.24225451829E+04  0.00000000000E+00 0. -1.
          2   -1    0    0  502    0 -0.00000000000E+00 -0.00000000000E+00 -0.16011078482E+04  0.16011078482E+04  0.00000000000E+00 0. -1.
         25    2    1    2    0    0  0.56583047807E+02  0.12673767606E+03 -0.92281827023E+03  0.94153181999E+03  0.12499811344E+03 0.  0.
         24    2    1    2    0    0  0.46800130846E+02 -0.18810415955E+03  0.25020131700E+03  0.32625195332E+03  0.79159402040E+02 0.  0.
         24    2    1    2    0    0  0.12209245895E+03 -0.61345399387E+02  0.20377192505E+03  0.25758966568E+03  0.78483194795E+02 0.  0.
        -11    1    4    4    0    0  0.58900417980E+02 -0.18826269269E+03  0.23477067705E+03  0.30664209022E+03  0.00000000000E+00 0.  1.
         12    1    4    4    0    0 -0.12100287134E+02  0.15853313375E+00  0.15430639949E+02  0.19609863097E+02  0.00000000000E+00 0. -1.
        -11    1    5    5    0    0  0.52525201422E+01 -0.21485259464E+01  0.70500201618E+02  0.70728237358E+02  0.00000000000E+00 0.  1.
         12    1    5    5    0    0  0.11683993881E+03 -0.59196873441E+02  0.13327172344E+03  0.18686142832E+03  0.00000000000E+00 0. -1.
          5    1    3    3  501    0 -0.38307880480E+02  0.57170603745E+02 -0.35172152293E+03  0.35842166694E+03  0.47000000000E+01 0. -1.
         -5    1    3    3    0  501  0.94890928288E+02  0.69567072316E+02 -0.57109674729E+03  0.58311015305E+03  0.47000000000E+01 0. -1.
          1    1    1    2  502    0 -0.37551845336E+02  0.61431993128E+01 -0.59693667312E+03  0.59814820212E+03  0.00000000000E+00 0. -1.
          1    1    1    2  503    0 -0.18792379227E+03  0.11656868356E+03  0.18872190359E+04  0.19001313900E+04  0.00000000000E+00 0. -1.
<mgrwt>
<rscale>  0 0.69864539E+02</rscale>
<asrwt>0</asrwt>
<pdfrwt beam="1">  1        2 0.35625665E+00 0.12827656E+03</pdfrwt>
<pdfrwt beam="2">  1        2 0.23545703E+00 0.38051018E+02</pdfrwt>
<totfact> 0.13397054E+01</totfact>
</mgrwt>
</event>
<event>
13    1  0.2742815E-008  0.1224476E+03  0.7546771E-02  0.1248488E+00
          2   -1    0    0  502    0  0.00000000000E+00  0.00000000000E+00  0.11104315241E+04  0.11104315241E+04  0.00000000000E+00 0. -1.
          2   -1    0    0  503    0 -0.00000000000E+00 -0.00000000000E+00 -0.16772493944E+04  0.16772493944E+04  0.00000000000E+00 0. -1.
         25    2    1    2    0    0  0.13628208396E+03 -0.10184943924E+03 -0.60822230731E+03  0.64382191154E+03  0.12500465585E+03 0.  0.
         24    2    1    2    0    0  0.43038927558E+02  0.34384472190E+02  0.93424272354E+02  0.13564862968E+03  0.81472785989E+02 0.  0.
         24    2    1    2    0    0  0.82390789463E+02 -0.27404270970E+01  0.15092903930E+03  0.19122835514E+03  0.83623900768E+02 0.  0.
        -13    1    5    5    0    0  0.36432327221E+02  0.26794107534E+02  0.12047377485E+03  0.12868243505E+03  0.00000000000E+00 0.  1.
         14    1    5    5    0    0  0.45958462242E+02 -0.29534534631E+02  0.30455264449E+02  0.62545920092E+02  0.00000000000E+00 0. -1.
        -13    1    4    4    0    0  0.28487264102E+02  0.40561803588E+02  0.10496251390E+03  0.11607718747E+03  0.00000000000E+00 0.  1.
         14    1    4    4    0    0  0.14551663456E+02 -0.61773313974E+01 -0.11538241544E+02  0.19571442217E+02  0.00000000000E+00 0. -1.
          5    1    3    3  501    0  0.54201791884E+02  0.21849111060E+02 -0.12086382911E+03  0.13433306772E+03  0.47000000000E+01 0. -1.
         -5    1    3    3    0  501  0.82080292078E+02 -0.12369855030E+03 -0.48735847821E+03  0.50948884382E+03  0.47000000000E+01 0. -1.
          1    1    1    2  502    0 -0.14838228724E+03  0.23574787245E+02  0.79624773959E+03  0.81029842438E+03  0.00000000000E+00 0. -1.
          1    1    1    2  503    0 -0.11332951374E+03  0.46630606903E+02 -0.99919661424E+03  0.10066835978E+04  0.00000000000E+00 0. -1.
<mgrwt>
<rscale>  0 0.11679039E+03</rscale>
<asrwt>0</asrwt>
<pdfrwt beam="1">  1        2 0.16329876E+00 0.11139452E+03</pdfrwt>
<pdfrwt beam="2">  1        2 0.24665432E+00 0.12244762E+03</pdfrwt>
<totfact> 0.50803326E+01</totfact>
</mgrwt>
</event>
<event>
13    1  0.2742815E-008  0.5508960E+02  0.7546771E-02  0.1613076E+00
          2   -1    0    0  503    0  0.00000000000E+00  0.00000000000E+00  0.13022632248E+04  0.13022632248E+04  0.00000000000E+00 0. -1.
          2   -1    0    0  502    0 -0.00000000000E+00 -0.00000000000E+00 -0.94979045496E+03  0.94979045496E+03  0.00000000000E+00 0. -1.
         25    2    1    2    0    0 -0.78705424384E+02  0.11208747019E+03 -0.46274062714E+03  0.49850976647E+03  0.12499981780E+03 0.  0.
         24    2    1    2    0    0  0.80796101986E+02  0.36952919500E+02 -0.72079190349E+02  0.14007471867E+03  0.80820719946E+02 0.  0.
         24    2    1    2    0    0 -0.31040507909E+02 -0.19609230917E+03  0.54590543321E+03  0.58636960418E+03  0.80005398884E+02 0.  0.
        -11    1    5    5    0    0 -0.11581670873E+02 -0.81230384253E+02  0.12410610559E+03  0.14877780705E+03  0.00000000000E+00 0.  1.
         12    1    5    5    0    0 -0.19458837036E+02 -0.11486192492E+03  0.42179932762E+03  0.43759179713E+03  0.00000000000E+00 0. -1.
        -11    1    4    4    0    0  0.70804970522E+02  0.42979359187E+02 -0.18013996707E+02  0.84764811356E+02  0.00000000000E+00 0.  1.
         12    1    4    4    0    0  0.99911314636E+01 -0.60264396867E+01 -0.54065193643E+02  0.55309907312E+02  0.00000000000E+00 0. -1.
          5    1    3    3  501    0 -0.56361393884E+02  0.13110553009E+03 -0.43508748593E+03  0.45791754406E+03  0.47000000000E+01 0. -1.
         -5    1    3    3    0  501 -0.22344030500E+02 -0.19018059897E+02 -0.27653141214E+02  0.40592222411E+02  0.47000000000E+01 0. -1.
          1    1    1    2  502    0  0.15225823579E+02  0.52950675736E+02 -0.34056043183E+03  0.34498841646E+03  0.00000000000E+00 0. -1.
          1    1    1    2  503    0  0.13724006727E+02 -0.58987562579E+01  0.68194758598E+03  0.68211117401E+03  0.00000000000E+00 0. -1.
<mgrwt>
<rscale>  0 0.28686726E+02</rscale>
<asrwt>0</asrwt>
<pdfrwt beam="1">  1        2 0.19150930E+00 0.14937995E+02</pdfrwt>
<pdfrwt beam="2">  1        2 0.13967507E+00 0.55089605E+02</pdfrwt>
<totfact> 0.11615484E+02</totfact>
</mgrwt>
</event>
<event>
13    1  0.2742815E-008  0.7822206E+02  0.7546771E-02  0.1501835E+00
          2   -1    0    0  503    0  0.00000000000E+00  0.00000000000E+00  0.13701874436E+04  0.13701874436E+04  0.00000000000E+00 0. -1.
          2   -1    0    0  502    0 -0.00000000000E+00 -0.00000000000E+00 -0.76448889690E+03  0.76448889690E+03  0.00000000000E+00 0. -1.
         25    2    1    2    0    0 -0.40772140086E+02  0.27480836208E+02 -0.45961430969E+03  0.47883973255E+03  0.12499844812E+03 0.  0.
         24    2    1    2    0    0  0.93961979275E+02  0.23189011921E+02 -0.44118967296E+02  0.13325587648E+03  0.80274912134E+02 0.  0.
         24    2    1    2    0    0  0.16975900752E+02  0.28831202744E+02  0.15593109593E+03  0.17855097087E+03  0.80290242652E+02 0.  0.
        -11    1    5    5    0    0  0.46464996123E+02  0.14299487295E+02  0.12188707692E+03  0.13122473365E+03  0.00000000000E+00 0.  1.
         12    1    5    5    0    0 -0.29489095371E+02  0.14531715448E+02  0.34044019011E+02  0.47326237227E+02  0.00000000000E+00 0. -1.
        -13    1    4    4    0    0  0.28583524558E+02 -0.28396362376E+01  0.22397823202E+02  0.36424495801E+02  0.00000000000E+00 0.  1.
         14    1    4    4    0    0  0.65378454717E+02  0.26028648159E+02 -0.66516790498E+02  0.96831380680E+02  0.00000000000E+00 0. -1.
          5    1    3    3  501    0  0.18691525998E+01 -0.44008172218E+02 -0.23744808210E+03  0.24154480878E+03  0.47000000000E+01 0.  1.
         -5    1    3    3    0  501 -0.42641292686E+02  0.71489008426E+02 -0.22216622758E+03  0.23729492377E+03  0.47000000000E+01 0.  1.
          1    1    1    2  502    0 -0.19284872430E+02  0.91938771942E+01 -0.19239666121E+03  0.19357920582E+03  0.00000000000E+00 0. -1.
          1    1    1    2  503    0 -0.50880867511E+02 -0.88694928066E+02  0.11458973890E+04  0.11504505548E+04  0.00000000000E+00 0. -1.
<mgrwt>
<rscale>  0 0.40879826E+02</rscale>
<asrwt>0</asrwt>
<pdfrwt beam="1">  1        2 0.20149815E+00 0.78222058E+02</pdfrwt>
<pdfrwt beam="2">  1        2 0.11242484E+00 0.21364309E+02</pdfrwt>
<totfact> 0.12730096E+02</totfact>
</mgrwt>
</event>
<event>
13    1  0.2742815E-008  0.4351630E+02  0.7546771E-02  0.1527602E+00
          2   -1    0    0  503    0  0.00000000000E+00  0.00000000000E+00  0.83584450454E+03  0.83584450454E+03  0.00000000000E+00 0. -1.
          2   -1    0    0  502    0 -0.00000000000E+00 -0.00000000000E+00 -0.21967163664E+04  0.21967163664E+04  0.00000000000E+00 0. -1.
         25    2    1    2    0    0  0.23319952112E+02  0.71856654654E+02 -0.32678146393E+03  0.35793651836E+03  0.12500090809E+03 0.  0.
         24    2    1    2    0    0  0.90436318002E+02 -0.12333080298E+03 -0.36374281456E+03  0.40032246976E+03  0.67527994728E+02 0.  0.
         24    2    1    2    0    0 -0.10174980984E+03  0.61151401313E+02  0.38701890274E+03  0.41267157985E+03  0.80135410689E+02 0.  0.
        -11    1    5    5    0    0 -0.21189626926E+02  0.19973398631E+02  0.22688892426E+03  0.22874990906E+03  0.00000000000E+00 0.  1.
         12    1    5    5    0    0 -0.80560182915E+02  0.41178002682E+02  0.16012997848E+03  0.18392167079E+03  0.00000000000E+00 0. -1.
        -11    1    4    4    0    0  0.94296700996E+02 -0.83795437316E+02 -0.29654711733E+03  0.32226345733E+03  0.00000000000E+00 0.  1.
         12    1    4    4    0    0 -0.38603829939E+01 -0.39535365665E+02 -0.67195697235E+02  0.78059012433E+02  0.00000000000E+00 0. -1.
          5    1    3    3  501    0 -0.13067177501E+02  0.85904459117E+02 -0.29450262619E+03  0.30708991201E+03  0.47000000000E+01 0. -1.
         -5    1    3    3    0  501  0.36387129614E+02 -0.14047804462E+02 -0.32278837735E+02  0.50846606350E+02  0.47000000000E+01 0. -1.
          1    1    1    2  502    0 -0.43470805114E+02 -0.24450124152E+01 -0.14585250201E+04  0.14591747405E+04  0.00000000000E+00 0. -1.
          1    1    1    2  503    0  0.31464344841E+02 -0.72322405720E+01  0.40115853404E+03  0.40245556244E+03  0.00000000000E+00 0. -1.
<mgrwt>
<rscale>  0 0.37482215E+02</rscale>
<asrwt>0</asrwt>
<pdfrwt beam="1">  1        2 0.12291831E+00 0.32284831E+02</pdfrwt>
<pdfrwt beam="2">  1        2 0.32304652E+00 0.43516302E+02</pdfrwt>
<totfact> 0.48785441E+01</totfact>
</mgrwt>
</event>
<event>
13    1  0.2742815E-008  0.6505353E+02  0.7546771E-02  0.1479904E+00
         -3   -1    0    0    0  501 -0.00000000000E+00  0.00000000000E+00  0.13797165183E+04  0.13797165183E+04  0.00000000000E+00 0.  1.
          2   -1    0    0  503    0  0.00000000000E+00 -0.00000000000E+00 -0.10620572084E+04  0.10620572084E+04  0.00000000000E+00 0. -1.
         25    2    1    2    0    0 -0.58644811434E+01  0.14042341277E+03  0.27924811162E+03  0.33668461381E+03  0.12499557727E+03 0.  0.
         24    2    1    2    0    0  0.19430888771E+03  0.10969696037E+03  0.16052982411E+02  0.23762357008E+03  0.80111771023E+02 0.  0.
         24    2    1    2    0    0 -0.12691886617E+03 -0.23924352295E+03 -0.63598861181E+03  0.69598041934E+03  0.81002270874E+02 0.  0.
        -13    1    5    5    0    0 -0.10711875883E+03 -0.17010065469E+03 -0.37766155654E+03  0.42782813431E+03  0.00000000000E+00 0.  1.
         14    1    5    5    0    0 -0.19800107347E+02 -0.69142868263E+02 -0.25832705526E+03  0.26815228503E+03  0.00000000000E+00 0. -1.
        -13    1    4    4    0    0  0.94184928434E+02  0.17979867864E+02 -0.18176279412E+02  0.97593306768E+02  0.00000000000E+00 0.  1.
         14    1    4    4    0    0  0.10012395928E+03  0.91717092507E+02  0.34229261822E+02  0.14003026332E+03  0.00000000000E+00 0. -1.
          5    1    3    3  502    0  0.34853241030E+02  0.65648873562E+02  0.22153435605E+03  0.23371795806E+03  0.47000000000E+01 0. -1.
         -5    1    3    3    0  502 -0.40717722173E+02  0.74774539210E+02  0.57713755570E+02  0.10296665574E+03  0.47000000000E+01 0. -1.
          1    1    1    2  503    0 -0.96053065704E+01  0.28340594064E+02 -0.25453469859E+03  0.25628765864E+03  0.00000000000E+00 0. -1.
         -4    1    1    2    0  501 -0.51920233823E+02 -0.39217444252E+02  0.91288152624E+03  0.91519746479E+03  0.00000000000E+00 0.  1.
<mgrwt>
<rscale>  0 0.44121056E+02</rscale>
<asrwt>0</asrwt>
<pdfrwt beam="2">  1        2 0.15618488E+00 0.29924090E+02</pdfrwt>
<pdfrwt beam="1">  1       -3 0.20289949E+00 0.65053526E+02</pdfrwt>
<totfact> 0.28578370E+00</totfact>
</mgrwt>
</event>
<event>
13    1  0.2742815E-008  0.1537742E+03  0.7546771E-02  0.1352328E+00
          2   -1    0    0  502    0  0.00000000000E+00  0.00000000000E+00  0.41015772817E+04  0.41015772817E+04  0.00000000000E+00 0. -1.
          2   -1    0    0  503    0 -0.00000000000E+00 -0.00000000000E+00 -0.10933157240E+04  0.10933157240E+04  0.00000000000E+00 0. -1.
         25    2    1    2    0    0  0.94713136456E+02  0.10109977057E+03 -0.40658650820E+03  0.44735625494E+03  0.12499315323E+03 0.  0.
         24    2    1    2    0    0 -0.12582497292E+03  0.69469048476E+02  0.31429257857E+01  0.16696248770E+03  0.84904191955E+02 0.  0.
         24    2    1    2    0    0 -0.95322385312E+02 -0.78096070319E+01  0.21047576826E+03  0.24454877029E+03  0.79728946571E+02 0.  0.
        -13    1    4    4    0    0 -0.97051616241E+02  0.32306042440E+02  0.37284620182E+02  0.10887074674E+03  0.00000000000E+00 0.  1.
         14    1    4    4    0    0 -0.28773356674E+02  0.37163006036E+02 -0.34141694396E+02  0.58091740963E+02  0.00000000000E+00 0. -1.
        -13    1    5    5    0    0  0.81678030824E+00  0.21981519657E+02  0.56124537349E+02  0.60281158161E+02  0.00000000000E+00 0.  1.
         14    1    5    5    0    0 -0.96139165621E+02 -0.29791126689E+02  0.15435123091E+03  0.18426761213E+03  0.00000000000E+00 0. -1.
          5    1    3    3  501    0  0.27579582570E+02  0.20670211921E+01 -0.24309780174E+03  0.24471113003E+03  0.47000000000E+01 0. -1.
         -5    1    3    3    0  501  0.67133553886E+02  0.99032749380E+02 -0.16348870646E+03  0.20264512490E+03  0.47000000000E+01 0. -1.
          1    1    1    2  502    0  0.15796239836E+03 -0.17555583577E+03  0.37644136994E+04  0.37718142148E+04  0.00000000000E+00 0. -1.
          1    1    1    2  503    0 -0.31528176593E+02  0.12796623756E+02 -0.56318432745E+03  0.56421127797E+03  0.00000000000E+00 0. -1.
<mgrwt>
<rscale>  0 0.72334957E+02</rscale>
<asrwt>0</asrwt>
<pdfrwt beam="1">  1        2 0.60317313E+00 0.15377422E+03</pdfrwt>
<pdfrwt beam="2">  1        2 0.16078172E+00 0.34026159E+02</pdfrwt>
<totfact> 0.24804830E+00</totfact>
</mgrwt>
</event>
<event>
13    1  0.2742815E-008  0.1277481E+03  0.7546771E-02  0.1379188E+00
          2   -1    0    0  503    0  0.00000000000E+00  0.00000000000E+00  0.27944695754E+04  0.27944695754E+04  0.00000000000E+00 0. -1.
          2   -1    0    0  502    0 -0.00000000000E+00 -0.00000000000E+00 -0.17989654339E+03  0.17989654339E+03  0.00000000000E+00 0. -1.
         25    2    1    2    0    0  0.13555927467E+03 -0.34538593307E+02  0.34736513508E+02  0.19078240693E+03  0.12498827964E+03 0.  0.
         24    2    1    2    0    0 -0.87077895276E+02 -0.10274136674E+03  0.48488147557E+03  0.50971465353E+03  0.80997743051E+02 0.  0.
         24    2    1    2    0    0 -0.55068917243E+02 -0.17702650321E+02  0.31814955834E+03  0.33313264944E+03  0.80076533241E+02 0.  0.
        -13    1    4    4    0    0  0.13412126623E+02 -0.99972130037E+01  0.26217682298E+02  0.31099779316E+02  0.00000000000E+00 0.  1.
         14    1    4    4    0    0 -0.10049002190E+03 -0.92744153741E+02  0.45866379328E+03  0.47861487421E+03  0.00000000000E+00 0. -1.
        -13    1    5    5    0    0 -0.19260301030E+02 -0.47851399197E+02  0.18152195113E+03  0.18870859637E+03  0.00000000000E+00 0.  1.
         14    1    5    5    0    0 -0.35808616213E+02  0.30148748876E+02  0.13662760721E+03  0.14442405307E+03  0.00000000000E+00 0. -1.
          5    1    3    3  501    0  0.58298391906E+02 -0.21484594743E+02  0.79039810125E+02  0.10064627114E+03  0.47000000000E+01 0.  1.
         -5    1    3    3    0  501  0.77260882762E+02 -0.13053998564E+02 -0.44303296616E+02  0.90136135788E+02  0.47000000000E+01 0.  1.
          1    1    1    2  502    0  0.18437442516E+02 -0.27061739207E+02 -0.74021154943E+02  0.80940770904E+02  0.00000000000E+00 0. -1.
          1    1    1    2  503    0 -0.11849904664E+02  0.18204434958E+03  0.18508266395E+04  0.18597956380E+04  0.00000000000E+00 0. -1.
<mgrwt>
<rscale>  0 0.64677599E+02</rscale>
<asrwt>0</asrwt>
<pdfrwt beam="1">  1        2 0.41095138E+00 0.12774805E+03</pdfrwt>
<pdfrwt beam="2">  1        2 0.26455376E-01 0.32745641E+02</pdfrwt>
<totfact> 0.10521308E+02</totfact>
</mgrwt>
</event>
<event>
13    1  0.2742815E-008  0.6388272E+02  0.7546771E-02  0.1472617E+00
          2   -1    0    0  503    0  0.00000000000E+00  0.00000000000E+00  0.72629055985E+03  0.72629055985E+03  0.00000000000E+00 0. -1.
          2   -1    0    0  502    0 -0.00000000000E+00 -0.00000000000E+00 -0.78887651798E+03  0.78887651798E+03  0.00000000000E+00 0. -1.
         25    2    1    2    0    0  0.15461507976E+02 -0.88807327974E+01  0.22019291640E+02  0.12818396271E+03  0.12501341307E+03 0.  0.
         24    2    1    2    0    0  0.48197106084E+01  0.59852459065E+02  0.73593220999E+02  0.12394907265E+03  0.79635820886E+02 0.  0.
         24    2    1    2    0    0  0.22438660902E+02 -0.85033916140E+02  0.54309173451E+02  0.13042740412E+03  0.79545968008E+02 0.  0.
        -11    1    5    5    0    0  0.28691310706E+02 -0.98368965063E+02  0.40322183203E+02  0.11011595278E+03  0.00000000000E+00 0.  1.
         12    1    5    5    0    0 -0.62526498035E+01  0.13335048923E+02  0.13986990248E+02  0.20311451340E+02  0.00000000000E+00 0. -1.
        -13    1    4    4    0    0  0.35418764816E+02  0.53004455507E+02  0.30538237672E+02  0.70686244523E+02  0.00000000000E+00 0.  1.
         14    1    4    4    0    0 -0.30599054208E+02  0.68480035580E+01  0.43054983327E+02  0.53262828130E+02  0.00000000000E+00 0. -1.
          5    1    3    3  501    0 -0.21781838230E+02 -0.56257217373E+02  0.29427585350E+02  0.67285925443E+02  0.47000000000E+01 0. -1.
         -5    1    3    3    0  501  0.37243346205E+02  0.47376484575E+02 -0.74082937103E+01  0.60898037267E+02  0.47000000000E+01 0. -1.
          1    1    1    2  502    0  0.20759354736E+02  0.24471782230E+02 -0.66993143683E+03  0.67069959668E+03  0.00000000000E+00 0. -1.
          1    1    1    2  503    0 -0.63479234222E+02  0.95904076420E+01  0.45742379261E+03  0.46190704167E+03  0.00000000000E+00 0. -1.
<mgrwt>
<rscale>  0 0.45277444E+02</rscale>
<asrwt>0</asrwt>
<pdfrwt beam="1">  1        2 0.10680744E+00 0.63882715E+02</pdfrwt>
<pdfrwt beam="2">  1        2 0.11601125E+00 0.32090792E+02</pdfrwt>
<totfact> 0.28348711E+02</totfact>
</mgrwt>
</event>
<event>
13    1  0.2742815E-008  0.8625905E+02  0.7546771E-02  0.1386414E+00
         -1   -1    0    0    0  501 -0.00000000000E+00  0.00000000000E+00  0.20286262382E+04  0.20286262382E+04  0.00000000000E+00 0.  1.
          2   -1    0    0  503    0  0.00000000000E+00 -0.00000000000E+00 -0.26922843669E+04  0.26922843669E+04  0.00000000000E+00 0. -1.
         25    2    1    2    0    0 -0.42719883970E+03 -0.20946822217E+02  0.44241862200E+03  0.62793090780E+03  0.12500147952E+03 0.  0.
         24    2    1    2    0    0  0.12018047440E+04 -0.23764030748E+03 -0.18256171710E+03  0.12420294204E+04  0.92199468882E+02 0.  0.
         24    2    1    2    0    0 -0.73219468733E+03  0.26690366905E+03 -0.45122834948E+02  0.78480364729E+03  0.80833568934E+02 0.  0.
        -13    1    4    4    0    0  0.75050539493E+03 -0.16578215806E+03 -0.72723148504E+02  0.77203026371E+03  0.00000000000E+00 0.  1.
         14    1    4    4    0    0  0.45129934906E+03 -0.71858149423E+02 -0.10983856859E+03  0.46999915665E+03  0.00000000000E+00 0. -1.
        -13    1    5    5    0    0 -0.22317551235E+03  0.10139049049E+03  0.18286845172E+02  0.24580835946E+03  0.00000000000E+00 0.  1.
         14    1    5    5    0    0 -0.50901917498E+03  0.16551317857E+03 -0.63409680120E+02  0.53899528784E+03  0.00000000000E+00 0. -1.
          5    1    3    3  502    0 -0.10314153370E+03  0.42258918180E+02  0.77748890900E+02  0.13598151409E+03  0.47000000000E+01 0. -1.
         -5    1    3    3    0  502 -0.32405730600E+03 -0.63205740397E+02  0.36466973110E+03  0.49194939371E+03  0.47000000000E+01 0. -1.
          1    1    1    2  503    0 -0.77870736766E+02 -0.37195821671E+02 -0.14701217702E+04  0.14726525048E+04  0.00000000000E+00 0. -1.
         -2    1    1    2    0  501  0.35459519800E+02  0.28879282315E+02  0.59172957148E+03  0.59349412487E+03  0.00000000000E+00 0.  1.
<mgrwt>
<rscale>  0 0.62807442E+02</rscale>
<asrwt>0</asrwt>
<pdfrwt beam="2">  1        2 0.39592417E+00 0.86259046E+02</pdfrwt>
<pdfrwt beam="1">  1       -1 0.29832739E+00 0.45731723E+02</pdfrwt>
<totfact> 0.24404478E-01</totfact>
</mgrwt>
</event>
<event>
13    1  0.2742815E-008  0.1112205E+03  0.7546771E-02  0.1489673E+00
          2   -1    0    0  502    0  0.00000000000E+00  0.00000000000E+00  0.23158049126E+04  0.23158049126E+04  0.00000000000E+00 0. -1.
          2   -1    0    0  503    0 -0.00000000000E+00 -0.00000000000E+00 -0.22165913781E+04  0.22165913781E+04  0.00000000000E+00 0. -1.
         25    2    1    2    0    0 -0.16694656818E+03  0.39135235695E+02 -0.13738304442E+03  0.25278523714E+03  0.12499420756E+03 0.  0.
         24    2    1    2    0    0 -0.54980439762E+02  0.67279404143E+03  0.14277414269E+03  0.69463233327E+03  0.80342713796E+02 0.  0.
         24    2    1    2    0    0  0.23814110661E+03 -0.82001806469E+03  0.20800811269E+03  0.88550150896E+03  0.10818842055E+03 0.  0.
        -13    1    4    4    0    0  0.14969108427E+02  0.20649604883E+03  0.24287337196E+02  0.20845759075E+03  0.00000000000E+00 0.  1.
         14    1    4    4    0    0 -0.69949548189E+02  0.46629799259E+03  0.11848680549E+03  0.48617474252E+03  0.00000000000E+00 0. -1.
        -13    1    5    5    0    0  0.21099781995E+03 -0.69835088578E+03  0.13779420034E+03  0.74242931067E+03  0.00000000000E+00 0.  1.
         14    1    5    5    0    0  0.27143286662E+02 -0.12166717891E+03  0.70213912353E+02  0.14307219829E+03  0.00000000000E+00 0. -1.
          5    1    3    3  501    0  0.77115280499E+01  0.35664821370E+02 -0.31663189712E+02  0.48539620219E+02  0.47000000000E+01 0.  1.
         -5    1    3    3    0  501 -0.17465809623E+03  0.34704143250E+01 -0.10571985471E+03  0.20424561692E+03  0.47000000000E+01 0.  1.
          1    1    1    2  502    0 -0.17549639268E+00  0.11122957593E+03  0.12902053571E+04  0.12949910860E+04  0.00000000000E+00 0. -1.
          1    1    1    2  503    0 -0.16038602280E+02 -0.31407883692E+01 -0.14043910335E+04  0.14044861254E+04  0.00000000000E+00 0. -1.
<mgrwt>
<rscale>  0 0.42634534E+02</rscale>
<asrwt>0</asrwt>
<pdfrwt beam="1">  1        2 0.34055955E+00 0.11122055E+03</pdfrwt>
<pdfrwt beam="2">  1        2 0.32596932E+00 0.16343235E+02</pdfrwt>
<totfact> 0.90216580E+00</totfact>
</mgrwt>
</event>
<event>
13    1  0.2742815E-008  0.2297301E+03  0.7546771E-02  0.1236378E+00
          2   -1    0    0  503    0  0.00000000000E+00  0.00000000000E+00  0.93192751992E+03  0.93192751992E+03  0.00000000000E+00 0. -1.
          2   -1    0    0  502    0 -0.00000000000E+00 -0.00000000000E+00 -0.21906183444E+04  0.21906183444E+04  0.00000000000E+00 0. -1.
         25    2    1    2    0    0 -0.53751105232E+01  0.46319813169E+02 -0.13351925150E+04  0.13418420091E+04  0.12500603340E+03 0.  0.
         24    2    1    2    0    0  0.79446742351E+02 -0.82927837408E+02 -0.12778864403E+02  0.14516324017E+03  0.87864986390E+02 0.  0.
         24    2    1    2    0    0  0.11006626345E+03 -0.12860441485E+03 -0.86003685266E+02  0.20620230564E+03  0.80430585623E+02 0.  0.
        -13    1    5    5    0    0  0.88135754808E+02 -0.11481017878E+03 -0.34870216252E+02  0.14887988584E+03  0.00000000000E+00 0.  1.
         14    1    5    5    0    0  0.21930508644E+02 -0.13794236067E+02 -0.51133469014E+02  0.57322419797E+02  0.00000000000E+00 0. -1.
        -13    1    4    4    0    0  0.32248207796E+01  0.80349053306E+01 -0.24427929029E+02  0.25916845668E+02  0.00000000000E+00 0.  1.
         14    1    4    4    0    0  0.76221921571E+02 -0.90962742738E+02  0.11649064626E+02  0.11924639450E+03  0.00000000000E+00 0. -1.
          5    1    3    3  501    0 -0.44746071431E+02  0.65276711834E+02 -0.58288854228E+03  0.58825538905E+03  0.47000000000E+01 0. -1.
         -5    1    3    3    0  501  0.39370960908E+02 -0.18956898665E+02 -0.75230397268E+03  0.75358662002E+03  0.47000000000E+01 0. -1.
          1    1    1    2  502    0 -0.57175641573E+02 -0.35139445332E+02 -0.60760839852E+03  0.61130336214E+03  0.00000000000E+00 0. -1.
          1    1    1    2  503    0 -0.12696225371E+03  0.20035188442E+03  0.78289263863E+03  0.81803494734E+03  0.00000000000E+00 0. -1.
<mgrwt>
<rscale>  0 0.12416655E+03</rscale>
<asrwt>0</asrwt>
<pdfrwt beam="1">  1        2 0.13704816E+00 0.22973014E+03</pdfrwt>
<pdfrwt beam="2">  1        2 0.32214976E+00 0.67110615E+02</pdfrwt>
<totfact> 0.37574140E+01</totfact>
</mgrwt>
</event>
<event>
13    1  0.2742815E-008  0.1186391E+03  0.7546771E-02  0.1421804E+00
         -3   -1    0    0    0  501 -0.00000000000E+00  0.00000000000E+00  0.97571183840E+03  0.97571183840E+03  0.00000000000E+00 0.  1.
          2   -1    0    0  503    0  0.00000000000E+00 -0.00000000000E+00 -0.31047070648E+04  0.31047070648E+04  0.00000000000E+00 0. -1.
         25    2    1    2    0    0 -0.14966949660E+03 -0.14625480817E+02  0.11535991371E+02  0.19589097248E+03  0.12500132441E+03 0.  0.
         24    2    1    2    0    0 -0.48899319981E+02  0.11927352783E+02 -0.14533814929E+04  0.14566156991E+04  0.82934466204E+02 0.  0.
         24    2    1    2    0    0  0.87139181455E+02  0.33618619147E+01 -0.11844984976E+04  0.11904715871E+04  0.81125641904E+02 0.  0.
        -11    1    4    4    0    0 -0.26712464295E+02  0.36793111528E+02 -0.12221156968E+04  0.12229611871E+04  0.00000000000E+00 0.  1.
         12    1    4    4    0    0 -0.22186855685E+02 -0.24865758746E+02 -0.23126579612E+03  0.23365451200E+03  0.00000000000E+00 0. -1.
        -13    1    5    5    0    0 -0.12230305243E+02  0.12952555114E+02 -0.12206141803E+03  0.12335452493E+03  0.00000000000E+00 0.  1.
         14    1    5    5    0    0  0.99369486698E+02 -0.95906931988E+01 -0.10624370796E+04  0.10671170621E+04  0.00000000000E+00 0. -1.
          5    1    3    3  502    0 -0.10864164864E+03  0.25528140712E+02  0.54255175647E+02  0.12417893490E+03  0.47000000000E+01 0.  1.
         -5    1    3    3    0  502 -0.41027847957E+02 -0.40153621529E+02 -0.42719184276E+02  0.71712037589E+02  0.47000000000E+01 0.  1.
          1    1    1    2  503    0 -0.33211651639E+01  0.24945751134E+02 -0.36562719503E+03  0.36649224601E+03  0.00000000000E+00 0. -1.
         -4    1    1    2    0  501  0.11475080029E+03 -0.25609485014E+02  0.86297596779E+03  0.87094839851E+03  0.00000000000E+00 0.  1.
<mgrwt>
<rscale>  0 0.54641153E+02</rscale>
<asrwt>0</asrwt>
<pdfrwt beam="2">  1        2 0.45657456E+00 0.25165863E+02</pdfrwt>
<pdfrwt beam="1">  1       -3 0.14348704E+00 0.11863911E+03</pdfrwt>
<totfact> 0.77040112E-01</totfact>
</mgrwt>
</event>
<event>
13    1  0.2742815E-008  0.7735450E+02  0.7546771E-02  0.1492045E+00
          2   -1    0    0  503    0  0.00000000000E+00  0.00000000000E+00  0.25163707442E+04  0.25163707442E+04  0.00000000000E+00 0. -1.
          2   -1    0    0  502    0 -0.00000000000E+00 -0.00000000000E+00 -0.14043878222E+04  0.14043878222E+04  0.00000000000E+00 0. -1.
         25    2    1    2    0    0 -0.19054204270E+03 -0.48544532767E+03 -0.21411947841E+03  0.57743539317E+03  0.12498418324E+03 0.  0.
         24    2    1    2    0    0  0.34895235964E+03  0.45782775598E+03  0.16629381910E+04  0.17615710914E+04  0.79970493091E+02 0.  0.
         24    2    1    2    0    0 -0.18752520054E+03 -0.56333474378E+02  0.40235743481E+03  0.45473277694E+03  0.80939680642E+02 0.  0.
        -11    1    4    4    0    0  0.12738909035E+02  0.38984761931E+02  0.78376992302E+02  0.88459280963E+02  0.00000000000E+00 0.  1.
         12    1    4    4    0    0  0.33621345061E+03  0.41884299405E+03  0.15845611987E+04  0.16731118105E+04  0.00000000000E+00 0. -1.
        -13    1    5    5    0    0 -0.21076444346E+02 -0.29437453467E+02  0.12509197786E+03  0.13022589258E+03  0.00000000000E+00 0.  1.
         14    1    5    5    0    0 -0.16644875620E+03 -0.26896020910E+02  0.27726545695E+03  0.32450688436E+03  0.00000000000E+00 0. -1.
          5    1    3    3  501    0 -0.90874652717E+02 -0.12091475136E+03 -0.10455172045E+03  0.18393404212E+03  0.47000000000E+01 0. -1.
         -5    1    3    3    0  501 -0.99667389979E+02 -0.36453057631E+03 -0.10956775796E+03  0.39350135105E+03  0.47000000000E+01 0. -1.
          1    1    1    2  502    0  0.42143396905E+02  0.64859080836E+02 -0.93080764010E+03  0.93401586128E+03  0.00000000000E+00 0. -1.
          1    1    1    2  503    0 -0.13028513305E+02  0.19091965227E+02  0.19161441475E+03  0.19300344359E+03  0.00000000000E+00 0. -1.
<mgrwt>
<rscale>  0 0.42284184E+02</rscale>
<asrwt>0</asrwt>
<pdfrwt beam="1">  1        2 0.37005452E+00 0.23113747E+02</pdfrwt>
<pdfrwt beam="2">  1        2 0.20652762E+00 0.77354495E+02</pdfrwt>
<totfact> 0.17960855E+01</totfact>
</mgrwt>
</event>
<event>
13    1  0.2742815E-008  0.5110821E+02  0.7546771E-02  0.1496922E+00
         -1   -1    0    0    0  501 -0.00000000000E+00  0.00000000000E+00  0.10361043068E+03  0.10361043068E+03  0.00000000000E+00 0.  1.
          2   -1    0    0  503    0  0.00000000000E+00 -0.00000000000E+00 -0.90114895676E+03  0.90114895676E+03  0.00000000000E+00 0. -1.
         25    2    1    2    0    0 -0.11874657762E+03  0.13926532733E+02 -0.88068364740E+02  0.19410541097E+03  0.12500470267E+03 0.  0.
         24    2    1    2    0    0  0.69863058573E+02 -0.39296877891E+02 -0.25127361402E+03  0.27192155234E+03  0.66165020686E+02 0.  0.
         24    2    1    2    0    0 -0.31758478255E+01  0.24241673172E+02 -0.20485061660E+03  0.22179251319E+03  0.81427262381E+02 0.  0.
        -11    1    4    4    0    0  0.33525046786E+02 -0.51861853397E+02 -0.18799045654E+03  0.19787367776E+03  0.00000000000E+00 0.  1.
         12    1    4    4    0    0  0.36338011786E+02  0.12564975506E+02 -0.63283157471E+02  0.74047874578E+02  0.00000000000E+00 0. -1.
        -13    1    5    5    0    0 -0.11111333062E+02 -0.27538722350E+02 -0.10388704057E+03  0.10804795301E+03  0.00000000000E+00 0.  1.
         14    1    5    5    0    0  0.79354852367E+01  0.51780395521E+02 -0.10096357603E+03  0.11374456018E+03  0.00000000000E+00 0. -1.
          5    1    3    3  502    0 -0.53348298658E+02 -0.39880443318E+02  0.64811547358E+01  0.67086407682E+02  0.47000000000E+01 0.  1.
         -5    1    3    3    0  502 -0.65398278957E+02  0.53806976051E+02 -0.94549519476E+02  0.12701900328E+03  0.47000000000E+01 0.  1.
          1    1    1    2  503    0  0.10909519702E+02  0.32014374242E+02 -0.26250913387E+03  0.26467901909E+03  0.00000000000E+00 0. -1.
         -2    1    1    2    0  501  0.41149847166E+02 -0.30885702256E+02  0.91632031541E+01  0.52260891857E+02  0.00000000000E+00 0.  1.
<mgrwt>
<rscale>  0 0.41576311E+02</rscale>
<asrwt>0</asrwt>
<pdfrwt beam="2">  1        2 0.13252191E+00 0.33822149E+02</pdfrwt>
<pdfrwt beam="1">  1       -1 0.15236828E-01 0.51108214E+02</pdfrwt>
<totfact> 0.11633803E+03</totfact>
</mgrwt>
</event>
<event>
13    1  0.2742815E-008  0.1980963E+03  0.7546771E-02  0.1192878E+00
          2   -1    0    0  503    0  0.00000000000E+00  0.00000000000E+00  0.17223125413E+04  0.17223125413E+04  0.00000000000E+00 0. -1.
          2   -1    0    0  502    0 -0.00000000000E+00 -0.00000000000E+00 -0.59711792176E+03  0.59711792176E+03  0.00000000000E+00 0. -1.
         25    2    1    2    0    0 -0.19810056299E+03 -0.37576808701E+03  0.23517907412E+03  0.50137013871E+03  0.12496931949E+03 0.  0.
         24    2    1    2    0    0  0.45437703940E+02  0.10222125552E+03  0.14920923699E+02  0.13808340452E+03  0.79565209858E+02 0.  0.
         24    2    1    2    0    0  0.22984551508E+02  0.10596369144E+03  0.24546986286E+03  0.28103266713E+03  0.83470431365E+02 0.  0.
        -11    1    4    4    0    0 -0.34750333983E+01 -0.79458797941E+01  0.15252378611E+02  0.17545595348E+02  0.00000000000E+00 0.  1.
         12    1    4    4    0    0  0.48912737338E+02  0.11016713531E+03 -0.33145491235E+00  0.12053780917E+03  0.00000000000E+00 0. -1.
        -13    1    5    5    0    0  0.21091307787E+02  0.99852309836E+02  0.25200583889E+03  0.27188650184E+03  0.00000000000E+00 0.  1.
         14    1    5    5    0    0  0.18932437213E+01  0.61113816049E+01 -0.65359760354E+01  0.91461652972E+01  0.00000000000E+00 0. -1.
          5    1    3    3  501    0 -0.11305382379E+03 -0.31821281731E+03  0.15822378916E+03  0.37295766734E+03  0.47000000000E+01 0.  1.
         -5    1    3    3    0  501 -0.85046739198E+02 -0.57555269696E+02  0.76955284966E+02  0.12841247137E+03  0.47000000000E+01 0.  1.
          1    1    1    2  502    0  0.17628794920E+03  0.53318943721E+02 -0.35855406062E+03  0.40308977310E+03  0.00000000000E+00 0. -1.
          1    1    1    2  503    0 -0.46609641654E+02  0.11426419633E+03  0.98817881946E+03  0.99585447957E+03  0.00000000000E+00 0. -1.
<mgrwt>
<rscale>  0 0.15635234E+03</rscale>
<asrwt>0</asrwt>
<pdfrwt beam="1">  1        2 0.25328125E+00 0.12340488E+03</pdfrwt>
<pdfrwt beam="2">  1        2 0.87811460E-01 0.19809632E+03</pdfrwt>
<totfact> 0.10253737E+02</totfact>
</mgrwt>
</event>
<event>
13    1  0.2742815E-008  0.9057809E+02  0.7546771E-02  0.1318785E+00
          2   -1    0    0  503    0  0.00000000000E+00  0.00000000000E+00  0.47607228953E+04  0.47607228953E+04  0.00000000000E+00 0. -1.
          2   -1    0    0  502    0 -0.00000000000E+00 -0.00000000000E+00 -0.23573838030E+04  0.23573838030E+04  0.00000000000E+00 0. -1.
         25    2    1    2    0    0 -0.25013443875E+03  0.81242029827E+02 -0.20485984570E+03  0.35603377854E+03  0.12499996087E+03 0.  0.
         24    2    1    2    0    0  0.35123397429E+03 -0.31205798262E+03 -0.69804743441E+03  0.84672568321E+03  0.94491654130E+02 0.  0.
         24    2    1    2    0    0 -0.67908734524E+02  0.21135242776E+03  0.13722789869E+04  0.13923335333E+04  0.78495892819E+02 0.  0.
        -11    1    4    4    0    0  0.82394825977E+02 -0.13211777714E+03 -0.23177953679E+03  0.27922350914E+03  0.00000000000E+00 0.  1.
         12    1    4    4    0    0  0.26883914831E+03 -0.17994020549E+03 -0.46626789762E+03  0.56750217406E+03  0.00000000000E+00 0. -1.
        -13    1    5    5    0    0 -0.18315031358E+01  0.10018923984E+03  0.75761215853E+03  0.76421032507E+03  0.00000000000E+00 0.  1.
         14    1    5    5    0    0 -0.66077231389E+02  0.11116318791E+03  0.61466682833E+03  0.62812320822E+03  0.00000000000E+00 0. -1.
          5    1    3    3  501    0 -0.19430900477E+03  0.41160074844E+01 -0.12038853641E+03  0.22866661442E+03  0.47000000000E+01 0. -1.
         -5    1    3    3    0  501 -0.55825433985E+02  0.77126022343E+02 -0.84471309287E+02  0.12736716412E+03  0.47000000000E+01 0. -1.
          1    1    1    2  502    0  0.47151058942E+02  0.61382306147E+02 -0.12927294695E+04  0.12950445904E+04  0.00000000000E+00 0. -1.
          1    1    1    2  503    0 -0.80341859953E+02 -0.41918781109E+02  0.32266968551E+04  0.32279691128E+04  0.00000000000E+00 0. -1.
<mgrwt>
<rscale>  0 0.83731061E+02</rscale>
<asrwt>0</asrwt>
<pdfrwt beam="1">  1        2 0.70010631E+00 0.90578093E+02</pdfrwt>
<pdfrwt beam="2">  1        2 0.34667409E+00 0.77401614E+02</pdfrwt>
<totfact> 0.19644881E-01</totfact>
</mgrwt>
</event>
<event>
13    1  0.2742815E-008  0.4196612E+03  0.7546771E-02  0.1206441E+00
          2   -1    0    0  503    0  0.00000000000E+00  0.00000000000E+00  0.52124357743E+04  0.52124357743E+04  0.00000000000E+00 0. -1.
         -3   -1    0    0    0  501 -0.00000000000E+00 -0.00000000000E+00 -0.25151722887E+03  0.25151722887E+03  0.00000000000E+00 0.  1.
         25    2    1    2    0    0  0.32273547367E+03 -0.12849529630E+03  0.30740953606E+03  0.48041105330E+03  0.12499972056E+03 0.  0.
         24    2    1    2    0    0  0.29672620629E+02  0.94578611092E+01  0.10011263060E+04  0.10047655352E+04  0.79561199940E+02 0.  0.
         24    2    1    2    0    0  0.69164970098E+02 -0.13320295612E+03  0.25184992645E+04  0.25242693482E+04  0.81057859067E+02 0.  0.
        -11    1    4    4    0    0  0.41087463952E+02  0.13005471028E+02  0.97589309751E+03  0.97684423515E+03  0.00000000000E+00 0.  1.
         12    1    4    4    0    0 -0.11414843323E+02 -0.35476099185E+01  0.25233208539E+02  0.27921300067E+02  0.00000000000E+00 0. -1.
        -13    1    5    5    0    0  0.16108495243E+02 -0.18664392988E+02  0.12300116114E+03  0.12544771351E+03  0.00000000000E+00 0.  1.
         14    1    5    5    0    0  0.53056474855E+02 -0.11453856313E+03  0.23954981034E+04  0.23988216347E+04  0.00000000000E+00 0. -1.
          5    1    3    3  502    0  0.91523338298E+02 -0.34216182170E+01  0.26063716676E+02  0.95339583864E+02  0.47000000000E+01 0.  1.
         -5    1    3    3    0  502  0.23121213537E+03 -0.12507367808E+03  0.28134581939E+03  0.38507146944E+03  0.47000000000E+01 0.  1.
          1    1    1    2  503    0  0.21178709996E+02  0.45589995994E+02  0.91961218151E+03  0.92098509753E+03  0.00000000000E+00 0. -1.
         -4    1    1    2    0  501 -0.44275177439E+03  0.20665039531E+03  0.21427125736E+03  0.53352196894E+03  0.00000000000E+00 0.  1.
<mgrwt>
<rscale>  0 0.14524464E+03</rscale>
<asrwt>0</asrwt>
<pdfrwt beam="1">  1        2 0.76653460E+00 0.50269131E+02</pdfrwt>
<pdfrwt beam="2">  1       -3 0.36987831E-01 0.41966124E+03</pdfrwt>
<totfact> 0.39415840E-01</totfact>
</mgrwt>
</event>
<event>
13    1  0.2742815E-008  0.8042053E+02  0.7546771E-02  0.1540085E+00
          2   -1    0    0  502    0  0.00000000000E+00  0.00000000000E+00  0.15842775112E+04  0.15842775112E+04  0.00000000000E+00 0. -1.
          2   -1    0    0  503    0 -0.00000000000E+00 -0.00000000000E+00 -0.10224845801E+04  0.10224845801E+04  0.00000000000E+00 0. -1.
         25    2    1    2    0    0  0.13963987514E+03  0.96308686192E+02 -0.47741025063E+03  0.52184310683E+03  0.12500009189E+03 0.  0.
         24    2    1    2    0    0  0.44637018481E+02 -0.13623798801E+03 -0.72843870804E+02  0.17844492588E+03  0.77350560836E+02 0.  0.
         24    2    1    2    0    0 -0.99066283874E+02  0.51268972083E+02  0.26979873149E+03  0.30303596124E+03  0.81220700518E+02 0.  0.
        -11    1    5    5    0    0 -0.10340934147E+03  0.20966730595E+02  0.18632794754E+03  0.21412893249E+03  0.00000000000E+00 0.  1.
         12    1    5    5    0    0  0.43430575911E+01  0.30302241488E+02  0.83470783945E+02  0.88907028749E+02  0.00000000000E+00 0. -1.
        -13    1    4    4    0    0 -0.19464033017E+02 -0.57998116079E+02 -0.20241986400E+02  0.64438870749E+02  0.00000000000E+00 0.  1.
         14    1    4    4    0    0  0.64101051498E+02 -0.78239871930E+02 -0.52601884404E+02  0.11400605513E+03  0.00000000000E+00 0. -1.
          5    1    3    3  501    0  0.16202450749E+03  0.84847021869E+02 -0.43999553401E+03  0.47651769967E+03  0.47000000000E+01 0.  1.
         -5    1    3    3    0  501 -0.22384632351E+02  0.11461664323E+02 -0.37414716620E+02  0.45325407161E+02  0.47000000000E+01 0.  1.
          1    1    1    2  502    0 -0.76473581988E+02 -0.24857317018E+02  0.12213503233E+04  0.12239945699E+04  0.00000000000E+00 0. -1.
          1    1    1    2  503    0 -0.87370277544E+01  0.13517646753E+02 -0.37910200228E+03  0.37944352750E+03  0.00000000000E+00 0. -1.
<mgrwt>
<rscale>  0 0.35977797E+02</rscale>
<asrwt>0</asrwt>
<pdfrwt beam="1">  1        2 0.23298199E+00 0.80420529E+02</pdfrwt>
<pdfrwt beam="2">  1        2 0.15036538E+00 0.16095416E+02</pdfrwt>
<totfact> 0.72366605E+01</totfact>
</mgrwt>
</event>
<event>
13    1  0.2742815E-008  0.9921659E+02  0.7546771E-02  0.1419902E+00
         -1   -1    0    0    0  501 -0.00000000000E+00  0.00000000000E+00  0.28300537039E+04  0.28300537039E+04  0.00000000000E+00 0.  1.
          2   -1    0    0  503    0  0.00000000000E+00 -0.00000000000E+00 -0.13004170166E+04  0.13004170166E+04  0.00000000000E+00 0. -1.
         25    2    1    2    0    0 -0.99069773414E+02  0.11198813611E+02  0.10667982384E+04  0.10787180470E+04  0.12503563452E+03 0.  0.
         24    2    1    2    0    0 -0.21338635944E+02  0.72294156903E+02  0.71264293863E+03  0.72030654062E+03  0.72799532837E+02 0.  0.
         24    2    1    2    0    0  0.28413338056E+02 -0.51388221046E+01 -0.35943091945E+02  0.89180437248E+02  0.76338190030E+02 0.  0.
        -11    1    5    5    0    0 -0.21807995664E+02  0.96520355370E+01 -0.27075050651E+02  0.36080588031E+02  0.00000000000E+00 0.  1.
         12    1    5    5    0    0  0.50221333721E+02 -0.14790857642E+02 -0.88680412942E+01  0.53099849217E+02  0.00000000000E+00 0. -1.
        -13    1    4    4    0    0 -0.27436333171E+02  0.84395518244E+02  0.55144169451E+03  0.55853674751E+03  0.00000000000E+00 0.  1.
         14    1    4    4    0    0  0.60976972270E+01 -0.12101361341E+02  0.16120124412E+03  0.16176979312E+03  0.00000000000E+00 0. -1.
          5    1    3    3  502    0 -0.80318135851E+01  0.50294196204E+02  0.55816526989E+03  0.56050385789E+03  0.47000000000E+01 0. -1.
         -5    1    3    3    0  502 -0.91037959829E+02 -0.39095382592E+02  0.50863296854E+03  0.51821418907E+03  0.47000000000E+01 0. -1.
          1    1    1    2  503    0  0.79566168270E+02 -0.50462981209E+02 -0.12260257911E+04  0.12296408126E+04  0.00000000000E+00 0. -1.
         -2    1    1    2    0  501  0.12428903031E+02 -0.27891167201E+02  0.10121643933E+04  0.10126248831E+04  0.00000000000E+00 0.  1.
<mgrwt>
<rscale>  0 0.55041736E+02</rscale>
<asrwt>0</asrwt>
<pdfrwt beam="2">  1        2 0.19123780E+00 0.99216593E+02</pdfrwt>
<pdfrwt beam="1">  1       -1 0.41618437E+00 0.30535141E+02</pdfrwt>
<totfact> 0.23230243E-01</totfact>
</mgrwt>
</event>
<event>
13    1  0.7882336E-008  0.7212842E+02  0.7546771E-02  0.1548363E+00
          2   -1    0    0  502    0  0.00000000000E+00  0.00000000000E+00  0.24932799243E+04  0.24932799243E+04  0.00000000000E+00 0. -1.
          2   -1    0    0  503    0 -0.00000000000E+00 -0.00000000000E+00 -0.45423379431E+04  0.45423379431E+04  0.00000000000E+00 0. -1.
         25    2    1    2    0    0  0.98751242647E+01 -0.53702249123E+03 -0.21919619892E+04  0.22602679195E+04  0.12499212722E+03 0.  0.
         24    2    1    2    0    0 -0.55119837249E+03 -0.95633023335E+03 -0.11668763193E+04  0.16074091104E+04  0.61453581671E+02 0.  0.
         24    2    1    2    0    0  0.60030469235E+03  0.15086164388E+04  0.59830672938E+03  0.17321993065E+04  0.79083577207E+02 0.  0.
        -13    1    5    5    0    0  0.47322465027E+03  0.11123412159E+04  0.46581254293E+03  0.12954635755E+04  0.00000000000E+00 0.  1.
         14    1    5    5    0    0  0.12708004208E+03  0.39627522285E+03  0.13249418645E+03  0.43673573105E+03  0.00000000000E+00 0. -1.
        -13    1    4    4    0    0 -0.19972964754E+03 -0.38219203568E+03 -0.42081107027E+03  0.60253185900E+03  0.00000000000E+00 0.  1.
         14    1    4    4    0    0 -0.35146872495E+03 -0.57413819767E+03 -0.74606524904E+03  0.10048772514E+04  0.00000000000E+00 0. -1.
          5    1    3    3  501    0 -0.50418106236E+02 -0.26232663765E+03 -0.11862092802E+04  0.12159242562E+04  0.47000000000E+01 0.  1.
         -5    1    3    3    0  501  0.60293230501E+02 -0.27469585358E+03 -0.10057527090E+04  0.10443436634E+04  0.47000000000E+01 0.  1.
          1    1    1    2  502    0  0.13046950994E+02 -0.10913354171E+02  0.10699446015E+04  0.10700797982E+04  0.00000000000E+00 0. -1.
          1    1    1    2  503    0 -0.72028395111E+02 -0.43503600250E+01 -0.35847104124E+03  0.36566173267E+03  0.00000000000E+00 0. -1.
<mgrwt>
<rscale>  0 0.35026716E+02</rscale>
<asrwt>0</asrwt>
<pdfrwt beam="1">  1        2 0.36665882E+00 0.17009533E+02</pdfrwt>
<pdfrwt beam="2">  1        2 0.66799086E+00 0.72128422E+02</pdfrwt>
<totfact> 0.34036690E-01</totfact>
</mgrwt>
</event>
<event>
13    1  0.2742815E-008  0.2201644E+03  0.7546771E-02  0.1336058E+00
          2   -1    0    0  502    0  0.00000000000E+00  0.00000000000E+00  0.98735693551E+03  0.98735693551E+03  0.00000000000E+00 0. -1.
          2   -1    0    0  503    0 -0.00000000000E+00 -0.00000000000E+00 -0.20479391534E+04  0.20479391534E+04  0.00000000000E+00 0. -1.
         25    2    1    2    0    0  0.62518024984E+02 -0.60292659319E+02 -0.39441608775E+03  0.42276812089E+03  0.12500050218E+03 0.  0.
         24    2    1    2    0    0  0.11612865682E+02 -0.48751903619E+02 -0.12686689420E+02  0.94804829300E+02  0.79469470957E+02 0.  0.
         24    2    1    2    0    0  0.15187165432E+03 -0.62570442244E+02  0.19358668719E+03  0.26641182573E+03  0.80742775551E+02 0.  0.
        -11    1    5    5    0    0 -0.34027176322E+01 -0.22197789392E+02  0.27229580249E+02  0.35295472538E+02  0.00000000000E+00 0.  1.
         12    1    5    5    0    0  0.15527437195E+03 -0.40372652852E+02  0.16635710694E+03  0.23111635319E+03  0.00000000000E+00 0. -1.
        -13    1    4    4    0    0 -0.11457230079E+02  0.16287585578E+02  0.98389240308E+01  0.22211663403E+02  0.00000000000E+00 0.  1.
         14    1    4    4    0    0  0.23070095762E+02 -0.65039489197E+02 -0.22525613451E+02  0.72593165896E+02  0.00000000000E+00 0. -1.
          5    1    3    3  501    0  0.58601996906E+02 -0.67658993522E+02 -0.40116301853E+03  0.41105448651E+03  0.47000000000E+01 0. -1.
         -5    1    3    3    0  501  0.39160280784E+01  0.73663342027E+01  0.67469307743E+01  0.11713634379E+02  0.47000000000E+01 0. -1.
          1    1    1    2  502    0 -0.19872655864E+03  0.16977005676E+03  0.67767167218E+03  0.72632844675E+03  0.00000000000E+00 0. -1.
          1    1    1    2  503    0 -0.27275986343E+02  0.18449484229E+01 -0.15247378001E+04  0.15249828662E+04  0.00000000000E+00 0. -1.
<mgrwt>
<rscale>  0 0.77581718E+02</rscale>
<asrwt>0</asrwt>
<pdfrwt beam="1">  1        2 0.14519955E+00 0.22016440E+03</pdfrwt>
<pdfrwt beam="2">  1        2 0.30116752E+00 0.27338311E+02</pdfrwt>
<totfact> 0.45250431E+01</totfact>
</mgrwt>
</event>
<event>
13    1  0.2742815E-008  0.9208276E+02  0.7546771E-02  0.1487414E+00
          2   -1    0    0  502    0  0.00000000000E+00  0.00000000000E+00  0.15952570578E+04  0.15952570578E+04  0.00000000000E+00 0. -1.
          2   -1    0    0  503    0 -0.00000000000E+00 -0.00000000000E+00 -0.10574541410E+04  0.10574541410E+04  0.00000000000E+00 0. -1.
         25    2    1    2    0    0  0.10326246731E+03  0.21541765025E+02  0.12076946368E+02  0.16401076203E+03  0.12500597039E+03 0.  0.
         24    2    1    2    0    0 -0.68155798092E+02 -0.60541176610E+02  0.43337257243E+03  0.44999949411E+03  0.79858069677E+02 0.  0.
         24    2    1    2    0    0  0.34838038101E+02 -0.42930055051E+02  0.19466076948E+03  0.21612570647E+03  0.75900113964E+02 0.  0.
        -11    1    5    5    0    0  0.22049925981E+02  0.19678217393E+02  0.52099526802E+02  0.59898181680E+02  0.00000000000E+00 0.  1.
         12    1    5    5    0    0  0.12788112119E+02 -0.62608272444E+02  0.14256124268E+03  0.15622752479E+03  0.00000000000E+00 0. -1.
        -13    1    4    4    0    0  0.56161160266E+01 -0.20313275377E+02  0.23346316596E+02  0.31451874576E+02  0.00000000000E+00 0.  1.
         14    1    4    4    0    0 -0.73771914118E+02 -0.40227901234E+02  0.41002625583E+03  0.41854761954E+03  0.00000000000E+00 0. -1.
          5    1    3    3  501    0  0.12906036213E+02  0.27274049317E+02  0.55608231638E+02  0.63441350574E+02  0.47000000000E+01 0.  1.
         -5    1    3    3    0  501  0.90356431096E+02 -0.57322842917E+01 -0.43531285270E+02  0.10056941146E+03  0.47000000000E+01 0.  1.
          1    1    1    2  502    0 -0.72621749970E+02  0.10180362699E+03  0.85548322893E+03  0.86457472321E+03  0.00000000000E+00 0. -1.
          1    1    1    2  503    0  0.26770426525E+01 -0.19874160357E+02 -0.95779060035E+03  0.95800051301E+03  0.00000000000E+00 0. -1.
<mgrwt>
<rscale>  0 0.42972028E+02</rscale>
<asrwt>0</asrwt>
<pdfrwt beam="1">  1        2 0.23459663E+00 0.92082757E+02</pdfrwt>
<pdfrwt beam="2">  1        2 0.15550796E+00 0.20053648E+02</pdfrwt>
<totfact> 0.67002200E+01</totfact>
</mgrwt>
</event>
<event>
13    1  0.2742815E-008  0.8386235E+02  0.7546771E-02  0.1490761E+00
          2   -1    0    0  502    0  0.00000000000E+00  0.00000000000E+00  0.11111766345E+04  0.11111766345E+04  0.00000000000E+00 0. -1.
          2   -1    0    0  503    0 -0.00000000000E+00 -0.00000000000E+00 -0.16150803521E+04  0.16150803521E+04  0.00000000000E+00 0. -1.
         25    2    1    2    0    0  0.38847875234E+02 -0.13561768230E+03 -0.69802510301E+03  0.72302474164E+03  0.12499767769E+03 0.  0.
         24    2    1    2    0    0 -0.71057801312E+02  0.20925574633E+02 -0.48145093113E+02  0.11901034601E+03  0.79739711965E+02 0.  0.
         24    2    1    2    0    0  0.57530134079E+01  0.51579119631E+02  0.22056126303E+03  0.24095664054E+03  0.81971514102E+02 0.  0.
        -11    1    4    4    0    0 -0.82772306869E+02  0.25114702979E+02 -0.57131729290E+02  0.10366309653E+03  0.00000000000E+00 0.  1.
         12    1    4    4    0    0  0.11714505557E+02 -0.41891283453E+01  0.89866361764E+01  0.15347249477E+02  0.00000000000E+00 0. -1.
        -13    1    5    5    0    0 -0.32840718117E+02  0.15931976935E+02  0.14074579676E+03  0.14540192557E+03  0.00000000000E+00 0.  1.
         14    1    5    5    0    0  0.38593731525E+02  0.35647142697E+02  0.79815466274E+02  0.95554714965E+02  0.00000000000E+00 0. -1.
          5    1    3    3  501    0  0.79457478262E+02 -0.58107516940E+02 -0.31274349547E+03  0.32790327588E+03  0.47000000000E+01 0. -1.
         -5    1    3    3    0  501 -0.40609603028E+02 -0.77510165356E+02 -0.38528160754E+03  0.39512146576E+03  0.47000000000E+01 0. -1.
          1    1    1    2  502    0  0.46994715309E+02  0.69511011191E+02  0.83022758124E+03  0.83445678174E+03  0.00000000000E+00 0. -1.
          1    1    1    2  503    0 -0.20537802639E+02 -0.63980231602E+01 -0.80852236578E+03  0.80880847672E+03  0.00000000000E+00 0. -1.
<mgrwt>
<rscale>  0 0.42473381E+02</rscale>
<asrwt>0</asrwt>
<pdfrwt beam="1">  1        2 0.16340833E+00 0.83862345E+02</pdfrwt>
<pdfrwt beam="2">  1        2 0.23751182E+00 0.21511300E+02</pdfrwt>
<totfact> 0.64672672E+01</totfact>
</mgrwt>
</event>
<event>
13    1  0.2742815E-008  0.1173097E+03  0.7546771E-02  0.1459150E+00
          2   -1    0    0  503    0  0.00000000000E+00  0.00000000000E+00  0.37183035161E+04  0.37183035161E+04  0.00000000000E+00 0. -1.
          2   -1    0    0  502    0 -0.00000000000E+00 -0.00000000000E+00 -0.73894760376E+03  0.73894760376E+03  0.00000000000E+00 0. -1.
         25    2    1    2    0    0 -0.10904956528E+03  0.23110487767E+01 -0.98780718574E+01  0.16619655661E+03  0.12500628180E+03 0.  0.
         24    2    1    2    0    0 -0.27985327413E+02 -0.15072407082E+03  0.30320176793E+03  0.35012005239E+03  0.84568403874E+02 0.  0.
         24    2    1    2    0    0  0.53325392903E+02  0.24333429566E+03  0.19165202196E+04  0.19343638885E+04  0.81601003500E+02 0.  0.
        -11    1    4    4    0    0 -0.34549008531E+02 -0.88047980823E+02  0.10121154570E+03  0.13852746262E+03  0.00000000000E+00 0.  1.
         12    1    4    4    0    0  0.65636811180E+01 -0.62676089994E+02  0.20199022224E+03  0.21159258977E+03  0.00000000000E+00 0. -1.
        -13    1    5    5    0    0  0.29144348806E+02  0.21709281957E+03  0.17727705630E+04  0.17862514253E+04  0.00000000000E+00 0.  1.
         14    1    5    5    0    0  0.24181044097E+02  0.26241476089E+02  0.14374965663E+03  0.14811246316E+03  0.00000000000E+00 0. -1.
          5    1    3    3  501    0 -0.13112635741E+03  0.44333783380E+01  0.15464665191E+02  0.13219312509E+03  0.47000000000E+01 0. -1.
         -5    1    3    3    0  501  0.22076792135E+02 -0.21223295613E+01 -0.25342737048E+02  0.34003431516E+02  0.47000000000E+01 0. -1.
          1    1    1    2  502    0  0.88991587088E+02 -0.76403920454E+02 -0.61290126600E+03  0.62402325557E+03  0.00000000000E+00 0. -1.
          1    1    1    2  503    0 -0.52820873018E+01 -0.18517353170E+02  0.13824132626E+04  0.13825473668E+04  0.00000000000E+00 0. -1.
<mgrwt>
<rscale>  0 0.47528024E+02</rscale>
<asrwt>0</asrwt>
<pdfrwt beam="1">  1        2 0.54680933E+00 0.19255981E+02</pdfrwt>
<pdfrwt beam="2">  1        2 0.10866877E+00 0.11730968E+03</pdfrwt>
<totfact> 0.10629744E+01</totfact>
</mgrwt>
</event>
<event>
13    1  0.2742815E-008  0.9623755E+02  0.7546771E-02  0.1528088E+00
         -3   -1    0    0    0  501 -0.00000000000E+00  0.00000000000E+00  0.48615030041E+03  0.48615030041E+03  0.00000000000E+00 0.  1.
          2   -1    0    0  503    0  0.00000000000E+00 -0.00000000000E+00 -0.72580490323E+03  0.72580490323E+03  0.00000000000E+00 0. -1.
         25    2    1    2    0    0 -0.10445869496E+03  0.45392341694E+01  0.12331555223E+03  0.20436000276E+03  0.12499624677E+03 0.  0.
         24    2    1    2    0    0 -0.32355845198E+02 -0.10237436185E+01 -0.58320021176E+02  0.90792459676E+02  0.61596242536E+02 0.  0.
         24    2    1    2    0    0 -0.13569493177E+02 -0.90409099476E+02 -0.12623743399E+03  0.18005932855E+03  0.90152846004E+02 0.  0.
        -13    1    5    5    0    0 -0.39933113533E+02 -0.88263628328E+02 -0.11731450820E+03  0.15214406159E+03  0.00000000000E+00 0.  1.
         14    1    5    5    0    0  0.26363620357E+02 -0.21454711480E+01 -0.89229257932E+01  0.27915266960E+02  0.00000000000E+00 0. -1.
        -13    1    4    4    0    0  0.49384188545E+01 -0.19335264417E+02 -0.41348983533E+02  0.45912731024E+02  0.00000000000E+00 0.  1.
         14    1    4    4    0    0 -0.37294264053E+02  0.18311520798E+02 -0.16971037643E+02  0.44879728652E+02  0.00000000000E+00 0. -1.
          5    1    3    3  502    0 -0.13815951766E+02  0.42382767022E+02  0.89977581263E+02  0.10052479591E+03  0.47000000000E+01 0. -1.
         -5    1    3    3    0  502 -0.90642743193E+02 -0.37843532853E+02  0.33337970965E+02  0.10383520684E+03  0.47000000000E+01 0. -1.
          1    1    1    2  503    0  0.13988232964E+03  0.76820877611E+02 -0.44345756221E+03  0.47129939833E+03  0.00000000000E+00 0. -1.
         -4    1    1    2    0  501  0.10501703697E+02  0.10072731314E+02  0.26504486233E+03  0.26544401433E+03  0.00000000000E+00 0.  1.
<mgrwt>
<rscale>  0 0.37421908E+02</rscale>
<asrwt>0</asrwt>
<pdfrwt beam="2">  1        2 0.10673601E+00 0.96237549E+02</pdfrwt>
<pdfrwt beam="1">  1       -3 0.71492693E-01 0.14551484E+02</pdfrwt>
<totfact> 0.44174822E+01</totfact>
</mgrwt>
</event>
<event>
13    1  0.2742815E-008  0.7396262E+02  0.7546771E-02  0.1348704E+00
          2   -1    0    0  503    0  0.00000000000E+00  0.00000000000E+00  0.27090818356E+04  0.27090818356E+04  0.00000000000E+00 0. -1.
          2   -1    0    0  502    0 -0.00000000000E+00 -0.00000000000E+00 -0.17692734318E+04  0.17692734318E+04  0.00000000000E+00 0. -1.
         25    2    1    2    0    0  0.71786958309E+02  0.51796558253E+02 -0.13229999638E+03  0.20239979614E+03  0.12500455033E+03 0.  0.
         24    2    1    2    0    0  0.93651351843E+01 -0.18995466741E+02  0.32759599364E+03  0.33295338526E+03  0.55590360595E+02 0.  0.
         24    2    1    2    0    0 -0.73050424980E+02  0.74806790713E+02  0.50117125638E+03  0.51818818843E+03  0.80087139307E+02 0.  0.
        -11    1    4    4    0    0 -0.16172053480E+02 -0.13897234392E+01  0.22943161587E+03  0.23000507169E+03  0.00000000000E+00 0.  1.
         12    1    4    4    0    0  0.25537188665E+02 -0.17605743302E+02  0.98164377777E+02  0.10294831357E+03  0.00000000000E+00 0. -1.
        -13    1    5    5    0    0 -0.49317523705E+02  0.72969259108E+02  0.23511685139E+03  0.25107103522E+03  0.00000000000E+00 0.  1.
         14    1    5    5    0    0 -0.23732901275E+02  0.18375316048E+01  0.26605440499E+03  0.26711715321E+03  0.00000000000E+00 0. -1.
          5    1    3    3  501    0  0.10429126016E+03  0.58337571825E+02 -0.10035023944E+03  0.15611598184E+03  0.47000000000E+01 0.  1.
         -5    1    3    3    0  501 -0.32504301847E+02 -0.65410135719E+01 -0.31949756943E+02  0.46283814296E+02  0.47000000000E+01 0.  1.
          1    1    1    2  502    0 -0.54939923508E+02 -0.48009759620E+02 -0.15891157948E+04  0.15907898483E+04  0.00000000000E+00 0. -1.
          1    1    1    2  503    0  0.46838254995E+02 -0.59598122605E+02  0.18324569449E+04  0.18340240493E+04  0.00000000000E+00 0. -1.
<mgrwt>
<rscale>  0 0.73461153E+02</rscale>
<asrwt>0</asrwt>
<pdfrwt beam="1">  1        2 0.39839439E+00 0.73962619E+02</pdfrwt>
<pdfrwt beam="2">  1        2 0.26018727E+00 0.72963086E+02</pdfrwt>
<totfact> 0.81276375E+00</totfact>
</mgrwt>
</event>
<event>
13    1  0.2742815E-008  0.3059184E+02  0.7546771E-02  0.1606550E+00
          2   -1    0    0  503    0  0.00000000000E+00  0.00000000000E+00  0.18748083576E+04  0.18748083576E+04  0.00000000000E+00 0. -1.
          2   -1    0    0  502    0 -0.00000000000E+00 -0.00000000000E+00 -0.24736966226E+04  0.24736966226E+04  0.00000000000E+00 0. -1.
         25    2    1    2    0    0  0.15348168842E+03  0.27241391220E+02 -0.29631733727E+03  0.35738987444E+03  0.12499934363E+03 0.  0.
         24    2    1    2    0    0  0.46048661139E+03  0.65458566415E+03 -0.79463456402E+03  0.11302166570E+04  0.73588656420E+02 0.  0.
         24    2    1    2    0    0 -0.60180654920E+03 -0.70666526060E+03  0.99300819800E+03  0.13614282366E+04  0.76646258982E+02 0.  0.
        -11    1    4    4    0    0  0.32898806559E+03  0.50810173274E+03 -0.56865721432E+03  0.83052486147E+03  0.00000000000E+00 0.  1.
         12    1    4    4    0    0  0.13149854580E+03  0.14648393141E+03 -0.22597734970E+03  0.29969179550E+03  0.00000000000E+00 0. -1.
        -13    1    5    5    0    0 -0.54473663720E+03 -0.62257189223E+03  0.85117724070E+03  0.11869441689E+04  0.00000000000E+00 0.  1.
         14    1    5    5    0    0 -0.57069912002E+02 -0.84093368376E+02  0.14183095730E+03  0.17448406778E+03  0.00000000000E+00 0. -1.
          5    1    3    3  501    0  0.93132373021E+02  0.75781151590E+02 -0.15440396801E+03  0.19565044641E+03  0.47000000000E+01 0. -1.
         -5    1    3    3    0  501  0.60349315400E+02 -0.48539760370E+02 -0.14191336926E+03  0.16173942804E+03  0.47000000000E+01 0. -1.
          1    1    1    2  502    0 -0.30379229072E+02  0.36228388255E+01 -0.99958159310E+03  0.10000496907E+04  0.00000000000E+00 0. -1.
          1    1    1    2  503    0  0.18217478464E+02  0.21215366405E+02  0.49863703132E+03  0.49942052151E+03  0.00000000000E+00 0. -1.
<mgrwt>
<rscale>  0 0.29248261E+02</rscale>
<asrwt>0</asrwt>
<pdfrwt beam="1">  1        2 0.27570711E+00 0.27963696E+02</pdfrwt>
<pdfrwt beam="2">  1        2 0.36377892E+00 0.30591835E+02</pdfrwt>
<totfact> 0.11893119E+01</totfact>
</mgrwt>
</event>
<event>
13    1  0.2958613E-008  0.1241067E+03  0.7546771E-02  0.1277962E+00
          2   -1    0    0  502    0  0.00000000000E+00  0.00000000000E+00  0.28842947145E+04  0.28842947145E+04  0.00000000000E+00 0. -1.
          2   -1    0    0  503    0 -0.00000000000E+00 -0.00000000000E+00 -0.39550156308E+04  0.39550156308E+04  0.00000000000E+00 0. -1.
         25    2    1    2    0    0 -0.16590028671E+03 -0.41616546893E+03 -0.97320683181E+03  0.10786437883E+04  0.12499712777E+03 0.  0.
         24    2    1    2    0    0 -0.18264591595E+03  0.78274960694E+03 -0.10429883241E+04  0.13192477105E+04  0.80829448260E+02 0.  0.
         24    2    1    2    0    0  0.53618226842E+03 -0.37043438835E+03  0.10184969141E+04  0.12135488244E+04  0.10320719050E+03 0.  0.
        -11    1    5    5    0    0  0.23132320361E+03 -0.13314937073E+03  0.50216881040E+03  0.56869384874E+03  0.00000000000E+00 0.  1.
         12    1    5    5    0    0  0.30485906481E+03 -0.23728501763E+03  0.51632810369E+03  0.64485497567E+03  0.00000000000E+00 0. -1.
        -13    1    4    4    0    0 -0.11587921541E+03  0.35003315268E+03 -0.51389128355E+03  0.63248355855E+03  0.00000000000E+00 0.  1.
         14    1    4    4    0    0 -0.66766700533E+02  0.43271645426E+03 -0.52909704053E+03  0.68676415194E+03  0.00000000000E+00 0. -1.
          5    1    3    3  501    0 -0.14168376638E+03 -0.37610947363E+03 -0.93604807788E+03  0.10186955973E+04  0.47000000000E+01 0.  1.
         -5    1    3    3    0  501 -0.24216520326E+02 -0.40055995295E+02 -0.37158753927E+02  0.59948191042E+02  0.47000000000E+01 0.  1.
          1    1    1    2  502    0 -0.70074471678E+02  0.43327727099E+02  0.15740152475E+04  0.15761699537E+04  0.00000000000E+00 0. -1.
          1    1    1    2  503    0 -0.11756159409E+03 -0.39477476758E+02 -0.16470379219E+04  0.16517000684E+04  0.00000000000E+00 0. -1.
<mgrwt>
<rscale>  0 0.10111803E+03</rscale>
<asrwt>0</asrwt>
<pdfrwt beam="1">  1        2 0.42416099E+00 0.82387642E+02</pdfrwt>
<pdfrwt beam="2">  1        2 0.58161994E+00 0.12410667E+03</pdfrwt>
<totfact> 0.40470877E-01</totfact>
</mgrwt>
</event>
<event>
13    1  0.2742815E-008  0.7827045E+02  0.7546771E-02  0.1381609E+00
         -1   -1    0    0    0  501 -0.00000000000E+00  0.00000000000E+00  0.96638889825E+02  0.96638889825E+02  0.00000000000E+00 0.  1.
          2   -1    0    0  503    0  0.00000000000E+00 -0.00000000000E+00 -0.27338850863E+04  0.27338850863E+04  0.00000000000E+00 0. -1.
         25    2    1    2    0    0  0.18213171171E+03  0.38800266473E+02 -0.16386016036E+03  0.27776350231E+03  0.12499995989E+03 0.  0.
         24    2    1    2    0    0 -0.51016825989E+02  0.16782419911E+02 -0.21545272371E+03  0.23479979077E+03  0.76332820208E+02 0.  0.
         24    2    1    2    0    0 -0.13142590875E+02 -0.30049076642E+02 -0.22618091738E+03  0.24245075320E+03  0.80925185433E+02 0.  0.
        -11    1    4    4    0    0 -0.45661091902E+02 -0.97436428016E+01 -0.19596934492E+03  0.20145435720E+03  0.00000000000E+00 0.  1.
         12    1    4    4    0    0 -0.53557340876E+01  0.26526062713E+02 -0.19483378787E+02  0.33345433564E+02  0.00000000000E+00 0. -1.
        -13    1    5    5    0    0 -0.32968541059E+02  0.15949877622E+02 -0.10984665099E+03  0.11579123468E+03  0.00000000000E+00 0.  1.
         14    1    5    5    0    0  0.19825950183E+02 -0.45998954263E+02 -0.11633426640E+03  0.12665951852E+03  0.00000000000E+00 0. -1.
          5    1    3    3  502    0  0.46716485181E+01  0.32488827716E+02  0.39578086836E+01  0.33393150133E+02  0.47000000000E+01 0.  1.
         -5    1    3    3    0  502  0.17746006320E+03  0.63114387572E+01 -0.16781796904E+03  0.24437035217E+03  0.47000000000E+01 0.  1.
          1    1    1    2  503    0 -0.51682583462E+02  0.86488946526E+01 -0.19887037224E+04  0.19893939751E+04  0.00000000000E+00 0. -1.
         -2    1    1    2    0  501 -0.66289711387E+02 -0.34182504395E+02 -0.43048672643E+02  0.86115954729E+02  0.00000000000E+00 0.  1.
<mgrwt>
<rscale>  0 0.64042727E+02</rscale>
<asrwt>0</asrwt>
<pdfrwt beam="2">  1        2 0.40204200E+00 0.52401267E+02</pdfrwt>
<pdfrwt beam="1">  1       -1 0.14211599E-01 0.78270452E+02</pdfrwt>
<totfact> 0.16514609E+02</totfact>
</mgrwt>
</event>
<event>
13    1  0.2742815E-008  0.7382001E+02  0.7546771E-02  0.1387484E+00
          2   -1    0    0  502    0  0.00000000000E+00  0.00000000000E+00  0.27039974537E+04  0.27039974537E+04  0.00000000000E+00 0. -1.
          2   -1    0    0  503    0 -0.00000000000E+00 -0.00000000000E+00 -0.10731132589E+04  0.10731132589E+04  0.00000000000E+00 0. -1.
         25    2    1    2    0    0  0.30991163958E+03  0.23049544831E+03 -0.37990832455E+03  0.55599237417E+03  0.12499523604E+03 0.  0.
         24    2    1    2    0    0 -0.30273710444E+03 -0.76658706991E+02  0.11333781304E+04  0.11783319134E+04  0.79961239570E+02 0.  0.
         24    2    1    2    0    0 -0.67433861911E+02 -0.25224595742E+03  0.10888973967E+04  0.11229958602E+04  0.85128213926E+02 0.  0.
        -11    1    4    4    0    0 -0.41873934220E+02 -0.94221639021E+00  0.77721116884E+02  0.88288652433E+02  0.00000000000E+00 0.  1.
         12    1    4    4    0    0 -0.26086317022E+03 -0.75716490601E+02  0.10556570135E+04  0.10900432609E+04  0.00000000000E+00 0. -1.
        -13    1    5    5    0    0  0.54401851897E+01  0.10966142309E+01  0.48950546441E+01  0.73999822728E+01  0.00000000000E+00 0.  1.
         14    1    5    5    0    0 -0.72874047101E+02 -0.25334257165E+03  0.10840023421E+04  0.11155958780E+04  0.00000000000E+00 0. -1.
          5    1    3    3  501    0  0.10316018744E+03  0.10691952090E+03 -0.72371296113E+02  0.16532846919E+03  0.47000000000E+01 0. -1.
         -5    1    3    3    0  501  0.20675145214E+03  0.12357592741E+03 -0.30753702844E+03  0.39066390498E+03  0.47000000000E+01 0. -1.
          1    1    1    2  502    0  0.14236029780E+02  0.72168921765E+02  0.34907161216E+03  0.35673801063E+03  0.00000000000E+00 0. -1.
          1    1    1    2  503    0  0.46023296985E+02  0.26240294340E+02 -0.56055461986E+03  0.56305255417E+03  0.00000000000E+00 0. -1.
<mgrwt>
<rscale>  0 0.62536838E+02</rscale>
<asrwt>0</asrwt>
<pdfrwt beam="1">  1        2 0.39764668E+00 0.73820006E+02</pdfrwt>
<pdfrwt beam="2">  1        2 0.15781077E+00 0.52978268E+02</pdfrwt>
<totfact> 0.18534873E+01</totfact>
</mgrwt>
</event>
<event>
13    1  0.2742815E-008  0.4393533E+02  0.7546771E-02  0.1705510E+00
          4   -1    0    0  503    0 -0.00000000000E+00  0.00000000000E+00  0.20443089813E+03  0.20443089813E+03  0.00000000000E+00 0. -1.
          2   -1    0    0  502    0  0.00000000000E+00 -0.00000000000E+00 -0.38898023897E+04  0.38898023897E+04  0.00000000000E+00 0. -1.
         25    2    1    2    0    0  0.41846227424E+01 -0.96435523117E+02  0.86924679086E+02  0.18027638101E+03  0.12500541000E+03 0.  0.
         24    2    1    2    0    0 -0.57593564716E+02 -0.22934272343E+02 -0.38486996499E+02  0.10860700382E+03  0.80443973267E+02 0.  0.
         24    2    1    2    0    0  0.13958469730E+02  0.11008434664E+03 -0.12750184117E+04  0.12823464944E+04  0.80169690302E+02 0.  0.
        -13    1    4    4    0    0 -0.30343846258E+02 -0.31334384453E+02  0.16524854995E+02  0.46644008055E+02  0.00000000000E+00 0.  1.
         14    1    4    4    0    0 -0.27249718458E+02  0.84001121106E+01 -0.55011851494E+02  0.61962995766E+02  0.00000000000E+00 0. -1.
        -13    1    5    5    0    0  0.28042886931E+02  0.23630488626E+01 -0.28429513913E+03  0.28568464019E+03  0.00000000000E+00 0.  1.
         14    1    5    5    0    0 -0.14084417200E+02  0.10772129777E+03 -0.99072327258E+03  0.99666185421E+03  0.00000000000E+00 0. -1.
          5    1    3    3  501    0  0.47777682325E+02 -0.17937478587E+02 -0.52411701530E+01  0.51517180930E+02  0.47000000000E+01 0.  1.
         -5    1    3    3    0  501 -0.43593059583E+02 -0.78498044531E+02  0.92165849239E+02  0.12875920008E+03  0.47000000000E+01 0.  1.
          1    1    1    2  502    0  0.43930255820E+02 -0.95385291181E+00 -0.24897246761E+04  0.24901123950E+04  0.00000000000E+00 0. -1.
          3    1    1    2  503    0 -0.44797835775E+01  0.10239301735E+02  0.30933913638E+02  0.32891013573E+02  0.00000000000E+00 0. -1.
<mgrwt>
<rscale>  0 0.22159389E+02</rscale>
<asrwt>0</asrwt>
<pdfrwt beam="2">  1        2 0.57202971E+00 0.43935329E+02</pdfrwt>
<pdfrwt beam="1">  1        4 0.30063370E-01 0.11176393E+02</pdfrwt>
<totfact> 0.36901671E+00</totfact>
</mgrwt>
</event>
<event>
13    1  0.2742815E-008  0.6320680E+02  0.7546771E-02  0.1536685E+00
         -1   -1    0    0    0  501 -0.00000000000E+00  0.00000000000E+00  0.52428753587E+02  0.52428753587E+02  0.00000000000E+00 0.  1.
          2   -1    0    0  503    0  0.00000000000E+00 -0.00000000000E+00 -0.41876823143E+04  0.41876823143E+04  0.00000000000E+00 0. -1.
         25    2    1    2    0    0  0.42158480126E+02 -0.15263495269E+02 -0.10008408151E+03  0.16628343004E+03  0.12499217576E+03 0.  0.
         24    2    1    2    0    0  0.92540928636E+01 -0.10499436528E+02 -0.31933228157E+03  0.32956011756E+03  0.80255147073E+02 0.  0.
         24    2    1    2    0    0 -0.12542830712E+02 -0.97104473759E+01 -0.67417387246E+03  0.67914835902E+03  0.80501353142E+02 0.  0.
        -11    1    4    4    0    0  0.42577324863E+02 -0.17019709683E+02 -0.14978788842E+03  0.15664900455E+03  0.00000000000E+00 0.  1.
         12    1    4    4    0    0 -0.33323232000E+02  0.65202731546E+01 -0.16954439315E+03  0.17291111301E+03  0.00000000000E+00 0. -1.
        -13    1    5    5    0    0 -0.46481526646E+02 -0.95007584818E+01 -0.34947848903E+03  0.35268401016E+03  0.00000000000E+00 0.  1.
         14    1    5    5    0    0  0.33938695934E+02 -0.20968889411E+00 -0.32469538344E+03  0.32646434886E+03  0.00000000000E+00 0. -1.
          5    1    3    3  502    0  0.41467468385E+01  0.50416193151E+02 -0.65131406640E+02  0.82602531270E+02  0.47000000000E+01 0.  1.
         -5    1    3    3    0  502  0.38011733287E+02 -0.65679688421E+02 -0.34952674869E+02  0.83680898771E+02  0.47000000000E+01 0.  1.
          1    1    1    2  503    0 -0.57639833208E+02  0.26195107120E+02 -0.30434467947E+04  0.30441052751E+04  0.00000000000E+00 0. -1.
         -2    1    1    2    0  501  0.18770090930E+02  0.92782720529E+01  0.17834695380E+01  0.21013886109E+02  0.00000000000E+00 0.  1.
<mgrwt>
<rscale>  0 0.36378953E+02</rscale>
<asrwt>0</asrwt>
<pdfrwt beam="2">  1        2 0.61583573E+00 0.63206800E+02</pdfrwt>
<pdfrwt beam="1">  1       -1 0.77101097E-02 0.20938067E+02</pdfrwt>
<totfact> 0.50495789E+01</totfact>
</mgrwt>
</event>
<event>
13    1  0.2742815E-008  0.9410795E+02  0.7546771E-02  0.1384900E+00
          2   -1    0    0  502    0  0.00000000000E+00  0.00000000000E+00  0.10826917466E+04  0.10826917466E+04  0.00000000000E+00 0. -1.
          2   -1    0    0  503    0 -0.00000000000E+00 -0.00000000000E+00 -0.11398234776E+04  0.11398234776E+04  0.00000000000E+00 0. -1.
         25    2    1    2    0    0  0.23495480307E+03  0.10907091485E+03 -0.12665918029E+03  0.31427738290E+03  0.12501000559E+03 0.  0.
         24    2    1    2    0    0 -0.16754282622E+03 -0.93901347662E+02 -0.87367210205E+02  0.22571273945E+03  0.80157030999E+02 0.  0.
         24    2    1    2    0    0 -0.46428274016E+01 -0.12740059996E+02  0.13473063868E+02  0.82841706727E+02  0.80606202915E+02 0.  0.
        -11    1    5    5    0    0  0.50750554402E+01 -0.45734623879E+02  0.15037872681E+02  0.48410222307E+02  0.00000000000E+00 0.  1.
         12    1    5    5    0    0 -0.97178828418E+01  0.32994563882E+02 -0.15648088126E+01  0.34431484420E+02  0.00000000000E+00 0. -1.
        -11    1    4    4    0    0 -0.15678816413E+03 -0.52688548556E+02 -0.66340737542E+02  0.17821252766E+03  0.00000000000E+00 0.  1.
         12    1    4    4    0    0 -0.10754662099E+02 -0.41212799105E+02 -0.21026472663E+02  0.47500211785E+02  0.00000000000E+00 0. -1.
          5    1    3    3  501    0  0.12203294738E+03  0.11830440912E+03 -0.10184463830E+03  0.19819786532E+03  0.47000000000E+01 0.  1.
         -5    1    3    3    0  501  0.11292185569E+03 -0.92334942684E+01 -0.24814541987E+02  0.11607951758E+03  0.47000000000E+01 0.  1.
          1    1    1    2  502    0 -0.86444266696E+02 -0.37645110824E+02  0.86838028071E+03  0.87348387365E+03  0.00000000000E+00 0. -1.
          1    1    1    2  503    0  0.23675117250E+02  0.35215603629E+02 -0.72495868505E+03  0.72619952144E+03  0.00000000000E+00 0. -1.
<mgrwt>
<rscale>  0 0.63193219E+02</rscale>
<asrwt>0</asrwt>
<pdfrwt beam="1">  1        2 0.15921938E+00 0.94107950E+02</pdfrwt>
<pdfrwt beam="2">  1        2 0.16762110E+00 0.42434066E+02</pdfrwt>
<totfact> 0.10630576E+02</totfact>
</mgrwt>
</event>
<event>
13    1  0.2742815E-008  0.2320015E+02  0.7546771E-02  0.1700646E+00
          2   -1    0    0  502    0  0.00000000000E+00  0.00000000000E+00  0.65177097384E+03  0.65177097384E+03  0.00000000000E+00 0. -1.
          2   -1    0    0  503    0 -0.00000000000E+00 -0.00000000000E+00 -0.30351332071E+03  0.30351332071E+03  0.00000000000E+00 0. -1.
         25    2    1    2    0    0 -0.60345007347E+02 -0.11614158117E+03 -0.72300527390E+02  0.19489075118E+03  0.12499860738E+03 0.  0.
         24    2    1    2    0    0 -0.61889524995E+02  0.63211545672E+02  0.12512689004E+02  0.12060486487E+03  0.81012056099E+02 0.  0.
         24    2    1    2    0    0  0.12456493338E+03  0.15476781638E+02  0.19555498941E+03  0.24525287008E+03  0.78429987898E+02 0.  0.
        -11    1    5    5    0    0 -0.24609795721E+01 -0.98574490848E+01  0.47327373240E+02  0.48405639968E+02  0.00000000000E+00 0.  1.
         12    1    5    5    0    0  0.12702591295E+03  0.25334230723E+02  0.14822761617E+03  0.19684723011E+03  0.00000000000E+00 0. -1.
        -13    1    4    4    0    0 -0.29803967840E+02 -0.80010422736E+01  0.27192115033E+02  0.41130333045E+02  0.00000000000E+00 0.  1.
         14    1    4    4    0    0 -0.32085557156E+02  0.71212587946E+02 -0.14679426029E+02  0.79474531823E+02  0.00000000000E+00 0. -1.
          5    1    3    3  501    0 -0.95999976395E+02 -0.10401931659E+03 -0.46763325523E+02  0.14914728394E+03  0.47000000000E+01 0. -1.
         -5    1    3    3    0  501  0.35654969047E+02 -0.12122264579E+02 -0.25537201868E+02  0.45743467244E+02  0.47000000000E+01 0. -1.
          1    1    1    2  502    0  0.11073480970E+02  0.20366382112E+02  0.30176688048E+03  0.30265601210E+03  0.00000000000E+00 0. -1.
          1    1    1    2  503    0 -0.13403882004E+02  0.17086871748E+02 -0.89276378374E+02  0.91879796334E+02  0.00000000000E+00 0. -1.
<mgrwt>
<rscale>  0 0.22446294E+02</rscale>
<asrwt>0</asrwt>
<pdfrwt beam="1">  1        2 0.95848673E-01 0.23200148E+02</pdfrwt>
<pdfrwt beam="2">  1        2 0.44634312E-01 0.21716934E+02</pdfrwt>
<totfact> 0.87434088E+02</totfact>
</mgrwt>
</event>
<event>
13    1  0.2742815E-008  0.3034331E+02  0.7546771E-02  0.1662429E+00
          2   -1    0    0  502    0  0.00000000000E+00  0.00000000000E+00  0.16633549378E+04  0.16633549378E+04  0.00000000000E+00 0. -1.
          2   -1    0    0  503    0 -0.00000000000E+00 -0.00000000000E+00 -0.14832117940E+04  0.14832117940E+04  0.00000000000E+00 0. -1.
         25    2    1    2    0    0 -0.29944653754E+03 -0.69547069724E+02 -0.27687287275E+03  0.43219043082E+03  0.12499982829E+03 0.  0.
         24    2    1    2    0    0  0.60099247114E+03 -0.53384352015E+03 -0.65562301169E+03  0.10401842236E+04  0.77206419497E+02 0.  0.
         24    2    1    2    0    0 -0.26326040947E+03  0.63417349345E+03  0.75400134917E+03  0.10227828012E+04  0.78003595703E+02 0.  0.
        -11    1    5    5    0    0 -0.25996385439E+03  0.56954637500E+03  0.69161347893E+03  0.93289521550E+03  0.00000000000E+00 0.  1.
         12    1    5    5    0    0 -0.32965550831E+01  0.64627118449E+02  0.62387870240E+02  0.89887585725E+02  0.00000000000E+00 0. -1.
        -13    1    4    4    0    0  0.23090016747E+03 -0.15608023941E+03 -0.22837777076E+03  0.36032254252E+03  0.00000000000E+00 0.  1.
         14    1    4    4    0    0  0.37009230368E+03 -0.37776328075E+03 -0.42724524093E+03  0.67986168109E+03  0.00000000000E+00 0. -1.
          5    1    3    3  501    0 -0.21303020876E+01  0.19988857034E+02 -0.11053855765E+02  0.23417308124E+02  0.47000000000E+01 0. -1.
         -5    1    3    3    0  501 -0.29731623545E+03 -0.89535926758E+02 -0.26581901699E+03  0.40877312269E+03  0.47000000000E+01 0. -1.
          1    1    1    2  502    0 -0.11250174464E+02 -0.17058968539E+02  0.50324397358E+03  0.50365868580E+03  0.00000000000E+00 0. -1.
          1    1    1    2  503    0 -0.27035349667E+02 -0.13723935029E+02 -0.14460629449E+03  0.14775059028E+03  0.00000000000E+00 0. -1.
<mgrwt>
<rscale>  0 0.24900901E+02</rscale>
<asrwt>0</asrwt>
<pdfrwt beam="1">  1        2 0.24461102E+00 0.20434648E+02</pdfrwt>
<pdfrwt beam="2">  1        2 0.21811938E+00 0.30343310E+02</pdfrwt>
<totfact> 0.43311041E+01</totfact>
</mgrwt>
</event>
<event>
13    1  0.2742815E-008  0.3877901E+02  0.7546771E-02  0.1519147E+00
          2   -1    0    0  503    0  0.00000000000E+00  0.00000000000E+00  0.11846511071E+04  0.11846511071E+04  0.00000000000E+00 0. -1.
          2   -1    0    0  502    0 -0.00000000000E+00 -0.00000000000E+00 -0.23997340985E+04  0.23997340985E+04  0.00000000000E+00 0. -1.
         25    2    1    2    0    0  0.28100866824E+02 -0.22326851830E+03 -0.93445311783E+03  0.96925805850E+03  0.12498025669E+03 0.  0.
         24    2    1    2    0    0 -0.25782471287E+03 -0.28894452131E+03 -0.40822172379E+03  0.57347536075E+03  0.11075420826E+03 0.  0.
         24    2    1    2    0    0  0.19430076960E+03  0.51599244204E+03  0.11887687463E+03  0.56984654906E+03  0.81193527109E+02 0.  0.
        -11    1    4    4    0    0 -0.11046739126E+03 -0.19649381387E+03 -0.26685109516E+03  0.34931700561E+03  0.00000000000E+00 0.  1.
         12    1    4    4    0    0 -0.14735732160E+03 -0.92450707444E+02 -0.14137062863E+03  0.22415835514E+03  0.00000000000E+00 0. -1.
        -11    1    5    5    0    0  0.25296765595E+02  0.15942307238E+03  0.52278766796E+02  0.16967236609E+03  0.00000000000E+00 0.  1.
         12    1    5    5    0    0  0.16900400401E+03  0.35656936966E+03  0.66598107839E+02  0.40017418298E+03  0.00000000000E+00 0. -1.
          5    1    3    3  501    0  0.65742455357E+02 -0.17491893267E+03 -0.79807038170E+03  0.81966891340E+03  0.47000000000E+01 0.  1.
         -5    1    3    3    0  501 -0.37641588533E+02 -0.48349585630E+02 -0.13638273613E+03  0.14958914510E+03  0.47000000000E+01 0.  1.
          1    1    1    2  502    0  0.20844181926E+02  0.32162030720E+02 -0.73053441821E+03  0.73153907095E+03  0.00000000000E+00 0. -1.
          1    1    1    2  503    0  0.14578894514E+02 -0.35941433149E+02  0.73924939375E+03  0.74026616629E+03  0.00000000000E+00 0. -1.
<mgrwt>
<rscale>  0 0.38551800E+02</rscale>
<asrwt>0</asrwt>
<pdfrwt beam="1">  1        2 0.17421340E+00 0.38779012E+02</pdfrwt>
<pdfrwt beam="2">  1        2 0.35290207E+00 0.38325920E+02</pdfrwt>
<totfact> 0.25492814E+01</totfact>
</mgrwt>
</event>
<event>
13    1  0.2742815E-008  0.6199530E+02  0.7546771E-02  0.1492139E+00
         -1   -1    0    0    0  501 -0.00000000000E+00  0.00000000000E+00  0.53402298154E+03  0.53402298154E+03  0.00000000000E+00 0.  1.
          2   -1    0    0  503    0  0.00000000000E+00 -0.00000000000E+00 -0.25621882489E+04  0.25621882489E+04  0.00000000000E+00 0. -1.
         25    2    1    2    0    0 -0.10733126402E+03 -0.13917573736E+03 -0.17521852337E+03  0.27787708926E+03  0.12499703876E+03 0.  0.
         24    2    1    2    0    0 -0.97275716134E+02  0.36729630039E+03 -0.22455564044E+03  0.44852176531E+03  0.79858631776E+02 0.  0.
         24    2    1    2    0    0  0.20366561486E+03 -0.26252767548E+03 -0.90274236916E+03  0.96351703623E+03  0.54962086602E+02 0.  0.
        -11    1    4    4    0    0 -0.61543057507E+02  0.20290530314E+03 -0.79688819628E+02  0.22651361536E+03  0.00000000000E+00 0.  1.
         12    1    4    4    0    0 -0.35732658627E+02  0.16439099725E+03 -0.14486682081E+03  0.22200814994E+03  0.00000000000E+00 0. -1.
        -13    1    5    5    0    0  0.30654841274E+02 -0.61102159576E+02 -0.13831021965E+03  0.15428191747E+03  0.00000000000E+00 0.  1.
         14    1    5    5    0    0  0.17301077359E+03 -0.20142551590E+03 -0.76443214952E+03  0.80923511877E+03  0.00000000000E+00 0. -1.
          5    1    3    3  502    0 -0.66177558615E+02 -0.62739858721E+02 -0.10877548122E+02  0.91957436837E+02  0.47000000000E+01 0.  1.
         -5    1    3    3    0  502 -0.41153705401E+02 -0.76435878639E+02 -0.16434097525E+03  0.18591965242E+03  0.47000000000E+01 0.  1.
          1    1    1    2  503    0  0.12294672613E+02  0.60897920889E+02 -0.10644544789E+04  0.10662659394E+04  0.00000000000E+00 0. -1.
         -2    1    1    2    0  501 -0.11353307322E+02 -0.26490808444E+02  0.33880574454E+03  0.34002940027E+03  0.00000000000E+00 0.  1.
<mgrwt>
<rscale>  0 0.42270296E+02</rscale>
<asrwt>0</asrwt>
<pdfrwt beam="2">  1        2 0.37679239E+00 0.61995305E+02</pdfrwt>
<pdfrwt beam="1">  1       -1 0.78532791E-01 0.28821182E+02</pdfrwt>
<totfact> 0.10814736E+01</totfact>
</mgrwt>
</event>
<event>
13    1  0.2742815E-008  0.7133339E+02  0.7546771E-02  0.1437457E+00
          2   -1    0    0  503    0  0.00000000000E+00  0.00000000000E+00  0.91410020386E+03  0.91410020386E+03  0.00000000000E+00 0. -1.
          2   -1    0    0  502    0 -0.00000000000E+00 -0.00000000000E+00 -0.92796103769E+03  0.92796103769E+03  0.00000000000E+00 0. -1.
         25    2    1    2    0    0  0.36839602474E+02  0.12870760446E+02 -0.26716834189E+03  0.29753486133E+03  0.12500103204E+03 0.  0.
         24    2    1    2    0    0  0.26995002482E+02 -0.20640921189E+02 -0.11321732528E+03  0.14402370105E+03  0.82279316560E+02 0.  0.
         24    2    1    2    0    0  0.16073245293E+01 -0.45163255315E+01  0.44906144365E+02  0.98244578857E+02  0.87249382718E+02 0.  0.
        -11    1    5    5    0    0  0.26566540649E+02 -0.12282944916E+02 -0.14996607259E+02  0.32886928211E+02  0.00000000000E+00 0.  1.
         12    1    5    5    0    0 -0.24959216120E+02  0.77666193841E+01  0.59902751623E+02  0.65357650646E+02  0.00000000000E+00 0. -1.
        -13    1    4    4    0    0  0.14212195308E+01  0.29519493479E+02 -0.22055681990E+02  0.36876462253E+02  0.00000000000E+00 0.  1.
         14    1    4    4    0    0  0.25573782951E+02 -0.50160414668E+02 -0.91161643292E+02  0.10714723880E+03  0.00000000000E+00 0. -1.
          5    1    3    3  501    0  0.73297778765E+02  0.35492586544E+02 -0.12761944133E+03  0.15146319645E+03  0.47000000000E+01 0. -1.
         -5    1    3    3    0  501 -0.36458176291E+02 -0.22621826098E+02 -0.13954890056E+03  0.14607166488E+03  0.47000000000E+01 0. -1.
          1    1    1    2  502    0 -0.67252427584E+02 -0.24838662490E+02 -0.48726999466E+03  0.49251588387E+03  0.00000000000E+00 0. -1.
          1    1    1    2  503    0  0.18104980984E+01  0.37125148764E+02  0.80888868363E+03  0.80974221644E+03  0.00000000000E+00 0. -1.
<mgrwt>
<rscale>  0 0.51491844E+02</rscale>
<asrwt>0</asrwt>
<pdfrwt beam="1">  1        2 0.13442650E+00 0.37169269E+02</pdfrwt>
<pdfrwt beam="2">  1        2 0.13646486E+00 0.71333390E+02</pdfrwt>
<totfact> 0.17621523E+02</totfact>
</mgrwt>
</event>
<event>
13    1  0.2742815E-008  0.7930293E+02  0.7546771E-02  0.1422051E+00
         -1   -1    0    0    0  501 -0.00000000000E+00  0.00000000000E+00  0.30304917508E+03  0.30304917508E+03  0.00000000000E+00 0.  1.
          2   -1    0    0  503    0  0.00000000000E+00 -0.00000000000E+00 -0.66853942451E+03  0.66853942451E+03  0.00000000000E+00 0. -1.
         25    2    1    2    0    0  0.48817857783E+02  0.15194345418E+03  0.75818445047E+02  0.21643671656E+03  0.12500567652E+03 0.  0.
         24    2    1    2    0    0 -0.35367066661E+02 -0.14782153930E+03 -0.40660814274E+01  0.17490230843E+03  0.86442163278E+02 0.  0.
         24    2    1    2    0    0  0.26802940178E+02 -0.25026057931E+02 -0.83385364940E+02  0.11953488104E+03  0.77400048581E+02 0.  0.
        -13    1    5    5    0    0  0.83775682623E+01  0.27602131023E+02 -0.19928355231E+02  0.35059957633E+02  0.00000000000E+00 0.  1.
         14    1    5    5    0    0  0.18425371916E+02 -0.52628188954E+02 -0.63457009708E+02  0.84474923403E+02  0.00000000000E+00 0. -1.
        -13    1    4    4    0    0 -0.40639354556E+01 -0.14026924548E+03 -0.14445230340E+02  0.14106963344E+03  0.00000000000E+00 0.  1.
         14    1    4    4    0    0 -0.31303131206E+02 -0.75522938205E+01  0.10379148913E+02  0.33832674996E+02  0.00000000000E+00 0. -1.
          5    1    3    3  502    0 -0.11475315110E+02  0.36274464086E+02 -0.29781138358E+02  0.48544060435E+02  0.47000000000E+01 0.  1.
         -5    1    3    3    0  502  0.60293172892E+02  0.11566899009E+03  0.10559958341E+03  0.16789265613E+03  0.47000000000E+01 0.  1.
          1    1    1    2  503    0 -0.77741075119E+02  0.18303783666E+02 -0.39616095648E+03  0.40413142255E+03  0.00000000000E+00 0. -1.
         -2    1    1    2    0  501  0.37487343820E+02  0.26003593890E+01  0.42303708365E+02  0.56583271000E+02  0.00000000000E+00 0.  1.
<mgrwt>
<rscale>  0 0.54589376E+02</rscale>
<asrwt>0</asrwt>
<pdfrwt beam="2">  1        2 0.98314619E-01 0.79302934E+02</pdfrwt>
<pdfrwt beam="1">  1       -1 0.44566056E-01 0.37577424E+02</pdfrwt>
<totfact> 0.28195127E+02</totfact>
</mgrwt>
</event>
<event>
13    1  0.2742815E-008  0.5363482E+02  0.7546771E-02  0.1579376E+00
          2   -1    0    0  502    0  0.00000000000E+00  0.00000000000E+00  0.24393969366E+04  0.24393969366E+04  0.00000000000E+00 0. -1.
          2   -1    0    0  503    0 -0.00000000000E+00 -0.00000000000E+00 -0.11096035439E+04  0.11096035439E+04  0.00000000000E+00 0. -1.
         25    2    1    2    0    0  0.55885281995E+03  0.20474815282E+02 -0.28515682809E+03  0.64005896462E+03  0.12500147665E+03 0.  0.
         24    2    1    2    0    0 -0.49193585004E+03  0.58335449958E+03  0.17455709586E+03  0.78636407797E+03  0.74799269243E+02 0.  0.
         24    2    1    2    0    0 -0.50351062421E+02 -0.63637838438E+03  0.53140315384E+03  0.83427029300E+03  0.78134066101E+02 0.  0.
        -11    1    4    4    0    0 -0.15292146515E+03  0.22566821930E+03  0.84393706121E+02  0.28536541020E+03  0.00000000000E+00 0.  1.
         12    1    4    4    0    0 -0.33901438489E+03  0.35768628027E+03  0.90163389736E+02  0.50099866777E+03  0.00000000000E+00 0. -1.
        -13    1    5    5    0    0 -0.50781038853E+02 -0.25664704085E+03  0.24750027533E+03  0.36014275471E+03  0.00000000000E+00 0.  1.
         14    1    5    5    0    0  0.42997643235E+00 -0.37973134354E+03  0.28390287850E+03  0.47412753829E+03  0.00000000000E+00 0. -1.
          5    1    3    3  501    0  0.40296751120E+03 -0.27912563993E+01 -0.26200508188E+03  0.48068634173E+03  0.47000000000E+01 0. -1.
         -5    1    3    3    0  501  0.15588530875E+03  0.23266071682E+02 -0.23151746206E+02  0.15937262290E+03  0.47000000000E+01 0. -1.
          1    1    1    2  502    0 -0.87169382882E+00 -0.18790581199E+02  0.10947671195E+04  0.10949287154E+04  0.00000000000E+00 0. -1.
          1    1    1    2  503    0 -0.15694213655E+02  0.51339650723E+02 -0.18577714849E+03  0.19337842946E+03  0.00000000000E+00 0. -1.
<mgrwt>
<rscale>  0 0.31763397E+02</rscale>
<asrwt>0</asrwt>
<pdfrwt beam="1">  1        2 0.35873484E+00 0.18810789E+02</pdfrwt>
<pdfrwt beam="2">  1        2 0.16317699E+00 0.53634824E+02</pdfrwt>
<totfact> 0.29165235E+01</totfact>
</mgrwt>
</event>
<event>
13    1  0.2742815E-008  0.3000658E+02  0.7546771E-02  0.1616011E+00
          2   -1    0    0  502    0  0.00000000000E+00  0.00000000000E+00  0.13935638808E+04  0.13935638808E+04  0.00000000000E+00 0. -1.
          2   -1    0    0  503    0 -0.00000000000E+00 -0.00000000000E+00 -0.81067830156E+03  0.81067830156E+03  0.00000000000E+00 0. -1.
         25    2    1    2    0    0 -0.62835516724E+02  0.30700861513E+02 -0.11507437049E+03  0.18373311706E+03  0.12499961001E+03 0.  0.
         24    2    1    2    0    0  0.55425822201E+02  0.75160823384E+02 -0.34156034831E+02  0.12870698534E+03  0.81717086478E+02 0.  0.
         24    2    1    2    0    0  0.91935487683E+01 -0.66983049330E+02  0.88613177090E+03  0.89235768407E+03  0.80631697704E+02 0.  0.
        -13    1    4    4    0    0  0.20283332624E+02  0.56404308743E+02 -0.57060164995E+02  0.82757006087E+02  0.00000000000E+00 0.  1.
         14    1    4    4    0    0  0.35142489577E+02  0.18756514641E+02  0.22904130164E+02  0.45949979257E+02  0.00000000000E+00 0. -1.
        -13    1    5    5    0    0 -0.19407983023E+02 -0.74224900626E+01  0.58279662032E+02  0.61873113468E+02  0.00000000000E+00 0.  1.
         14    1    5    5    0    0  0.28601531791E+02 -0.59560559267E+02  0.82785210887E+03  0.83048457060E+03  0.00000000000E+00 0. -1.
          5    1    3    3  501    0 -0.65665366229E+02 -0.36825616183E+02 -0.63072901862E+02  0.98327754365E+02  0.47000000000E+01 0. -1.
         -5    1    3    3    0  501  0.28298495045E+01  0.67526477696E+02 -0.52001468627E+02  0.85405362698E+02  0.47000000000E+01 0. -1.
          1    1    1    2  502    0 -0.21706325214E+02 -0.20723955102E+02  0.42186603812E+03  0.42293214703E+03  0.00000000000E+00 0. -1.
          1    1    1    2  503    0  0.19922470969E+02 -0.18154680465E+02 -0.57588182449E+03  0.57651224883E+03  0.00000000000E+00 0. -1.
<mgrwt>
<rscale>  0 0.28439161E+02</rscale>
<asrwt>0</asrwt>
<pdfrwt beam="1">  1        2 0.20493587E+00 0.30006584E+02</pdfrwt>
<pdfrwt beam="2">  1        2 0.11921740E+00 0.26953613E+02</pdfrwt>
<totfact> 0.12393525E+02</totfact>
</mgrwt>
</event>
<event>
13    1  0.2742815E-008  0.2541330E+03  0.7546771E-02  0.1363604E+00
          2   -1    0    0  503    0  0.00000000000E+00  0.00000000000E+00  0.43527931316E+04  0.43527931316E+04  0.00000000000E+00 0. -1.
          2   -1    0    0  502    0 -0.00000000000E+00 -0.00000000000E+00 -0.59378159575E+03  0.59378159575E+03  0.00000000000E+00 0. -1.
         25    2    1    2    0    0  0.19358940639E+03  0.25767004211E+03  0.15427899152E+04  0.15810426493E+04  0.12499770949E+03 0.  0.
         24    2    1    2    0    0 -0.19385192371E+03 -0.20246045896E+03  0.66586245473E+03  0.72767420341E+03  0.86995010892E+02 0.  0.
         24    2    1    2    0    0 -0.11611051023E+03  0.16795579903E+03  0.10907532019E+04  0.11132750780E+04  0.89151840878E+02 0.  0.
        -11    1    4    4    0    0 -0.15689993003E+03 -0.17086670853E+03  0.61508299148E+03  0.65737364301E+03  0.00000000000E+00 0.  1.
         12    1    4    4    0    0 -0.36951993682E+02 -0.31593750437E+02  0.50779463252E+02  0.70300560395E+02  0.00000000000E+00 0. -1.
        -11    1    5    5    0    0 -0.82186024925E+01  0.85966729305E+02  0.47510334290E+03  0.48288819660E+03  0.00000000000E+00 0.  1.
         12    1    5    5    0    0 -0.10789190773E+03  0.81989069730E+02  0.61564985900E+03  0.63038688137E+03  0.00000000000E+00 0. -1.
          5    1    3    3  501    0  0.12818674381E+03  0.22444653577E+03  0.98208325280E+03  0.10155381303E+04  0.47000000000E+01 0. -1.
         -5    1    3    3    0  501  0.65402662578E+02  0.33223506335E+02  0.56070666242E+03  0.56550451892E+03  0.47000000000E+01 0. -1.
          1    1    1    2  502    0  0.13460319905E+03 -0.21890096623E+03 -0.50138859842E+03  0.56340587576E+03  0.00000000000E+00 0. -1.
          1    1    1    2  503    0 -0.18230171497E+02 -0.42644159542E+01  0.96099456245E+03  0.96117692100E+03  0.00000000000E+00 0. -1.
<mgrwt>
<rscale>  0 0.68977917E+02</rscale>
<asrwt>0</asrwt>
<pdfrwt beam="1">  1        2 0.64011662E+00 0.18722297E+02</pdfrwt>
<pdfrwt beam="2">  1        2 0.87320825E-01 0.25413298E+03</pdfrwt>
<totfact> 0.53743113E+00</totfact>
</mgrwt>
</event>
<event>
13    1  0.2742815E-008  0.1175765E+03  0.7546771E-02  0.1489189E+00
          2   -1    0    0  502    0  0.00000000000E+00  0.00000000000E+00  0.29245050959E+04  0.29245050959E+04  0.00000000000E+00 0. -1.
          2   -1    0    0  503    0 -0.00000000000E+00 -0.00000000000E+00 -0.12634279038E+04  0.12634279038E+04  0.00000000000E+00 0. -1.
         25    2    1    2    0    0  0.15877858138E+03 -0.44362594719E+02 -0.64539253107E+03  0.67774300365E+03  0.12500152851E+03 0.  0.
         24    2    1    2    0    0  0.29170133832E+02 -0.93729814715E+02 -0.89652789680E+01  0.12746170877E+03  0.80808020024E+02 0.  0.
         24    2    1    2    0    0 -0.31010034097E+03  0.89130328009E+02  0.13162031222E+03  0.35759871266E+03  0.80290073252E+02 0.  0.
        -11    1    5    5    0    0 -0.21514466447E+03  0.92414129455E+02  0.70150125818E+02  0.24443534549E+03  0.00000000000E+00 0.  1.
         12    1    5    5    0    0 -0.94955676502E+02 -0.32838014463E+01  0.61470186405E+02  0.11316336717E+03  0.00000000000E+00 0. -1.
        -13    1    4    4    0    0  0.22882967039E+02 -0.10845701410E+03 -0.10675166084E+02  0.11135759184E+03  0.00000000000E+00 0.  1.
         14    1    4    4    0    0  0.62871667930E+01  0.14727199388E+02  0.17098871161E+01  0.16104116929E+02  0.00000000000E+00 0. -1.
          5    1    3    3  501    0  0.14202488703E+03 -0.60316270919E+02 -0.63204371963E+03  0.65062314330E+03  0.47000000000E+01 0.  1.
         -5    1    3    3    0  501  0.16753694356E+02  0.15953676199E+02 -0.13348811433E+02  0.27119860352E+02  0.47000000000E+01 0.  1.
          1    1    1    2  502    0  0.11127780254E+03  0.37899451207E+02  0.26030021237E+04  0.26056552292E+04  0.00000000000E+00 0. -1.
          1    1    1    2  503    0  0.10873823215E+02  0.11062630219E+02 -0.41918743377E+03  0.41947434540E+03  0.00000000000E+00 0. -1.
<mgrwt>
<rscale>  0 0.42706508E+02</rscale>
<asrwt>0</asrwt>
<pdfrwt beam="1">  1        2 0.43007428E+00 0.11757653E+03</pdfrwt>
<pdfrwt beam="2">  1        2 0.18579822E+00 0.15511990E+02</pdfrwt>
<totfact> 0.11581756E+01</totfact>
</mgrwt>
</event>
<event>
13    1  0.2742815E-008  0.1027129E+03  0.7546771E-02  0.1302925E+00
          2   -1    0    0  502    0  0.00000000000E+00  0.00000000000E+00  0.25423299498E+04  0.25423299498E+04  0.00000000000E+00 0. -1.
          2   -1    0    0  503    0 -0.00000000000E+00 -0.00000000000E+00 -0.11422786603E+04  0.11422786603E+04  0.00000000000E+00 0. -1.
         25    2    1    2    0    0  0.91521193123E+02 -0.14846961948E+03  0.44839787588E+02  0.21921544074E+03  0.12500178483E+03 0.  0.
         24    2    1    2    0    0 -0.50973648243E+02  0.22687158356E+02  0.15574049449E+03  0.18455615626E+03  0.81809860181E+02 0.  0.
         24    2    1    2    0    0 -0.66974927248E+01  0.47187581942E+02  0.53462290560E+03  0.54268393685E+03  0.80079209715E+02 0.  0.
        -11    1    5    5    0    0 -0.31369371687E+02  0.40529035690E+02  0.18035373708E+03  0.18749429509E+03  0.00000000000E+00 0.  1.
         12    1    5    5    0    0  0.24671878962E+02  0.66585462523E+01  0.35426916852E+03  0.35518964176E+03  0.00000000000E+00 0. -1.
        -13    1    4    4    0    0 -0.65921399655E+02  0.12444557182E+02  0.15186997680E+03  0.16602706945E+03  0.00000000000E+00 0.  1.
         14    1    4    4    0    0  0.14947751412E+02  0.10242601174E+02  0.38705176841E+01  0.18529086815E+02  0.00000000000E+00 0. -1.
          5    1    3    3  501    0  0.42629292626E+02 -0.15856346685E+03  0.38088537732E+02  0.16861926437E+03  0.47000000000E+01 0. -1.
         -5    1    3    3    0  501  0.48891900497E+02  0.10093847373E+02  0.67512498565E+01  0.50596176374E+02  0.47000000000E+01 0. -1.
          1    1    1    2  502    0  0.63664438125E+02  0.46449194629E+02  0.16980420287E+04  0.16998698243E+04  0.00000000000E+00 0. -1.
          1    1    1    2  503    0 -0.97514490280E+02  0.32145684551E+02 -0.10331939268E+04  0.10382832520E+04  0.00000000000E+00 0. -1.
<mgrwt>
<rscale>  0 0.89969934E+02</rscale>
<asrwt>0</asrwt>
<pdfrwt beam="1">  1        2 0.37387205E+00 0.78807921E+02</pdfrwt>
<pdfrwt beam="2">  1        2 0.16798216E+00 0.10271289E+03</pdfrwt>
<totfact> 0.19554480E+01</totfact>
</mgrwt>
</event>
<event>
13    1  0.2742815E-008  0.1047128E+03  0.7546771E-02  0.1418993E+00
          2   -1    0    0  502    0  0.00000000000E+00  0.00000000000E+00  0.68957203292E+02  0.68957203292E+02  0.00000000000E+00 0. -1.
          2   -1    0    0  503    0 -0.00000000000E+00 -0.00000000000E+00 -0.32487773382E+04  0.32487773382E+04  0.00000000000E+00 0. -1.
         25    2    1    2    0    0  0.53077902074E+02 -0.25103369382E+01 -0.79200269946E+03  0.80357478511E+03  0.12506235977E+03 0.  0.
         24    2    1    2    0    0 -0.62129239900E+02  0.88600328415E+02 -0.64121184791E+03  0.65541102428E+03  0.81859124106E+02 0.  0.
         24    2    1    2    0    0  0.92775121083E+02  0.19760143440E+02 -0.21588531560E+03  0.24908007298E+03  0.80229214769E+02 0.  0.
        -11    1    4    4    0    0 -0.49505466660E+01  0.62776526503E+02 -0.44444420662E+03  0.44888311729E+03  0.00000000000E+00 0.  1.
         12    1    4    4    0    0 -0.57178693234E+02  0.25823801912E+02 -0.19676764129E+03  0.20652790699E+03  0.00000000000E+00 0. -1.
        -13    1    5    5    0    0  0.88191791589E+02 -0.14689256091E+02 -0.15149866693E+03  0.17591308203E+03  0.00000000000E+00 0.  1.
         14    1    5    5    0    0  0.45833294938E+01  0.34449399531E+02 -0.64386648672E+02  0.73166990948E+02  0.00000000000E+00 0. -1.
          5    1    3    3  501    0  0.12753630974E+02  0.25703099491E+02 -0.37487353782E+02  0.47441502085E+02  0.47000000000E+01 0. -1.
         -5    1    3    3    0  501  0.40324271100E+02 -0.28213436430E+02 -0.75451534568E+03  0.75613328303E+03  0.47000000000E+01 0. -1.
          1    1    1    2  502    0 -0.10924455707E+03 -0.91794593220E+02 -0.90104999685E+02  0.16875879699E+03  0.00000000000E+00 0. -1.
          1    1    1    2  503    0  0.25520773814E+02 -0.14055541697E+02 -0.14406152723E+04  0.14409098622E+04  0.00000000000E+00 0. -1.
<mgrwt>
<rscale>  0 0.55234445E+02</rscale>
<asrwt>0</asrwt>
<pdfrwt beam="1">  1        2 0.10140766E-01 0.10471282E+03</pdfrwt>
<pdfrwt beam="2">  1        2 0.47776135E+00 0.29135342E+02</pdfrwt>
<totfact> 0.24366371E+02</totfact>
</mgrwt>
</event>
<event>
13    1  0.2742815E-008  0.1170960E+03  0.7546771E-02  0.1319852E+00
          2   -1    0    0  502    0  0.00000000000E+00  0.00000000000E+00  0.25025488961E+04  0.25025488961E+04  0.00000000000E+00 0. -1.
          2   -1    0    0  503    0 -0.00000000000E+00 -0.00000000000E+00 -0.23575492267E+04  0.23575492267E+04  0.00000000000E+00 0. -1.
         25    2    1    2    0    0 -0.11308839721E+03  0.13386630762E+03 -0.30143444988E+03  0.37038792180E+03  0.12496123855E+03 0.  0.
         24    2    1    2    0    0  0.38406626023E+02 -0.29065536506E+02  0.80489159723E+02  0.12392381704E+03  0.80986006585E+02 0.  0.
         24    2    1    2    0    0 -0.74956678589E+02 -0.10995331248E+03  0.13164667036E+04  0.13256035980E+04  0.80200266523E+02 0.  0.
        -11    1    5    5    0    0 -0.77248578234E+01 -0.39502739303E+02  0.15783318565E+03  0.16288478853E+03  0.00000000000E+00 0.  1.
         12    1    5    5    0    0 -0.67231820765E+02 -0.70450573175E+02  0.11586335180E+04  0.11627188095E+04  0.00000000000E+00 0. -1.
        -11    1    4    4    0    0  0.60602144077E+02 -0.41750989525E+01  0.48801017086E+02  0.77920411874E+02  0.00000000000E+00 0.  1.
         12    1    4    4    0    0 -0.22195518054E+02 -0.24890437553E+02  0.31688142638E+02  0.46003405169E+02  0.00000000000E+00 0. -1.
          5    1    3    3  501    0 -0.90661279505E+01  0.17170861031E-01 -0.12591237528E+03  0.12632581375E+03  0.47000000000E+01 0. -1.
         -5    1    3    3    0  501 -0.10402226926E+03  0.13384913676E+03 -0.17552207460E+03  0.24406210805E+03  0.47000000000E+01 0. -1.
          1    1    1    2  502    0  0.10702797692E+03  0.46399784932E+02  0.10411317637E+04  0.10476465422E+04  0.00000000000E+00 0. -1.
          1    1    1    2  503    0  0.42610472864E+02 -0.41247243566E+02 -0.19916535078E+04  0.19925362437E+04  0.00000000000E+00 0. -1.
<mgrwt>
<rscale>  0 0.83332365E+02</rscale>
<asrwt>0</asrwt>
<pdfrwt beam="1">  1        2 0.36802190E+00 0.11709598E+03</pdfrwt>
<pdfrwt beam="2">  1        2 0.34669841E+00 0.59304195E+02</pdfrwt>
<totfact> 0.52219959E+00</totfact>
</mgrwt>
</event>
<event>
13    1  0.2742815E-008  0.1469506E+03  0.7546771E-02  0.1351545E+00
         -1   -1    0    0    0  501  0.00000000000E+00  0.00000000000E+00  0.94359286589E+03  0.94359286589E+03  0.00000000000E+00 0.  1.
         -1   -1    0    0    0  502 -0.00000000000E+00 -0.00000000000E+00 -0.24232107838E+04  0.24232107838E+04  0.00000000000E+00 0.  1.
         25    2    1    2    0    0 -0.71439563693E+02 -0.97805079263E+02 -0.12954536355E+04  0.13070933592E+04  0.12499393208E+03 0.  0.
         24    2    1    2    0    0 -0.13907312027E+03 -0.17791796717E+03 -0.61787694659E+03  0.66289641023E+03  0.81630838183E+02 0.  0.
         24    2    1    2    0    0  0.23647516661E+03  0.13288856472E+03  0.10479446742E+03  0.30172755093E+03  0.80484529788E+02 0.  0.
        -11    1    4    4    0    0 -0.69854470783E+02 -0.12729203101E+03 -0.47038568578E+03  0.49228609734E+03  0.00000000000E+00 0.  1.
         12    1    4    4    0    0 -0.69218649484E+02 -0.50625936159E+02 -0.14749126081E+03  0.17061031289E+03  0.00000000000E+00 0. -1.
        -11    1    5    5    0    0  0.14485175920E+03  0.95842264930E+02  0.10488001572E+03  0.20289797827E+03  0.00000000000E+00 0.  1.
         12    1    5    5    0    0  0.91623407411E+02  0.37046299792E+02 -0.85548304457E-01  0.98829572661E+02  0.00000000000E+00 0. -1.
          5    1    3    3  503    0 -0.83703959675E+02 -0.51099414251E+02 -0.11405825433E+04  0.11448004765E+04  0.47000000000E+01 0.  1.
         -5    1    3    3    0  503  0.12264395982E+02 -0.46705665012E+02 -0.15487109225E+03  0.16229288268E+03  0.47000000000E+01 0.  1.
         -2    1    1    2    0  501 -0.60667038303E+02  0.13386813369E+03  0.70355306850E+03  0.71874062565E+03  0.00000000000E+00 0.  1.
         -2    1    1    2    0  502  0.34704555654E+02  0.89663480131E+01 -0.37463487171E+03  0.37634570369E+03  0.00000000000E+00 0.  1.
<mgrwt>
<rscale>  0 0.72576273E+02</rscale>
<asrwt>0</asrwt>
<pdfrwt beam="1">  1       -1 0.13876366E+00 0.14695057E+03</pdfrwt>
<pdfrwt beam="2">  1       -1 0.35635453E+00 0.35844129E+02</pdfrwt>
<totfact> 0.94537973E-02</totfact>
</mgrwt>
</event>
<event>
13    1  0.2742815E-008  0.7744876E+02  0.7546771E-02  0.1392998E+00
          2   -1    0    0  503    0  0.00000000000E+00  0.00000000000E+00  0.32326409792E+03  0.32326409792E+03  0.00000000000E+00 0. -1.
          2   -1    0    0  502    0 -0.00000000000E+00 -0.00000000000E+00 -0.97733735753E+03  0.97733735753E+03  0.00000000000E+00 0. -1.
         25    2    1    2    0    0  0.66087776643E+02  0.77054635953E+02 -0.23406385676E+03  0.28410760494E+03  0.12500492391E+03 0.  0.
         24    2    1    2    0    0 -0.18670321704E+02  0.78306019219E+02 -0.39833668537E+02  0.11974404074E+03  0.79192806393E+02 0.  0.
         24    2    1    2    0    0 -0.16109846310E+02 -0.43873869553E+02 -0.67884734569E+02  0.11494672632E+03  0.80124709839E+02 0.  0.
        -11    1    5    5    0    0 -0.24352394942E+02 -0.39406401425E+02  0.94536680752E-01  0.46323995400E+02  0.00000000000E+00 0.  1.
         12    1    5    5    0    0  0.82425486317E+01 -0.44674681279E+01 -0.67979271249E+02  0.68622730921E+02  0.00000000000E+00 0. -1.
        -13    1    4    4    0    0 -0.19135930700E+02  0.82831707065E+02 -0.55873006678E+01  0.85196792591E+02  0.00000000000E+00 0.  1.
         14    1    4    4    0    0  0.46560899634E+00 -0.45256878461E+01 -0.34246367869E+02  0.34547248146E+02  0.00000000000E+00 0. -1.
          5    1    3    3  501    0  0.17583631905E+02 -0.31984701081E+02 -0.29226846149E+02  0.46994720448E+02  0.47000000000E+01 0. -1.
         -5    1    3    3    0  501  0.48504144738E+02  0.10903933703E+03 -0.20483701061E+03  0.23711288449E+03  0.47000000000E+01 0. -1.
          1    1    1    2  502    0 -0.33749241533E+02 -0.34564256395E+02 -0.53963126778E+03  0.54178926188E+03  0.00000000000E+00 0. -1.
          1    1    1    2  503    0  0.24416329037E+01 -0.76922529224E+02  0.22734026804E+03  0.24001382157E+03  0.00000000000E+00 0. -1.
<mgrwt>
<rscale>  0 0.61167179E+02</rscale>
<asrwt>0</asrwt>
<pdfrwt beam="1">  1        2 0.47538839E-01 0.77448759E+02</pdfrwt>
<pdfrwt beam="2">  1        2 0.14372608E+00 0.48308375E+02</pdfrwt>
<totfact> 0.51168075E+02</totfact>
</mgrwt>
</event>
<event>
13    1  0.2742815E-008  0.1391802E+03  0.7546771E-02  0.1296370E+00
          2   -1    0    0  502    0  0.00000000000E+00  0.00000000000E+00  0.44417612379E+03  0.44417612379E+03  0.00000000000E+00 0. -1.
          2   -1    0    0  503    0 -0.00000000000E+00 -0.00000000000E+00 -0.62809765663E+03  0.62809765663E+03  0.00000000000E+00 0. -1.
         25    2    1    2    0    0  0.90723160944E+02 -0.16010170886E+03 -0.32735796607E+02  0.22485183585E+03  0.12499386622E+03 0.  0.
         24    2    1    2    0    0  0.35625373255E+02  0.13528164956E+03 -0.15420726959E+03  0.22311042112E+03  0.80175345903E+02 0.  0.
         24    2    1    2    0    0  0.31547206114E+02 -0.75838370167E+02  0.15837142032E+03  0.19594959669E+03  0.81043525749E+02 0.  0.
        -13    1    5    5    0    0  0.34509172631E+02 -0.18126825044E+02  0.15707129806E+02  0.42025929003E+02  0.00000000000E+00 0.  1.
         14    1    5    5    0    0 -0.29619665174E+01 -0.57711545123E+02  0.14266429052E+03  0.15392366769E+03  0.00000000000E+00 0. -1.
        -13    1    4    4    0    0  0.29251225580E+02  0.43561101682E+01 -0.36121341051E+02  0.46683628533E+02  0.00000000000E+00 0.  1.
         14    1    4    4    0    0  0.63741476753E+01  0.13092553939E+03 -0.11808592854E+03  0.17642679258E+03  0.00000000000E+00 0. -1.
          5    1    3    3  501    0  0.81801053290E+02 -0.12885284110E+03  0.28531423197E+02  0.15534026873E+03  0.47000000000E+01 0.  1.
         -5    1    3    3    0  501  0.89221076536E+01 -0.31248867762E+02 -0.61267219804E+02  0.69511567123E+02  0.47000000000E+01 0.  1.
          1    1    1    2  502    0 -0.61480984151E+02 -0.61027913417E+01  0.11020772493E+03  0.12634436318E+03  0.00000000000E+00 0. -1.
          1    1    1    2  503    0 -0.96414756161E+02  0.10676122081E+03 -0.26555761190E+03  0.30201756358E+03  0.00000000000E+00 0. -1.
<mgrwt>
<rscale>  0 0.92730741E+02</rscale>
<asrwt>0</asrwt>
<pdfrwt beam="1">  1        2 0.65320018E-01 0.61783133E+02</pdfrwt>
<pdfrwt beam="2">  1        2 0.92367303E-01 0.13918023E+03</pdfrwt>
<totfact> 0.60074222E+02</totfact>
</mgrwt>
</event>
<event>
13    1  0.2742815E-008  0.1617561E+03  0.7546771E-02  0.1271342E+00
          2   -1    0    0  502    0  0.00000000000E+00  0.00000000000E+00  0.19898829304E+04  0.19898829304E+04  0.00000000000E+00 0. -1.
          2   -1    0    0  503    0 -0.00000000000E+00 -0.00000000000E+00 -0.94845669385E+03  0.94845669385E+03  0.00000000000E+00 0. -1.
         25    2    1    2    0    0 -0.73176000171E+02  0.84831925231E+02  0.18045138651E+03  0.24645319536E+03  0.12500116829E+03 0.  0.
         24    2    1    2    0    0  0.11828083262E+03  0.19481812541E+02  0.68257941467E+02  0.15857875671E+03  0.78218790074E+02 0.  0.
         24    2    1    2    0    0 -0.94026950183E+02  0.11733595425E+03  0.47734283598E+03  0.50683538407E+03  0.80106990740E+02 0.  0.
        -11    1    4    4    0    0  0.10250578303E+02  0.26571739828E+02 -0.34993244331E+01  0.28694546251E+02  0.00000000000E+00 0.  1.
         12    1    4    4    0    0  0.10803025432E+03 -0.70899272871E+01  0.71757265900E+02  0.12988421046E+03  0.00000000000E+00 0. -1.
        -13    1    5    5    0    0 -0.27098214401E+02  0.83117158733E+02  0.17955406571E+03  0.19970587826E+03  0.00000000000E+00 0.  1.
         14    1    5    5    0    0 -0.66928735783E+02  0.34218795518E+02  0.29778877027E+03  0.30712950581E+03  0.00000000000E+00 0. -1.
          5    1    3    3  501    0  0.86257666080E+01  0.34275343241E+02  0.13565636551E+03  0.14026383179E+03  0.47000000000E+01 0. -1.
         -5    1    3    3    0  501 -0.81801766779E+02  0.50556581990E+02  0.44795020995E+02  0.10618936358E+03  0.47000000000E+01 0. -1.
          1    1    1    2  502    0 -0.56016716600E+01 -0.67124845932E+02  0.11620929136E+04  0.11640434114E+04  0.00000000000E+00 0. -1.
          1    1    1    2  503    0  0.54523789395E+02 -0.15452484609E+03 -0.84671884103E+03  0.86242887674E+03  0.00000000000E+00 0. -1.
<mgrwt>
<rscale>  0 0.10438197E+03</rscale>
<asrwt>0</asrwt>
<pdfrwt beam="1">  1        2 0.29262984E+00 0.67358174E+02</pdfrwt>
<pdfrwt beam="2">  1        2 0.13947893E+00 0.16175611E+03</pdfrwt>
<totfact> 0.46361415E+01</totfact>
</mgrwt>
</event>
<event>
13    1  0.2742815E-008  0.1311882E+03  0.7546771E-02  0.1439852E+00
          4   -1    0    0  503    0 -0.00000000000E+00  0.00000000000E+00  0.75766750962E+03  0.75766750962E+03  0.00000000000E+00 0. -1.
          2   -1    0    0  502    0  0.00000000000E+00 -0.00000000000E+00 -0.16794840245E+04  0.16794840245E+04  0.00000000000E+00 0. -1.
         25    2    1    2    0    0 -0.48671835590E+02  0.16346718582E+03  0.17331256880E+03  0.27340783241E+03  0.12499651154E+03 0.  0.
         24    2    1    2    0    0  0.20876632554E+03 -0.19969334590E+03 -0.18522193169E+03  0.35240923154E+03  0.80151677573E+02 0.  0.
         24    2    1    2    0    0 -0.49698236864E+02  0.45998901854E+02 -0.88800911303E+01  0.10523896871E+03  0.80066040225E+02 0.  0.
        -11    1    4    4    0    0  0.18240313257E+03 -0.14784810481E+03 -0.11567157225E+03  0.26174391587E+03  0.00000000000E+00 0.  1.
         12    1    4    4    0    0  0.26363192969E+02 -0.51845241097E+02 -0.69550359438E+02  0.90665315671E+02  0.00000000000E+00 0. -1.
        -13    1    5    5    0    0 -0.14232270322E+02 -0.60087670240E+01  0.28218751125E+02  0.32170805317E+02  0.00000000000E+00 0.  1.
         14    1    5    5    0    0 -0.35465966542E+02  0.52007668878E+02 -0.37098842255E+02  0.73068163393E+02  0.00000000000E+00 0. -1.
          5    1    3    3  501    0  0.36920724631E+02  0.29047250540E+02  0.66315006201E+02  0.81404254917E+02  0.47000000000E+01 0.  1.
         -5    1    3    3    0  501 -0.85592560221E+02  0.13441993528E+03  0.10699756260E+03  0.19200357749E+03  0.47000000000E+01 0.  1.
          1    1    1    2  502    0  0.19698089878E+02 -0.24638733737E+01 -0.12929386709E+04  0.12930910611E+04  0.00000000000E+00 0. -1.
          3    1    1    2  503    0 -0.13009434297E+03 -0.73088683999E+01  0.39191161010E+03  0.41300444036E+03  0.00000000000E+00 0. -1.
<mgrwt>
<rscale>  0 0.51032290E+02</rscale>
<asrwt>0</asrwt>
<pdfrwt beam="2">  1        2 0.24698294E+00 0.19851585E+02</pdfrwt>
<pdfrwt beam="1">  1        4 0.11142169E+00 0.13118825E+03</pdfrwt>
<totfact> 0.52589458E+00</totfact>
</mgrwt>
</event>
<event>
13    1  0.2742815E-008  0.1593123E+03  0.7546771E-02  0.1366885E+00
          2   -1    0    0  502    0  0.00000000000E+00  0.00000000000E+00  0.18663449602E+04  0.18663449602E+04  0.00000000000E+00 0. -1.
          2   -1    0    0  503    0 -0.00000000000E+00 -0.00000000000E+00 -0.90873950976E+03  0.90873950976E+03  0.00000000000E+00 0. -1.
         25    2    1    2    0    0 -0.34220188637E+02 -0.10349372655E+03 -0.54326120637E+03  0.56801411926E+03  0.12500131437E+03 0.  0.
         24    2    1    2    0    0  0.33603640603E+02 -0.12155206286E+03  0.12358595173E+03  0.19401006129E+03  0.80388480329E+02 0.  0.
         24    2    1    2    0    0 -0.90549025610E+02  0.81055511288E+01  0.50020255486E+03  0.51490856983E+03  0.81629733581E+02 0.  0.
        -11    1    5    5    0    0 -0.55351859061E+02 -0.38113367736E+01  0.11258507330E+03  0.12551395667E+03  0.00000000000E+00 0.  1.
         12    1    5    5    0    0 -0.35197166549E+02  0.11916887902E+02  0.38761748156E+03  0.38939461316E+03  0.00000000000E+00 0. -1.
        -13    1    4    4    0    0  0.31608154992E+02 -0.13259863476E+03  0.10408285516E+03  0.17150718393E+03  0.00000000000E+00 0.  1.
         14    1    4    4    0    0  0.19954856109E+01  0.11046571902E+02  0.19503096563E+02  0.22502877353E+02  0.00000000000E+00 0. -1.
          5    1    3    3  501    0 -0.66605218084E+02 -0.14506158949E+02 -0.27944633604E+03  0.28767868960E+03  0.47000000000E+01 0.  1.
         -5    1    3    3    0  501  0.32385029447E+02 -0.88987567597E+02 -0.26381487033E+03  0.28033542967E+03  0.47000000000E+01 0.  1.
          1    1    1    2  502    0  0.11493108455E+03  0.20021699529E+03  0.11756838013E+04  0.11981353847E+04  0.00000000000E+00 0. -1.
          1    1    1    2  503    0 -0.23765510903E+02  0.16723242984E+02 -0.29860565107E+03  0.30001633491E+03  0.00000000000E+00 0. -1.
<mgrwt>
<rscale>  0 0.68040920E+02</rscale>
<asrwt>0</asrwt>
<pdfrwt beam="1">  1        2 0.27446249E+00 0.15931225E+03</pdfrwt>
<pdfrwt beam="2">  1        2 0.13363816E+00 0.29059703E+02</pdfrwt>
<totfact> 0.55525993E+01</totfact>
</mgrwt>
</event>
<event>
13    1  0.2742815E-008  0.6353669E+02  0.7546771E-02  0.1458302E+00
          2   -1    0    0  502    0  0.00000000000E+00  0.00000000000E+00  0.11183154935E+04  0.11183154935E+04  0.00000000000E+00 0. -1.
          2   -1    0    0  503    0 -0.00000000000E+00 -0.00000000000E+00 -0.37573660008E+03  0.37573660008E+03  0.00000000000E+00 0. -1.
         25    2    1    2    0    0 -0.11919172112E+03  0.70289680074E+02 -0.56323565806E+02  0.19477257873E+03  0.12496682701E+03 0.  0.
         24    2    1    2    0    0  0.10801577476E+03  0.36309140328E+02  0.37331832936E+02  0.14572200505E+03  0.82797800323E+02 0.  0.
         24    2    1    2    0    0  0.49421109642E+02 -0.85524895339E+02  0.41669800262E+03  0.43761789970E+03  0.90084665481E+02 0.  0.
        -13    1    5    5    0    0  0.68123344189E+02 -0.91362370999E+02  0.34843643965E+03  0.36660036189E+03  0.00000000000E+00 0.  1.
         14    1    5    5    0    0 -0.18702234547E+02  0.58374756600E+01  0.68261562965E+02  0.71017537816E+02  0.00000000000E+00 0. -1.
        -13    1    4    4    0    0  0.11407398869E+03  0.19191658025E+02  0.47339456850E+02  0.12498887474E+03  0.00000000000E+00 0.  1.
         14    1    4    4    0    0 -0.60582139282E+01  0.17117482304E+02 -0.10007623913E+02  0.20733130319E+02  0.00000000000E+00 0. -1.
          5    1    3    3  501    0 -0.92693682661E+02  0.81011041258E+00  0.12112998275E+02  0.93603364316E+02  0.47000000000E+01 0.  1.
         -5    1    3    3    0  501 -0.26498038463E+02  0.69479569662E+02 -0.68436564081E+02  0.10116921442E+03  0.47000000000E+01 0.  1.
          1    1    1    2  502    0 -0.77144121602E+01  0.34931208614E+02  0.52429612044E+03  0.52551510292E+03  0.00000000000E+00 0. -1.
          1    1    1    2  503    0 -0.30530751118E+02 -0.56005133677E+02 -0.17942349674E+03  0.19042450720E+03  0.00000000000E+00 0. -1.
<mgrwt>
<rscale>  0 0.47674862E+02</rscale>
<asrwt>0</asrwt>
<pdfrwt beam="1">  1        2 0.16445816E+00 0.35772916E+02</pdfrwt>
<pdfrwt beam="2">  1        2 0.55255383E-01 0.63536686E+02</pdfrwt>
<totfact> 0.37337530E+02</totfact>
</mgrwt>
</event>
<event>
13    1  0.2742815E-008  0.1046470E+03  0.7546771E-02  0.1340508E+00
          2   -1    0    0  502    0  0.00000000000E+00  0.00000000000E+00  0.17406404312E+03  0.17406404312E+03  0.00000000000E+00 0. -1.
          2   -1    0    0  503    0 -0.00000000000E+00 -0.00000000000E+00 -0.31924499887E+04  0.31924499887E+04  0.00000000000E+00 0. -1.
         25    2    1    2    0    0  0.25726763147E+02  0.30564574682E+02 -0.17286000829E+04  0.17335738404E+04  0.12499581582E+03 0.  0.
         24    2    1    2    0    0 -0.14518212100E+03  0.25691149208E+02 -0.21279118668E+03  0.27101825267E+03  0.80205490731E+02 0.  0.
         24    2    1    2    0    0  0.13584486111E+03 -0.11870805205E+03 -0.64445282257E+02  0.20688075357E+03  0.78109051199E+02 0.  0.
        -11    1    5    5    0    0  0.12444379180E+03 -0.71885508197E+02 -0.67120979197E+02  0.15861591804E+03  0.00000000000E+00 0.  1.
         12    1    5    5    0    0  0.11401069306E+02 -0.46822543854E+02  0.26756969404E+01  0.48264835526E+02  0.00000000000E+00 0. -1.
        -11    1    4    4    0    0 -0.93708296016E+01  0.70962749309E+01 -0.77616638873E+02  0.78501670015E+02  0.00000000000E+00 0.  1.
         12    1    4    4    0    0 -0.13581129139E+03  0.18594874277E+02 -0.13517454781E+03  0.19251658265E+03  0.00000000000E+00 0. -1.
          5    1    3    3  501    0 -0.48930191857E+02  0.26079243163E+02 -0.82246987122E+03  0.82435008926E+03  0.47000000000E+01 0.  1.
         -5    1    3    3    0  501  0.74656955004E+02  0.44853315187E+01 -0.90613021165E+03  0.90922375111E+03  0.47000000000E+01 0.  1.
          1    1    1    2  502    0 -0.68894859007E+02  0.79923282809E+02  0.31036983632E+02  0.10998875891E+03  0.00000000000E+00 0. -1.
          1    1    1    2  503    0  0.52505355746E+02 -0.17470954648E+02 -0.10435863774E+04  0.10450524263E+04  0.00000000000E+00 0. -1.
<mgrwt>
<rscale>  0 0.76096792E+02</rscale>
<asrwt>0</asrwt>
<pdfrwt beam="1">  1        2 0.25597658E-01 0.10464700E+03</pdfrwt>
<pdfrwt beam="2">  1        2 0.46947785E+00 0.55335763E+02</pdfrwt>
<totfact> 0.79629639E+01</totfact>
</mgrwt>
</event>
<event>
13    1  0.2742815E-008  0.1141498E+03  0.7546771E-02  0.1307837E+00
          2   -1    0    0  502    0  0.00000000000E+00  0.00000000000E+00  0.55026959649E+03  0.55026959649E+03  0.00000000000E+00 0. -1.
          2   -1    0    0  503    0 -0.00000000000E+00 -0.00000000000E+00 -0.32565145610E+04  0.32565145610E+04  0.00000000000E+00 0. -1.
         25    2    1    2    0    0  0.20411510609E+02 -0.15359771848E+02 -0.88543069076E+03  0.89457506917E+03  0.12499797549E+03 0.  0.
         24    2    1    2    0    0 -0.31718375674E+01  0.11374874938E+02  0.65054324666E+01  0.80789262023E+02  0.79656361159E+02 0.  0.
         24    2    1    2    0    0  0.12829534684E+02 -0.11567186571E+03 -0.10511685259E+03  0.17646890177E+03  0.80914418484E+02 0.  0.
        -13    1    5    5    0    0 -0.61390029391E+01  0.61105613733E+01 -0.32023147714E+02  0.33173910034E+02  0.00000000000E+00 0.  1.
         14    1    5    5    0    0  0.18968537623E+02 -0.12178242709E+03 -0.73093704871E+02  0.14329499174E+03  0.00000000000E+00 0. -1.
        -13    1    4    4    0    0 -0.30067063261E+02  0.31928018146E+02 -0.68724999633E+01  0.44392092670E+02  0.00000000000E+00 0.  1.
         14    1    4    4    0    0  0.26895225693E+02 -0.20553143208E+02  0.13377932430E+02  0.36397169353E+02  0.00000000000E+00 0. -1.
          5    1    3    3  501    0 -0.28778835546E+02  0.16714190836E+02 -0.77187875447E+02  0.84188144455E+02  0.47000000000E+01 0. -1.
         -5    1    3    3    0  501  0.49190346155E+02 -0.32073962684E+02 -0.80824281531E+03  0.81038692471E+03  0.47000000000E+01 0. -1.
          1    1    1    2  502    0 -0.97564383591E+02  0.12606401941E+03  0.45220867205E+03  0.47948266811E+03  0.00000000000E+00 0. -1.
          1    1    1    2  503    0  0.67495175866E+02 -0.64072567845E+01 -0.21744115257E+04  0.21754682564E+04  0.00000000000E+00 0. -1.
<mgrwt>
<rscale>  0 0.87972723E+02</rscale>
<asrwt>0</asrwt>
<pdfrwt beam="1">  1        2 0.80921996E-01 0.11414983E+03</pdfrwt>
<pdfrwt beam="2">  1        2 0.47889922E+00 0.67798611E+02</pdfrwt>
<totfact> 0.20789102E+01</totfact>
</mgrwt>
</event>
<event>
13    1  0.2742815E-008  0.4146648E+03  0.7546771E-02  0.1319669E+00
          2   -1    0    0  503    0  0.00000000000E+00  0.00000000000E+00  0.17563316727E+04  0.17563316727E+04  0.00000000000E+00 0. -1.
          2   -1    0    0  502    0 -0.00000000000E+00 -0.00000000000E+00 -0.19871263526E+04  0.19871263526E+04  0.00000000000E+00 0. -1.
         25    2    1    2    0    0  0.19274008572E+03 -0.69447552282E+02 -0.72920287722E+03  0.76767873728E+03  0.12498841693E+03 0.  0.
         24    2    1    2    0    0  0.13645898636E+03 -0.58466580157E+01 -0.19327226743E+03  0.24905481103E+03  0.77581513095E+02 0.  0.
         24    2    1    2    0    0 -0.31413668467E+03 -0.34170379946E+03  0.40632744211E+03  0.62196729542E+03  0.79359833341E+02 0.  0.
        -11    1    4    4    0    0  0.45737949640E+01 -0.23260798809E+02 -0.23613391196E+02  0.33460074797E+02  0.00000000000E+00 0.  1.
         12    1    4    4    0    0  0.13188519139E+03  0.17414140793E+02 -0.16965887623E+03  0.21559473623E+03  0.00000000000E+00 0. -1.
        -13    1    5    5    0    0 -0.92150548183E+01 -0.43220324262E+02  0.39073103686E+02  0.58988313218E+02  0.00000000000E+00 0.  1.
         14    1    5    5    0    0 -0.30492162985E+03 -0.29848347520E+03  0.36725433842E+03  0.56297898220E+03  0.00000000000E+00 0. -1.
          5    1    3    3  501    0  0.13914454440E+03 -0.63823846031E+02 -0.31829855928E+03  0.35322903391E+03  0.47000000000E+01 0.  1.
         -5    1    3    3    0  501  0.53595541317E+02 -0.56237062502E+01 -0.41090431794E+03  0.41444970337E+03  0.47000000000E+01 0.  1.
          1    1    1    2  502    0 -0.99729864418E+01 -0.13487559694E+02 -0.87084563938E+03  0.87100717699E+03  0.00000000000E+00 0. -1.
          1    1    1    2  503    0 -0.50894009590E+01  0.43048556945E+03  0.11561986621E+04  0.12337500045E+04  0.00000000000E+00 0. -1.
<mgrwt>
<rscale>  0 0.83400728E+02</rscale>
<asrwt>0</asrwt>
<pdfrwt beam="1">  1        2 0.25828407E+00 0.41466478E+03</pdfrwt>
<pdfrwt beam="2">  1        2 0.29222446E+00 0.16774228E+02</pdfrwt>
<totfact> 0.18924954E+01</totfact>
</mgrwt>
</event>
<event>
13    1  0.2742815E-008  0.5043180E+02  0.7546771E-02  0.1468654E+00
         -3   -1    0    0    0  501 -0.00000000000E+00  0.00000000000E+00  0.10103642369E+04  0.10103642369E+04  0.00000000000E+00 0.  1.
          2   -1    0    0  503    0  0.00000000000E+00 -0.00000000000E+00 -0.18690267796E+04  0.18690267796E+04  0.00000000000E+00 0. -1.
         25    2    1    2    0    0 -0.98414537651E+02 -0.11163678846E+03  0.13451625679E+01  0.19435943793E+03  0.12500235155E+03 0.  0.
         24    2    1    2    0    0  0.70151355153E+03  0.40033784960E+03 -0.13027057539E+03  0.82244796808E+03  0.84015359208E+02 0.  0.
         24    2    1    2    0    0 -0.57711742168E+03 -0.24838537177E+03 -0.70791102725E+03  0.95001514002E+03  0.81430537582E+02 0.  0.
        -11    1    4    4    0    0  0.19341194940E+03  0.78386054847E+02 -0.58031900069E+02  0.21661084274E+03  0.00000000000E+00 0.  1.
         12    1    4    4    0    0  0.50810160213E+03  0.32195179476E+03 -0.72238675317E+02  0.60583712535E+03  0.00000000000E+00 0. -1.
        -13    1    5    5    0    0 -0.34981877948E+03 -0.10921813948E+03 -0.38997216414E+03  0.53514490493E+03  0.00000000000E+00 0.  1.
         14    1    5    5    0    0 -0.22729864220E+03 -0.13916723228E+03 -0.31793886311E+03  0.41487023509E+03  0.00000000000E+00 0. -1.
          5    1    3    3  502    0 -0.41345901499E+02 -0.86689521645E+02  0.56073555099E+02  0.11131437605E+03  0.47000000000E+01 0. -1.
         -5    1    3    3    0  502 -0.57068636152E+02 -0.24947266811E+02 -0.54728392531E+02  0.83045061880E+02  0.47000000000E+01 0. -1.
          1    1    1    2  503    0  0.15093493044E+02 -0.48170116046E+02 -0.46484615903E+03  0.46757900421E+03  0.00000000000E+00 0. -1.
         -4    1    1    2    0  501 -0.41075085251E+02  0.78544266675E+01  0.44302005642E+03  0.44498946621E+03  0.00000000000E+00 0.  1.
<mgrwt>
<rscale>  0 0.45924102E+02</rscale>
<asrwt>0</asrwt>
<pdfrwt beam="2">  1        2 0.27485688E+00 0.50431802E+02</pdfrwt>
<pdfrwt beam="1">  1       -3 0.14858298E+00 0.41819309E+02</pdfrwt>
<totfact> 0.24802955E+00</totfact>
</mgrwt>
</event>
<event>
13    1  0.2742815E-008  0.9849064E+02  0.7546771E-02  0.1311354E+00
          2   -1    0    0  503    0  0.00000000000E+00  0.00000000000E+00  0.46093191464E+03  0.46093191464E+03  0.00000000000E+00 0. -1.
         -1   -1    0    0    0  501 -0.00000000000E+00 -0.00000000000E+00 -0.10480614123E+04  0.10480614123E+04  0.00000000000E+00 0.  1.
         25    2    1    2    0    0  0.24450560876E+03 -0.10929765228E+03 -0.52444493031E+03  0.60199378517E+03  0.12500025181E+03 0.  0.
         24    2    1    2    0    0 -0.10300889054E+03 -0.29661866718E+02  0.30928898963E+02  0.13751692670E+03  0.80396831226E+02 0.  0.
         24    2    1    2    0    0  0.16068943549E+02  0.99314156717E+02  0.13042209544E+03  0.18345077471E+03  0.80763550497E+02 0.  0.
        -11    1    4    4    0    0 -0.47626684355E+02  0.24950630709E+02  0.25613131393E+02  0.59555583577E+02  0.00000000000E+00 0.  1.
         12    1    4    4    0    0 -0.55382206184E+02 -0.54612497427E+02  0.53157675699E+01  0.77961343125E+02  0.00000000000E+00 0. -1.
        -13    1    5    5    0    0  0.57578941032E+01 -0.12538558969E+02  0.40638132587E+01  0.14383441303E+02  0.00000000000E+00 0.  1.
         14    1    5    5    0    0  0.10311049445E+02  0.11185271569E+03  0.12635828218E+03  0.16906733340E+03  0.00000000000E+00 0. -1.
          5    1    3    3  502    0  0.80181802555E+02  0.12201435266E+00 -0.25887578960E+03  0.27104962791E+03  0.47000000000E+01 0. -1.
         -5    1    3    3    0  502  0.16432380621E+03 -0.10941966663E+03 -0.26556914071E+03  0.33094415727E+03  0.47000000000E+01 0. -1.
          1    1    1    2  503    0 -0.97099077508E+02 -0.65745999804E+01  0.16394585840E+03  0.19065597474E+03  0.00000000000E+00 0. -1.
         -2    1    1    2    0  501 -0.60466584265E+02  0.46219962259E+02 -0.38798142018E+03  0.39537586564E+03  0.00000000000E+00 0.  1.
<mgrwt>
<rscale>  0 0.86579258E+02</rscale>
<asrwt>0</asrwt>
<pdfrwt beam="1">  1        2 0.67784106E-01 0.98490643E+02</pdfrwt>
<pdfrwt beam="2">  1       -1 0.15412668E+00 0.76108427E+02</pdfrwt>
<totfact> 0.31989398E+01</totfact>
</mgrwt>
</event>
<event>
13    1  0.2742815E-008  0.9822314E+02  0.7546771E-02  0.1302147E+00
         -1   -1    0    0    0  501 -0.00000000000E+00  0.00000000000E+00  0.90488726096E+02  0.90488726096E+02  0.00000000000E+00 0.  1.
          2   -1    0    0  503    0  0.00000000000E+00 -0.00000000000E+00 -0.39444754002E+04  0.39444754002E+04  0.00000000000E+00 0. -1.
         25    2    1    2    0    0  0.93652600826E+01  0.83833126660E+02 -0.14952166695E+03  0.21236098202E+03  0.12499902630E+03 0.  0.
         24    2    1    2    0    0  0.19744301409E+02 -0.65935896994E+02 -0.52536732667E+03  0.53556942951E+03  0.78015421160E+02 0.  0.
         24    2    1    2    0    0  0.38617533012E+02 -0.33048402858E+02 -0.69304758164E+03  0.69942610685E+03  0.79362571372E+02 0.  0.
        -11    1    5    5    0    0  0.36708726557E+02  0.50486249645E+01 -0.13254385657E+03  0.13762591737E+03  0.00000000000E+00 0.  1.
         12    1    5    5    0    0  0.19088064551E+01 -0.38097027822E+02 -0.56050372507E+03  0.56180018947E+03  0.00000000000E+00 0. -1.
        -13    1    4    4    0    0  0.47356960445E+02 -0.50809166842E+02 -0.29533828846E+03  0.30339571152E+03  0.00000000000E+00 0.  1.
         14    1    4    4    0    0 -0.27612659036E+02 -0.15126730152E+02 -0.23002903821E+03  0.23217371799E+03  0.00000000000E+00 0. -1.
          5    1    3    3  502    0  0.26152688906E+00  0.11604751897E+03 -0.12479373007E+03  0.17047774084E+03  0.47000000000E+01 0. -1.
         -5    1    3    3    0  502  0.91037331935E+01 -0.32214392308E+02 -0.24727936875E+02  0.41883241182E+02  0.47000000000E+01 0. -1.
          1    1    1    2  503    0  0.21560674898E+02  0.80151416222E+02 -0.24752478140E+04  0.24766390235E+04  0.00000000000E+00 0. -1.
         -2    1    1    2    0  501 -0.89287769401E+02 -0.65000243030E+02 -0.10802284828E+02  0.11096858437E+03  0.00000000000E+00 0.  1.
<mgrwt>
<rscale>  0 0.90291676E+02</rscale>
<asrwt>0</asrwt>
<pdfrwt beam="2">  1        2 0.58006978E+00 0.83000676E+02</pdfrwt>
<pdfrwt beam="1">  1       -1 0.13307169E-01 0.98223138E+02</pdfrwt>
<totfact> 0.35284300E+01</totfact>
</mgrwt>
</event>
<event>
13    1  0.2742815E-008  0.1668062E+03  0.7546771E-02  0.1328261E+00
         -3   -1    0    0    0  501 -0.00000000000E+00  0.00000000000E+00  0.25159087509E+03  0.25159087509E+03  0.00000000000E+00 0.  1.
          2   -1    0    0  503    0  0.00000000000E+00 -0.00000000000E+00 -0.38617182445E+04  0.38617182445E+04  0.00000000000E+00 0. -1.
         25    2    1    2    0    0 -0.98470743758E+01  0.10965127303E+03 -0.51835739492E+02  0.17444867993E+03  0.12500012596E+03 0.  0.
         24    2    1    2    0    0  0.11565309445E+03 -0.12679461994E+02 -0.43739643407E+03  0.45947840656E+03  0.79172966008E+02 0.  0.
         24    2    1    2    0    0 -0.10147970026E+02  0.74046093784E+02 -0.19307705271E+03  0.22180208907E+03  0.79571434141E+02 0.  0.
        -11    1    4    4    0    0  0.30782073130E+02 -0.37689094925E+02 -0.20783922897E+03  0.21345994707E+03  0.00000000000E+00 0.  1.
         12    1    4    4    0    0  0.84871021320E+02  0.25009632931E+02 -0.22955720510E+03  0.24601845950E+03  0.00000000000E+00 0. -1.
        -13    1    5    5    0    0 -0.37277907524E+02  0.69223461545E+02 -0.11768243381E+03  0.14152980338E+03  0.00000000000E+00 0.  1.
         14    1    5    5    0    0  0.27129937498E+02  0.48226322394E+01 -0.75394618896E+02  0.80272285684E+02  0.00000000000E+00 0. -1.
          5    1    3    3  502    0 -0.43022574133E+02  0.12019853287E+03 -0.24837585379E+02  0.13014463046E+03  0.47000000000E+01 0. -1.
         -5    1    3    3    0  502  0.33175499758E+02 -0.10547259842E+02 -0.26998154112E+02  0.44304049474E+02  0.47000000000E+01 0. -1.
          1    1    1    2  503    0 -0.59028143950E+02 -0.15872954132E+03 -0.30880833229E+04  0.30927233951E+04  0.00000000000E+00 0. -1.
         -4    1    1    2    0  501 -0.36629906098E+02 -0.12288363494E+02  0.16026517976E+03  0.16485654898E+03  0.00000000000E+00 0.  1.
<mgrwt>
<rscale>  0 0.80279213E+02</rscale>
<asrwt>0</asrwt>
<pdfrwt beam="2">  1        2 0.56789972E+00 0.16680617E+03</pdfrwt>
<pdfrwt beam="1">  1       -3 0.36998660E-01 0.38636173E+02</pdfrwt>
<totfact> 0.32779065E+00</totfact>
</mgrwt>
</event>
<event>
13    1  0.2742815E-008  0.8879369E+02  0.7546771E-02  0.1404461E+00
          2   -1    0    0  502    0  0.00000000000E+00  0.00000000000E+00  0.46822214136E+04  0.46822214136E+04  0.00000000000E+00 0. -1.
          2   -1    0    0  503    0 -0.00000000000E+00 -0.00000000000E+00 -0.95506098530E+03  0.95506098530E+03  0.00000000000E+00 0. -1.
         25    2    1    2    0    0 -0.65364050677E+02 -0.75276788440E+02 -0.15109614199E+03  0.21999145565E+03  0.12500856946E+03 0.  0.
         24    2    1    2    0    0  0.12827306535E+03 -0.18777029807E+02  0.14481172756E+03  0.21095186229E+03  0.81998144009E+02 0.  0.
         24    2    1    2    0    0 -0.70762555290E+02  0.38503548003E+02  0.45207989100E+03  0.46614546247E+03  0.80159228418E+02 0.  0.
        -13    1    5    5    0    0  0.92065145179E+01 -0.14346051025E+02  0.89514166263E+02  0.91122747167E+02  0.00000000000E+00 0.  1.
         14    1    5    5    0    0 -0.79969069808E+02  0.52849599029E+02  0.36256572473E+03  0.37502271531E+03  0.00000000000E+00 0. -1.
        -13    1    4    4    0    0  0.61928613223E+02  0.24030892270E+02  0.10033027974E+03  0.12032789349E+03  0.00000000000E+00 0.  1.
         14    1    4    4    0    0  0.66344452127E+02 -0.42807922077E+02  0.44481447821E+02  0.90623968798E+02  0.00000000000E+00 0. -1.
          5    1    3    3  501    0 -0.86149366113E+02 -0.17417319367E+02 -0.12536650170E+03  0.15317939171E+03  0.47000000000E+01 0.  1.
         -5    1    3    3    0  501  0.20785315436E+02 -0.57859469073E+02 -0.25729640290E+02  0.66812063946E+02  0.47000000000E+01 0.  1.
          1    1    1    2  502    0  0.36802215827E+02  0.80891742899E+02  0.40097792591E+04  0.40107639652E+04  0.00000000000E+00 0. -1.
          1    1    1    2  503    0 -0.28948675209E+02 -0.25341472655E+02 -0.72841430737E+03  0.72942965337E+03  0.00000000000E+00 0. -1.
<mgrwt>
<rscale>  0 0.58448359E+02</rscale>
<asrwt>0</asrwt>
<pdfrwt beam="1">  1        2 0.68856196E+00 0.88793687E+02</pdfrwt>
<pdfrwt beam="2">  1        2 0.14045015E+00 0.38473576E+02</pdfrwt>
<totfact> 0.11854645E+00</totfact>
</mgrwt>
</event>
<event>
13    1  0.2742815E-008  0.5648055E+02  0.7546771E-02  0.1491170E+00
          2   -1    0    0  502    0  0.00000000000E+00  0.00000000000E+00  0.14345117563E+04  0.14345117563E+04  0.00000000000E+00 0. -1.
          2   -1    0    0  503    0 -0.00000000000E+00 -0.00000000000E+00 -0.27834645677E+03  0.27834645677E+03  0.00000000000E+00 0. -1.
         25    2    1    2    0    0 -0.59743709399E+02 -0.13451630488E+03 -0.12523936644E+03  0.23016221334E+03  0.12500319376E+03 0.  0.
         24    2    1    2    0    0 -0.42368431417E+02  0.73145000685E+02 -0.18786706288E+02  0.11767982531E+03  0.79688931761E+02 0.  0.
         24    2    1    2    0    0  0.50004056370E+02  0.57655443414E+02  0.24573115343E+03  0.26957358229E+03  0.80383833525E+02 0.  0.
        -11    1    4    4    0    0 -0.60039302318E+02  0.72877339406E+02 -0.26976384633E+02  0.98201577124E+02  0.00000000000E+00 0.  1.
         12    1    4    4    0    0  0.17670870900E+02  0.26766127930E+00  0.81896783448E+01  0.19478248184E+02  0.00000000000E+00 0. -1.
        -11    1    5    5    0    0  0.84528859443E+00 -0.17848233628E+02  0.21734822030E+02  0.28136745460E+02  0.00000000000E+00 0.  1.
         12    1    5    5    0    0  0.49158767776E+02  0.75503677041E+02  0.22399633140E+03  0.24143683683E+03  0.00000000000E+00 0. -1.
          5    1    3    3  501    0 -0.13344795988E+02 -0.14431506201E+03 -0.10085164121E+03  0.17662973769E+03  0.47000000000E+01 0. -1.
         -5    1    3    3    0  501 -0.46398913411E+02  0.97987571266E+01 -0.24387725228E+02  0.53532475645E+02  0.47000000000E+01 0. -1.
          1    1    1    2  502    0  0.44631629767E+02  0.34675107314E+02  0.10613523960E+04  0.10628561774E+04  0.00000000000E+00 0. -1.
          1    1    1    2  503    0  0.74764546786E+01 -0.30959246532E+02 -0.68921771210E+01  0.32586414744E+02  0.00000000000E+00 0. -1.
<mgrwt>
<rscale>  0 0.42412980E+02</rscale>
<asrwt>0</asrwt>
<pdfrwt beam="1">  1        2 0.21095761E+00 0.56480545E+02</pdfrwt>
<pdfrwt beam="2">  1        2 0.40933303E-01 0.31849212E+02</pdfrwt>
<totfact> 0.33879198E+02</totfact>
</mgrwt>
</event>
<event>
13    1  0.2742815E-008  0.1179962E+03  0.7546771E-02  0.1464615E+00
          2   -1    0    0  503    0  0.00000000000E+00  0.00000000000E+00  0.55271940573E+03  0.55271940573E+03  0.00000000000E+00 0. -1.
          2   -1    0    0  502    0 -0.00000000000E+00 -0.00000000000E+00 -0.30243936323E+04  0.30243936323E+04  0.00000000000E+00 0. -1.
         25    2    1    2    0    0  0.29459323724E+03 -0.15808529995E+03 -0.20082632524E+04  0.20397356496E+04  0.12499636642E+03 0.  0.
         24    2    1    2    0    0 -0.25241263730E+03  0.76610735448E+01 -0.35185938981E+02  0.26752779987E+03  0.81007665593E+02 0.  0.
         24    2    1    2    0    0  0.12720074151E+02  0.44956165021E+02  0.54097028923E+02  0.10566710425E+03  0.77821535076E+02 0.  0.
        -11    1    5    5    0    0  0.39897503312E+02  0.32735519403E+01  0.16491722182E+02  0.43295540340E+02  0.00000000000E+00 0.  1.
         12    1    5    5    0    0 -0.27177429160E+02  0.41682613081E+02  0.37605306740E+02  0.62371563906E+02  0.00000000000E+00 0. -1.
        -11    1    4    4    0    0  0.47609733619E+01 -0.33626204355E+00 -0.73018340118E+01  0.87233433643E+01  0.00000000000E+00 0.  1.
         12    1    4    4    0    0 -0.25717361066E+03  0.79973355883E+01 -0.27884104969E+02  0.25880445651E+03  0.00000000000E+00 0. -1.
          5    1    3    3  501    0  0.25935141762E+03 -0.83397482831E+02 -0.14500974475E+04  0.14754738206E+04  0.47000000000E+01 0.  1.
         -5    1    3    3    0  501  0.35241819625E+02 -0.74687817119E+02 -0.55816580494E+03  0.56426182901E+03  0.47000000000E+01 0.  1.
          1    1    1    2  502    0  0.18328666549E+02 -0.16273206739E+01 -0.81080143754E+03  0.81101020913E+03  0.00000000000E+00 0. -1.
          1    1    1    2  503    0 -0.73229340643E+02  0.10709538206E+03  0.32847937346E+03  0.35317227521E+03  0.00000000000E+00 0. -1.
<mgrwt>
<rscale>  0 0.46596353E+02</rscale>
<asrwt>0</asrwt>
<pdfrwt beam="1">  1        2 0.81282264E-01 0.11799618E+03</pdfrwt>
<pdfrwt beam="2">  1        2 0.44476378E+00 0.18400766E+02</pdfrwt>
<totfact> 0.34898473E+01</totfact>
</mgrwt>
</event>
<event>
13    1  0.2742815E-008  0.1937585E+03  0.7546771E-02  0.1200910E+00
          2   -1    0    0  503    0  0.00000000000E+00  0.00000000000E+00  0.19459306907E+04  0.19459306907E+04  0.00000000000E+00 0. -1.
          2   -1    0    0  502    0 -0.00000000000E+00 -0.00000000000E+00 -0.20523184625E+04  0.20523184625E+04  0.00000000000E+00 0. -1.
         25    2    1    2    0    0  0.14225709884E+03 -0.13523934455E+03 -0.43544119100E+03  0.49372168871E+03  0.12500125040E+03 0.  0.
         24    2    1    2    0    0 -0.18177340588E+03  0.24989466967E+02  0.22251007136E+03  0.29961955001E+03  0.81210210881E+02 0.  0.
         24    2    1    2    0    0  0.73843852530E+02 -0.43144240739E+02 -0.12211829486E+01  0.11766014185E+03  0.80796519894E+02 0.  0.
        -11    1    4    4    0    0 -0.27553255419E+02 -0.12773592650E+02  0.57195779155E+01  0.30904047063E+02  0.00000000000E+00 0.  1.
         12    1    4    4    0    0 -0.15422015046E+03  0.37763059617E+02  0.21679049344E+03  0.26871550295E+03  0.00000000000E+00 0. -1.
        -13    1    5    5    0    0  0.46250840501E+02 -0.66695977972E+02 -0.41131449340E+01  0.81267531561E+02  0.00000000000E+00 0.  1.
         14    1    5    5    0    0  0.27593012029E+02  0.23551737234E+02  0.28919619854E+01  0.36392610289E+02  0.00000000000E+00 0. -1.
          5    1    3    3  501    0  0.61264580566E+02 -0.18011555104E+02 -0.45536306990E+02  0.78571051943E+02  0.47000000000E+01 0. -1.
         -5    1    3    3    0  501  0.80992518272E+02 -0.11722778945E+03 -0.38990488401E+03  0.41515063677E+03  0.47000000000E+01 0. -1.
          1    1    1    2  502    0  0.13965281133E+03  0.13712252816E+03 -0.14784948983E+04  0.14913928589E+04  0.00000000000E+00 0. -1.
          1    1    1    2  503    0 -0.17398035682E+03  0.16271590168E+02  0.15862594290E+04  0.15958549137E+04  0.00000000000E+00 0. -1.
<mgrwt>
<rscale>  0 0.14964511E+03</rscale>
<asrwt>0</asrwt>
<pdfrwt beam="1">  1        2 0.28616628E+00 0.11557512E+03</pdfrwt>
<pdfrwt beam="2">  1        2 0.30181154E+00 0.19375849E+03</pdfrwt>
<totfact> 0.12062235E+01</totfact>
</mgrwt>
</event>
<event>
13    1  0.2742815E-008  0.7813252E+02  0.7546771E-02  0.1415890E+00
          2   -1    0    0  503    0  0.00000000000E+00  0.00000000000E+00  0.25451267787E+04  0.25451267787E+04  0.00000000000E+00 0. -1.
         -1   -1    0    0    0  501 -0.00000000000E+00 -0.00000000000E+00 -0.98427223861E+03  0.98427223861E+03  0.00000000000E+00 0.  1.
         25    2    1    2    0    0  0.18772056789E+02 -0.79547103345E+02 -0.74404221981E+03  0.75888379799E+03  0.12500264884E+03 0.  0.
         24    2    1    2    0    0 -0.14803249480E+03 -0.15914222899E+03  0.61837301954E+02  0.23937405445E+03  0.78969725010E+02 0.  0.
         24    2    1    2    0    0  0.76308448912E+02  0.28982081059E+03  0.40060438290E+03  0.50682875106E+03  0.81070522808E+02 0.  0.
        -13    1    5    5    0    0  0.24021589100E+02  0.19595153767E+02  0.19134468257E+02  0.36429859587E+02  0.00000000000E+00 0.  1.
         14    1    5    5    0    0  0.52286859812E+02  0.27022565683E+03  0.38146991464E+03  0.47039889147E+03  0.00000000000E+00 0. -1.
        -13    1    4    4    0    0 -0.12771129233E+03 -0.11415614099E+03  0.76899848023E+02  0.18776417480E+03  0.00000000000E+00 0.  1.
         14    1    4    4    0    0 -0.20321202474E+02 -0.44986088001E+02 -0.15062546069E+02  0.51609879652E+02  0.00000000000E+00 0. -1.
          5    1    3    3  502    0 -0.52225263514E+02 -0.36082877012E+02 -0.38971084478E+03  0.39487477092E+03  0.47000000000E+01 0.  1.
         -5    1    3    3    0  502  0.70997320303E+02 -0.43464226333E+02 -0.35433137503E+03  0.36400902707E+03  0.47000000000E+01 0.  1.
          1    1    1    2  503    0  0.75946198601E+02 -0.18408942277E+02  0.19281560010E+04  0.19297389146E+04  0.00000000000E+00 0. -1.
         -2    1    1    2    0  501 -0.22994209501E+02 -0.32722535982E+02 -0.85700926004E+02  0.94573499193E+02  0.00000000000E+00 0.  1.
<mgrwt>
<rscale>  0 0.55900004E+02</rscale>
<asrwt>0</asrwt>
<pdfrwt beam="1">  1        2 0.37428335E+00 0.78132518E+02</pdfrwt>
<pdfrwt beam="2">  1       -1 0.14474592E+00 0.39993725E+02</pdfrwt>
<totfact> 0.27780699E+00</totfact>
</mgrwt>
</event>
<event>
13    1  0.2742815E-008  0.1035376E+03  0.7546771E-02  0.1425377E+00
          2   -1    0    0  502    0  0.00000000000E+00  0.00000000000E+00  0.13132248370E+04  0.13132248370E+04  0.00000000000E+00 0. -1.
          2   -1    0    0  503    0 -0.00000000000E+00 -0.00000000000E+00 -0.26887631089E+04  0.26887631089E+04  0.00000000000E+00 0. -1.
         25    2    1    2    0    0 -0.49798683256E+02 -0.10028012390E+03 -0.17300193839E+03  0.24102021232E+03  0.12500023982E+03 0.  0.
         24    2    1    2    0    0  0.15191732213E+03  0.44327257776E+01 -0.12412712358E+03  0.21202013373E+03  0.80289927626E+02 0.  0.
         24    2    1    2    0    0 -0.31148660951E+02  0.32242623000E+00  0.65153502236E+02  0.10850725051E+03  0.80984575826E+02 0.  0.
        -11    1    5    5    0    0 -0.29474363680E+02 -0.18518426455E+02 -0.56110051623E+01  0.35258383566E+02  0.00000000000E+00 0.  1.
         12    1    5    5    0    0 -0.16742972711E+01  0.18840852685E+02  0.70764507398E+02  0.73248866944E+02  0.00000000000E+00 0. -1.
        -13    1    4    4    0    0  0.81614383785E+02 -0.28303379357E+02 -0.96935496828E+02  0.12984020744E+03  0.00000000000E+00 0.  1.
         14    1    4    4    0    0  0.70302938347E+02  0.32736105135E+02 -0.27191626754E+02  0.82179926290E+02  0.00000000000E+00 0. -1.
          5    1    3    3  501    0  0.13774795578E+02 -0.25156428382E+02  0.11980219837E+02  0.31435752726E+02  0.47000000000E+01 0. -1.
         -5    1    3    3    0  501 -0.63573478834E+02 -0.75123695518E+02 -0.18498215823E+03  0.20958445959E+03  0.47000000000E+01 0. -1.
          1    1    1    2  502    0 -0.43012519742E+02  0.97906825957E+02  0.11458632368E+04  0.11508424657E+04  0.00000000000E+00 0. -1.
          1    1    1    2  503    0 -0.27957458183E+02 -0.23818540648E+01 -0.22894259490E+04  0.22895978836E+04  0.00000000000E+00 0. -1.
<mgrwt>
<rscale>  0 0.53899296E+02</rscale>
<asrwt>0</asrwt>
<pdfrwt beam="1">  1        2 0.19312130E+00 0.10353760E+03</pdfrwt>
<pdfrwt beam="2">  1        2 0.39540634E+00 0.28058737E+02</pdfrwt>
<totfact> 0.15736403E+01</totfact>
</mgrwt>
</event>
<event>
13    1  0.2742815E-008  0.1760515E+03  0.7546771E-02  0.1281430E+00
          2   -1    0    0  503    0  0.00000000000E+00  0.00000000000E+00  0.92135440055E+03  0.92135440055E+03  0.00000000000E+00 0. -1.
          2   -1    0    0  502    0 -0.00000000000E+00 -0.00000000000E+00 -0.10378439201E+04  0.10378439201E+04  0.00000000000E+00 0. -1.
         25    2    1    2    0    0 -0.14001813525E+03  0.14750717680E+03 -0.16038925553E+03  0.28759790633E+03  0.12499758810E+03 0.  0.
         24    2    1    2    0    0  0.47075350956E+00 -0.82509736955E+01  0.25480208363E+02  0.82137409218E+02  0.77646717890E+02 0.  0.
         24    2    1    2    0    0 -0.71707407586E+02 -0.48175268380E+02  0.23211133701E+03  0.26053050739E+03  0.80855820608E+02 0.  0.
        -11    1    4    4    0    0 -0.23059648843E+02  0.17634405505E+02  0.35395656885E+02  0.45777420073E+02  0.00000000000E+00 0.  1.
         12    1    4    4    0    0  0.23530402353E+02 -0.25885379200E+02 -0.99154485216E+01  0.36359989145E+02  0.00000000000E+00 0. -1.
        -13    1    5    5    0    0 -0.54946768831E+02 -0.13917724941E+02  0.53672072375E+02  0.78061141585E+02  0.00000000000E+00 0.  1.
         14    1    5    5    0    0 -0.16760638755E+02 -0.34257543439E+02  0.17843926464E+03  0.18246936581E+03  0.00000000000E+00 0. -1.
          5    1    3    3  501    0 -0.12744229453E+03  0.16778120417E+03 -0.15752686535E+03  0.26311380469E+03  0.47000000000E+01 0. -1.
         -5    1    3    3    0  501 -0.12575840719E+02 -0.20274027374E+02 -0.28623901742E+01  0.24484101643E+02  0.47000000000E+01 0. -1.
          1    1    1    2  502    0  0.15903264902E+03 -0.70333378768E+02 -0.76005188314E+03  0.77969034411E+03  0.00000000000E+00 0. -1.
          1    1    1    2  503    0  0.52222140310E+02 -0.20747555955E+02  0.54636007379E+03  0.54924215356E+03  0.00000000000E+00 0. -1.
<mgrwt>
<rscale>  0 0.99462555E+02</rscale>
<asrwt>0</asrwt>
<pdfrwt beam="1">  1        2 0.13549329E+00 0.56192642E+02</pdfrwt>
<pdfrwt beam="2">  1        2 0.15262411E+00 0.17605152E+03</pdfrwt>
<totfact> 0.14175080E+02</totfact>
</mgrwt>
</event>
<event>
13    1  0.2742815E-008  0.2072624E+03  0.7546771E-02  0.1290711E+00
         -1   -1    0    0    0  501 -0.00000000000E+00  0.00000000000E+00  0.45377070306E+03  0.45377070306E+03  0.00000000000E+00 0.  1.
          2   -1    0    0  503    0  0.00000000000E+00 -0.00000000000E+00 -0.11587842668E+04  0.11587842668E+04  0.00000000000E+00 0. -1.
         25    2    1    2    0    0  0.40055150655E+02 -0.15043195286E+03 -0.10485812394E+02  0.19992301073E+03  0.12500028169E+03 0.  0.
         24    2    1    2    0    0 -0.28808652026E+01 -0.12700089559E+02 -0.83539313832E+02  0.11604723404E+03  0.79489319498E+02 0.  0.
         24    2    1    2    0    0  0.97588430096E+02  0.19731536719E+02 -0.13336874041E+03  0.18482327795E+03  0.80371561652E+02 0.  0.
        -13    1    4    4    0    0 -0.12475276547E+02  0.76849394989E+01  0.11341024121E+02  0.18528617005E+02  0.00000000000E+00 0.  1.
         14    1    4    4    0    0  0.95944113440E+01 -0.20385029058E+02 -0.94880337953E+02  0.97518617037E+02  0.00000000000E+00 0. -1.
        -13    1    5    5    0    0  0.49973198194E+02  0.39368912666E+02 -0.32210263618E+02  0.71307313121E+02  0.00000000000E+00 0.  1.
         14    1    5    5    0    0  0.47615231902E+02 -0.19637375947E+02 -0.10115847680E+03  0.11351596483E+03  0.00000000000E+00 0. -1.
          5    1    3    3  502    0  0.19851370564E+02 -0.10129008892E+03 -0.66262779635E+02  0.12274609970E+03  0.47000000000E+01 0.  1.
         -5    1    3    3    0  502  0.20203780091E+02 -0.49141863933E+02  0.55776967241E+02  0.77176911025E+02  0.47000000000E+01 0.  1.
          1    1    1    2  503    0 -0.17690834830E+03  0.13172237895E+03 -0.77777144033E+03  0.80844032693E+03  0.00000000000E+00 0. -1.
         -2    1    1    2    0  501  0.42145632756E+02  0.11678126741E+02  0.30015174322E+03  0.30332112021E+03  0.00000000000E+00 0.  1.
<mgrwt>
<rscale>  0 0.95206855E+02</rscale>
<asrwt>0</asrwt>
<pdfrwt beam="2">  1        2 0.17040945E+00 0.20726244E+03</pdfrwt>
<pdfrwt beam="1">  1       -1 0.66730985E-01 0.43733660E+02</pdfrwt>
<totfact> 0.64915881E+01</totfact>
</mgrwt>
</event>
<event>
13    1  0.2742815E-008  0.6173935E+02  0.7546771E-02  0.1425048E+00
          2   -1    0    0  503    0  0.00000000000E+00  0.00000000000E+00  0.92951849593E+03  0.92951849593E+03  0.00000000000E+00 0. -1.
          2   -1    0    0  502    0 -0.00000000000E+00 -0.00000000000E+00 -0.39128571064E+04  0.39128571064E+04  0.00000000000E+00 0. -1.
         25    2    1    2    0    0 -0.73933067090E+02  0.11584956625E+03 -0.12408065004E+04  0.12546366632E+04  0.12500065882E+03 0.  0.
         24    2    1    2    0    0  0.40306955578E+02 -0.11164010997E+03  0.14537714677E+03  0.20450182307E+03  0.81230019192E+02 0.  0.
         24    2    1    2    0    0  0.47752974162E+02  0.28910604500E+01  0.24223499132E+03  0.25954860869E+03  0.79993652780E+02 0.  0.
        -11    1    5    5    0    0  0.36791948385E+02  0.32118841470E+02  0.20605420530E+03  0.21176308216E+03  0.00000000000E+00 0.  1.
         12    1    5    5    0    0  0.10961025778E+02 -0.29227781020E+02  0.36180786013E+02  0.47785526533E+02  0.00000000000E+00 0. -1.
        -13    1    4    4    0    0 -0.11801408058E+02  0.61822204452E+01  0.24261713993E+02  0.27678942315E+02  0.00000000000E+00 0.  1.
         14    1    4    4    0    0  0.52108363636E+02 -0.11782233041E+03  0.12111543277E+03  0.17682288076E+03  0.00000000000E+00 0. -1.
          5    1    3    3  501    0 -0.25021230644E+02 -0.23794903270E+02 -0.16087844800E+03  0.16460930847E+03  0.47000000000E+01 0.  1.
         -5    1    3    3    0  501 -0.48911836446E+02  0.13964446952E+03 -0.10799280524E+04  0.10900273547E+04  0.47000000000E+01 0.  1.
          1    1    1    2  502    0 -0.61296285853E+02 -0.77052293574E+01 -0.26254322921E+04  0.26261590443E+04  0.00000000000E+00 0. -1.
          1    1    1    2  503    0  0.47169423203E+02  0.60471262041E+00  0.49528804399E+03  0.49752946313E+03  0.00000000000E+00 0. -1.
<mgrwt>
<rscale>  0 0.53967109E+02</rscale>
<asrwt>0</asrwt>
<pdfrwt beam="1">  1        2 0.13669390E+00 0.47173299E+02</pdfrwt>
<pdfrwt beam="2">  1        2 0.57542016E+00 0.61739350E+02</pdfrwt>
<totfact> 0.48499212E+00</totfact>
</mgrwt>
</event>
<event>
13    1  0.2742815E-008  0.2328885E+03  0.7546771E-02  0.1177620E+00
          2   -1    0    0  502    0  0.00000000000E+00  0.00000000000E+00  0.15536833976E+04  0.15536833976E+04  0.00000000000E+00 0. -1.
          2   -1    0    0  503    0 -0.00000000000E+00 -0.00000000000E+00 -0.30478243509E+04  0.30478243509E+04  0.00000000000E+00 0. -1.
         25    2    1    2    0    0 -0.15516619150E+02 -0.83616606523E+02 -0.77941367795E+03  0.79394072486E+03  0.12499476332E+03 0.  0.
         24    2    1    2    0    0  0.96215459069E+02 -0.41964531139E+03 -0.79215319092E+03  0.90507811483E+03  0.79373258210E+02 0.  0.
         24    2    1    2    0    0 -0.39320879296E+03  0.33205133557E+03 -0.17452674628E+03  0.54984776012E+03  0.83676339695E+02 0.  0.
        -11    1    4    4    0    0  0.63277754422E+02 -0.11564896334E+03 -0.22668080396E+03  0.26222689376E+03  0.00000000000E+00 0.  1.
         12    1    4    4    0    0  0.32937704648E+02 -0.30399634805E+03 -0.56547238696E+03  0.64285122107E+03  0.00000000000E+00 0. -1.
        -13    1    5    5    0    0 -0.23791073093E+03  0.22148313138E+03 -0.14877756120E+03  0.35747874915E+03  0.00000000000E+00 0.  1.
         14    1    5    5    0    0 -0.15529806204E+03  0.11056820419E+03 -0.25749185079E+02  0.19236901097E+03  0.00000000000E+00 0. -1.
          5    1    3    3  501    0 -0.27053967505E+01 -0.68113850256E+02 -0.15748897406E+03  0.17167318579E+03  0.47000000000E+01 0.  1.
         -5    1    3    3    0  501 -0.12811222399E+02 -0.15502756267E+02 -0.62192470389E+03  0.62226753907E+03  0.47000000000E+01 0.  1.
          1    1    1    2  502    0  0.20721680051E+03  0.10493889077E+03  0.12881893752E+04  0.13089625050E+04  0.00000000000E+00 0. -1.
          1    1    1    2  503    0  0.10529315253E+03  0.66271691574E+02 -0.10362367134E+04  0.10436786436E+04  0.00000000000E+00 0. -1.
<mgrwt>
<rscale>  0 0.17021854E+03</rscale>
<asrwt>0</asrwt>
<pdfrwt beam="1">  1        2 0.22848285E+00 0.23288853E+03</pdfrwt>
<pdfrwt beam="2">  1        2 0.44820946E+00 0.12441296E+03</pdfrwt>
<totfact> 0.57997459E+00</totfact>
</mgrwt>
</event>
<event>
13    1  0.2742815E-008  0.2716978E+03  0.7546771E-02  0.1223662E+00
          2   -1    0    0  503    0  0.00000000000E+00  0.00000000000E+00  0.26210514008E+04  0.26210514008E+04  0.00000000000E+00 0. -1.
         -1   -1    0    0    0  501 -0.00000000000E+00 -0.00000000000E+00 -0.28486040024E+03  0.28486040024E+03  0.00000000000E+00 0.  1.
         25    2    1    2    0    0  0.58304775635E+02  0.13091692774E+03 -0.71790039197E+02  0.20326400589E+03  0.12499503003E+03 0.  0.
         24    2    1    2    0    0 -0.29815466265E+02  0.75544929537E+02  0.43888335370E+02  0.12241204423E+03  0.80389826362E+02 0.  0.
         24    2    1    2    0    0  0.29634864940E+03 -0.16611451176E+03  0.10054648356E+04  0.10644324707E+04  0.81488625079E+02 0.  0.
        -11    1    5    5    0    0 -0.26836967294E+01 -0.61084575948E+01  0.59284516344E+01  0.89253583180E+01  0.00000000000E+00 0.  1.
         12    1    5    5    0    0  0.29903234613E+03 -0.16000605416E+03  0.99953638401E+03  0.10555071124E+04  0.00000000000E+00 0. -1.
        -13    1    4    4    0    0 -0.22600716706E+02 -0.11525490494E+02  0.17989356370E+01  0.25433550601E+02  0.00000000000E+00 0.  1.
         14    1    4    4    0    0 -0.72147495591E+01  0.87070420032E+02  0.42089399733E+02  0.96978493624E+02  0.00000000000E+00 0. -1.
          5    1    3    3  502    0  0.85869148339E+02  0.12062477360E+03 -0.84862138101E+02  0.17072644530E+03  0.47000000000E+01 0.  1.
         -5    1    3    3    0  502 -0.27564372704E+02  0.10292154136E+02  0.13072098904E+02  0.32537560589E+02  0.47000000000E+01 0.  1.
          1    1    1    2  503    0 -0.26080405640E+03 -0.49643390210E+02  0.14090056170E+04  0.14337991668E+04  0.00000000000E+00 0. -1.
         -2    1    1    2    0  501 -0.64033902367E+02  0.92960446934E+01 -0.50377748226E+02  0.82004113407E+02  0.00000000000E+00 0.  1.
<mgrwt>
<rscale>  0 0.13259053E+03</rscale>
<asrwt>0</asrwt>
<pdfrwt beam="1">  1        2 0.38544872E+00 0.27169781E+03</pdfrwt>
<pdfrwt beam="2">  1       -1 0.41891237E-01 0.64705155E+02</pdfrwt>
<totfact> 0.26086745E+01</totfact>
</mgrwt>
</event>
<event>
13    1  0.2742815E-008  0.6731981E+02  0.7546771E-02  0.1555834E+00
          2   -1    0    0  503    0  0.00000000000E+00  0.00000000000E+00  0.12187513960E+04  0.12187513960E+04  0.00000000000E+00 0. -1.
         -1   -1    0    0    0  501 -0.00000000000E+00 -0.00000000000E+00 -0.28269507640E+03  0.28269507640E+03  0.00000000000E+00 0.  1.
         25    2    1    2    0    0  0.38490763457E+02  0.70240519228E+02  0.58080609303E+02  0.15940563293E+03  0.12498611611E+03 0.  0.
         24    2    1    2    0    0 -0.53914313156E+02  0.87619568827E+01  0.11921925300E+03  0.15512362986E+03  0.82864861085E+02 0.  0.
         24    2    1    2    0    0  0.47160220898E+02 -0.66253040931E+01  0.23775682130E+03  0.25653863241E+03  0.83760269562E+02 0.  0.
        -13    1    4    4    0    0  0.13730187498E+02  0.25788264855E+02  0.40622134850E+02  0.50037091170E+02  0.00000000000E+00 0.  1.
         14    1    4    4    0    0 -0.67644500653E+02 -0.17026307972E+02  0.78597118148E+02  0.10508653869E+03  0.00000000000E+00 0. -1.
        -13    1    5    5    0    0  0.67467498132E+02 -0.21892535304E+02  0.17300668162E+03  0.18698250798E+03  0.00000000000E+00 0.  1.
         14    1    5    5    0    0 -0.20307277234E+02  0.15267231211E+02  0.64750139683E+02  0.69556124435E+02  0.00000000000E+00 0. -1.
          5    1    3    3  502    0 -0.23374360672E+02  0.47987277169E+02 -0.20025956113E+02  0.57203744852E+02  0.47000000000E+01 0.  1.
         -5    1    3    3    0  502  0.61865124129E+02  0.22253242059E+02  0.78106565415E+02  0.10220188808E+03  0.47000000000E+01 0.  1.
          1    1    1    2  503    0 -0.15917886472E+02 -0.65194807065E+02  0.72376532335E+03  0.72686999200E+03  0.00000000000E+00 0. -1.
         -2    1    1    2    0  501 -0.15818784727E+02 -0.71823649530E+01 -0.20276568731E+03  0.20350858525E+03  0.00000000000E+00 0.  1.
<mgrwt>
<rscale>  0 0.34198617E+02</rscale>
<asrwt>0</asrwt>
<pdfrwt beam="1">  1        2 0.17922814E+00 0.67319806E+02</pdfrwt>
<pdfrwt beam="2">  1       -1 0.41572806E-01 0.17372977E+02</pdfrwt>
<totfact> 0.14793845E+02</totfact>
</mgrwt>
</event>
<event>
13    1  0.2742815E-008  0.9396242E+02  0.7546771E-02  0.1465657E+00
          2   -1    0    0  503    0  0.00000000000E+00  0.00000000000E+00  0.91181471303E+03  0.91181471303E+03  0.00000000000E+00 0. -1.
         -1   -1    0    0    0  501 -0.00000000000E+00 -0.00000000000E+00 -0.45262875420E+03  0.45262875420E+03  0.00000000000E+00 0.  1.
         25    2    1    2    0    0 -0.23614831606E+02  0.16274525248E+03 -0.20734186361E+03  0.29267748414E+03  0.12500313535E+03 0.  0.
         24    2    1    2    0    0 -0.88028212601E+02 -0.11440669668E+03 -0.69187102205E+02  0.17929825915E+03  0.80766033493E+02 0.  0.
         24    2    1    2    0    0  0.25862508300E+02 -0.91883130041E+02  0.21187723393E+03  0.24624016833E+03  0.81430211348E+02 0.  0.
        -13    1    5    5    0    0  0.12834684952E+02  0.12475436704E+02  0.50884365069E+02  0.53940562355E+02  0.00000000000E+00 0.  1.
         14    1    5    5    0    0  0.13027823348E+02 -0.10435856674E+03  0.16099286886E+03  0.19229960597E+03  0.00000000000E+00 0. -1.
        -13    1    4    4    0    0  0.15645223005E+02 -0.14578663746E+02 -0.68487958545E+01  0.22454764397E+02  0.00000000000E+00 0.  1.
         14    1    4    4    0    0 -0.10367343561E+03 -0.99828032930E+02 -0.62338306351E+02  0.15684349476E+03  0.00000000000E+00 0. -1.
          5    1    3    3  502    0 -0.27698238125E+02  0.30885677041E+01 -0.90293167882E+02  0.94613306737E+02  0.47000000000E+01 0. -1.
         -5    1    3    3    0  502  0.40834065194E+01  0.15965668477E+03 -0.11704869572E+03  0.19806417741E+03  0.47000000000E+01 0. -1.
          1    1    1    2  503    0  0.71237716034E+02  0.61278446610E+02  0.57895396116E+03  0.58653009245E+03  0.00000000000E+00 0. -1.
         -2    1    1    2    0  501  0.14542819873E+02 -0.17733872371E+02 -0.55116270449E+02  0.59697463156E+02  0.00000000000E+00 0.  1.
<mgrwt>
<rscale>  0 0.46421610E+02</rscale>
<asrwt>0</asrwt>
<pdfrwt beam="1">  1        2 0.13409040E+00 0.93962421E+02</pdfrwt>
<pdfrwt beam="2">  1       -1 0.66563052E-01 0.22934338E+02</pdfrwt>
<totfact> 0.94923335E+01</totfact>
</mgrwt>
</event>
<event>
13    1  0.2742815E-008  0.8174544E+02  0.7546771E-02  0.1426395E+00
          2   -1    0    0  502    0  0.00000000000E+00  0.00000000000E+00  0.15766501628E+04  0.15766501628E+04  0.00000000000E+00 0. -1.
          2   -1    0    0  503    0 -0.00000000000E+00 -0.00000000000E+00 -0.18245499554E+04  0.18245499554E+04  0.00000000000E+00 0. -1.
         25    2    1    2    0    0 -0.31092955057E+03 -0.46545369738E+03 -0.29127939415E+03  0.64326745546E+03  0.12500001588E+03 0.  0.
         24    2    1    2    0    0  0.44787797845E+03  0.48739413363E+03  0.35713213792E+03  0.75497948630E+03  0.65596766129E+02 0.  0.
         24    2    1    2    0    0 -0.16458759540E+03 -0.10582875684E+03  0.10582121237E+03  0.23774360330E+03  0.83875440931E+02 0.  0.
        -11    1    4    4    0    0  0.36293304524E+03  0.41285714113E+03  0.27090763042E+03  0.61283142749E+03  0.00000000000E+00 0.  1.
         12    1    4    4    0    0  0.84944933210E+02  0.74536992505E+02  0.86224507496E+02  0.14214805881E+03  0.00000000000E+00 0. -1.
        -13    1    5    5    0    0 -0.10646497038E+03 -0.11168059922E+03  0.81098851959E+02  0.17431112974E+03  0.00000000000E+00 0.  1.
         14    1    5    5    0    0 -0.58122625021E+02  0.58518423874E+01  0.24722360407E+02  0.63432473567E+02  0.00000000000E+00 0. -1.
          5    1    3    3  501    0 -0.92110226069E+02 -0.55024169282E+02 -0.40094040719E+02  0.11463670901E+03  0.47000000000E+01 0.  1.
         -5    1    3    3    0  501 -0.21881932450E+03 -0.41042952810E+03 -0.25118535343E+03  0.52863074645E+03  0.47000000000E+01 0.  1.
          1    1    1    2  502    0 -0.26806811199E+02  0.22911598561E+02  0.67082481031E+03  0.67175104958E+03  0.00000000000E+00 0. -1.
          1    1    1    2  503    0  0.54445978729E+02  0.60976722026E+02 -0.10903985590E+04  0.10934585235E+04  0.00000000000E+00 0. -1.
<mgrwt>
<rscale>  0 0.53690480E+02</rscale>
<asrwt>0</asrwt>
<pdfrwt beam="1">  1        2 0.23186032E+00 0.35263954E+02</pdfrwt>
<pdfrwt beam="2">  1        2 0.26831617E+00 0.81745445E+02</pdfrwt>
<totfact> 0.28376455E+01</totfact>
</mgrwt>
</event>
<event>
13    1  0.2742815E-008  0.8325911E+02  0.7546771E-02  0.1341638E+00
          2   -1    0    0  502    0  0.00000000000E+00  0.00000000000E+00  0.29161084189E+04  0.29161084189E+04  0.00000000000E+00 0. -1.
          2   -1    0    0  503    0 -0.00000000000E+00 -0.00000000000E+00 -0.28657802204E+04  0.28657802204E+04  0.00000000000E+00 0. -1.
         25    2    1    2    0    0  0.67566089887E+02  0.72464902005E+02  0.61088298231E+02  0.17080003983E+03  0.12499813958E+03 0.  0.
         24    2    1    2    0    0  0.14091386646E+02 -0.10370018643E+03  0.76118419156E+03  0.77258692172E+03  0.80850988179E+02 0.  0.
         24    2    1    2    0    0 -0.96902632322E+01  0.24915281783E+02  0.48778366408E+03  0.49591728011E+03  0.85360255988E+02 0.  0.
        -11    1    4    4    0    0 -0.20767953905E+02 -0.56925470765E+02  0.21753752192E+03  0.22581937600E+03  0.00000000000E+00 0.  1.
         12    1    4    4    0    0  0.34859340551E+02 -0.46774715663E+02  0.54364666964E+03  0.54676754573E+03  0.00000000000E+00 0. -1.
        -13    1    5    5    0    0 -0.32931622120E+02  0.33518353640E+02  0.43582747061E+03  0.43835323188E+03  0.00000000000E+00 0.  1.
         14    1    5    5    0    0  0.23241358888E+02 -0.86030718575E+01  0.51956193474E+02  0.57564048230E+02  0.00000000000E+00 0. -1.
          5    1    3    3  501    0 -0.23572557163E+02  0.44430032971E+02  0.55677160667E+02  0.75177985481E+02  0.47000000000E+01 0. -1.
         -5    1    3    3    0  501  0.91138647051E+02  0.28034869035E+02  0.54111375635E+01  0.95622054348E+02  0.47000000000E+01 0. -1.
          1    1    1    2  502    0 -0.26614960688E+02 -0.63523820625E+02  0.15400394457E+04  0.15415787771E+04  0.00000000000E+00 0. -1.
          1    1    1    2  503    0 -0.45352252614E+02  0.69843823264E+02 -0.27997674010E+04  0.28010056205E+04  0.00000000000E+00 0. -1.
<mgrwt>
<rscale>  0 0.75725758E+02</rscale>
<asrwt>0</asrwt>
<pdfrwt beam="1">  1        2 0.42883947E+00 0.68874029E+02</pdfrwt>
<pdfrwt beam="2">  1        2 0.42143827E+00 0.83259111E+02</pdfrwt>
<totfact> 0.18505562E+00</totfact>
</mgrwt>
</event>
<event>
13    1  0.2742815E-008  0.6309746E+02  0.7546771E-02  0.1401910E+00
          2   -1    0    0  503    0  0.00000000000E+00  0.00000000000E+00  0.16101910432E+04  0.16101910432E+04  0.00000000000E+00 0. -1.
          2   -1    0    0  502    0 -0.00000000000E+00 -0.00000000000E+00 -0.16336578643E+04  0.16336578643E+04  0.00000000000E+00 0. -1.
         25    2    1    2    0    0  0.63075643316E+02 -0.89012560467E+02 -0.81219054979E+03  0.82896311482E+03  0.12499833542E+03 0.  0.
         24    2    1    2    0    0 -0.16631247536E+02  0.56134531416E+02  0.21295822130E+03  0.23472438146E+03  0.79477337777E+02 0.  0.
         24    2    1    2    0    0 -0.21289328177E+02 -0.47203581910E+02  0.43491921744E+03  0.44544760934E+03  0.81163004709E+02 0.  0.
        -11    1    5    5    0    0 -0.21270338183E+02  0.19886725386E+02  0.12419285255E+03  0.12756086296E+03  0.00000000000E+00 0.  1.
         12    1    5    5    0    0 -0.18989994260E-01 -0.67090307296E+02  0.31072636489E+03  0.31788674639E+03  0.00000000000E+00 0. -1.
        -13    1    4    4    0    0 -0.16895713131E+02  0.47076879239E+02  0.47370042061E+02  0.68888450164E+02  0.00000000000E+00 0.  1.
         14    1    4    4    0    0  0.26446559483E+00  0.90576521770E+01  0.16558817924E+03  0.16583593130E+03  0.00000000000E+00 0. -1.
          5    1    3    3  501    0  0.14604506712E+02 -0.10617707094E+03 -0.64874637053E+03  0.65755669359E+03  0.47000000000E+01 0.  1.
         -5    1    3    3    0  501  0.48471136604E+02  0.17164510477E+02 -0.16344417927E+03  0.17140642123E+03  0.47000000000E+01 0.  1.
          1    1    1    2  502    0  0.25379201779E+02  0.57768082878E+02 -0.79486894426E+03  0.79736935847E+03  0.00000000000E+00 0. -1.
          1    1    1    2  503    0 -0.50534269382E+02  0.22313528083E+02  0.93571523421E+03  0.93734444334E+03  0.00000000000E+00 0. -1.
<mgrwt>
<rscale>  0 0.59038873E+02</rscale>
<asrwt>0</asrwt>
<pdfrwt beam="1">  1        2 0.23679280E+00 0.55241342E+02</pdfrwt>
<pdfrwt beam="2">  1        2 0.24024380E+00 0.63097463E+02</pdfrwt>
<totfact> 0.33197241E+01</totfact>
</mgrwt>
</event>
<event>
13    1  0.2742815E-008  0.1575916E+03  0.7546771E-02  0.1223881E+00
          2   -1    0    0  503    0  0.00000000000E+00  0.00000000000E+00  0.14798368546E+04  0.14798368546E+04  0.00000000000E+00 0. -1.
          2   -1    0    0  502    0 -0.00000000000E+00 -0.00000000000E+00 -0.14616887441E+04  0.14616887441E+04  0.00000000000E+00 0. -1.
         25    2    1    2    0    0  0.10493690320E+03  0.13655915658E+01 -0.45540876766E+03  0.48377237578E+03  0.12499978962E+03 0.  0.
         24    2    1    2    0    0 -0.56388001324E+02  0.17498180502E+02  0.92508398807E+02  0.13630273911E+03  0.80838356156E+02 0.  0.
         24    2    1    2    0    0  0.21370800320E+02  0.12202759722E+02 -0.11433807139E+02  0.84806147615E+02  0.80347571690E+02 0.  0.
        -13    1    5    5    0    0 -0.12284544257E+01 -0.33230292206E+02 -0.57328009540E+01  0.33743539044E+02  0.00000000000E+00 0.  1.
         14    1    5    5    0    0  0.22599254746E+02  0.45433051929E+02 -0.57010061846E+01  0.51062608572E+02  0.00000000000E+00 0. -1.
        -13    1    4    4    0    0 -0.71370697789E+02  0.36137119772E+00  0.47111011971E+02  0.85518153283E+02  0.00000000000E+00 0.  1.
         14    1    4    4    0    0  0.14982696465E+02  0.17136809304E+02  0.45397386836E+02  0.50784585831E+02  0.00000000000E+00 0. -1.
          5    1    3    3  501    0  0.17593310493E+02 -0.26362150270E+02 -0.17811829860E+02  0.36658407274E+02  0.47000000000E+01 0. -1.
         -5    1    3    3    0  501  0.87343592703E+02  0.27727741836E+02 -0.43759693780E+03  0.44711396850E+03  0.47000000000E+01 0. -1.
          1    1    1    2  502    0  0.13391780399E+03  0.80592592867E+01 -0.90893339132E+03  0.91878117076E+03  0.00000000000E+00 0. -1.
          1    1    1    2  503    0 -0.20383750618E+03 -0.39125791077E+02  0.13014156778E+04  0.13178631654E+04  0.00000000000E+00 0. -1.
<mgrwt>
<rscale>  0 0.13243918E+03</rscale>
<asrwt>0</asrwt>
<pdfrwt beam="1">  1        2 0.21762307E+00 0.15759159E+03</pdfrwt>
<pdfrwt beam="2">  1        2 0.21495423E+00 0.11130122E+03</pdfrwt>
<totfact> 0.40958214E+01</totfact>
</mgrwt>
</event>
<event>
13    1  0.2742815E-008  0.6053021E+02  0.7546771E-02  0.1405158E+00
          2   -1    0    0  503    0  0.00000000000E+00  0.00000000000E+00  0.18399131525E+04  0.18399131525E+04  0.00000000000E+00 0. -1.
          2   -1    0    0  502    0 -0.00000000000E+00 -0.00000000000E+00 -0.13229497860E+04  0.13229497860E+04  0.00000000000E+00 0. -1.
         25    2    1    2    0    0 -0.27150744456E+03  0.18985204371E+03 -0.47575954695E+03  0.59306935128E+03  0.12499607177E+03 0.  0.
         24    2    1    2    0    0  0.17219412797E+03  0.17047314669E+03 -0.30983415633E+03  0.40287763704E+03  0.87185288594E+02 0.  0.
         24    2    1    2    0    0  0.86172326053E+02 -0.42112607567E+03  0.73534650111E+03  0.85549694745E+03  0.79797926119E+02 0.  0.
        -11    1    5    5    0    0  0.68707405603E+02 -0.14988064068E+03  0.29789357417E+03  0.34047833348E+03  0.00000000000E+00 0.  1.
         12    1    5    5    0    0  0.17464920450E+02 -0.27124543499E+03  0.43745292694E+03  0.51501861397E+03  0.00000000000E+00 0. -1.
        -13    1    4    4    0    0  0.17973964885E+03  0.14503368479E+03 -0.27629736578E+03  0.36011296204E+03  0.00000000000E+00 0.  1.
         14    1    4    4    0    0 -0.75455208822E+01  0.25439461905E+02 -0.33536790553E+02  0.42764675001E+02  0.00000000000E+00 0. -1.
          5    1    3    3  501    0 -0.16130019834E+03  0.16332068137E+03 -0.24403651709E+03  0.33506314423E+03  0.47000000000E+01 0.  1.
         -5    1    3    3    0  501 -0.11020724622E+03  0.26531362341E+02 -0.23172302987E+03  0.25800620705E+03  0.47000000000E+01 0.  1.
          1    1    1    2  502    0  0.53818102474E+02  0.15942163610E+02 -0.36900376270E+03  0.37324833238E+03  0.00000000000E+00 0. -1.
          1    1    1    2  503    0 -0.40677111933E+02  0.44858721649E+02  0.93621433140E+03  0.93817067033E+03  0.00000000000E+00 0. -1.
<mgrwt>
<rscale>  0 0.58288430E+02</rscale>
<asrwt>0</asrwt>
<pdfrwt beam="1">  1        2 0.27057547E+00 0.60530208E+02</pdfrwt>
<pdfrwt beam="2">  1        2 0.19455144E+00 0.56129678E+02</pdfrwt>
<totfact> 0.36626168E+01</totfact>
</mgrwt>
</event>
<event>
13    1  0.2742815E-008  0.6303090E+02  0.7546771E-02  0.1449933E+00
          2   -1    0    0  503    0  0.00000000000E+00  0.00000000000E+00  0.35575735431E+04  0.35575735431E+04  0.00000000000E+00 0. -1.
         -1   -1    0    0    0  501 -0.00000000000E+00 -0.00000000000E+00 -0.77933020819E+03  0.77933020819E+03  0.00000000000E+00 0.  1.
         25    2    1    2    0    0 -0.13538072327E+02 -0.83607203274E+02  0.20026546743E+02  0.15231784220E+03  0.12500487445E+03 0.  0.
         24    2    1    2    0    0  0.29171354847E+02 -0.28008722942E+02  0.22343076432E+03  0.24121927656E+03  0.81424667213E+02 0.  0.
         24    2    1    2    0    0 -0.10767856445E+02  0.59695890515E+02  0.11315708607E+04  0.11360562024E+04  0.80570070340E+02 0.  0.
        -11    1    5    5    0    0 -0.25764178362E+02  0.35432456713E+02  0.23603397350E+03  0.24006517557E+03  0.00000000000E+00 0.  1.
         12    1    5    5    0    0  0.14996321917E+02  0.24263433802E+02  0.89553688720E+03  0.89599102686E+03  0.00000000000E+00 0. -1.
        -13    1    4    4    0    0  0.61170294374E+01 -0.96144471411E+01  0.20728080117E+03  0.20759380091E+03  0.00000000000E+00 0.  1.
         14    1    4    4    0    0  0.23054325410E+02 -0.18394275801E+02  0.16149963152E+02  0.33625475642E+02  0.00000000000E+00 0. -1.
          5    1    3    3  502    0  0.18841178444E+02  0.27888672785E+02  0.11218644471E+02  0.35787093464E+02  0.47000000000E+01 0.  1.
         -5    1    3    3    0  502 -0.32379250771E+02 -0.11149587606E+03  0.88079022729E+01  0.11653074874E+03  0.47000000000E+01 0.  1.
          1    1    1    2  503    0  0.33438004228E+02  0.53585811443E+02  0.21042651243E+04  0.21052128758E+04  0.00000000000E+00 0. -1.
         -2    1    1    2    0  501 -0.38303430303E+02 -0.16657757426E+01 -0.70104996118E+03  0.70209755422E+03  0.00000000000E+00 0.  1.
<mgrwt>
<rscale>  0 0.49158741E+02</rscale>
<asrwt>0</asrwt>
<pdfrwt beam="1">  1        2 0.52317257E+00 0.63030903E+02</pdfrwt>
<pdfrwt beam="2">  1       -1 0.11460739E+00 0.38339635E+02</pdfrwt>
<totfact> 0.14381306E+00</totfact>
</mgrwt>
</event>
<event>
13    1  0.2742815E-008  0.2063044E+03  0.7546771E-02  0.1306607E+00
          2   -1    0    0  503    0  0.00000000000E+00  0.00000000000E+00  0.53815212094E+03  0.53815212094E+03  0.00000000000E+00 0. -1.
          2   -1    0    0  502    0 -0.00000000000E+00 -0.00000000000E+00 -0.97116692609E+03  0.97116692609E+03  0.00000000000E+00 0. -1.
         25    2    1    2    0    0  0.17926482741E+03 -0.79914064962E+02 -0.50068357244E+03  0.55211534798E+03  0.12500072656E+03 0.  0.
         24    2    1    2    0    0  0.17636509470E+02  0.67156889499E+02 -0.92648302929E+02  0.14108583956E+03  0.80625131415E+02 0.  0.
         24    2    1    2    0    0  0.16621677579E+02 -0.62410963387E+02 -0.10950921484E+03  0.14978392478E+03  0.79193102409E+02 0.  0.
        -11    1    4    4    0    0 -0.71794762158E+01 -0.17072582181E+02 -0.18157995277E+02  0.25937053293E+02  0.00000000000E+00 0.  1.
         12    1    4    4    0    0  0.24815985686E+02  0.84229471680E+02 -0.74490307652E+02  0.11514878627E+03  0.00000000000E+00 0. -1.
        -11    1    5    5    0    0  0.31638648366E+02 -0.73429451352E+02 -0.10223574813E+03  0.12978843012E+03  0.00000000000E+00 0.  1.
         12    1    5    5    0    0 -0.15016970786E+02  0.11018487964E+02 -0.72734667109E+01  0.19995494658E+02  0.00000000000E+00 0. -1.
          5    1    3    3  501    0  0.50154964859E+02 -0.89639187491E+02 -0.23578403297E+03  0.25722928417E+03  0.47000000000E+01 0. -1.
         -5    1    3    3    0  501  0.12910986255E+03  0.97251225290E+01 -0.26489953947E+03  0.29488606381E+03  0.47000000000E+01 0. -1.
          1    1    1    2  502    0 -0.10197689148E+02  0.36539854686E+02 -0.17322322340E+03  0.17732861859E+03  0.00000000000E+00 0. -1.
          1    1    1    2  503    0 -0.20332532531E+03  0.38628284164E+02  0.44304950846E+03  0.48900531612E+03  0.00000000000E+00 0. -1.
<mgrwt>
<rscale>  0 0.88466949E+02</rscale>
<asrwt>0</asrwt>
<pdfrwt beam="1">  1        2 0.79140019E-01 0.20630440E+03</pdfrwt>
<pdfrwt beam="2">  1        2 0.14281866E+00 0.37936181E+02</pdfrwt>
<totfact> 0.30079155E+02</totfact>
</mgrwt>
</event>
<event>
13    1  0.2742815E-008  0.7583053E+02  0.7546771E-02  0.1488791E+00
          2   -1    0    0  503    0  0.00000000000E+00  0.00000000000E+00  0.32856387734E+04  0.32856387734E+04  0.00000000000E+00 0. -1.
          2   -1    0    0  502    0 -0.00000000000E+00 -0.00000000000E+00 -0.25168335245E+04  0.25168335245E+04  0.00000000000E+00 0. -1.
         25    2    1    2    0    0  0.98065038817E+02 -0.15284657965E+03 -0.54495816083E+02  0.22709788419E+03  0.12499930515E+03 0.  0.
         24    2    1    2    0    0  0.14442558089E+02  0.28849352934E+03  0.22413754117E+03  0.37440091056E+03  0.80630642486E+02 0.  0.
         24    2    1    2    0    0 -0.32216902807E+02 -0.16026573859E+03  0.20471938083E+04  0.20560861196E+04  0.98816024113E+02 0.  0.
        -13    1    4    4    0    0  0.33762974110E+01  0.38117131761E+02  0.13875265379E+00  0.38266622143E+02  0.00000000000E+00 0.  1.
         14    1    4    4    0    0  0.11066260678E+02  0.25037639758E+03  0.22399878852E+03  0.33613428841E+03  0.00000000000E+00 0. -1.
        -13    1    5    5    0    0 -0.21469577110E+02  0.74852015223E+01  0.21604062024E+03  0.21723379244E+03  0.00000000000E+00 0.  1.
         14    1    5    5    0    0 -0.10747325697E+02 -0.16775094011E+03  0.18311531881E+04  0.18388523272E+04  0.00000000000E+00 0. -1.
          5    1    3    3  501    0  0.69112526602E+02 -0.91544843609E+02  0.30008942137E+02  0.11865760124E+03  0.47000000000E+01 0.  1.
         -5    1    3    3    0  501  0.28952512215E+02 -0.61301736038E+02 -0.84504758220E+02  0.10844028295E+03  0.47000000000E+01 0.  1.
          1    1    1    2  502    0 -0.45025396672E+01  0.23694481384E+02 -0.22947025882E+04  0.22948293335E+04  0.00000000000E+00 0. -1.
          1    1    1    2  503    0 -0.75788154432E+02  0.92430751298E+00  0.84667230372E+03  0.85005805013E+03  0.00000000000E+00 0. -1.
<mgrwt>
<rscale>  0 0.42765845E+02</rscale>
<asrwt>0</asrwt>
<pdfrwt beam="1">  1        2 0.48318217E+00 0.75830529E+02</pdfrwt>
<pdfrwt beam="2">  1        2 0.37012258E+00 0.24118485E+02</pdfrwt>
<totfact> 0.20725996E+00</totfact>
</mgrwt>
</event>
<event>
13    1  0.2742815E-008  0.9419497E+02  0.7546771E-02  0.1523106E+00
          2   -1    0    0  502    0  0.00000000000E+00  0.00000000000E+00  0.25924684052E+04  0.25924684052E+04  0.00000000000E+00 0. -1.
          2   -1    0    0  503    0 -0.00000000000E+00 -0.00000000000E+00 -0.13978027463E+04  0.13978027463E+04  0.00000000000E+00 0. -1.
         25    2    1    2    0    0  0.14752258994E+03  0.78731425309E+02 -0.32274688603E+03  0.38438629042E+03  0.12500286376E+03 0.  0.
         24    2    1    2    0    0 -0.78945598432E+02 -0.38051419005E+02  0.27407197298E+03  0.29877171561E+03  0.80428686899E+02 0.  0.
         24    2    1    2    0    0  0.11244674783E+02  0.16885737829E+02  0.72023641815E+02  0.10971954689E+03  0.80245891711E+02 0.  0.
        -11    1    5    5    0    0 -0.67873720221E+01 -0.16937516517E+02  0.68885919027E+02  0.71261614667E+02  0.00000000000E+00 0.  1.
         12    1    5    5    0    0  0.18032046806E+02  0.33823254347E+02  0.31377227872E+01  0.38457932223E+02  0.00000000000E+00 0. -1.
        -13    1    4    4    0    0 -0.29691957897E+02 -0.50388384547E+02  0.86265723327E+02  0.10422272632E+03  0.00000000000E+00 0.  1.
         14    1    4    4    0    0 -0.49253640535E+02  0.12336965541E+02  0.18780624965E+03  0.19454898929E+03  0.00000000000E+00 0. -1.
          5    1    3    3  501    0  0.12132883470E+03  0.92269438013E+02 -0.31990367851E+03  0.35439355079E+03  0.47000000000E+01 0. -1.
         -5    1    3    3    0  501  0.26193755240E+02 -0.13538012704E+02 -0.28432075258E+01  0.29992739631E+02  0.47000000000E+01 0. -1.
          1    1    1    2  502    0 -0.83970823132E+02 -0.42769702944E+02  0.21832805461E+04  0.21853133161E+04  0.00000000000E+00 0. -1.
          1    1    1    2  503    0  0.41491568426E+01 -0.14796041190E+02 -0.10119636159E+04  0.10120802825E+04  0.00000000000E+00 0. -1.
<mgrwt>
<rscale>  0 0.38045691E+02</rscale>
<asrwt>0</asrwt>
<pdfrwt beam="1">  1        2 0.38124536E+00 0.94194970E+02</pdfrwt>
<pdfrwt beam="2">  1        2 0.20555923E+00 0.15366793E+02</pdfrwt>
<totfact> 0.15392415E+01</totfact>
</mgrwt>
</event>
<event>
13    1  0.2742815E-008  0.1507359E+03  0.7546771E-02  0.1499909E+00
          2   -1    0    0  503    0  0.00000000000E+00  0.00000000000E+00  0.97644185596E+03  0.97644185596E+03  0.00000000000E+00 0. -1.
          2   -1    0    0  502    0 -0.00000000000E+00 -0.00000000000E+00 -0.27492558615E+04  0.27492558615E+04  0.00000000000E+00 0. -1.
         25    2    1    2    0    0  0.40124213498E+02 -0.12176753187E+03 -0.71791046228E+02  0.19291842436E+03  0.12500511915E+03 0.  0.
         24    2    1    2    0    0 -0.47464860098E+02 -0.35438882502E+01 -0.77570000326E+02  0.12103308050E+03  0.79789908739E+02 0.  0.
         24    2    1    2    0    0  0.99118789519E+02  0.18189602220E+02  0.12600226180E+02  0.13057237017E+03  0.82066936627E+02 0.  0.
        -11    1    5    5    0    0  0.71590632354E+01  0.13735877960E+02 -0.26381272685E+02  0.30592451328E+02  0.00000000000E+00 0.  1.
         12    1    5    5    0    0  0.91959726284E+02  0.44537242598E+01  0.38981498865E+02  0.99979918843E+02  0.00000000000E+00 0. -1.
        -13    1    4    4    0    0  0.72642656721E+00 -0.40765521683E+01 -0.72449343327E+02  0.72567577620E+02  0.00000000000E+00 0.  1.
         14    1    4    4    0    0 -0.48191286665E+02  0.53266391814E+00 -0.51206569991E+01  0.48465502880E+02  0.00000000000E+00 0. -1.
          5    1    3    3  501    0  0.11355929949E+02 -0.11370292864E+03  0.70394587580E+00  0.11436738463E+03  0.47000000000E+01 0. -1.
         -5    1    3    3    0  501  0.28768283548E+02 -0.80646032300E+01 -0.72494992104E+02  0.78551039737E+02  0.47000000000E+01 0. -1.
          1    1    1    2  502    0 -0.10088553397E+03  0.11369917906E+03 -0.24562255761E+04  0.24609245163E+04  0.00000000000E+00 0. -1.
          1    1    1    2  503    0  0.91073910475E+01 -0.65773611562E+01  0.82017239090E+03  0.82024932615E+03  0.00000000000E+00 0. -1.
<mgrwt>
<rscale>  0 0.41150826E+02</rscale>
<asrwt>0</asrwt>
<pdfrwt beam="1">  1        2 0.14359439E+00 0.11234156E+02</pdfrwt>
<pdfrwt beam="2">  1        2 0.40430233E+00 0.15073590E+03</pdfrwt>
<totfact> 0.19419064E+01</totfact>
</mgrwt>
</event>
<event>
13    1  0.2742815E-008  0.1047189E+03  0.7546771E-02  0.1289466E+00
         -3   -1    0    0    0  501 -0.00000000000E+00  0.00000000000E+00  0.39672313630E+03  0.39672313630E+03  0.00000000000E+00 0.  1.
          2   -1    0    0  503    0  0.00000000000E+00 -0.00000000000E+00 -0.13648732453E+04  0.13648732453E+04  0.00000000000E+00 0. -1.
         25    2    1    2    0    0  0.10667285338E+03 -0.11816950327E+03  0.36022049030E+02  0.20559224515E+03  0.12500981601E+03 0.  0.
         24    2    1    2    0    0 -0.70767054887E+02 -0.56820522692E+02 -0.36316111781E+03  0.38305097712E+03  0.81274262411E+02 0.  0.
         24    2    1    2    0    0  0.58038463069E+02  0.99055095841E+01 -0.35169954392E+03  0.36566210175E+03  0.80929729705E+02 0.  0.
        -13    1    5    5    0    0  0.45878982705E+02  0.44121553885E+02 -0.21534958899E+03  0.22455965366E+03  0.00000000000E+00 0.  1.
         14    1    5    5    0    0  0.12159480364E+02 -0.34216044301E+02 -0.13634995492E+03  0.14110244809E+03  0.00000000000E+00 0. -1.
        -13    1    4    4    0    0 -0.27698755910E+02  0.12471233037E+02 -0.17994304262E+03  0.18248904438E+03  0.00000000000E+00 0.  1.
         14    1    4    4    0    0 -0.43068298976E+02 -0.69291755729E+02 -0.18321807519E+03  0.20056193274E+03  0.00000000000E+00 0. -1.
          5    1    3    3  502    0  0.17436378821E+02  0.25361471203E+01  0.51480790797E+02  0.54615210058E+02  0.47000000000E+01 0. -1.
         -5    1    3    3    0  502  0.89236474562E+02 -0.12070565039E+03 -0.15458741767E+02  0.15097703509E+03  0.47000000000E+01 0. -1.
          1    1    1    2  503    0 -0.30150269773E+02  0.10508918439E+03 -0.53521081309E+03  0.54626311416E+03  0.00000000000E+00 0. -1.
         -4    1    1    2    0  501 -0.63793991793E+02  0.59995331988E+02  0.24589931678E+03  0.26102794341E+03  0.00000000000E+00 0.  1.
<mgrwt>
<rscale>  0 0.95763244E+02</rscale>
<asrwt>0</asrwt>
<pdfrwt beam="2">  1        2 0.20071665E+00 0.10471891E+03</pdfrwt>
<pdfrwt beam="1">  1       -3 0.58341639E-01 0.87573473E+02</pdfrwt>
<totfact> 0.32565127E+01</totfact>
</mgrwt>
</event>
<event>
13    1  0.2742815E-008  0.1159925E+03  0.7546771E-02  0.1503376E+00
         -1   -1    0    0    0  501 -0.00000000000E+00  0.00000000000E+00  0.56016416121E+03  0.56016416121E+03  0.00000000000E+00 0.  1.
          2   -1    0    0  503    0  0.00000000000E+00 -0.00000000000E+00 -0.24880707453E+04  0.24880707453E+04  0.00000000000E+00 0. -1.
         25    2    1    2    0    0  0.57307077114E+02  0.30898638761E+02  0.23194106433E+03  0.27138589578E+03  0.12495927393E+03 0.  0.
         24    2    1    2    0    0  0.11564932642E+03 -0.22886616274E+02 -0.48310381533E+02  0.15070411433E+03  0.80493932741E+02 0.  0.
         24    2    1    2    0    0 -0.89174845152E+02  0.91444044984E+02 -0.22437023133E+03  0.27028415173E+03  0.79983470784E+02 0.  0.
        -11    1    5    5    0    0  0.22722863778E+01 -0.10825270496E+02 -0.33102275538E+02  0.34901438545E+02  0.00000000000E+00 0.  1.
         12    1    5    5    0    0 -0.91447131530E+02  0.10226931548E+03 -0.19126795579E+03  0.23538271318E+03  0.00000000000E+00 0. -1.
        -11    1    4    4    0    0  0.93984457384E+02 -0.36802183157E+02 -0.64969947464E+02  0.12003571547E+03  0.00000000000E+00 0.  1.
         12    1    4    4    0    0  0.21664869034E+02  0.13915566883E+02  0.16659565931E+02  0.30668398865E+02  0.00000000000E+00 0. -1.
          5    1    3    3  502    0  0.85022186712E+02 -0.59568591449E+01  0.19230161449E+03  0.21039547842E+03  0.47000000000E+01 0. -1.
         -5    1    3    3    0  502 -0.27715109598E+02  0.36855497906E+02  0.39639449832E+02  0.60990417353E+02  0.47000000000E+01 0. -1.
          1    1    1    2  503    0 -0.76109153878E+02 -0.87440442737E+02 -0.21197118452E+04  0.21228793515E+04  0.00000000000E+00 0. -1.
         -2    1    1    2    0  501 -0.76724045023E+01 -0.12015624734E+02  0.23254480969E+03  0.23298139312E+03  0.00000000000E+00 0.  1.
<mgrwt>
<rscale>  0 0.40664716E+02</rscale>
<asrwt>0</asrwt>
<pdfrwt beam="2">  1        2 0.36589275E+00 0.11599247E+03</pdfrwt>
<pdfrwt beam="1">  1       -1 0.82377083E-01 0.14256263E+02</pdfrwt>
<totfact> 0.10030395E+01</totfact>
</mgrwt>
</event>
<event>
13    1  0.2742815E-008  0.9138426E+02  0.7546771E-02  0.1304614E+00
          2   -1    0    0  503    0  0.00000000000E+00  0.00000000000E+00  0.24899251403E+04  0.24899251403E+04  0.00000000000E+00 0. -1.
          2   -1    0    0  502    0 -0.00000000000E+00 -0.00000000000E+00 -0.16153419252E+04  0.16153419252E+04  0.00000000000E+00 0. -1.
         25    2    1    2    0    0  0.87023130539E+02  0.76084122325E+02 -0.10905064703E+03  0.20218637893E+03  0.12500187714E+03 0.  0.
         24    2    1    2    0    0 -0.99131086143E+02 -0.66874347183E+02  0.48374033031E+03  0.50452760622E+03  0.79020552519E+02 0.  0.
         24    2    1    2    0    0  0.10256516477E+03  0.13759134201E+03  0.29137477496E+03  0.34781781504E+03  0.81406280814E+02 0.  0.
        -11    1    5    5    0    0  0.14665124294E+02 -0.10119937251E+02  0.32746335609E+02  0.37280041528E+02  0.00000000000E+00 0.  1.
         12    1    5    5    0    0  0.87900040477E+02  0.14771127926E+03  0.25862843935E+03  0.31053777352E+03  0.00000000000E+00 0. -1.
        -13    1    4    4    0    0  0.84143999714E+01 -0.24781516879E+02  0.12292043240E+03  0.12567560784E+03  0.00000000000E+00 0.  1.
         14    1    4    4    0    0 -0.10754548611E+03 -0.42092830304E+02  0.36081989791E+03  0.37885199838E+03  0.00000000000E+00 0. -1.
          5    1    3    3  501    0  0.10505082247E+03  0.93582968876E+02 -0.10646833443E+03  0.17649658241E+03  0.47000000000E+01 0.  1.
         -5    1    3    3    0  501 -0.18027691936E+02 -0.17498846551E+02 -0.25823126071E+01  0.25689796526E+02  0.47000000000E+01 0.  1.
          1    1    1    2  502    0 -0.25255860206E+02 -0.83479771431E+02 -0.14185005625E+04  0.14211792908E+04  0.00000000000E+00 0. -1.
          1    1    1    2  503    0 -0.65201348960E+02 -0.63321345721E+02  0.16270193193E+04  0.16295559746E+04  0.00000000000E+00 0. -1.
<mgrwt>
<rscale>  0 0.89276098E+02</rscale>
<asrwt>0</asrwt>
<pdfrwt beam="1">  1        2 0.36616546E+00 0.91384255E+02</pdfrwt>
<pdfrwt beam="2">  1        2 0.23755028E+00 0.87216574E+02</pdfrwt>
<totfact> 0.11844842E+01</totfact>
</mgrwt>
</event>
<event>
13    1  0.2742815E-008  0.1472978E+03  0.7546771E-02  0.1407040E+00
          2   -1    0    0  503    0  0.00000000000E+00  0.00000000000E+00  0.18585112605E+04  0.18585112605E+04  0.00000000000E+00 0. -1.
          2   -1    0    0  502    0 -0.00000000000E+00 -0.00000000000E+00 -0.16113957552E+04  0.16113957552E+04  0.00000000000E+00 0. -1.
         25    2    1    2    0    0 -0.21682706321E+02  0.11815288636E+02 -0.18745325475E+03  0.22665600756E+03  0.12499792896E+03 0.  0.
         24    2    1    2    0    0 -0.19103719271E+03 -0.21602502214E+02  0.94645700895E+02  0.22898205593E+03  0.80703755439E+02 0.  0.
         24    2    1    2    0    0  0.58179430005E+02 -0.10692130098E+01  0.28678294070E+03  0.30371804704E+03  0.81327779552E+02 0.  0.
        -11    1    5    5    0    0  0.45140463688E+02  0.21842738334E+02  0.26446456034E+03  0.26917702419E+03  0.00000000000E+00 0.  1.
         12    1    5    5    0    0  0.13038966317E+02 -0.22911951344E+02  0.22318380366E+02  0.34541022844E+02  0.00000000000E+00 0. -1.
        -13    1    4    4    0    0 -0.17305674763E+03 -0.99108604492E+00  0.56510983182E+02  0.18205249620E+03  0.00000000000E+00 0.  1.
         14    1    4    4    0    0 -0.17980445074E+02 -0.20611416169E+02  0.38134717713E+02  0.46929559732E+02  0.00000000000E+00 0. -1.
          5    1    3    3  501    0 -0.59720111617E+02  0.39912977835E+02 -0.14917433092E+03  0.16563395949E+03  0.47000000000E+01 0.  1.
         -5    1    3    3    0  501  0.38037405296E+02 -0.28097689200E+02 -0.38278923831E+02  0.61022048062E+02  0.47000000000E+01 0.  1.
          1    1    1    2  502    0 -0.20223722894E+02  0.10370584880E+02 -0.13230816883E+04  0.13232768802E+04  0.00000000000E+00 0. -1.
          1    1    1    2  503    0  0.17476419192E+03  0.48584170811E+00  0.13762218067E+04  0.13872740249E+04  0.00000000000E+00 0. -1.
<mgrwt>
<rscale>  0 0.57859642E+02</rscale>
<asrwt>0</asrwt>
<pdfrwt beam="1">  1        2 0.27331048E+00 0.14729776E+03</pdfrwt>
<pdfrwt beam="2">  1        2 0.23696996E+00 0.22727692E+02</pdfrwt>
<totfact> 0.25975361E+01</totfact>
</mgrwt>
</event>
<event>
13    1  0.2742815E-008  0.9265577E+02  0.7546771E-02  0.1424371E+00
          2   -1    0    0  502    0  0.00000000000E+00  0.00000000000E+00  0.17509809911E+04  0.17509809911E+04  0.00000000000E+00 0. -1.
          2   -1    0    0  503    0 -0.00000000000E+00 -0.00000000000E+00 -0.29031910780E+04  0.29031910780E+04  0.00000000000E+00 0. -1.
         25    2    1    2    0    0  0.13689004837E+03 -0.79917556049E+02 -0.11741372421E+04  0.11913601950E+04  0.12496059265E+03 0.  0.
         24    2    1    2    0    0 -0.69028631489E+02  0.15290304458E+03 -0.97592907200E+02  0.21065893674E+03  0.81905549770E+02 0.  0.
         24    2    1    2    0    0  0.21185960053E+02 -0.61893388871E+01  0.98257702787E+02  0.12931348787E+03  0.81118734998E+02 0.  0.
        -11    1    4    4    0    0 -0.40624142088E+02  0.83885694824E+02 -0.99054550426E+02  0.13601078882E+03  0.00000000000E+00 0.  1.
         12    1    4    4    0    0 -0.28404489401E+02  0.69017349757E+02  0.14616432260E+01  0.74648147911E+02  0.00000000000E+00 0. -1.
        -11    1    5    5    0    0  0.38822014174E+02 -0.31747485307E+02  0.76207884216E+02  0.91228796027E+02  0.00000000000E+00 0.  1.
         12    1    5    5    0    0 -0.17636054121E+02  0.25558146420E+02  0.22049818572E+02  0.38084691839E+02  0.00000000000E+00 0. -1.
          5    1    3    3  501    0  0.46989369909E+02 -0.15725204744E+02 -0.79163998443E+03  0.79320315045E+03  0.47000000000E+01 0.  1.
         -5    1    3    3    0  501  0.89900678459E+02 -0.64192351305E+02 -0.38249725771E+03  0.39815704453E+03  0.47000000000E+01 0.  1.
          1    1    1    2  502    0 -0.31139316347E+02  0.53515230502E+01  0.15705121445E+04  0.15708299373E+04  0.00000000000E+00 0. -1.
          1    1    1    2  503    0 -0.57908060583E+02 -0.72147672695E+02 -0.15492497849E+04  0.15520095122E+04  0.00000000000E+00 0. -1.
<mgrwt>
<rscale>  0 0.54106700E+02</rscale>
<asrwt>0</asrwt>
<pdfrwt beam="1">  1        2 0.25749720E+00 0.31595820E+02</pdfrwt>
<pdfrwt beam="2">  1        2 0.42693986E+00 0.92655769E+02</pdfrwt>
<totfact> 0.69259388E+00</totfact>
</mgrwt>
</event>
<event>
13    1  0.2742815E-008  0.1354057E+03  0.7546771E-02  0.1412701E+00
          2   -1    0    0  503    0  0.00000000000E+00  0.00000000000E+00  0.20847486861E+04  0.20847486861E+04  0.00000000000E+00 0. -1.
          2   -1    0    0  502    0 -0.00000000000E+00 -0.00000000000E+00 -0.63438583622E+03  0.63438583622E+03  0.00000000000E+00 0. -1.
         25    2    1    2    0    0 -0.35373529827E+02 -0.20255964550E+03 -0.17484513253E+03  0.29745101833E+03  0.12499836535E+03 0.  0.
         24    2    1    2    0    0 -0.10409624101E+03  0.96139192691E+02  0.80901156197E+02  0.18137789301E+03  0.79209666289E+02 0.  0.
         24    2    1    2    0    0  0.56542625551E+02 -0.12578964640E+01  0.30118447352E+03  0.31682016315E+03  0.80400733116E+02 0.  0.
        -11    1    5    5    0    0 -0.41481456555E+01  0.16389135114E+02  0.17377201478E+03  0.17459245111E+03  0.00000000000E+00 0.  1.
         12    1    5    5    0    0  0.60690771207E+02 -0.17647031578E+02  0.12741245873E+03  0.14222771204E+03  0.00000000000E+00 0. -1.
        -11    1    4    4    0    0 -0.27036364970E+02 -0.65152635814E+01 -0.30889654447E+01  0.27981340173E+02  0.00000000000E+00 0.  1.
         12    1    4    4    0    0 -0.77059876041E+02  0.10265445627E+03  0.83990121642E+02  0.15339655283E+03  0.00000000000E+00 0. -1.
          5    1    3    3  501    0 -0.17740358834E+02  0.61357997912E+01  0.64572140192E+01  0.20399852537E+02  0.47000000000E+01 0.  1.
         -5    1    3    3    0  501 -0.17633170993E+02 -0.20869544529E+03 -0.18130234655E+03  0.27705116579E+03  0.47000000000E+01 0.  1.
          1    1    1    2  502    0 -0.23653028944E+02  0.31971640811E+00 -0.33615143365E+03  0.33698272113E+03  0.00000000000E+00 0. -1.
          1    1    1    2  503    0  0.10658017423E+03  0.10735863286E+03  0.15792737864E+04  0.15865027267E+04  0.00000000000E+00 0. -1.
<mgrwt>
<rscale>  0 0.56595473E+02</rscale>
<asrwt>0</asrwt>
<pdfrwt beam="1">  1        2 0.30658069E+00 0.13540570E+03</pdfrwt>
<pdfrwt beam="2">  1        2 0.93292036E-01 0.23655190E+02</pdfrwt>
<totfact> 0.66125801E+01</totfact>
</mgrwt>
</event>
<event>
13    1  0.2742815E-008  0.1049555E+03  0.7546771E-02  0.1382022E+00
          2   -1    0    0  502    0  0.00000000000E+00  0.00000000000E+00  0.10028792600E+04  0.10028792600E+04  0.00000000000E+00 0. -1.
          2   -1    0    0  503    0 -0.00000000000E+00 -0.00000000000E+00 -0.29498009268E+03  0.29498009268E+03  0.00000000000E+00 0. -1.
         25    2    1    2    0    0  0.23421320156E+02  0.86262668293E+02 -0.81994703011E+02  0.17417798338E+03  0.12500012957E+03 0.  0.
         24    2    1    2    0    0 -0.33793521973E+02  0.25662332604E+02  0.15885006464E+03  0.18325257690E+03  0.80917281607E+02 0.  0.
         24    2    1    2    0    0 -0.76570605154E+02  0.33511638376E+02  0.20488301429E+03  0.23566150950E+03  0.81075335558E+02 0.  0.
        -11    1    5    5    0    0 -0.77100128990E+02  0.11525127393E+02  0.91685764994E+02  0.12034757145E+03  0.00000000000E+00 0.  1.
         12    1    5    5    0    0  0.52952383571E+00  0.21986510982E+02  0.11319724929E+03  0.11531393805E+03  0.00000000000E+00 0. -1.
        -13    1    4    4    0    0  0.11238803280E+02  0.24031344601E+02  0.11055220987E+02  0.28740809550E+02  0.00000000000E+00 0.  1.
         14    1    4    4    0    0 -0.45032325253E+02  0.16309880024E+01  0.14779484365E+03  0.15451176735E+03  0.00000000000E+00 0. -1.
          5    1    3    3  501    0  0.50220227676E+02  0.30056857449E+02 -0.93766377050E+02  0.11063322020E+03  0.47000000000E+01 0.  1.
         -5    1    3    3    0  501 -0.26798907521E+02  0.56205810844E+02  0.11771674039E+02  0.63544763172E+02  0.47000000000E+01 0.  1.
          1    1    1    2  502    0  0.10869435588E+03 -0.11312963593E+03  0.55157098519E+03  0.57344862824E+03  0.00000000000E+00 0. -1.
          1    1    1    2  503    0 -0.21751548905E+02 -0.32307003337E+02 -0.12541019381E+03  0.13131865464E+03  0.00000000000E+00 0. -1.
<mgrwt>
<rscale>  0 0.63935169E+02</rscale>
<asrwt>0</asrwt>
<pdfrwt beam="1">  1        2 0.14748224E+00 0.10495548E+03</pdfrwt>
<pdfrwt beam="2">  1        2 0.43379426E-01 0.38947045E+02</pdfrwt>
<totfact> 0.51939640E+02</totfact>
</mgrwt>
</event>
<event>
13    1  0.2742815E-008  0.3252374E+02  0.7546771E-02  0.1628043E+00
          2   -1    0    0  503    0  0.00000000000E+00  0.00000000000E+00  0.22045196947E+04  0.22045196947E+04  0.00000000000E+00 0. -1.
          2   -1    0    0  502    0 -0.00000000000E+00 -0.00000000000E+00 -0.18813059882E+04  0.18813059882E+04  0.00000000000E+00 0. -1.
         25    2    1    2    0    0  0.19627067021E+02 -0.16804565294E+03 -0.31169170586E+03  0.37603348268E+03  0.12499958943E+03 0.  0.
         24    2    1    2    0    0 -0.49130405243E+02  0.28426202971E+02  0.25259941881E+02  0.88695723977E+02  0.63301035169E+02 0.  0.
         24    2    1    2    0    0 -0.16404962787E+02  0.13296826540E+03  0.33936023456E+03  0.37405633758E+03  0.82480861278E+02 0.  0.
        -11    1    5    5    0    0 -0.37400717914E+02  0.91571184017E+02  0.15444929626E+03  0.18340850733E+03  0.00000000000E+00 0.  1.
         12    1    5    5    0    0  0.20995755127E+02  0.41397081385E+02  0.18491093830E+03  0.19064783026E+03  0.00000000000E+00 0. -1.
        -11    1    4    4    0    0 -0.48551452680E+02  0.45907743881E+02  0.24563300247E+02  0.71190731311E+02  0.00000000000E+00 0.  1.
         12    1    4    4    0    0 -0.57895256271E+00 -0.17481540911E+02  0.69664163402E+00  0.17504992666E+02  0.00000000000E+00 0. -1.
          5    1    3    3  501    0 -0.58663401109E+01 -0.17742795688E+03 -0.29336580409E+03  0.34292955376E+03  0.47000000000E+01 0. -1.
         -5    1    3    3    0  501  0.25493407131E+02  0.93823039363E+01 -0.18325901767E+02  0.33103928919E+02  0.47000000000E+01 0. -1.
          1    1    1    2  502    0  0.30670030360E+02 -0.10812991741E+02 -0.14881234311E+04  0.14884787260E+04  0.00000000000E+00 0. -1.
          1    1    1    2  503    0  0.15238270648E+02  0.17464176312E+02  0.17584086670E+04  0.17585614128E+04  0.00000000000E+00 0. -1.
<mgrwt>
<rscale>  0 0.27455838E+02</rscale>
<asrwt>0</asrwt>
<pdfrwt beam="1">  1        2 0.32419407E+00 0.23177626E+02</pdfrwt>
<pdfrwt beam="2">  1        2 0.27666265E+00 0.32523737E+02</pdfrwt>
<totfact> 0.16052132E+01</totfact>
</mgrwt>
</event>
<event>
13    1  0.2742815E-008  0.9853073E+02  0.7546771E-02  0.1387704E+00
          2   -1    0    0  502    0  0.00000000000E+00  0.00000000000E+00  0.23876344735E+04  0.23876344735E+04  0.00000000000E+00 0. -1.
          2   -1    0    0  503    0 -0.00000000000E+00 -0.00000000000E+00 -0.12418679911E+04  0.12418679911E+04  0.00000000000E+00 0. -1.
         25    2    1    2    0    0 -0.17301035646E+02 -0.69602103579E+02 -0.72853819569E+03  0.74265368576E+03  0.12499126265E+03 0.  0.
         24    2    1    2    0    0 -0.67658705149E+01 -0.93097866811E+01 -0.14885877528E+03  0.16924821168E+03  0.79709303400E+02 0.  0.
         24    2    1    2    0    0  0.35541662739E+02  0.94914127660E+01  0.40527492371E+03  0.41508028470E+03  0.81795979435E+02 0.  0.
        -11    1    4    4    0    0  0.38084226389E+01 -0.40276158328E+02 -0.11609834922E+03  0.12294510850E+03  0.00000000000E+00 0.  1.
         12    1    4    4    0    0 -0.10574293154E+02  0.30966371647E+02 -0.32760426056E+02  0.46303103179E+02  0.00000000000E+00 0. -1.
        -11    1    5    5    0    0  0.33773671724E+02  0.35947224640E+02  0.13906508363E+03  0.14755324919E+03  0.00000000000E+00 0.  1.
         12    1    5    5    0    0  0.17679910153E+01 -0.26455811874E+02  0.26620984008E+03  0.26752703551E+03  0.00000000000E+00 0. -1.
          5    1    3    3  501    0 -0.11206714000E+02  0.16334493612E+02 -0.18868094583E+02  0.27757901819E+02  0.47000000000E+01 0. -1.
         -5    1    3    3    0  501 -0.60943216462E+01 -0.85936597191E+02 -0.70967010110E+03  0.71489578394E+03  0.47000000000E+01 0. -1.
          1    1    1    2  502    0 -0.37687295429E+02  0.99131685889E+02  0.19576177704E+04  0.19604883979E+04  0.00000000000E+00 0. -1.
          1    1    1    2  503    0  0.26212538851E+02 -0.29711208395E+02 -0.33972924068E+03  0.34203188458E+03  0.00000000000E+00 0. -1.
<mgrwt>
<rscale>  0 0.62481380E+02</rscale>
<asrwt>0</asrwt>
<pdfrwt beam="1">  1        2 0.35112272E+00 0.98530735E+02</pdfrwt>
<pdfrwt beam="2">  1        2 0.18262764E+00 0.39621372E+02</pdfrwt>
<totfact> 0.21318275E+01</totfact>
</mgrwt>
</event>
<event>
13    1  0.2742815E-008  0.1882932E+03  0.7546771E-02  0.1179977E+00
          2   -1    0    0  502    0  0.00000000000E+00  0.00000000000E+00  0.24971635180E+04  0.24971635180E+04  0.00000000000E+00 0. -1.
          2   -1    0    0  503    0 -0.00000000000E+00 -0.00000000000E+00 -0.35264138926E+04  0.35264138926E+04  0.00000000000E+00 0. -1.
         25    2    1    2    0    0 -0.17453411927E+02 -0.13715774237E+03 -0.61207187149E+03  0.63982210753E+03  0.12499394203E+03 0.  0.
         24    2    1    2    0    0 -0.16944214075E+03 -0.15099876227E+02  0.27218679183E+03  0.32991018756E+03  0.76265568143E+02 0.  0.
         24    2    1    2    0    0  0.46657171722E+03  0.26830683714E+03  0.56967594171E+03  0.78781959158E+03  0.80320010864E+02 0.  0.
        -11    1    5    5    0    0  0.38515988158E+03  0.18548607521E+03  0.46212726047E+03  0.62953540277E+03  0.00000000000E+00 0.  1.
         12    1    5    5    0    0  0.81411835642E+02  0.82820761931E+02  0.10754868124E+03  0.15828418880E+03  0.00000000000E+00 0. -1.
        -13    1    4    4    0    0 -0.16942355504E+03 -0.45189923401E+01  0.27047924075E+03  0.31919239021E+03  0.00000000000E+00 0.  1.
         14    1    4    4    0    0 -0.18585713190E-01 -0.10580883887E+02  0.17075510798E+01  0.10717797345E+02  0.00000000000E+00 0. -1.
          5    1    3    3  501    0 -0.38989413986E+02 -0.11916229161E+03 -0.59162367040E+03  0.60478135183E+03  0.47000000000E+01 0. -1.
         -5    1    3    3    0  501  0.21536002060E+02 -0.17995450755E+02 -0.20448201089E+02  0.35040755705E+02  0.47000000000E+01 0. -1.
          1    1    1    2  502    0 -0.14872140821E+03  0.18337588420E+02  0.14965598940E+04  0.15040431645E+04  0.00000000000E+00 0. -1.
          1    1    1    2  503    0 -0.13095475634E+03 -0.13438680697E+03 -0.27556011307E+04  0.27619823594E+04  0.00000000000E+00 0. -1.
<mgrwt>
<rscale>  0 0.16797410E+03</rscale>
<asrwt>0</asrwt>
<pdfrwt beam="1">  1        2 0.36722993E+00 0.14984767E+03</pdfrwt>
<pdfrwt beam="2">  1        2 0.51859027E+00 0.18829320E+03</pdfrwt>
<totfact> 0.10196410E+00</totfact>
</mgrwt>
</event>
<event>
13    1  0.2742815E-008  0.1932073E+03  0.7546771E-02  0.1210240E+00
          2   -1    0    0  503    0  0.00000000000E+00  0.00000000000E+00  0.48596064117E+03  0.48596064117E+03  0.00000000000E+00 0. -1.
         -1   -1    0    0    0  501 -0.00000000000E+00 -0.00000000000E+00 -0.25844978928E+04  0.25844978928E+04  0.00000000000E+00 0.  1.
         25    2    1    2    0    0  0.40882643993E+03  0.17459189577E+03 -0.75876977945E+03  0.88824294428E+03  0.12499024679E+03 0.  0.
         24    2    1    2    0    0 -0.25300913837E+02 -0.65044775174E+02 -0.13506175668E+02  0.10685728881E+03  0.79781604220E+02 0.  0.
         24    2    1    2    0    0  0.58420490263E+01  0.31685574994E+02 -0.82630536261E+02  0.12184747613E+03  0.83551760708E+02 0.  0.
        -13    1    4    4    0    0 -0.45580460187E+02 -0.70181496012E+02 -0.17664317914E+02  0.85528058909E+02  0.00000000000E+00 0.  1.
         14    1    4    4    0    0  0.20279546350E+02  0.51367208385E+01  0.41581422458E+01  0.21329229899E+02  0.00000000000E+00 0. -1.
        -13    1    5    5    0    0  0.13030714295E+02  0.59239472991E+02 -0.61572993136E+02  0.86431175851E+02  0.00000000000E+00 0.  1.
         14    1    5    5    0    0 -0.71886652687E+01 -0.27553897996E+02 -0.21057543124E+02  0.35416300281E+02  0.00000000000E+00 0. -1.
          5    1    3    3  502    0  0.21653201708E+03  0.66599783137E+02 -0.27337914803E+03  0.35507730723E+03  0.47000000000E+01 0. -1.
         -5    1    3    3    0  502  0.19229442285E+03  0.10799211264E+03 -0.48539063143E+03  0.53316563705E+03  0.47000000000E+01 0. -1.
          1    1    1    2  503    0 -0.10700650136E+03 -0.86958939518E+02  0.32799531991E+03  0.35579935129E+03  0.00000000000E+00 0. -1.
         -2    1    1    2    0  501 -0.28236107376E+03 -0.54273756077E+02 -0.15716260801E+04  0.15977114734E+04  0.00000000000E+00 0.  1.
<mgrwt>
<rscale>  0 0.14232063E+03</rscale>
<asrwt>0</asrwt>
<pdfrwt beam="1">  1        2 0.71464802E-01 0.10483641E+03</pdfrwt>
<pdfrwt beam="2">  1       -1 0.38007321E+00 0.19320732E+03</pdfrwt>
<totfact> 0.98628980E-01</totfact>
</mgrwt>
</event>
<event>
13    1  0.2742815E-008  0.1052184E+03  0.7546771E-02  0.1348801E+00
          2   -1    0    0  502    0  0.00000000000E+00  0.00000000000E+00  0.11636322359E+04  0.11636322359E+04  0.00000000000E+00 0. -1.
          2   -1    0    0  503    0 -0.00000000000E+00 -0.00000000000E+00 -0.15412323559E+04  0.15412323559E+04  0.00000000000E+00 0. -1.
         25    2    1    2    0    0 -0.10800553957E+03 -0.16117705897E+03 -0.14560013651E+03  0.27288451144E+03  0.12499326349E+03 0.  0.
         24    2    1    2    0    0 -0.11881463015E+02  0.10587064303E+03  0.28461257708E+03  0.31418803167E+03  0.79749846366E+02 0.  0.
         24    2    1    2    0    0 -0.19555848850E+02  0.52906748176E+02  0.38552506057E+03  0.39778325563E+03  0.80127341796E+02 0.  0.
        -13    1    5    5    0    0  0.30197594268E+02  0.90788426060E+01  0.11410849150E+03  0.11838525210E+03  0.00000000000E+00 0.  1.
         14    1    5    5    0    0 -0.49753443118E+02  0.43827905570E+02  0.27141656907E+03  0.27939800353E+03  0.00000000000E+00 0. -1.
        -13    1    4    4    0    0  0.31879549511E+02  0.64907924913E+02  0.13809122123E+03  0.15587985686E+03  0.00000000000E+00 0.  1.
         14    1    4    4    0    0 -0.43761012527E+02  0.40962718119E+02  0.14652135585E+03  0.15830817481E+03  0.00000000000E+00 0. -1.
          5    1    3    3  501    0 -0.59391155504E+02 -0.17008083443E+03 -0.12394069357E+03  0.21871942099E+03  0.47000000000E+01 0.  1.
         -5    1    3    3    0  501 -0.48614384068E+02  0.89037754624E+01 -0.21659442933E+02  0.54165090455E+02  0.47000000000E+01 0.  1.
          1    1    1    2  502    0  0.38946408723E+02  0.33307065307E+02  0.40521119135E+03  0.40843884847E+03  0.00000000000E+00 0. -1.
          1    1    1    2  503    0  0.10049644272E+03 -0.30907397543E+02 -0.13073488124E+04  0.13115699446E+04  0.00000000000E+00 0. -1.
<mgrwt>
<rscale>  0 0.73430605E+02</rscale>
<asrwt>0</asrwt>
<pdfrwt beam="1">  1        2 0.17112239E+00 0.51246301E+02</pdfrwt>
<pdfrwt beam="2">  1        2 0.22665182E+00 0.10521840E+03</pdfrwt>
<totfact> 0.58765726E+01</totfact>
</mgrwt>
</event>
<event>
13    1  0.2742815E-008  0.8351817E+02  0.7546771E-02  0.1376237E+00
         -1   -1    0    0    0  501 -0.00000000000E+00  0.00000000000E+00  0.10438553210E+03  0.10438553210E+03  0.00000000000E+00 0.  1.
          2   -1    0    0  503    0  0.00000000000E+00 -0.00000000000E+00 -0.19848940644E+04  0.19848940644E+04  0.00000000000E+00 0. -1.
         25    2    1    2    0    0  0.56880469983E+02  0.64054481594E+01 -0.38999540163E+02  0.14291565638E+03  0.12501001189E+03 0.  0.
         24    2    1    2    0    0 -0.82311555929E+02  0.24148242541E+02 -0.15750931396E+03  0.19645759375E+03  0.80175259898E+02 0.  0.
         24    2    1    2    0    0  0.14261164902E+02  0.30620687154E+02 -0.24517600444E+03  0.26028541556E+03  0.80599113497E+02 0.  0.
        -11    1    5    5    0    0  0.14604988372E+02  0.57489554113E+02 -0.18746585023E+03  0.19662603978E+03  0.00000000000E+00 0.  1.
         12    1    5    5    0    0 -0.34382346960E+00 -0.26868866959E+02 -0.57710154205E+02  0.63659375779E+02  0.00000000000E+00 0. -1.
        -13    1    4    4    0    0 -0.31108795304E+02 -0.26229011888E+02 -0.85799793629E+02  0.94959585070E+02  0.00000000000E+00 0.  1.
         14    1    4    4    0    0 -0.51202760624E+02  0.50377254429E+02 -0.71709520330E+02  0.10149800868E+03  0.00000000000E+00 0. -1.
          5    1    3    3  502    0 -0.35676454563E+02 -0.17218827383E+02 -0.22694666499E+02  0.45895918273E+02  0.47000000000E+01 0. -1.
         -5    1    3    3    0  502  0.92556924546E+02  0.23624275542E+02 -0.16304873664E+02  0.97019738102E+02  0.47000000000E+01 0. -1.
          1    1    1    2  503    0  0.62208384882E+02 -0.66463288064E+02 -0.14353045993E+04  0.14381886331E+04  0.00000000000E+00 0. -1.
         -2    1    1    2    0  501 -0.51038463838E+02  0.52889102093E+01 -0.35190744944E+01  0.51432297707E+02  0.00000000000E+00 0.  1.
<mgrwt>
<rscale>  0 0.65463462E+02</rscale>
<asrwt>0</asrwt>
<pdfrwt beam="2">  1        2 0.29189620E+00 0.83518171E+02</pdfrwt>
<pdfrwt beam="1">  1       -1 0.15350813E-01 0.51311766E+02</pdfrwt>
<totfact> 0.31044808E+02</totfact>
</mgrwt>
</event>
<event>
13    1  0.2742815E-008  0.2197392E+03  0.7546771E-02  0.1206832E+00
          2   -1    0    0  502    0  0.00000000000E+00  0.00000000000E+00  0.10792632404E+04  0.10792632404E+04  0.00000000000E+00 0. -1.
          2   -1    0    0  503    0 -0.00000000000E+00 -0.00000000000E+00 -0.45266073785E+04  0.45266073785E+04  0.00000000000E+00 0. -1.
         25    2    1    2    0    0  0.14750167157E+02 -0.22066907898E+03 -0.46707806800E+03  0.53169505150E+03  0.12500118531E+03 0.  0.
         24    2    1    2    0    0 -0.21647352960E+03  0.74215858090E+02 -0.18364766771E+03  0.30303702280E+03  0.75737630821E+02 0.  0.
         24    2    1    2    0    0  0.98648152264E+02 -0.12541164121E+03 -0.18169792586E+03  0.25542618702E+03  0.82273100456E+02 0.  0.
        -11    1    5    5    0    0  0.70227560541E+01 -0.68837945321E+02 -0.92987447695E+02  0.11590792573E+03  0.00000000000E+00 0.  1.
         12    1    5    5    0    0  0.91625396210E+02 -0.56573695890E+02 -0.88710478167E+02  0.13951826129E+03  0.00000000000E+00 0. -1.
        -11    1    4    4    0    0 -0.82876348635E+02  0.45118848485E+02 -0.33920944921E+02  0.10027377601E+03  0.00000000000E+00 0.  1.
         12    1    4    4    0    0 -0.13359718096E+03  0.29097009605E+02 -0.14972672279E+03  0.20276324679E+03  0.00000000000E+00 0. -1.
          5    1    3    3  501    0 -0.18810980319E+02  0.90557876525E+01 -0.31424659573E+02  0.38019199096E+02  0.47000000000E+01 0.  1.
         -5    1    3    3    0  501  0.33561147477E+02 -0.22972486663E+03 -0.43565340843E+03  0.49367585240E+03  0.47000000000E+01 0.  1.
          1    1    1    2  502    0  0.12855712994E+03  0.17972092619E+03  0.93690030020E+03  0.96260517320E+03  0.00000000000E+00 0. -1.
          1    1    1    2  503    0 -0.25481919763E+02  0.92143935913E+02 -0.35518207768E+04  0.35531071843E+04  0.00000000000E+00 0. -1.
<mgrwt>
<rscale>  0 0.14494004E+03</rscale>
<asrwt>0</asrwt>
<pdfrwt beam="1">  1        2 0.15871519E+00 0.21973923E+03</pdfrwt>
<pdfrwt beam="2">  1        2 0.66567754E+00 0.95602475E+02</pdfrwt>
<totfact> 0.12199965E+00</totfact>
</mgrwt>
</event>
<event>
13    1  0.2742815E-008  0.1495208E+03  0.7546771E-02  0.1242860E+00
          2   -1    0    0  503    0  0.00000000000E+00  0.00000000000E+00  0.68154111253E+03  0.68154111253E+03  0.00000000000E+00 0. -1.
          2   -1    0    0  502    0 -0.00000000000E+00 -0.00000000000E+00 -0.28384184342E+04  0.28384184342E+04  0.00000000000E+00 0. -1.
         25    2    1    2    0    0  0.66671876664E+02 -0.19511608378E+02 -0.12315023024E+04  0.12397777391E+04  0.12500031806E+03 0.  0.
         24    2    1    2    0    0  0.78315580092E+02 -0.94965910937E+02  0.43431385219E+02  0.15194139374E+03  0.77769194307E+02 0.  0.
         24    2    1    2    0    0  0.38851537409E+01  0.11007647296E+03  0.14119198054E+02  0.13639500101E+03  0.79197981200E+02 0.  0.
        -11    1    5    5    0    0  0.29598831799E+02  0.34906281457E+02 -0.19983040907E+02  0.49938574799E+02  0.00000000000E+00 0.  1.
         12    1    5    5    0    0 -0.25713678058E+02  0.75170191507E+02  0.34102238961E+02  0.86456426208E+02  0.00000000000E+00 0. -1.
        -11    1    4    4    0    0 -0.34243992919E+01 -0.25737340419E+01 -0.14886780963E+02  0.15490863917E+02  0.00000000000E+00 0.  1.
         12    1    4    4    0    0  0.81739979384E+02 -0.92392176895E+02  0.58318166182E+02  0.13645052982E+03  0.00000000000E+00 0. -1.
          5    1    3    3  501    0 -0.32370955578E+02 -0.26369044113E+02 -0.45617405720E+03  0.45810486323E+03  0.47000000000E+01 0. -1.
         -5    1    3    3    0  501  0.99042832242E+02  0.68574357352E+01 -0.77532824521E+03  0.78167287587E+03  0.47000000000E+01 0. -1.
          1    1    1    2  502    0  0.20182557685E+02  0.94405014064E+02 -0.14675642531E+04  0.14707360332E+04  0.00000000000E+00 0. -1.
          1    1    1    2  503    0 -0.16905516818E+03 -0.90003967714E+02  0.48463865052E+03  0.52110937976E+03  0.00000000000E+00 0. -1.
<mgrwt>
<rscale>  0 0.12014358E+03</rscale>
<asrwt>0</asrwt>
<pdfrwt beam="1">  1        2 0.10022663E+00 0.14952077E+03</pdfrwt>
<pdfrwt beam="2">  1        2 0.41741448E+00 0.96538295E+02</pdfrwt>
<totfact> 0.25611159E+01</totfact>
</mgrwt>
</event>
<event>
13    1  0.2742815E-008  0.2944060E+03  0.7546771E-02  0.1409807E+00
          2   -1    0    0  503    0  0.00000000000E+00  0.00000000000E+00  0.19762365265E+04  0.19762365265E+04  0.00000000000E+00 0. -1.
          2   -1    0    0  502    0 -0.00000000000E+00 -0.00000000000E+00 -0.25561516649E+04  0.25561516649E+04  0.00000000000E+00 0. -1.
         25    2    1    2    0    0  0.58135500067E+01  0.12545067247E+03 -0.10338350279E+04  0.10489073428E+04  0.12498031952E+03 0.  0.
         24    2    1    2    0    0 -0.12864435438E+02 -0.67570875798E+02 -0.31848004525E+03  0.33584329514E+03  0.81423968901E+02 0.  0.
         24    2    1    2    0    0  0.28224209410E+03  0.22489263962E+02 -0.25766401077E+03  0.39116027037E+03  0.80307210114E+02 0.  0.
        -13    1    5    5    0    0  0.24833688319E+03  0.25705411610E+02 -0.25519971813E+03  0.35701382588E+03  0.00000000000E+00 0.  1.
         14    1    5    5    0    0  0.33905210914E+02 -0.32161476477E+01 -0.24642926310E+01  0.34146444485E+02  0.00000000000E+00 0. -1.
        -13    1    4    4    0    0 -0.53397935133E+01 -0.16521220058E+02 -0.24739661324E+03  0.24800513775E+03  0.00000000000E+00 0.  1.
         14    1    4    4    0    0 -0.75246419252E+01 -0.51049655739E+02 -0.71083432008E+02  0.87838157388E+02  0.00000000000E+00 0. -1.
          5    1    3    3  501    0 -0.31338354998E+02  0.13379298710E+03 -0.85687283276E+03  0.86783396880E+03  0.47000000000E+01 0. -1.
         -5    1    3    3    0  501  0.37151905005E+02 -0.83423146284E+01 -0.17696219510E+03  0.18107337395E+03  0.47000000000E+01 0. -1.
          1    1    1    2  502    0  0.58639550550E+01  0.94573177877E+01 -0.85167401881E+03  0.85174671184E+03  0.00000000000E+00 0. -1.
          1    1    1    2  503    0 -0.28105516372E+03 -0.89826378423E+02  0.18817379643E+04  0.19047305713E+04  0.00000000000E+00 0. -1.
<mgrwt>
<rscale>  0 0.57237022E+02</rscale>
<asrwt>0</asrwt>
<pdfrwt beam="1">  1        2 0.29062302E+00 0.29440602E+03</pdfrwt>
<pdfrwt beam="2">  1        2 0.37590466E+00 0.11127750E+02</pdfrwt>
<totfact> 0.90836406E+00</totfact>
</mgrwt>
</event>
<event>
13    1  0.2742815E-008  0.1009922E+03  0.7546771E-02  0.1331644E+00
          2   -1    0    0  502    0  0.00000000000E+00  0.00000000000E+00  0.54776657059E+04  0.54776657059E+04  0.00000000000E+00 0. -1.
          2   -1    0    0  503    0 -0.00000000000E+00 -0.00000000000E+00 -0.13527168901E+04  0.13527168901E+04  0.00000000000E+00 0. -1.
         25    2    1    2    0    0 -0.25974631716E+03 -0.46627671867E+03  0.39057480993E+02  0.54957345026E+03  0.12499345088E+03 0.  0.
         24    2    1    2    0    0  0.14040164400E+03  0.11987376291E+03  0.30080900653E+03  0.36194489675E+03  0.80222872082E+02 0.  0.
         24    2    1    2    0    0  0.19570711346E+03  0.24238488263E+03  0.21215279641E+04  0.21469447115E+04  0.10695319519E+03 0.  0.
        -11    1    4    4    0    0  0.25837407790E+01  0.37158719876E+02  0.85456111535E+02  0.93221205624E+02  0.00000000000E+00 0.  1.
         12    1    4    4    0    0  0.13781790322E+03  0.82715043038E+02  0.21535289499E+03  0.26872369113E+03  0.00000000000E+00 0. -1.
        -13    1    5    5    0    0  0.38322446832E+02  0.32088766201E+02  0.66850236797E+03  0.67036834265E+03  0.00000000000E+00 0.  1.
         14    1    5    5    0    0  0.15738466662E+03  0.21029611643E+03  0.14530255962E+04  0.14765763688E+04  0.00000000000E+00 0. -1.
          5    1    3    3  501    0 -0.21794271775E+03 -0.27320243410E+03  0.84805109620E+01  0.34961780173E+03  0.47000000000E+01 0.  1.
         -5    1    3    3    0  501 -0.41803599408E+02 -0.19307428457E+03  0.30576970030E+02  0.19995564854E+03  0.47000000000E+01 0.  1.
          1    1    1    2  502    0  0.14613668810E+02  0.60194748688E+02  0.27149646130E+04  0.27156711541E+04  0.00000000000E+00 0. -1.
          1    1    1    2  503    0 -0.90976109109E+02  0.43823324435E+02 -0.10514102488E+04  0.10562483834E+04  0.00000000000E+00 0. -1.
<mgrwt>
<rscale>  0 0.79093538E+02</rscale>
<asrwt>0</asrwt>
<pdfrwt beam="1">  1        2 0.80553906E+00 0.61943257E+02</pdfrwt>
<pdfrwt beam="2">  1        2 0.19892896E+00 0.10099223E+03</pdfrwt>
<totfact> 0.11581919E-01</totfact>
</mgrwt>
</event>
<event>
13    1  0.2742815E-008  0.5197639E+02  0.7546771E-02  0.1565833E+00
          2   -1    0    0  502    0  0.00000000000E+00  0.00000000000E+00  0.16892954765E+04  0.16892954765E+04  0.00000000000E+00 0. -1.
          2   -1    0    0  503    0 -0.00000000000E+00 -0.00000000000E+00 -0.65132751344E+03  0.65132751344E+03  0.00000000000E+00 0. -1.
         25    2    1    2    0    0  0.12488848143E+03 -0.42593367991E+02 -0.10502820347E+03  0.20991589515E+03  0.12498972647E+03 0.  0.
         24    2    1    2    0    0 -0.43987641198E+01  0.19741868906E+03  0.10289987723E+03  0.23760324752E+03  0.82906155270E+02 0.  0.
         24    2    1    2    0    0 -0.12437361947E+03 -0.20990903318E+03  0.11542320456E+04  0.11824645081E+04  0.80250223290E+02 0.  0.
        -11    1    5    5    0    0 -0.74838250320E+01  0.70151980160E+01  0.38231148533E+02  0.39583346984E+02  0.00000000000E+00 0.  1.
         12    1    5    5    0    0 -0.11688979444E+03 -0.21692423119E+03  0.11160008971E+04  0.11428811611E+04  0.00000000000E+00 0. -1.
        -11    1    4    4    0    0 -0.20609060391E+02  0.14846387549E+03  0.37850779694E+02  0.15459281102E+03  0.00000000000E+00 0.  1.
         12    1    4    4    0    0  0.16210296271E+02  0.48954813561E+02  0.65049097538E+02  0.83010436491E+02  0.00000000000E+00 0. -1.
          5    1    3    3  501    0  0.14207724992E+03 -0.23768504564E+02 -0.11261459486E+03  0.18290714510E+03  0.47000000000E+01 0.  1.
         -5    1    3    3    0  501 -0.17188768486E+02 -0.18824863427E+02  0.75863913916E+01  0.27008750054E+02  0.47000000000E+01 0.  1.
          1    1    1    2  502    0 -0.19306039663E+02  0.85661185033E+01  0.29623648367E+03  0.29698847757E+03  0.00000000000E+00 0. -1.
          1    1    1    2  503    0  0.23189941825E+02  0.46517593609E+02 -0.41037224002E+03  0.41365086159E+03  0.00000000000E+00 0. -1.
<mgrwt>
<rscale>  0 0.33133054E+02</rscale>
<asrwt>0</asrwt>
<pdfrwt beam="1">  1        2 0.24842581E+00 0.21121116E+02</pdfrwt>
<pdfrwt beam="2">  1        2 0.95783458E-01 0.51976385E+02</pdfrwt>
<totfact> 0.11748887E+02</totfact>
</mgrwt>
</event>
<event>
13    1  0.2742815E-008  0.1007909E+03  0.7546771E-02  0.1328620E+00
          2   -1    0    0  502    0  0.00000000000E+00  0.00000000000E+00  0.84655634368E+03  0.84655634368E+03  0.00000000000E+00 0. -1.
          2   -1    0    0  503    0 -0.00000000000E+00 -0.00000000000E+00 -0.12917679350E+04  0.12917679350E+04  0.00000000000E+00 0. -1.
         25    2    1    2    0    0 -0.88407423494E+02  0.15851012853E+02 -0.95238399217E+02  0.18101562191E+03  0.12501670110E+03 0.  0.
         24    2    1    2    0    0 -0.49135370663E+02 -0.18503638710E+02  0.13958022003E+03  0.16953286099E+03  0.80635499838E+02 0.  0.
         24    2    1    2    0    0 -0.47859418198E+01  0.19951965541E+02  0.32737454270E+03  0.33742620515E+03  0.79128797187E+02 0.  0.
        -11    1    4    4    0    0  0.19461845753E+02 -0.19294149819E+02  0.45104116855E+02  0.52776974285E+02  0.00000000000E+00 0.  1.
         12    1    4    4    0    0 -0.68597216416E+02  0.79051110857E+00  0.94476103178E+02  0.11675588670E+03  0.00000000000E+00 0. -1.
        -11    1    5    5    0    0 -0.32032559923E+02  0.35996708371E+02  0.16028891913E+03  0.16737498470E+03  0.00000000000E+00 0.  1.
         12    1    5    5    0    0  0.27246618103E+02 -0.16044742830E+02  0.16708562357E+03  0.17005122044E+03  0.00000000000E+00 0. -1.
          5    1    3    3  501    0 -0.27641173157E+02  0.67506879960E+02 -0.35527794362E+02  0.81274396138E+02  0.47000000000E+01 0.  1.
         -5    1    3    3    0  501 -0.60766250338E+02 -0.51655867106E+02 -0.59710604855E+02  0.99741225773E+02  0.47000000000E+01 0.  1.
          1    1    1    2  502    0  0.54257939241E+02  0.33448819277E+02  0.31119554767E+03  0.31765612912E+03  0.00000000000E+00 0. -1.
          1    1    1    2  503    0  0.88070796736E+02 -0.50748158961E+02 -0.11281235025E+04  0.11326934615E+04  0.00000000000E+00 0. -1.
<mgrwt>
<rscale>  0 0.80152216E+02</rscale>
<asrwt>0</asrwt>
<pdfrwt beam="1">  1        2 0.12449358E+00 0.63739685E+02</pdfrwt>
<pdfrwt beam="2">  1        2 0.18996587E+00 0.10079086E+03</pdfrwt>
<totfact> 0.11735669E+02</totfact>
</mgrwt>
</event>
<event>
13    1  0.2742815E-008  0.4527515E+02  0.7546771E-02  0.1536637E+00
          2   -1    0    0  503    0  0.00000000000E+00  0.00000000000E+00  0.20569827205E+04  0.20569827205E+04  0.00000000000E+00 0. -1.
         -1   -1    0    0    0  501 -0.00000000000E+00 -0.00000000000E+00 -0.58739624240E+03  0.58739624240E+03  0.00000000000E+00 0.  1.
         25    2    1    2    0    0  0.10396539675E+03  0.60675986522E+02 -0.55002163559E+02  0.18204763329E+03  0.12500289489E+03 0.  0.
         24    2    1    2    0    0 -0.10782626974E+03 -0.37165485219E+02  0.89993905750E+02  0.16585988516E+03  0.80017627395E+02 0.  0.
         24    2    1    2    0    0  0.17357825310E+02 -0.59044838757E+02  0.58320136326E+02  0.11777095445E+03  0.81738438495E+02 0.  0.
        -11    1    5    5    0    0  0.28361819380E+02  0.57887040230E+01 -0.13436335170E+01  0.28977702528E+02  0.00000000000E+00 0.  1.
         12    1    5    5    0    0 -0.11003994070E+02 -0.64833542780E+02  0.59663769842E+02  0.88793251921E+02  0.00000000000E+00 0. -1.
        -11    1    4    4    0    0 -0.10247597091E+03 -0.45128067216E+02  0.10132588594E+03  0.15101258962E+03  0.00000000000E+00 0.  1.
         12    1    4    4    0    0 -0.53502988351E+01  0.79625819969E+01 -0.11331980187E+02  0.14847295533E+02  0.00000000000E+00 0. -1.
          5    1    3    3  502    0  0.45977863131E+02  0.39501872633E+02  0.36986712334E+02  0.71165080825E+02  0.47000000000E+01 0. -1.
         -5    1    3    3    0  502  0.57987533615E+02  0.21174113889E+02 -0.91988875893E+02  0.11088255247E+03  0.47000000000E+01 0. -1.
          1    1    1    2  503    0 -0.39504209680E+02  0.22170220224E+02  0.17766657055E+04  0.17772431264E+04  0.00000000000E+00 0. -1.
         -2    1    1    2    0  501  0.26007257368E+02  0.13364117230E+02 -0.40039110593E+03  0.40145736358E+03  0.00000000000E+00 0.  1.
<mgrwt>
<rscale>  0 0.36384681E+02</rscale>
<asrwt>0</asrwt>
<pdfrwt beam="1">  1        2 0.30249746E+00 0.45275152E+02</pdfrwt>
<pdfrwt beam="2">  1       -1 0.86381801E-01 0.29239991E+02</pdfrwt>
<totfact> 0.16206856E+01</totfact>
</mgrwt>
</event>
<event>
13    1  0.2742815E-008  0.1803612E+03  0.7546771E-02  0.1370618E+00
          2   -1    0    0  502    0  0.00000000000E+00  0.00000000000E+00  0.25583107839E+04  0.25583107839E+04  0.00000000000E+00 0. -1.
          2   -1    0    0  503    0 -0.00000000000E+00 -0.00000000000E+00 -0.38026085861E+04  0.38026085861E+04  0.00000000000E+00 0. -1.
         25    2    1    2    0    0  0.21863405915E+03 -0.12842655435E+01 -0.20751849006E+04  0.20904114838E+04  0.12500119375E+03 0.  0.
         24    2    1    2    0    0  0.10945520133E+02 -0.10128381162E+03 -0.15815116770E+03  0.20509181719E+03  0.81686270126E+02 0.  0.
         24    2    1    2    0    0 -0.36620185713E+02 -0.79428021265E+02  0.16527739801E+03  0.20372241058E+03  0.80847719292E+02 0.  0.
        -11    1    4    4    0    0 -0.24451152327E+02 -0.67994340924E+02 -0.54138703638E+02  0.90288916703E+02  0.00000000000E+00 0.  1.
         12    1    4    4    0    0  0.35396672460E+02 -0.33289470693E+02 -0.10401246406E+03  0.11480290048E+03  0.00000000000E+00 0. -1.
        -13    1    5    5    0    0 -0.17810672270E+02 -0.95988370013E+00  0.95177615995E+02  0.96834498037E+02  0.00000000000E+00 0.  1.
         14    1    5    5    0    0 -0.18809513444E+02 -0.78468137565E+02  0.70099782016E+02  0.10688791254E+03  0.00000000000E+00 0. -1.
          5    1    3    3  501    0  0.10377053061E+03 -0.55859371736E+02 -0.76181937600E+03  0.77089522251E+03  0.47000000000E+01 0. -1.
         -5    1    3    3    0  501  0.11486352854E+03  0.54575106193E+02 -0.13133655246E+04  0.13195162613E+04  0.47000000000E+01 0. -1.
          1    1    1    2  502    0 -0.21784383672E+03  0.18173406167E+03  0.23340357562E+04  0.23512137541E+04  0.00000000000E+00 0. -1.
          1    1    1    2  503    0  0.24884443150E+02  0.26203675529E+00 -0.15102748880E+04  0.15104799043E+04  0.00000000000E+00 0. -1.
<mgrwt>
<rscale>  0 0.66995801E+02</rscale>
<asrwt>0</asrwt>
<pdfrwt beam="1">  1        2 0.37622218E+00 0.18036122E+03</pdfrwt>
<pdfrwt beam="2">  1        2 0.55920714E+00 0.24885823E+02</pdfrwt>
<totfact> 0.94863993E-01</totfact>
</mgrwt>
</event>
<event>
13    1  0.2742815E-008  0.3683526E+02  0.7546771E-02  0.1540398E+00
          2   -1    0    0  503    0  0.00000000000E+00  0.00000000000E+00  0.24709590326E+04  0.24709590326E+04  0.00000000000E+00 0. -1.
         -1   -1    0    0    0  501 -0.00000000000E+00 -0.00000000000E+00 -0.56112284058E+03  0.56112284058E+03  0.00000000000E+00 0.  1.
         25    2    1    2    0    0 -0.19546168253E+02 -0.17783161788E+02 -0.86851631205E+02  0.15448506317E+03  0.12499654141E+03 0.  0.
         24    2    1    2    0    0 -0.90752521770E+01 -0.24219049873E+02  0.28436421914E+02  0.88659572669E+02  0.79893473800E+02 0.  0.
         24    2    1    2    0    0  0.56136168389E+02 -0.95628175911E+01  0.36122477234E+03  0.37452936540E+03  0.80908544111E+02 0.  0.
        -11    1    5    5    0    0  0.29608844994E+02  0.35546834446E+02  0.15398828372E+03  0.16078760109E+03  0.00000000000E+00 0.  1.
         12    1    5    5    0    0  0.26527323394E+02 -0.45109652037E+02  0.20723648862E+03  0.21374176431E+03  0.00000000000E+00 0. -1.
        -13    1    4    4    0    0  0.10642007758E+02  0.48358838819E+01  0.47353246520E+02  0.48774666150E+02  0.00000000000E+00 0.  1.
         14    1    4    4    0    0 -0.19717259935E+02 -0.29054933755E+02 -0.18916824607E+02  0.39884906519E+02  0.00000000000E+00 0. -1.
          5    1    3    3  502    0 -0.73192850456E+01 -0.58193529675E+02 -0.94500465084E+02  0.11132154657E+03  0.47000000000E+01 0. -1.
         -5    1    3    3    0  502 -0.12226883208E+02  0.40410367887E+02  0.76488338787E+01  0.43163516602E+02  0.47000000000E+01 0. -1.
          1    1    1    2  503    0  0.52000162447E+01  0.34681214444E+02  0.20097246292E+04  0.20100305749E+04  0.00000000000E+00 0. -1.
         -2    1    1    2    0  501 -0.32714764203E+02  0.16883814807E+02 -0.40269800022E+03  0.40437729706E+03  0.00000000000E+00 0.  1.
<mgrwt>
<rscale>  0 0.35941222E+02</rscale>
<asrwt>0</asrwt>
<pdfrwt beam="1">  1        2 0.36337632E+00 0.35068887E+02</pdfrwt>
<pdfrwt beam="2">  1       -1 0.82518066E-01 0.36835257E+02</pdfrwt>
<totfact> 0.11703539E+01</totfact>
</mgrwt>
</event>
<event>
13    1  0.2742815E-008  0.9995946E+02  0.7546771E-02  0.1311003E+00
          2   -1    0    0  502    0  0.00000000000E+00  0.00000000000E+00  0.16625312797E+04  0.16625312797E+04  0.00000000000E+00 0. -1.
          2   -1    0    0  503    0 -0.00000000000E+00 -0.00000000000E+00 -0.62278441153E+03  0.62278441153E+03  0.00000000000E+00 0. -1.
         25    2    1    2    0    0 -0.11971809899E+02 -0.55676822324E+02  0.24950478708E+02  0.13960522237E+03  0.12499543571E+03 0.  0.
         24    2    1    2    0    0 -0.13725780860E+03  0.15828345219E+03  0.93378853633E+02  0.24175525034E+03  0.76371679993E+02 0.  0.
         24    2    1    2    0    0  0.34501910120E+02 -0.36483603491E+01  0.84420189178E+02  0.12168455998E+03  0.80477769990E+02 0.  0.
        -11    1    4    4    0    0 -0.62035720913E+02  0.53294740748E+02 -0.10011224893E+01  0.81790967147E+02  0.00000000000E+00 0.  1.
         12    1    4    4    0    0 -0.75222087685E+02  0.10498871144E+03  0.94379976123E+02  0.15996428319E+03  0.00000000000E+00 0. -1.
        -11    1    5    5    0    0  0.16070217444E+01  0.12520223284E+02  0.84087122763E+02  0.85029305093E+02  0.00000000000E+00 0.  1.
         12    1    5    5    0    0  0.32894888376E+02 -0.16168583633E+02  0.33306641476E+00  0.36655254892E+02  0.00000000000E+00 0. -1.
          5    1    3    3  501    0 -0.46587881939E+02  0.20512144049E+02  0.22231792096E+02  0.55745146666E+02  0.47000000000E+01 0. -1.
         -5    1    3    3    0  501  0.34616072040E+02 -0.76188966372E+02  0.27186866117E+01  0.83860075705E+02  0.47000000000E+01 0. -1.
          1    1    1    2  502    0  0.19845934715E+02 -0.72563840607E+02  0.13034072322E+04  0.13055764187E+04  0.00000000000E+00 0. -1.
          1    1    1    2  503    0  0.94881773661E+02 -0.26394428906E+02 -0.46640988561E+03  0.47669423979E+03  0.00000000000E+00 0. -1.
<mgrwt>
<rscale>  0 0.86716954E+02</rscale>
<asrwt>0</asrwt>
<pdfrwt beam="1">  1        2 0.24448989E+00 0.75228798E+02</pdfrwt>
<pdfrwt beam="2">  1        2 0.91585943E-01 0.99959462E+02</pdfrwt>
<totfact> 0.11076538E+02</totfact>
</mgrwt>
</event>
<event>
13    1  0.2742815E-008  0.1469077E+03  0.7546771E-02  0.1294251E+00
          2   -1    0    0  503    0  0.00000000000E+00  0.00000000000E+00  0.16052248101E+04  0.16052248101E+04  0.00000000000E+00 0. -1.
          2   -1    0    0  502    0 -0.00000000000E+00 -0.00000000000E+00 -0.11384998406E+04  0.11384998406E+04  0.00000000000E+00 0. -1.
         25    2    1    2    0    0 -0.17928113155E+03  0.28956139838E+02 -0.26341714430E+03  0.34350326454E+03  0.12500287467E+03 0.  0.
         24    2    1    2    0    0  0.10013779297E+03 -0.55480373589E+02  0.11225198513E+03  0.17927238914E+03  0.80202443272E+02 0.  0.
         24    2    1    2    0    0  0.11061302110E+03 -0.10564008044E+03  0.17163784396E+03  0.24512815970E+03  0.85048210838E+02 0.  0.
        -13    1    4    4    0    0  0.50748881309E+02 -0.68003524304E+02  0.48761880624E+02  0.97865465175E+02  0.00000000000E+00 0.  1.
         14    1    4    4    0    0  0.49388911663E+02  0.12523150715E+02  0.63490104502E+02  0.81406923961E+02  0.00000000000E+00 0. -1.
        -13    1    5    5    0    0 -0.13346493254E+02 -0.46743882294E+01  0.75426850982E+01  0.16027192081E+02  0.00000000000E+00 0.  1.
         14    1    5    5    0    0  0.12395951436E+03 -0.10096569221E+03  0.16409515886E+03  0.22910096762E+03  0.00000000000E+00 0. -1.
          5    1    3    3  501    0 -0.42706973554E+02  0.66113234880E+02 -0.95123447769E+02  0.12355325059E+03  0.47000000000E+01 0.  1.
         -5    1    3    3    0  501 -0.13657415799E+03 -0.37157095043E+02 -0.16829369653E+03  0.21995001394E+03  0.47000000000E+01 0.  1.
          1    1    1    2  502    0 -0.13657745987E+02 -0.58113093124E+02 -0.75606084394E+03  0.75841391427E+03  0.00000000000E+00 0. -1.
          1    1    1    2  503    0 -0.17811936542E+02  0.19027740731E+03  0.12023131287E+04  0.12174069230E+04  0.00000000000E+00 0. -1.
<mgrwt>
<rscale>  0 0.93647560E+02</rscale>
<asrwt>0</asrwt>
<pdfrwt beam="1">  1        2 0.23606247E+00 0.14690767E+03</pdfrwt>
<pdfrwt beam="2">  1        2 0.16742645E+00 0.59696446E+02</pdfrwt>
<totfact> 0.54337721E+01</totfact>
</mgrwt>
</event>
<event>
13    1  0.2742815E-008  0.1746762E+03  0.7546771E-02  0.1279892E+00
          2   -1    0    0  503    0  0.00000000000E+00  0.00000000000E+00  0.67749783813E+03  0.67749783813E+03  0.00000000000E+00 0. -1.
          2   -1    0    0  502    0 -0.00000000000E+00 -0.00000000000E+00 -0.33217160646E+04  0.33217160646E+04  0.00000000000E+00 0. -1.
         25    2    1    2    0    0  0.66993548930E+02  0.16353400156E+02 -0.90658764273E+03  0.91775906064E+03  0.12499988052E+03 0.  0.
         24    2    1    2    0    0 -0.44604563346E+02 -0.24407229868E+02 -0.89064666561E+02  0.12928636422E+03  0.78722101112E+02 0.  0.
         24    2    1    2    0    0 -0.18565496927E+03 -0.57504641072E+02  0.23028043085E+03  0.31086281027E+03  0.76367916140E+02 0.  0.
        -13    1    5    5    0    0 -0.28888559767E+02  0.16597248029E+02  0.55016427145E+02  0.64318152829E+02  0.00000000000E+00 0.  1.
         14    1    5    5    0    0 -0.15676640951E+03 -0.74101889101E+02  0.17526400371E+03  0.24654465744E+03  0.00000000000E+00 0. -1.
        -13    1    4    4    0    0 -0.43624225944E+02 -0.47355487904E+02 -0.83874463864E+02  0.10573807740E+03  0.00000000000E+00 0.  1.
         14    1    4    4    0    0 -0.98033740162E+00  0.22948258036E+02 -0.51902026964E+01  0.23548286823E+02  0.00000000000E+00 0. -1.
          5    1    3    3  501    0  0.79566946514E+02 -0.35842643804E+02 -0.49466938244E+03  0.50233005287E+03  0.47000000000E+01 0. -1.
         -5    1    3    3    0  501 -0.12573397584E+02  0.52196043960E+02 -0.41191826030E+03  0.41542900777E+03  0.47000000000E+01 0. -1.
          1    1    1    2  502    0  0.34421898912E+02 -0.46020132384E+02 -0.22406385580E+04  0.22413754410E+04  0.00000000000E+00 0. -1.
          1    1    1    2  503    0  0.12884408478E+03  0.11157860317E+03  0.36179221005E+03  0.39993022656E+03  0.00000000000E+00 0. -1.
<mgrwt>
<rscale>  0 0.10019242E+03</rscale>
<asrwt>0</asrwt>
<pdfrwt beam="1">  1        2 0.99632035E-01 0.17467624E+03</pdfrwt>
<pdfrwt beam="2">  1        2 0.48848765E+00 0.57469294E+02</pdfrwt>
<totfact> 0.15432199E+01</totfact>
</mgrwt>
</event>
<event>
13    1  0.2742815E-008  0.1444439E+03  0.7546771E-02  0.1381012E+00
          2   -1    0    0  503    0  0.00000000000E+00  0.00000000000E+00  0.17746422685E+04  0.17746422685E+04  0.00000000000E+00 0. -1.
          2   -1    0    0  502    0 -0.00000000000E+00 -0.00000000000E+00 -0.37177535230E+04  0.37177535230E+04  0.00000000000E+00 0. -1.
         25    2    1    2    0    0  0.83716557424E+02  0.31135823080E+03 -0.30728515624E+03  0.46262423578E+03  0.12507840104E+03 0.  0.
         24    2    1    2    0    0 -0.46553854006E+02 -0.83137559001E+02  0.21981823398E+03  0.25364868418E+03  0.83297562736E+02 0.  0.
         24    2    1    2    0    0  0.35066568472E+02 -0.57661752483E+02  0.23322561350E+03  0.25495338890E+03  0.77797826421E+02 0.  0.
        -13    1    4    4    0    0  0.60714099282E+01 -0.72400528472E+02  0.13332243144E+03  0.15183401881E+03  0.00000000000E+00 0.  1.
         14    1    4    4    0    0 -0.52625263934E+02 -0.10737030529E+02  0.86495802536E+02  0.10181466537E+03  0.00000000000E+00 0. -1.
        -13    1    5    5    0    0  0.53225729250E+02 -0.55218072148E+02  0.13706910963E+03  0.15706672009E+03  0.00000000000E+00 0.  1.
         14    1    5    5    0    0 -0.18159160778E+02 -0.24436803348E+01  0.96156503879E+02  0.97886668816E+02  0.00000000000E+00 0. -1.
          5    1    3    3  501    0  0.33905330390E+01 -0.88696489960E+01  0.13184728375E+01  0.10676832781E+02  0.47000000000E+01 0. -1.
         -5    1    3    3    0  501  0.80326024385E+02  0.32022787980E+03 -0.30860362908E+03  0.45194740300E+03  0.47000000000E+01 0. -1.
          1    1    1    2  502    0  0.82594113066E+01 -0.27311718058E+02 -0.32994078140E+04  0.32995311896E+04  0.00000000000E+00 0. -1.
          1    1    1    2  503    0 -0.80488683197E+02 -0.14324720126E+03  0.12105378682E+04  0.12216382931E+04  0.00000000000E+00 0. -1.
<mgrwt>
<rscale>  0 0.64198586E+02</rscale>
<asrwt>0</asrwt>
<pdfrwt beam="1">  1        2 0.26097681E+00 0.14444393E+03</pdfrwt>
<pdfrwt beam="2">  1        2 0.54672846E+00 0.28533276E+02</pdfrwt>
<totfact> 0.25885945E+00</totfact>
</mgrwt>
</event>
<event>
13    1  0.2742815E-008  0.1043473E+03  0.7546771E-02  0.1370546E+00
          2   -1    0    0  503    0  0.00000000000E+00  0.00000000000E+00  0.15920921690E+04  0.15920921690E+04  0.00000000000E+00 0. -1.
          2   -1    0    0  502    0 -0.00000000000E+00 -0.00000000000E+00 -0.16391250052E+04  0.16391250052E+04  0.00000000000E+00 0. -1.
         25    2    1    2    0    0 -0.10066364054E+03 -0.10423344125E+02 -0.61417020233E+03  0.63488229029E+03  0.12501468100E+03 0.  0.
         24    2    1    2    0    0 -0.88035970130E+02  0.11376176772E+03  0.17085316554E+03  0.23704004704E+03  0.79404709522E+02 0.  0.
         24    2    1    2    0    0  0.47192822966E+02 -0.72399957356E+02  0.43313549016E+03  0.44845138621E+03  0.77674813136E+02 0.  0.
        -11    1    5    5    0    0  0.22019253721E+02 -0.85169889288E+02  0.32682090661E+03  0.33845333884E+03  0.00000000000E+00 0.  1.
         12    1    5    5    0    0  0.25173569246E+02  0.12769931932E+02  0.10631458355E+03  0.10999804737E+03  0.00000000000E+00 0. -1.
        -13    1    4    4    0    0 -0.56858686892E+01  0.56987532649E+02  0.31069351205E+02  0.65155295752E+02  0.00000000000E+00 0.  1.
         14    1    4    4    0    0 -0.82350101441E+02  0.56774235066E+02  0.13978381434E+03  0.17188475129E+03  0.00000000000E+00 0. -1.
          5    1    3    3  501    0  0.22665863548E+02 -0.24845508502E+02 -0.18477410827E+03  0.18786857574E+03  0.47000000000E+01 0. -1.
         -5    1    3    3    0  501 -0.12332950408E+03  0.14422164377E+02 -0.42939609406E+03  0.44701371455E+03  0.47000000000E+01 0. -1.
          1    1    1    2  502    0  0.42948295111E+02  0.28057315205E+01 -0.97047339040E+03  0.97142731568E+03  0.00000000000E+00 0. -1.
          1    1    1    2  503    0  0.98558492590E+02 -0.33744197755E+02  0.93362210084E+03  0.93941613491E+03  0.00000000000E+00 0. -1.
<mgrwt>
<rscale>  0 0.67015618E+02</rscale>
<asrwt>0</asrwt>
<pdfrwt beam="1">  1        2 0.23413120E+00 0.10434734E+03</pdfrwt>
<pdfrwt beam="2">  1        2 0.24104779E+00 0.43039844E+02</pdfrwt>
<totfact> 0.33022609E+01</totfact>
</mgrwt>
</event>
<event>
13    1  0.2742815E-008  0.5625625E+02  0.7546771E-02  0.1558303E+00
          2   -1    0    0  503    0  0.00000000000E+00  0.00000000000E+00  0.17502023591E+04  0.17502023591E+04  0.00000000000E+00 0. -1.
          2   -1    0    0  502    0 -0.00000000000E+00 -0.00000000000E+00 -0.17241545050E+04  0.17241545050E+04  0.00000000000E+00 0. -1.
         25    2    1    2    0    0 -0.12437356874E+03  0.27865807454E+03  0.37001612229E+03  0.49563576431E+03  0.12499509188E+03 0.  0.
         24    2    1    2    0    0  0.44850826019E+02 -0.13073151673E+03  0.31634305542E+03  0.35637554806E+03  0.88477547901E+02 0.  0.
         24    2    1    2    0    0  0.11833818894E+03 -0.15522129685E+03  0.80861537538E+03  0.83579509439E+03  0.81222143230E+02 0.  0.
        -11    1    4    4    0    0  0.68727445625E+02 -0.89415476671E+02  0.18537534220E+03  0.21698526850E+03  0.00000000000E+00 0.  1.
         12    1    4    4    0    0 -0.23876619605E+02 -0.41316040056E+02  0.13096771322E+03  0.13939027956E+03  0.00000000000E+00 0. -1.
        -11    1    5    5    0    0  0.68767687991E+02 -0.27750466046E+02  0.31186301042E+03  0.32055829508E+03  0.00000000000E+00 0.  1.
         12    1    5    5    0    0  0.49570500948E+02 -0.12747083080E+03  0.49675236496E+03  0.51523679931E+03  0.00000000000E+00 0. -1.
          5    1    3    3  501    0 -0.94332869070E+02  0.20231193905E+03  0.34273893902E+03  0.40904875161E+03  0.47000000000E+01 0. -1.
         -5    1    3    3    0  501 -0.30040699675E+02  0.76346135486E+02  0.27277183270E+02  0.86587012697E+02  0.47000000000E+01 0. -1.
          1    1    1    2  502    0 -0.51013425292E+02  0.23727923561E+02 -0.16265908584E+04  0.16275635793E+04  0.00000000000E+00 0. -1.
          1    1    1    2  503    0  0.12197979078E+02 -0.16433184527E+02  0.15766415940E+03  0.15898687810E+03  0.00000000000E+00 0. -1.
<mgrwt>
<rscale>  0 0.33931064E+02</rscale>
<asrwt>0</asrwt>
<pdfrwt beam="1">  1        2 0.25738270E+00 0.20465587E+02</pdfrwt>
<pdfrwt beam="2">  1        2 0.25355213E+00 0.56256248E+02</pdfrwt>
<totfact> 0.28928340E+01</totfact>
</mgrwt>
</event>
<event>
13    1  0.2742815E-008  0.1436962E+03  0.7546771E-02  0.1393522E+00
          2   -1    0    0  503    0  0.00000000000E+00  0.00000000000E+00  0.22672878933E+04  0.22672878933E+04  0.00000000000E+00 0. -1.
          2   -1    0    0  502    0 -0.00000000000E+00 -0.00000000000E+00 -0.25049220852E+04  0.25049220852E+04  0.00000000000E+00 0. -1.
         25    2    1    2    0    0 -0.17731137270E+03 -0.12871876321E+03 -0.21818860744E+04  0.21964199313E+04  0.12500331885E+03 0.  0.
         24    2    1    2    0    0  0.11565328795E+03 -0.10365182665E+03 -0.30561106915E+02  0.17695947482E+03  0.79128315355E+02 0.  0.
         24    2    1    2    0    0 -0.50337528437E+02  0.17937523407E+03  0.95519019912E+03  0.97621458209E+03  0.76793570147E+02 0.  0.
        -11    1    4    4    0    0  0.25207400782E+02 -0.75459896592E+02 -0.14541606813E+02  0.80876865521E+02  0.00000000000E+00 0.  1.
         12    1    4    4    0    0  0.90445887173E+02 -0.28191930063E+02 -0.16019500102E+02  0.96082609304E+02  0.00000000000E+00 0. -1.
        -11    1    5    5    0    0 -0.70515770047E+02  0.13144559830E+03  0.68261622092E+03  0.69872406871E+03  0.00000000000E+00 0.  1.
         12    1    5    5    0    0  0.20178241610E+02  0.47929635769E+02  0.27257397820E+03  0.27749051338E+03  0.00000000000E+00 0. -1.
          5    1    3    3  501    0 -0.30808065577E+02 -0.97492071395E+02 -0.86696558918E+03  0.87298640523E+03  0.47000000000E+01 0.  1.
         -5    1    3    3    0  501 -0.14650330712E+03 -0.31226691815E+02 -0.13149204853E+04  0.13234335260E+04  0.47000000000E+01 0.  1.
          1    1    1    2  502    0 -0.24588636690E+02  0.82259629687E+01 -0.19641202261E+03  0.19811600174E+03  0.00000000000E+00 0. -1.
          1    1    1    2  503    0  0.13658424987E+03  0.44769392830E+02  0.12160348129E+04  0.12244999886E+04  0.00000000000E+00 0. -1.
<mgrwt>
<rscale>  0 0.61039101E+02</rscale>
<asrwt>0</asrwt>
<pdfrwt beam="1">  1        2 0.33342469E+00 0.14369617E+03</pdfrwt>
<pdfrwt beam="2">  1        2 0.36837090E+00 0.25928122E+02</pdfrwt>
<totfact> 0.63973835E+00</totfact>
</mgrwt>
</event>
<event>
13    1  0.2742815E-008  0.1495594E+03  0.7546771E-02  0.1259279E+00
          2   -1    0    0  503    0  0.00000000000E+00  0.00000000000E+00  0.34505226709E+04  0.34505226709E+04  0.00000000000E+00 0. -1.
          2   -1    0    0  502    0 -0.00000000000E+00 -0.00000000000E+00 -0.17799368501E+04  0.17799368501E+04  0.00000000000E+00 0. -1.
         25    2    1    2    0    0  0.60613925054E+02 -0.19910416092E+03 -0.77816597339E+03  0.81515906018E+03  0.12500198580E+03 0.  0.
         24    2    1    2    0    0  0.22350652996E+01  0.46845496800E+02 -0.17783277806E+03  0.20051122466E+03  0.79879648063E+02 0.  0.
         24    2    1    2    0    0 -0.13359755890E+02 -0.55312418257E+02  0.45741805837E+03  0.46769640782E+03  0.79187770998E+02 0.  0.
        -11    1    5    5    0    0 -0.23748326418E+02 -0.44534214337E+01  0.31819405685E+03  0.31911012799E+03  0.00000000000E+00 0.  1.
         12    1    5    5    0    0  0.10388570528E+02 -0.50858996824E+02  0.13922400152E+03  0.14858627983E+03  0.00000000000E+00 0. -1.
        -13    1    4    4    0    0  0.96033112269E+01 -0.19149577327E+02 -0.75827049568E+02  0.78795122594E+02  0.00000000000E+00 0.  1.
         14    1    4    4    0    0 -0.73682459273E+01  0.65995074127E+02 -0.10200572849E+03  0.12171610207E+03  0.00000000000E+00 0. -1.
          5    1    3    3  501    0  0.99305718710E+02 -0.15215548083E+03 -0.58022088015E+03  0.60802243041E+03  0.47000000000E+01 0. -1.
         -5    1    3    3    0  501 -0.38691793655E+02 -0.46948680086E+02 -0.19794509324E+03  0.20713662978E+03  0.47000000000E+01 0. -1.
          1    1    1    2  502    0 -0.21352480317E+02  0.13061606806E+03 -0.78284021294E+03  0.79394917007E+03  0.00000000000E+00 0. -1.
          1    1    1    2  503    0 -0.28136754147E+02  0.76955014312E+02  0.29520067268E+04  0.29531436583E+04  0.00000000000E+00 0. -1.
<mgrwt>
<rscale>  0 0.11070014E+03</rscale>
<asrwt>0</asrwt>
<pdfrwt beam="1">  1        2 0.50742981E+00 0.81937483E+02</pdfrwt>
<pdfrwt beam="2">  1        2 0.26175542E+00 0.14955939E+03</pdfrwt>
<totfact> 0.29582503E+00</totfact>
</mgrwt>
</event>
<event>
13    1  0.2742815E-008  0.6148058E+02  0.7546771E-02  0.1413682E+00
          2   -1    0    0  503    0  0.00000000000E+00  0.00000000000E+00  0.13256426338E+04  0.13256426338E+04  0.00000000000E+00 0. -1.
          2   -1    0    0  502    0 -0.00000000000E+00 -0.00000000000E+00 -0.10517386852E+04  0.10517386852E+04  0.00000000000E+00 0. -1.
         25    2    1    2    0    0 -0.15272564518E+03 -0.72018436751E+02 -0.11748821789E+03  0.24070674184E+03  0.12499790518E+03 0.  0.
         24    2    1    2    0    0  0.60840863514E+02  0.50293967687E+02 -0.10572244595E+02  0.11204507386E+03  0.78811372036E+02 0.  0.
         24    2    1    2    0    0  0.73262523778E+02  0.40114892866E+02  0.77259061007E+03  0.78082411734E+03  0.76245979813E+02 0.  0.
        -11    1    5    5    0    0 -0.10044313313E+02 -0.50084325636E+01  0.21096472334E+03  0.21126307562E+03  0.00000000000E+00 0.  1.
         12    1    5    5    0    0  0.83306837091E+02  0.45123325430E+02  0.56162588673E+03  0.56956104172E+03  0.00000000000E+00 0. -1.
        -13    1    4    4    0    0  0.51744985082E+02 -0.79020968668E+01 -0.90592981636E+01  0.53123041133E+02  0.00000000000E+00 0.  1.
         14    1    4    4    0    0  0.90958784325E+01  0.58196064554E+02 -0.15129464311E+01  0.58922032729E+02  0.00000000000E+00 0. -1.
          5    1    3    3  501    0 -0.15138834453E+03 -0.98197771560E+02 -0.87492842047E+02  0.20059491670E+03  0.47000000000E+01 0.  1.
         -5    1    3    3    0  501 -0.13373006525E+01  0.26179334809E+02 -0.29995375844E+02  0.40111825140E+02  0.47000000000E+01 0.  1.
          1    1    1    2  502    0  0.29336499423E+02  0.42574363160E+02 -0.80418744821E+03  0.80584778864E+03  0.00000000000E+00 0. -1.
          1    1    1    2  503    0 -0.10714241535E+02 -0.60964786962E+02  0.43356124921E+03  0.43795759730E+03  0.00000000000E+00 0. -1.
<mgrwt>
<rscale>  0 0.56380263E+02</rscale>
<asrwt>0</asrwt>
<pdfrwt beam="1">  1        2 0.19494745E+00 0.61480577E+02</pdfrwt>
<pdfrwt beam="2">  1        2 0.15466745E+00 0.51703062E+02</pdfrwt>
<totfact> 0.89649252E+01</totfact>
</mgrwt>
</event>
<event>
13    1  0.2742815E-008  0.7444291E+02  0.7546771E-02  0.1415748E+00
          2   -1    0    0  502    0  0.00000000000E+00  0.00000000000E+00  0.27327483709E+04  0.27327483709E+04  0.00000000000E+00 0. -1.
          2   -1    0    0  503    0 -0.00000000000E+00 -0.00000000000E+00 -0.27232686262E+04  0.27232686262E+04  0.00000000000E+00 0. -1.
         25    2    1    2    0    0  0.28712651240E+02  0.73470097526E+02 -0.21646133183E+04  0.21696542594E+04  0.12500606338E+03 0.  0.
         24    2    1    2    0    0 -0.66792779534E+02  0.19249957438E+02  0.12884380092E+02  0.10986154600E+03  0.84093494279E+02 0.  0.
         24    2    1    2    0    0  0.96140805489E+02  0.49389976093E+01  0.47351480946E+03  0.48927423716E+03  0.76847616699E+02 0.  0.
        -11    1    5    5    0    0  0.73597159665E+02 -0.11699651108E+02  0.18563974619E+03  0.20003884401E+03  0.00000000000E+00 0.  1.
         12    1    5    5    0    0  0.22543645823E+02  0.16638648718E+02  0.28787506327E+03  0.28923539315E+03  0.00000000000E+00 0. -1.
        -13    1    4    4    0    0 -0.63799078995E+02  0.48142493349E+02  0.70615205230E+01  0.80236445700E+02  0.00000000000E+00 0.  1.
         14    1    4    4    0    0 -0.29937005392E+01 -0.28892535911E+02  0.58228595690E+01  0.29625100301E+02  0.00000000000E+00 0. -1.
          5    1    3    3  501    0  0.51364876076E+02 -0.13067808106E+02 -0.10969708988E+04  0.10982606070E+04  0.47000000000E+01 0. -1.
         -5    1    3    3    0  501 -0.22652224836E+02  0.86537905632E+02 -0.10676424195E+04  0.10713936524E+04  0.47000000000E+01 0. -1.
          1    1    1    2  502    0 -0.48046962451E+02 -0.56847518229E+02  0.21859425250E+04  0.21872093803E+04  0.00000000000E+00 0. -1.
          1    1    1    2  503    0 -0.10013714743E+02 -0.40811534344E+02 -0.49824865152E+03  0.50001757425E+03  0.00000000000E+00 0. -1.
<mgrwt>
<rscale>  0 0.55930728E+02</rscale>
<asrwt>0</asrwt>
<pdfrwt beam="1">  1        2 0.40187476E+00 0.74442908E+02</pdfrwt>
<pdfrwt beam="2">  1        2 0.40048068E+00 0.42022087E+02</pdfrwt>
<totfact> 0.29749481E+00</totfact>
</mgrwt>
</event>
<event>
13    1  0.2742815E-008  0.1192715E+03  0.7546771E-02  0.1280605E+00
          4   -1    0    0  503    0 -0.00000000000E+00  0.00000000000E+00  0.13132295915E+04  0.13132295915E+04  0.00000000000E+00 0. -1.
          2   -1    0    0  502    0  0.00000000000E+00 -0.00000000000E+00 -0.30447437324E+04  0.30447437324E+04  0.00000000000E+00 0. -1.
         25    2    1    2    0    0  0.16684255122E+03  0.14120487544E+03  0.30252936011E+03  0.39360143310E+03  0.12499128236E+03 0.  0.
         24    2    1    2    0    0 -0.11927373499E+02 -0.33067292047E+02 -0.47775643996E+03  0.48643823637E+03  0.84470313359E+02 0.  0.
         24    2    1    2    0    0  0.42086856076E+02  0.11073894413E+02 -0.61044164285E+03  0.61767190070E+03  0.83580159125E+02 0.  0.
        -11    1    4    4    0    0  0.23205282734E+02 -0.33193564922E+02 -0.11383935437E+03  0.12082920384E+03  0.00000000000E+00 0.  1.
         12    1    4    4    0    0 -0.35132656233E+02  0.12627287499E+00 -0.36391708559E+03  0.36560903253E+03  0.00000000000E+00 0. -1.
        -13    1    5    5    0    0  0.45201527238E+02  0.92116869708E+01 -0.14384134901E+03  0.15105749544E+03  0.00000000000E+00 0.  1.
         14    1    5    5    0    0 -0.31146711615E+01  0.18622074419E+01 -0.46660029383E+03  0.46661440526E+03  0.00000000000E+00 0. -1.
          5    1    3    3  501    0  0.24267898841E+02  0.10005637480E+03  0.11527282261E+03  0.15462898397E+03  0.47000000000E+01 0.  1.
         -5    1    3    3    0  501  0.14257465238E+03  0.41148500644E+02  0.18725653750E+03  0.23897244913E+03  0.47000000000E+01 0.  1.
          1    1    1    2  502    0 -0.12222400364E+03 -0.57007742322E+02 -0.18981838812E+04  0.19029689006E+04  0.00000000000E+00 0. -1.
          3    1    1    2  503    0 -0.74778030155E+02 -0.62203735488E+02  0.95233846304E+03  0.95729285315E+03  0.00000000000E+00 0. -1.
<mgrwt>
<rscale>  0 0.99852960E+02</rscale>
<asrwt>0</asrwt>
<pdfrwt beam="2">  1        2 0.44775643E+00 0.11927152E+03</pdfrwt>
<pdfrwt beam="1">  1        4 0.19312200E+00 0.83595929E+02</pdfrwt>
<totfact> 0.22758947E-01</totfact>
</mgrwt>
</event>
<event>
13    1  0.2742815E-008  0.1632919E+03  0.7546771E-02  0.1239418E+00
          2   -1    0    0  503    0  0.00000000000E+00  0.00000000000E+00  0.83806921413E+03  0.83806921413E+03  0.00000000000E+00 0. -1.
          2   -1    0    0  502    0 -0.00000000000E+00 -0.00000000000E+00 -0.16510675142E+04  0.16510675142E+04  0.00000000000E+00 0. -1.
         25    2    1    2    0    0 -0.83406596920E+01  0.97541496508E+02 -0.16749135825E+03  0.23078555129E+03  0.12499882179E+03 0.  0.
         24    2    1    2    0    0  0.11418189934E+02  0.62850243837E+02 -0.41413524634E+02  0.11105211263E+03  0.80851490308E+02 0.  0.
         24    2    1    2    0    0 -0.77795783569E+02 -0.32759824888E+02 -0.46796972606E+01  0.11810558380E+03  0.82472051569E+02 0.  0.
        -11    1    4    4    0    0 -0.19742796732E+02  0.48288337908E+01 -0.40354620101E+02  0.45183968640E+02  0.00000000000E+00 0.  1.
         12    1    4    4    0    0  0.31160986665E+02  0.58021410046E+02 -0.10589045326E+01  0.65868143989E+02  0.00000000000E+00 0. -1.
        -11    1    5    5    0    0 -0.83977693121E+02 -0.32017992698E+02  0.20487250296E+02  0.92179890557E+02  0.00000000000E+00 0.  1.
         12    1    5    5    0    0  0.61819095525E+01 -0.74183219019E+00 -0.25166947557E+02  0.25925693241E+02  0.00000000000E+00 0. -1.
          5    1    3    3  501    0  0.19629553040E+02  0.75826148921E+02 -0.17717698992E+03  0.19377486929E+03  0.47000000000E+01 0. -1.
         -5    1    3    3    0  501 -0.27970212732E+02  0.21715347587E+02  0.96856316663E+01  0.37010681997E+02  0.47000000000E+01 0. -1.
          1    1    1    2  502    0 -0.75855036646E+02 -0.51232040001E+02 -0.13027053821E+04  0.13059173101E+04  0.00000000000E+00 0. -1.
          1    1    1    2  503    0  0.15057328997E+03 -0.76399875456E+02  0.70329166218E+03  0.72327617043E+03  0.00000000000E+00 0. -1.
<mgrwt>
<rscale>  0 0.12225782E+03</rscale>
<asrwt>0</asrwt>
<pdfrwt beam="1">  1        2 0.12324547E+00 0.16329194E+03</pdfrwt>
<pdfrwt beam="2">  1        2 0.24280405E+00 0.91535286E+02</pdfrwt>
<totfact> 0.76523532E+01</totfact>
</mgrwt>
</event>
<event>
13    1  0.2742815E-008  0.1688773E+03  0.7546771E-02  0.1234085E+00
          2   -1    0    0  502    0  0.00000000000E+00  0.00000000000E+00  0.16612944802E+04  0.16612944802E+04  0.00000000000E+00 0. -1.
          2   -1    0    0  503    0 -0.00000000000E+00 -0.00000000000E+00 -0.16186880939E+04  0.16186880939E+04  0.00000000000E+00 0. -1.
         25    2    1    2    0    0 -0.25442137495E+03 -0.83645400477E+02 -0.58569911024E+03  0.65604567602E+03  0.12500276892E+03 0.  0.
         24    2    1    2    0    0  0.23727095489E+03 -0.48155591040E+01  0.25124799725E+03  0.35483256897E+03  0.80373504563E+02 0.  0.
         24    2    1    2    0    0 -0.16115788779E+02  0.16291118725E+03  0.11770571380E+03  0.22633890478E+03  0.10283428989E+03 0.  0.
        -11    1    5    5    0    0 -0.33334815764E+02  0.82271910839E+02  0.80401552854E+01  0.89132044475E+02  0.00000000000E+00 0.  1.
         12    1    5    5    0    0  0.17219026986E+02  0.80639276407E+02  0.10966555851E+03  0.13720686030E+03  0.00000000000E+00 0. -1.
        -13    1    4    4    0    0 -0.61590795618E+01  0.26412933189E+01  0.41255457523E+01  0.78696136627E+01  0.00000000000E+00 0.  1.
         14    1    4    4    0    0  0.24343003445E+03 -0.74568524229E+01  0.24712245150E+03  0.34696295531E+03  0.00000000000E+00 0. -1.
          5    1    3    3  501    0  0.13007278625E+02  0.34585105137E+01 -0.27667609553E+02  0.31124543540E+02  0.47000000000E+01 0.  1.
         -5    1    3    3    0  501 -0.26742865358E+03 -0.87103910991E+02 -0.55803150068E+03  0.62492113248E+03  0.47000000000E+01 0.  1.
          1    1    1    2  502    0  0.26096389995E+02 -0.16763538438E+03  0.11423275919E+04  0.11548571215E+04  0.00000000000E+00 0. -1.
          1    1    1    2  503    0  0.71698188485E+01  0.93185156717E+02 -0.88297580636E+03  0.88790830289E+03  0.00000000000E+00 0. -1.
<mgrwt>
<rscale>  0 0.12563189E+03</rscale>
<asrwt>0</asrwt>
<pdfrwt beam="1">  1        2 0.24430801E+00 0.16887732E+03</pdfrwt>
<pdfrwt beam="2">  1        2 0.23804237E+00 0.93460579E+02</pdfrwt>
<totfact> 0.28022057E+01</totfact>
</mgrwt>
</event>
<event>
13    1  0.2742815E-008  0.3762790E+03  0.7546771E-02  0.1260410E+00
         -1   -1    0    0    0  501 -0.00000000000E+00  0.00000000000E+00  0.13485530170E+04  0.13485530170E+04  0.00000000000E+00 0.  1.
          2   -1    0    0  503    0  0.00000000000E+00 -0.00000000000E+00 -0.43022097517E+04  0.43022097517E+04  0.00000000000E+00 0. -1.
         25    2    1    2    0    0 -0.18100321141E+03 -0.54974648701E+02  0.64313321634E+03  0.68193135809E+03  0.12500267455E+03 0.  0.
         24    2    1    2    0    0 -0.51560472260E+02  0.14182998319E+03 -0.20061049688E+02  0.17233574451E+03  0.80764699536E+02 0.  0.
         24    2    1    2    0    0  0.48989907470E+03  0.14864789089E+03 -0.31816042992E+03  0.60818554117E+03  0.81032675300E+02 0.  0.
        -11    1    4    4    0    0 -0.68941955014E+02  0.81496049693E+02 -0.11132043995E+01  0.10675129274E+03  0.00000000000E+00 0.  1.
         12    1    4    4    0    0  0.17381482754E+02  0.60333933493E+02 -0.18947845288E+02  0.65584451775E+02  0.00000000000E+00 0. -1.
        -11    1    5    5    0    0  0.41440905662E+03  0.96193374016E+02 -0.27551962937E+03  0.50685214568E+03  0.00000000000E+00 0.  1.
         12    1    5    5    0    0  0.75490018079E+02  0.52454516875E+02 -0.42640800550E+02  0.10133339549E+03  0.00000000000E+00 0. -1.
          5    1    3    3  502    0 -0.77746911427E+02  0.15797788235E+02  0.11944708720E+03  0.14347072521E+03  0.47000000000E+01 0.  1.
         -5    1    3    3    0  502 -0.10325629999E+03 -0.70772436935E+02  0.52368612913E+03  0.53846063288E+03  0.47000000000E+01 0.  1.
          1    1    1    2  503    0 -0.28915590468E+03 -0.23052602485E+03 -0.37136868732E+04  0.37320535336E+04  0.00000000000E+00 0. -1.
         -2    1    1    2    0  501  0.31820513658E+02 -0.49772005298E+01  0.45511840169E+03  0.45625659137E+03  0.00000000000E+00 0.  1.
<mgrwt>
<rscale>  0 0.11008621E+03</rscale>
<asrwt>0</asrwt>
<pdfrwt beam="2">  1        2 0.63267790E+00 0.37627896E+03</pdfrwt>
<pdfrwt beam="1">  1       -1 0.19831662E+00 0.32207416E+02</pdfrwt>
<totfact> 0.82123957E-02</totfact>
</mgrwt>
</event>
<event>
13    1  0.2742815E-008  0.2623666E+02  0.7546771E-02  0.1685096E+00
          2   -1    0    0  502    0  0.00000000000E+00  0.00000000000E+00  0.28945126289E+04  0.28945126289E+04  0.00000000000E+00 0. -1.
          2   -1    0    0  503    0 -0.00000000000E+00 -0.00000000000E+00 -0.17501038744E+04  0.17501038744E+04  0.00000000000E+00 0. -1.
         25    2    1    2    0    0  0.58491209606E+03 -0.72734381182E+02  0.11425866559E+03  0.61326446059E+03  0.12500322251E+03 0.  0.
         24    2    1    2    0    0 -0.40800863885E+03  0.11127268333E+04  0.78513706142E+03  0.14238175938E+04  0.78640194251E+02 0.  0.
         24    2    1    2    0    0 -0.19968193807E+03 -0.10309701224E+04  0.72380680343E+03  0.12777761567E+04  0.77738974896E+02 0.  0.
        -11    1    5    5    0    0 -0.16333118429E+03 -0.70667740505E+03  0.46867100552E+03  0.86355228098E+03  0.00000000000E+00 0.  1.
         12    1    5    5    0    0 -0.36350753780E+02 -0.32429271737E+03  0.25513579791E+03  0.41422387572E+03  0.00000000000E+00 0. -1.
        -13    1    4    4    0    0 -0.32448092742E+03  0.84240112228E+03  0.56088331983E+03  0.10627876653E+04  0.00000000000E+00 0.  1.
         14    1    4    4    0    0 -0.83527711423E+02  0.27032571106E+03  0.22425374159E+03  0.36102992847E+03  0.00000000000E+00 0. -1.
          5    1    3    3  501    0  0.21422461332E+03  0.29815118688E+02  0.62293245805E+02  0.22513032832E+03  0.47000000000E+01 0.  1.
         -5    1    3    3    0  501  0.37068748274E+03 -0.10254949987E+03  0.51965419784E+02  0.38813413227E+03  0.47000000000E+01 0.  1.
          1    1    1    2  502    0  0.13821588759E+02  0.15638914254E+02  0.42503581899E+03  0.42554795192E+03  0.00000000000E+00 0. -1.
          1    1    1    2  503    0  0.89568920985E+01 -0.24661243991E+02 -0.90382959488E+03  0.90421034028E+03  0.00000000000E+00 0. -1.
<mgrwt>
<rscale>  0 0.23400721E+02</rscale>
<asrwt>0</asrwt>
<pdfrwt beam="1">  1        2 0.42566362E+00 0.20871319E+02</pdfrwt>
<pdfrwt beam="2">  1        2 0.25736822E+00 0.26236663E+02</pdfrwt>
<totfact> 0.91697101E+00</totfact>
</mgrwt>
</event>
<event>
13    1  0.2742815E-008  0.6082558E+02  0.7546771E-02  0.1401813E+00
          2   -1    0    0  502    0  0.00000000000E+00  0.00000000000E+00  0.56419004600E+03  0.56419004600E+03  0.00000000000E+00 0. -1.
          2   -1    0    0  503    0 -0.00000000000E+00 -0.00000000000E+00 -0.21696634482E+04  0.21696634482E+04  0.00000000000E+00 0. -1.
         25    2    1    2    0    0  0.76772554432E+02  0.97660004878E+02 -0.83954766433E+03  0.85784493943E+03  0.12500463094E+03 0.  0.
         24    2    1    2    0    0 -0.49611077633E+02 -0.78332511736E+01 -0.16014066363E+03  0.18586593666E+03  0.79865483234E+02 0.  0.
         24    2    1    2    0    0 -0.24061281601E+02 -0.50371088065E+02  0.17242012141E+03  0.19918635840E+03  0.82645721728E+02 0.  0.
        -11    1    4    4    0    0  0.19524051027E+02 -0.28288548996E+01 -0.66480298796E+02  0.69345664007E+02  0.00000000000E+00 0.  1.
         12    1    4    4    0    0 -0.69135128659E+02 -0.50043962740E+01 -0.93660364839E+02  0.11652027265E+03  0.00000000000E+00 0. -1.
        -13    1    5    5    0    0  0.12979215273E+01  0.21959283728E+02  0.51754744810E+02  0.56235650191E+02  0.00000000000E+00 0.  1.
         14    1    5    5    0    0 -0.25359203128E+02 -0.72330371793E+02  0.12066537660E+03  0.14295070821E+03  0.00000000000E+00 0. -1.
          5    1    3    3  501    0 -0.14519763411E+02  0.47723084409E+02 -0.10968665814E+03  0.12058842933E+03  0.47000000000E+01 0. -1.
         -5    1    3    3    0  501  0.91292317844E+02  0.49936920469E+02 -0.72986100620E+03  0.73725651011E+03  0.47000000000E+01 0. -1.
          1    1    1    2  502    0  0.54237171171E+02 -0.18633463071E+02  0.35324141863E+03  0.35786642273E+03  0.00000000000E+00 0. -1.
          1    1    1    2  503    0 -0.57337366370E+02 -0.20822202568E+02 -0.11314466142E+04  0.11330898369E+04  0.00000000000E+00 0. -1.
<mgrwt>
<rscale>  0 0.59061577E+02</rscale>
<asrwt>0</asrwt>
<pdfrwt beam="1">  1        2 0.82969126E-01 0.57348729E+02</pdfrwt>
<pdfrwt beam="2">  1        2 0.31906815E+00 0.60825583E+02</pdfrwt>
<totfact> 0.73380285E+01</totfact>
</mgrwt>
</event>
<event>
13    1  0.2742815E-008  0.5784915E+02  0.7546771E-02  0.1445701E+00
          2   -1    0    0  502    0  0.00000000000E+00  0.00000000000E+00  0.17106561998E+04  0.17106561998E+04  0.00000000000E+00 0. -1.
          2   -1    0    0  503    0 -0.00000000000E+00 -0.00000000000E+00 -0.31006704364E+03  0.31006704364E+03  0.00000000000E+00 0. -1.
         25    2    1    2    0    0 -0.76755751742E+02  0.32107969110E+02 -0.27197520627E+02  0.15259867410E+03  0.12499713238E+03 0.  0.
         24    2    1    2    0    0  0.22731027331E+02  0.27777102751E+02  0.18949321391E+03  0.20922989917E+03  0.81124629722E+02 0.  0.
         24    2    1    2    0    0  0.22694311817E+02 -0.38262748575E+02  0.38924118448E+03  0.39959623662E+03  0.78672631269E+02 0.  0.
        -11    1    5    5    0    0  0.38345609857E+01  0.16838065830E+02  0.21878421695E+03  0.21946470766E+03  0.00000000000E+00 0.  1.
         12    1    5    5    0    0  0.18859750831E+02 -0.55100814405E+02  0.17045696753E+03  0.18013152897E+03  0.00000000000E+00 0. -1.
        -13    1    4    4    0    0 -0.15467182480E+02  0.29516637388E+02  0.28782693435E+02  0.44033045068E+02  0.00000000000E+00 0.  1.
         14    1    4    4    0    0  0.38198209811E+02 -0.17395346375E+01  0.16071052048E+03  0.16519685411E+03  0.00000000000E+00 0. -1.
          5    1    3    3  501    0 -0.46757409225E+02  0.36465984166E+02  0.44716444659E+02  0.74415547714E+02  0.47000000000E+01 0. -1.
         -5    1    3    3    0  501 -0.29998342517E+02 -0.43580150563E+01 -0.71913965286E+02  0.78183126390E+02  0.47000000000E+01 0. -1.
          1    1    1    2  502    0  0.75927645557E+01 -0.57597467453E+02  0.10511002084E+04  0.10527045010E+04  0.00000000000E+00 0. -1.
          1    1    1    2  503    0  0.23737648037E+02  0.35975144167E+02 -0.20204793002E+03  0.20659393253E+03  0.00000000000E+00 0. -1.
<mgrwt>
<rscale>  0 0.49933454E+02</rscale>
<asrwt>0</asrwt>
<pdfrwt beam="1">  1        2 0.25156709E+00 0.57849146E+02</pdfrwt>
<pdfrwt beam="2">  1        2 0.45598095E-01 0.43100892E+02</pdfrwt>
<totfact> 0.22505033E+02</totfact>
</mgrwt>
</event>
<event>
13    1  0.2742815E-008  0.9727387E+02  0.7546771E-02  0.1527956E+00
          2   -1    0    0  503    0  0.00000000000E+00  0.00000000000E+00  0.20169743184E+04  0.20169743184E+04  0.00000000000E+00 0. -1.
          2   -1    0    0  502    0 -0.00000000000E+00 -0.00000000000E+00 -0.28628273854E+04  0.28628273854E+04  0.00000000000E+00 0. -1.
         25    2    1    2    0    0  0.33679537795E+02 -0.47519285280E+02 -0.25420049325E+03  0.28919730665E+03  0.12499919065E+03 0.  0.
         24    2    1    2    0    0 -0.17955779499E+03 -0.27815618427E+02  0.24145301500E+03  0.31249532021E+03  0.79618190946E+02 0.  0.
         24    2    1    2    0    0  0.87396027149E+02  0.15408766282E+02  0.35958708782E+03  0.37935623637E+03  0.82053547809E+02 0.  0.
        -13    1    4    4    0    0 -0.11302593752E+03 -0.55171613767E+02  0.16571732684E+03  0.20804086601E+03  0.00000000000E+00 0.  1.
         14    1    4    4    0    0 -0.66531857478E+02  0.27355995340E+02  0.75735688164E+02  0.10445445420E+03  0.00000000000E+00 0. -1.
        -13    1    5    5    0    0  0.88673956186E+02  0.21954951037E+02  0.20277441644E+03  0.22240178583E+03  0.00000000000E+00 0.  1.
         14    1    5    5    0    0 -0.12779290376E+01 -0.65461847545E+01  0.15681267139E+03  0.15695445054E+03  0.00000000000E+00 0. -1.
          5    1    3    3  501    0  0.30597772019E+02 -0.41314460016E+02 -0.26807062954E+03  0.27299644811E+03  0.47000000000E+01 0.  1.
         -5    1    3    3    0  501  0.30817657757E+01 -0.62048252631E+01  0.13870136285E+02  0.16200858539E+02  0.47000000000E+01 0.  1.
          1    1    1    2  502    0  0.71612660262E+02  0.65860109921E+02 -0.25447547648E+04  0.25466139755E+04  0.00000000000E+00 0. -1.
          1    1    1    2  503    0 -0.13130430211E+02 -0.59339724972E+01  0.13520620882E+04  0.13521388651E+04  0.00000000000E+00 0. -1.
<mgrwt>
<rscale>  0 0.37438247E+02</rscale>
<asrwt>0</asrwt>
<pdfrwt beam="1">  1        2 0.29661387E+00 0.14409033E+02</pdfrwt>
<pdfrwt beam="2">  1        2 0.42100403E+00 0.97273868E+02</pdfrwt>
<totfact> 0.60476758E+00</totfact>
</mgrwt>
</event>
<event>
13    1  0.6792866E-008  0.7423111E+03  0.7546771E-02  0.1233301E+00
          2   -1    0    0  502    0  0.00000000000E+00  0.00000000000E+00  0.11936987850E+04  0.11936987850E+04  0.00000000000E+00 0. -1.
          2   -1    0    0  503    0 -0.00000000000E+00 -0.00000000000E+00 -0.29342627070E+04  0.29342627070E+04  0.00000000000E+00 0. -1.
         25    2    1    2    0    0 -0.31321152939E+02  0.18569157770E+02 -0.14249689239E+04  0.14309042815E+04  0.12499920204E+03 0.  0.
         24    2    1    2    0    0 -0.20442806055E+02 -0.71297795594E+02 -0.11708050110E+03  0.16017959038E+03  0.80301764989E+02 0.  0.
         24    2    1    2    0    0  0.18912044425E+03 -0.66889344424E+03 -0.50634060633E+03  0.86375986251E+03  0.80717459624E+02 0.  0.
        -11    1    4    4    0    0  0.18365332910E+02 -0.52669704907E+02 -0.98701942178E+02  0.11337308613E+03  0.00000000000E+00 0.  1.
         12    1    4    4    0    0 -0.38808138964E+02 -0.18628090687E+02 -0.18378558924E+02  0.46806504256E+02  0.00000000000E+00 0. -1.
        -11    1    5    5    0    0  0.32921337160E+02 -0.17096771751E+03 -0.88910769151E+02  0.19549654662E+03  0.00000000000E+00 0.  1.
         12    1    5    5    0    0  0.15619910709E+03 -0.49792572674E+03 -0.41742983718E+03  0.66826331589E+03  0.00000000000E+00 0. -1.
          5    1    3    3  501    0 -0.73577102763E+01  0.57216480295E+02 -0.11969013720E+04  0.11982999815E+04  0.47000000000E+01 0. -1.
         -5    1    3    3    0  501 -0.23963442663E+02 -0.38647322525E+02 -0.22806755191E+03  0.23260429996E+03  0.47000000000E+01 0. -1.
          1    1    1    2  502    0 -0.15241840104E+03  0.73687222021E+03  0.84731369313E+03  0.11332045413E+04  0.00000000000E+00 0. -1.
          1    1    1    2  503    0  0.15061915791E+02 -0.15250138145E+02 -0.53948758380E+03  0.53991321627E+03  0.00000000000E+00 0. -1.
<mgrwt>
<rscale>  0 0.12613841E+03</rscale>
<asrwt>0</asrwt>
<pdfrwt beam="1">  1        2 0.17554394E+00 0.74231109E+03</pdfrwt>
<pdfrwt beam="2">  1        2 0.43150922E+00 0.21434272E+02</pdfrwt>
<totfact> 0.13004051E+01</totfact>
</mgrwt>
</event>
<event>
13    1  0.2742815E-008  0.1229887E+03  0.7546771E-02  0.1287761E+00
          2   -1    0    0  502    0  0.00000000000E+00  0.00000000000E+00  0.16226251896E+04  0.16226251896E+04  0.00000000000E+00 0. -1.
          2   -1    0    0  503    0 -0.00000000000E+00 -0.00000000000E+00 -0.14289056213E+04  0.14289056213E+04  0.00000000000E+00 0. -1.
         25    2    1    2    0    0  0.21595346281E+03 -0.54152378841E+02 -0.65742412907E+03  0.70526598831E+03  0.12500100222E+03 0.  0.
         24    2    1    2    0    0  0.31706927249E+02  0.56065282824E+02 -0.14699754055E+03  0.17965949439E+03  0.80750305418E+02 0.  0.
         24    2    1    2    0    0 -0.91471676086E+02 -0.27740281889E+01  0.36150883199E+02  0.12558822234E+03  0.78043273097E+02 0.  0.
        -11    1    4    4    0    0  0.58519594753E+02  0.42987506409E+02 -0.11414684140E+03  0.13528477401E+03  0.00000000000E+00 0.  1.
         12    1    4    4    0    0 -0.26812667504E+02  0.13077776415E+02 -0.32850699148E+02  0.44374720384E+02  0.00000000000E+00 0. -1.
        -11    1    5    5    0    0 -0.49817882850E+02  0.28781752886E+02 -0.68136530565E+01  0.57936487802E+02  0.00000000000E+00 0.  1.
         12    1    5    5    0    0 -0.41653793236E+02 -0.31555781075E+02  0.42964536255E+02  0.67651734537E+02  0.00000000000E+00 0. -1.
          5    1    3    3  501    0  0.18511632409E+03 -0.12903575835E+02 -0.59966557012E+03  0.62773835449E+03  0.47000000000E+01 0. -1.
         -5    1    3    3    0  501  0.30837138724E+02 -0.41248803006E+02 -0.57758558952E+02  0.77527633824E+02  0.47000000000E+01 0. -1.
          1    1    1    2  502    0 -0.10833821747E+03 -0.57884842758E+02  0.14963145093E+04  0.15013477063E+04  0.00000000000E+00 0. -1.
          1    1    1    2  503    0 -0.47850496511E+02  0.58745966963E+02 -0.53432415458E+03  0.53966939955E+03  0.00000000000E+00 0. -1.
<mgrwt>
<rscale>  0 0.96532819E+02</rscale>
<asrwt>0</asrwt>
<pdfrwt beam="1">  1        2 0.23862135E+00 0.12298873E+03</pdfrwt>
<pdfrwt beam="2">  1        2 0.21013318E+00 0.75767794E+02</pdfrwt>
<totfact> 0.37855088E+01</totfact>
</mgrwt>
</event>
<event>
13    1  0.2742815E-008  0.6381328E+02  0.7546771E-02  0.1387973E+00
          2   -1    0    0  502    0  0.00000000000E+00  0.00000000000E+00  0.17604330362E+04  0.17604330362E+04  0.00000000000E+00 0. -1.
          2   -1    0    0  503    0 -0.00000000000E+00 -0.00000000000E+00 -0.42105161843E+04  0.42105161843E+04  0.00000000000E+00 0. -1.
         25    2    1    2    0    0  0.21439187002E+03  0.42119313362E+03 -0.56021734280E+03  0.74352931307E+03  0.12499935392E+03 0.  0.
         24    2    1    2    0    0 -0.53923004936E+03 -0.10258873522E+04 -0.30381666404E+03  0.12014347246E+04  0.89033289005E+02 0.  0.
         24    2    1    2    0    0  0.33188238990E+03  0.59152595577E+03  0.19024089635E+03  0.70871998840E+03  0.77740248561E+02 0.  0.
        -11    1    5    5    0    0  0.16445587960E+03  0.25598723882E+03  0.49889844095E+02  0.30832482760E+03  0.00000000000E+00 0.  1.
         12    1    5    5    0    0  0.16742651030E+03  0.33553871695E+03  0.14035105225E+03  0.40039516080E+03  0.00000000000E+00 0. -1.
        -11    1    4    4    0    0 -0.24110158209E+03 -0.54481040723E+03 -0.17582167890E+03  0.62117760381E+03  0.00000000000E+00 0.  1.
         12    1    4    4    0    0 -0.29812846727E+03 -0.48107694494E+03 -0.12799498514E+03  0.58025712075E+03  0.00000000000E+00 0. -1.
          5    1    3    3  501    0  0.14344875979E+03  0.15256781724E+03 -0.21197293445E+03  0.29800855773E+03  0.47000000000E+01 0.  1.
         -5    1    3    3    0  501  0.70943110234E+02  0.26862531638E+03 -0.34824440835E+03  0.44552075534E+03  0.47000000000E+01 0.  1.
          1    1    1    2  502    0  0.44616424047E+02  0.45689552226E+02  0.76879771810E+03  0.77144545616E+03  0.00000000000E+00 0. -1.
          1    1    1    2  503    0 -0.51660634604E+02 -0.32521289446E+02 -0.25450877557E+04  0.25458197383E+04  0.00000000000E+00 0. -1.
<mgrwt>
<rscale>  0 0.62413641E+02</rscale>
<asrwt>0</asrwt>
<pdfrwt beam="1">  1        2 0.25888721E+00 0.63813281E+02</pdfrwt>
<pdfrwt beam="2">  1        2 0.61919355E+00 0.61044700E+02</pdfrwt>
<totfact> 0.11459907E+00</totfact>
</mgrwt>
</event>
<event>
13    1  0.2742815E-008  0.7260419E+02  0.7546771E-02  0.1367940E+00
          2   -1    0    0  503    0  0.00000000000E+00  0.00000000000E+00  0.16845033998E+04  0.16845033998E+04  0.00000000000E+00 0. -1.
          2   -1    0    0  502    0 -0.00000000000E+00 -0.00000000000E+00 -0.44382987786E+04  0.44382987786E+04  0.00000000000E+00 0. -1.
         25    2    1    2    0    0 -0.23566546778E+03 -0.11888086640E+03 -0.24903383133E+04  0.25074046415E+04  0.12498899275E+03 0.  0.
         24    2    1    2    0    0  0.21531214993E+03  0.12724591660E+03 -0.31067183231E+03  0.41213989073E+03  0.10388193750E+03 0.  0.
         24    2    1    2    0    0  0.28952023211E+02 -0.54803607426E+02  0.31740923187E+02  0.10633027856E+03  0.80355378777E+02 0.  0.
        -11    1    4    4    0    0  0.14508597590E+03  0.54667678206E+02 -0.11884592216E+03  0.19535313834E+03  0.00000000000E+00 0.  1.
         12    1    4    4    0    0  0.70226174029E+02  0.72578238397E+02 -0.19182591015E+03  0.21678675239E+03  0.00000000000E+00 0. -1.
        -13    1    5    5    0    0  0.56548217910E+02 -0.31774197419E+02  0.26233028768E+02  0.69967652303E+02  0.00000000000E+00 0.  1.
         14    1    5    5    0    0 -0.27596194700E+02 -0.23029410007E+02  0.55078944191E+01  0.36362626254E+02  0.00000000000E+00 0. -1.
          5    1    3    3  501    0 -0.57540284106E+01 -0.34824126220E+02 -0.14445588625E+03  0.14877977578E+03  0.47000000000E+01 0.  1.
         -5    1    3    3    0  501 -0.22991143937E+03 -0.84056740178E+02 -0.23458824270E+04  0.23586248657E+04  0.47000000000E+01 0.  1.
          1    1    1    2  502    0 -0.63191069098E+02 -0.14477613104E+01 -0.15392306218E+04  0.15405278687E+04  0.00000000000E+00 0. -1.
          1    1    1    2  503    0  0.54592363738E+02  0.47886318532E+02  0.15547044654E+04  0.15563994989E+04  0.00000000000E+00 0. -1.
<mgrwt>
<rscale>  0 0.67743193E+02</rscale>
<asrwt>0</asrwt>
<pdfrwt beam="1">  1        2 0.24772109E+00 0.72604187E+02</pdfrwt>
<pdfrwt beam="2">  1        2 0.65269099E+00 0.63207652E+02</pdfrwt>
<totfact> 0.83148919E-01</totfact>
</mgrwt>
</event>
<event>
13    1  0.2742815E-008  0.6265442E+02  0.7546771E-02  0.1431167E+00
          2   -1    0    0  502    0  0.00000000000E+00  0.00000000000E+00  0.11034631568E+04  0.11034631568E+04  0.00000000000E+00 0. -1.
          2   -1    0    0  503    0 -0.00000000000E+00 -0.00000000000E+00 -0.21399621396E+04  0.21399621396E+04  0.00000000000E+00 0. -1.
         25    2    1    2    0    0 -0.38506076575E+02 -0.10582345569E+03 -0.70940721939E+03  0.72908411934E+03  0.12499491367E+03 0.  0.
         24    2    1    2    0    0 -0.37636744600E+02  0.13976704307E+03 -0.47260017050E+02  0.17244012302E+03  0.80936616823E+02 0.  0.
         24    2    1    2    0    0  0.40030524605E+02 -0.75875803138E+01  0.33502932846E+03  0.34650573215E+03  0.78495587217E+02 0.  0.
        -11    1    5    5    0    0 -0.20026322592E+02 -0.17655720920E+02  0.12541943206E+03  0.12822952864E+03  0.00000000000E+00 0.  1.
         12    1    5    5    0    0  0.60056847197E+02  0.10068140607E+02  0.20960989640E+03  0.21827620351E+03  0.00000000000E+00 0. -1.
        -11    1    4    4    0    0 -0.48959098451E+00  0.14978078161E+02  0.20711755236E+02  0.25564806467E+02  0.00000000000E+00 0.  1.
         12    1    4    4    0    0 -0.37147153615E+02  0.12478896491E+03 -0.67971772286E+02  0.14687531655E+03  0.00000000000E+00 0. -1.
          5    1    3    3  501    0  0.21653774500E+02 -0.73552309743E+02 -0.55370184553E+03  0.55900505539E+03  0.47000000000E+01 0. -1.
         -5    1    3    3    0  501 -0.60159851076E+02 -0.32271145952E+02 -0.15570537386E+03  0.17007906394E+03  0.47000000000E+01 0. -1.
          1    1    1    2  502    0  0.96357366843E+01 -0.61962673088E+02  0.68846462985E+03  0.69131452092E+03  0.00000000000E+00 0. -1.
          1    1    1    2  503    0  0.26476559886E+02  0.35606666027E+02 -0.13033257047E+04  0.13040808009E+04  0.00000000000E+00 0. -1.
<mgrwt>
<rscale>  0 0.52726462E+02</rscale>
<asrwt>0</asrwt>
<pdfrwt beam="1">  1        2 0.16227400E+00 0.62654422E+02</pdfrwt>
<pdfrwt beam="2">  1        2 0.31470031E+00 0.44371645E+02</pdfrwt>
<totfact> 0.35399201E+01</totfact>
</mgrwt>
</event>
<event>
13    1  0.2742815E-008  0.1200745E+03  0.7546771E-02  0.1387807E+00
          4   -1    0    0  503    0 -0.00000000000E+00  0.00000000000E+00  0.48281098897E+03  0.48281098897E+03  0.00000000000E+00 0. -1.
          2   -1    0    0  502    0  0.00000000000E+00 -0.00000000000E+00 -0.27435036999E+04  0.27435036999E+04  0.00000000000E+00 0. -1.
         25    2    1    2    0    0  0.20661475624E+02 -0.36121501155E+02  0.13360296306E+03  0.18763975397E+03  0.12500906411E+03 0.  0.
         24    2    1    2    0    0 -0.61849222294E+02 -0.92411398720E+02  0.12448675144E+03  0.18917846338E+03  0.89030033185E+02 0.  0.
         24    2    1    2    0    0  0.80782770956E+01  0.35692956773E+02 -0.25115379976E+03  0.26664446799E+03  0.81742250085E+02 0.  0.
        -13    1    5    5    0    0 -0.30815408666E+02  0.39659452941E+02 -0.13144611742E+03  0.14071440368E+03  0.00000000000E+00 0.  1.
         14    1    5    5    0    0  0.38893685762E+02 -0.39664961689E+01 -0.11970768234E+03  0.12593006431E+03  0.00000000000E+00 0. -1.
        -13    1    4    4    0    0 -0.29375177629E+02 -0.17641179673E+01 -0.28151698287E+01  0.29562448378E+02  0.00000000000E+00 0.  1.
         14    1    4    4    0    0 -0.32474044665E+02 -0.90647280752E+02  0.12730192127E+03  0.15961601500E+03  0.00000000000E+00 0. -1.
          5    1    3    3  501    0  0.34334184453E+02 -0.19547879070E+02 -0.11074598207E+02  0.41300030553E+02  0.47000000000E+01 0. -1.
         -5    1    3    3    0  501 -0.13672708830E+02 -0.16573622086E+02  0.14467756126E+03  0.14633972341E+03  0.47000000000E+01 0. -1.
          1    1    1    2  502    0  0.52843292109E+02  0.11864461962E+03 -0.24218076171E+04  0.24252878373E+04  0.00000000000E+00 0. -1.
          3    1    1    2  503    0 -0.19733822535E+02 -0.25804676522E+02  0.15417899146E+03  0.15756416626E+03  0.00000000000E+00 0. -1.
<mgrwt>
<rscale>  0 0.62455384E+02</rscale>
<asrwt>0</asrwt>
<pdfrwt beam="2">  1        2 0.40345642E+00 0.12007449E+03</pdfrwt>
<pdfrwt beam="1">  1        4 0.71001617E-01 0.32485460E+02</pdfrwt>
<totfact> 0.32736341E+00</totfact>
</mgrwt>
</event>
<event>
13    1  0.2742815E-008  0.1818586E+03  0.7546771E-02  0.1279637E+00
          2   -1    0    0  502    0  0.00000000000E+00  0.00000000000E+00  0.15423039723E+04  0.15423039723E+04  0.00000000000E+00 0. -1.
          2   -1    0    0  503    0 -0.00000000000E+00 -0.00000000000E+00 -0.21274107951E+04  0.21274107951E+04  0.00000000000E+00 0. -1.
         25    2    1    2    0    0  0.18225204094E+03  0.79866627872E+02  0.35395474203E+02  0.23762016200E+03  0.12496406331E+03 0.  0.
         24    2    1    2    0    0 -0.17503122521E+03 -0.10151205449E+03  0.27680977763E+03  0.35215430622E+03  0.80301777036E+02 0.  0.
         24    2    1    2    0    0 -0.14118215414E+02  0.16539281494E+03  0.21611164380E+03  0.28405516358E+03  0.80180958628E+02 0.  0.
        -11    1    4    4    0    0 -0.14429951006E+03 -0.79820551605E+02  0.26608148526E+03  0.31303837761E+03  0.00000000000E+00 0.  1.
         12    1    4    4    0    0 -0.30731715154E+02 -0.21691502887E+02  0.10728292367E+02  0.39115928609E+02  0.00000000000E+00 0. -1.
        -11    1    5    5    0    0  0.16435515513E+02  0.12081684422E+03  0.10669677242E+03  0.16202171849E+03  0.00000000000E+00 0.  1.
         12    1    5    5    0    0 -0.30553730927E+02  0.44575970717E+02  0.10941487139E+03  0.12203344509E+03  0.00000000000E+00 0. -1.
          5    1    3    3  501    0  0.16988649624E+03  0.87554876377E+02 -0.82638452831E+01  0.19135741199E+03  0.47000000000E+01 0. -1.
         -5    1    3    3    0  501  0.12365544695E+02 -0.76882485047E+01  0.43659319486E+02  0.46262750012E+02  0.47000000000E+01 0. -1.
          1    1    1    2  502    0  0.61324362730E+01 -0.19907590997E+03  0.82904227420E+03  0.85263117297E+03  0.00000000000E+00 0. -1.
          1    1    1    2  503    0  0.76496341793E+00  0.55328521650E+02 -0.19424659926E+04  0.19432539626E+04  0.00000000000E+00 0. -1.
<mgrwt>
<rscale>  0 0.10031414E+03</rscale>
<asrwt>0</asrwt>
<pdfrwt beam="1">  1        2 0.22680941E+00 0.18185855E+03</pdfrwt>
<pdfrwt beam="2">  1        2 0.31285453E+00 0.55333810E+02</pdfrwt>
<totfact> 0.19319724E+01</totfact>
</mgrwt>
</event>
<event>
13    1  0.2742815E-008  0.3762742E+02  0.7546771E-02  0.1631565E+00
         -3   -1    0    0    0  501 -0.00000000000E+00  0.00000000000E+00  0.28644443149E+03  0.28644443149E+03  0.00000000000E+00 0.  1.
          2   -1    0    0  503    0  0.00000000000E+00 -0.00000000000E+00 -0.16031009478E+04  0.16031009478E+04  0.00000000000E+00 0. -1.
         25    2    1    2    0    0  0.98039350738E+02 -0.13142950523E+03 -0.29614322563E+02  0.20829623918E+03  0.12499954407E+03 0.  0.
         24    2    1    2    0    0 -0.46899552821E+01 -0.21082603048E+00 -0.23518106829E+03  0.24912420503E+03  0.82040810108E+02 0.  0.
         24    2    1    2    0    0 -0.79173968405E+02  0.11877449484E+03 -0.11247311973E+04  0.11361697083E+04  0.74063768883E+02 0.  0.
        -13    1    5    5    0    0 -0.92465540813E+02  0.90922735228E+02 -0.88118492094E+03  0.89067597078E+03  0.00000000000E+00 0.  1.
         14    1    5    5    0    0  0.13291572408E+02  0.27851759609E+02 -0.24354627639E+03  0.24549373751E+03  0.00000000000E+00 0. -1.
        -13    1    4    4    0    0  0.51745702276E+00 -0.15382713078E+02 -0.21490033892E+01  0.15540715524E+02  0.00000000000E+00 0.  1.
         14    1    4    4    0    0 -0.52074123048E+01  0.15171887048E+02 -0.23303206490E+03  0.23358348951E+03  0.00000000000E+00 0. -1.
          5    1    3    3  502    0 -0.10448103400E+02 -0.77312759834E+02 -0.37551215058E+02  0.86709915523E+02  0.47000000000E+01 0. -1.
         -5    1    3    3    0  502  0.10848745414E+03 -0.54116745401E+02  0.79368924947E+01  0.12158632366E+03  0.47000000000E+01 0. -1.
          1    1    1    2  503    0  0.18994894088E+02 -0.49501573154E+01 -0.10873268116E+03  0.11049029827E+03  0.00000000000E+00 0. -1.
         -4    1    1    2    0  501 -0.33170321139E+02  0.17815993743E+02  0.18160275299E+03  0.18546492858E+03  0.00000000000E+00 0.  1.
<mgrwt>
<rscale>  0 0.27177208E+02</rscale>
<asrwt>0</asrwt>
<pdfrwt beam="2">  1        2 0.23575015E+00 0.19629316E+02</pdfrwt>
<pdfrwt beam="1">  1       -3 0.42124180E-01 0.37627424E+02</pdfrwt>
<totfact> 0.51394435E+01</totfact>
</mgrwt>
</event>
<event>
13    1  0.2742815E-008  0.7086775E+02  0.7546771E-02  0.1382859E+00
          2   -1    0    0  502    0  0.00000000000E+00  0.00000000000E+00  0.17590042905E+04  0.17590042905E+04  0.00000000000E+00 0. -1.
          4   -1    0    0  503    0 -0.00000000000E+00 -0.00000000000E+00 -0.60305460726E+03  0.60305460726E+03  0.00000000000E+00 0. -1.
         25    2    1    2    0    0 -0.42772124669E+02 -0.77017142985E+02 -0.25320847525E+02  0.15500815306E+03  0.12500114892E+03 0.  0.
         24    2    1    2    0    0  0.38623644076E+02  0.42349496049E+02  0.13655021971E+03  0.16864823130E+03  0.80690753630E+02 0.  0.
         24    2    1    2    0    0  0.45444674549E+02 -0.75486928370E+02  0.41651844342E+03  0.43318400847E+03  0.79982977468E+02 0.  0.
        -11    1    5    5    0    0 -0.11320053641E+02 -0.21753690104E+02  0.29548510149E+02  0.38398972638E+02  0.00000000000E+00 0.  1.
         12    1    5    5    0    0  0.56764728190E+02 -0.53733238265E+02  0.38696993327E+03  0.39478503583E+03  0.00000000000E+00 0. -1.
        -13    1    4    4    0    0  0.25474033147E+02  0.17210095103E+01 -0.46369540128E-01  0.25532144224E+02  0.00000000000E+00 0.  1.
         14    1    4    4    0    0  0.13149610929E+02  0.40628486538E+02  0.13659658925E+03  0.14311608708E+03  0.00000000000E+00 0. -1.
          5    1    3    3  501    0  0.30929827565E+02 -0.38634261620E+02 -0.47621821791E+02  0.68841762868E+02  0.47000000000E+01 0. -1.
         -5    1    3    3    0  501 -0.73701952234E+02 -0.38382881365E+02  0.22300974266E+02  0.86166390189E+02  0.47000000000E+01 0. -1.
          1    1    1    2  502    0 -0.46364003141E+02  0.53089404959E+02  0.11139127867E+04  0.11161405834E+04  0.00000000000E+00 0. -1.
          3    1    1    2  503    0  0.50678091847E+01  0.57065170346E+02 -0.48571091906E+03  0.48907792146E+03  0.00000000000E+00 0. -1.
<mgrwt>
<rscale>  0 0.63718101E+02</rscale>
<asrwt>0</asrwt>
<pdfrwt beam="1">  1        2 0.25867710E+00 0.70867753E+02</pdfrwt>
<pdfrwt beam="2">  1        4 0.88684501E-01 0.57289758E+02</pdfrwt>
<totfact> 0.68959656E+00</totfact>
</mgrwt>
</event>
<event>
13    1  0.2742815E-008  0.7847209E+02  0.7546771E-02  0.1415183E+00
          2   -1    0    0  503    0  0.00000000000E+00  0.00000000000E+00  0.24738408294E+04  0.24738408294E+04  0.00000000000E+00 0. -1.
          2   -1    0    0  502    0 -0.00000000000E+00 -0.00000000000E+00 -0.42608933595E+04  0.42608933595E+04  0.00000000000E+00 0. -1.
         25    2    1    2    0    0  0.10422591725E+03 -0.22995298106E+03 -0.10963143867E+04  0.11319337396E+04  0.12500936398E+03 0.  0.
         24    2    1    2    0    0  0.67326033699E+03  0.42124610440E+03 -0.14733118184E+04  0.16769332711E+04  0.10358435966E+03 0.  0.
         24    2    1    2    0    0 -0.80010067285E+03 -0.79859228144E+02 -0.16427410732E+03  0.82454140253E+03  0.79648974488E+02 0.  0.
        -11    1    5    5    0    0 -0.32877752189E+03 -0.23858453166E+00 -0.44617084714E+02  0.33179119951E+03  0.00000000000E+00 0.  1.
         12    1    5    5    0    0 -0.47132315096E+03 -0.79620643613E+02 -0.11965702260E+03  0.49275020302E+03  0.00000000000E+00 0. -1.
        -13    1    4    4    0    0  0.38640232362E+03  0.18728434352E+03 -0.83944777388E+03  0.94289699655E+03  0.00000000000E+00 0.  1.
         14    1    4    4    0    0  0.28685801336E+03  0.23396176087E+03 -0.63386404455E+03  0.73403627455E+03  0.00000000000E+00 0. -1.
          5    1    3    3  501    0  0.11293912653E+03 -0.17830687363E+03 -0.10015260231E+04  0.10235355648E+04  0.47000000000E+01 0. -1.
         -5    1    3    3    0  501 -0.87132092774E+01 -0.51646107433E+02 -0.94788363619E+02  0.10839817483E+03  0.47000000000E+01 0. -1.
          1    1    1    2  502    0  0.36943359605E-01 -0.78367541117E+02 -0.10756153078E+04  0.10784663942E+04  0.00000000000E+00 0. -1.
          1    1    1    2  503    0  0.22577475254E+02 -0.33066354077E+02  0.20224630902E+04  0.20228593815E+04  0.00000000000E+00 0. -1.
<mgrwt>
<rscale>  0 0.56053088E+02</rscale>
<asrwt>0</asrwt>
<pdfrwt beam="1">  1        2 0.36380012E+00 0.40039058E+02</pdfrwt>
<pdfrwt beam="2">  1        2 0.62660196E+00 0.78472092E+02</pdfrwt>
<totfact> 0.48717367E-01</totfact>
</mgrwt>
</event>
<event>
13    1  0.2742815E-008  0.1012151E+03  0.7546771E-02  0.1313587E+00
         -3   -1    0    0    0  501 -0.00000000000E+00  0.00000000000E+00  0.90985038116E+03  0.90985038116E+03  0.00000000000E+00 0.  1.
          2   -1    0    0  503    0  0.00000000000E+00 -0.00000000000E+00 -0.96478992112E+03  0.96478992112E+03  0.00000000000E+00 0. -1.
         25    2    1    2    0    0  0.11351413948E+03  0.20926187964E+02  0.15245438794E+03  0.22845084392E+03  0.12499632987E+03 0.  0.
         24    2    1    2    0    0  0.46862789260E+01  0.29406624574E+02 -0.18760350189E+02  0.87372945110E+02  0.79971057383E+02 0.  0.
         24    2    1    2    0    0  0.75806984357E+01  0.16231361377E+01 -0.10458425984E+03  0.13224996741E+03  0.80573475257E+02 0.  0.
        -11    1    5    5    0    0 -0.33004665235E+02  0.17509390906E+02 -0.48111251523E+02  0.60914523886E+02  0.00000000000E+00 0.  1.
         12    1    5    5    0    0  0.40585363671E+02 -0.15886254768E+02 -0.56473008319E+02  0.71335443529E+02  0.00000000000E+00 0. -1.
        -11    1    4    4    0    0 -0.20215293863E+02  0.24605837173E+02 -0.42181270542E+02  0.52852293361E+02  0.00000000000E+00 0.  1.
         12    1    4    4    0    0  0.24901572789E+02  0.48007874003E+01  0.23420920353E+02  0.34520651749E+02  0.00000000000E+00 0. -1.
          5    1    3    3  502    0  0.12195846985E+03  0.43410641053E+02  0.15701743874E+03  0.20355568819E+03  0.47000000000E+01 0.  1.
         -5    1    3    3    0  502 -0.84443303715E+01 -0.22484453090E+02 -0.45630508032E+01  0.24895155730E+02  0.47000000000E+01 0.  1.
          1    1    1    2  503    0 -0.13295378629E+03  0.20268205727E+02 -0.74732579541E+03  0.75933085934E+03  0.00000000000E+00 0. -1.
         -4    1    1    2    0  501  0.71726694515E+01 -0.72224154402E+02  0.66327647755E+03  0.66723568650E+03  0.00000000000E+00 0.  1.
<mgrwt>
<rscale>  0 0.85709594E+02</rscale>
<asrwt>0</asrwt>
<pdfrwt beam="2">  1        2 0.14188087E+00 0.10121508E+03</pdfrwt>
<pdfrwt beam="1">  1       -3 0.13380153E+00 0.72579444E+02</pdfrwt>
<totfact> 0.86687058E+00</totfact>
</mgrwt>
</event>
<event>
13    1  0.2742815E-008  0.1140645E+03  0.7546771E-02  0.1302924E+00
          2   -1    0    0  502    0  0.00000000000E+00  0.00000000000E+00  0.25492718119E+04  0.25492718119E+04  0.00000000000E+00 0. -1.
          2   -1    0    0  503    0 -0.00000000000E+00 -0.00000000000E+00 -0.58226051297E+03  0.58226051297E+03  0.00000000000E+00 0. -1.
         25    2    1    2    0    0 -0.69366234727E+02 -0.11007690649E+03 -0.27659890727E+03  0.33025045486E+03  0.12501922880E+03 0.  0.
         24    2    1    2    0    0  0.24229408074E+03  0.29754949602E+03  0.22723929300E+02  0.39288517225E+03  0.81241968612E+02 0.  0.
         24    2    1    2    0    0 -0.78420894410E+02 -0.71555194294E+02  0.60599636218E+03  0.62037325367E+03  0.79758387570E+02 0.  0.
        -11    1    5    5    0    0  0.81916718277E+01 -0.18063792472E+02  0.33783030577E+02  0.39175212070E+02  0.00000000000E+00 0.  1.
         12    1    5    5    0    0 -0.86612566237E+02 -0.53491401822E+02  0.57221333160E+03  0.58119804160E+03  0.00000000000E+00 0. -1.
        -13    1    4    4    0    0  0.10399724957E+03  0.19133914044E+03  0.16489710746E+02  0.21839872972E+03  0.00000000000E+00 0.  1.
         14    1    4    4    0    0  0.13829683117E+03  0.10621035558E+03  0.62342185536E+01  0.17448644253E+03  0.00000000000E+00 0. -1.
          5    1    3    3  501    0 -0.93342049284E+02 -0.41242786017E+02 -0.12097053213E+03  0.15833403048E+03  0.47000000000E+01 0. -1.
         -5    1    3    3    0  501  0.23975814557E+02 -0.68834120472E+02 -0.15562837514E+03  0.17191642438E+03  0.47000000000E+01 0. -1.
          1    1    1    2  502    0 -0.23679071905E+02 -0.11150398397E+03  0.16846557815E+04  0.16885079031E+04  0.00000000000E+00 0. -1.
          1    1    1    2  503    0 -0.70827879698E+02 -0.44134112701E+01 -0.69765866718E+02  0.99515541000E+02  0.00000000000E+00 0. -1.
<mgrwt>
<rscale>  0 0.89970073E+02</rscale>
<asrwt>0</asrwt>
<pdfrwt beam="1">  1        2 0.37489291E+00 0.11406448E+03</pdfrwt>
<pdfrwt beam="2">  1        2 0.85626547E-01 0.70965250E+02</pdfrwt>
<totfact> 0.42683653E+01</totfact>
</mgrwt>
</event>
<event>
13    1  0.2742815E-008  0.6985805E+02  0.7546771E-02  0.1367747E+00
          2   -1    0    0  503    0  0.00000000000E+00  0.00000000000E+00  0.16297945042E+04  0.16297945042E+04  0.00000000000E+00 0. -1.
          2   -1    0    0  502    0 -0.00000000000E+00 -0.00000000000E+00 -0.15169193980E+04  0.15169193980E+04  0.00000000000E+00 0. -1.
         25    2    1    2    0    0 -0.16052682365E+03  0.34404869381E+03 -0.63483342722E+03  0.75018676398E+03  0.12501334212E+03 0.  0.
         24    2    1    2    0    0  0.38742762016E+01 -0.27693326250E+03  0.27874282332E+03  0.40013281769E+03  0.75509392420E+02 0.  0.
         24    2    1    2    0    0  0.30374404678E+02 -0.24164251279E+02  0.84189802876E+02  0.12416816219E+03  0.82603232947E+02 0.  0.
        -11    1    4    4    0    0 -0.19069526977E+01 -0.26842031135E+03  0.28200990100E+03  0.38933620982E+03  0.00000000000E+00 0.  1.
         12    1    4    4    0    0  0.57812288993E+01 -0.85129511527E+01 -0.32670776822E+01  0.10796607870E+02  0.00000000000E+00 0. -1.
        -13    1    5    5    0    0  0.50324381977E+02  0.72726240440E+01  0.64238111704E+02  0.81926610312E+02  0.00000000000E+00 0.  1.
         14    1    5    5    0    0 -0.19949977298E+02 -0.31436875323E+02  0.19951691171E+02  0.42241551876E+02  0.00000000000E+00 0. -1.
          5    1    3    3  501    0 -0.13413471136E+03  0.26767202266E+03 -0.57902311687E+03  0.65186677502E+03  0.47000000000E+01 0.  1.
         -5    1    3    3    0  501 -0.26392112293E+02  0.76376671155E+02 -0.55810310357E+02  0.98319988966E+02  0.47000000000E+01 0.  1.
          1    1    1    2  502    0  0.68793056680E+02 -0.10938887853E+02 -0.74113151232E+03  0.74439778511E+03  0.00000000000E+00 0. -1.
          1    1    1    2  503    0  0.57485086090E+02 -0.32012292178E+02  0.11259074196E+04  0.11278283732E+04  0.00000000000E+00 0. -1.
<mgrwt>
<rscale>  0 0.67797424E+02</rscale>
<asrwt>0</asrwt>
<pdfrwt beam="1">  1        2 0.23967566E+00 0.65797583E+02</pdfrwt>
<pdfrwt beam="2">  1        2 0.22307638E+00 0.69858048E+02</pdfrwt>
<totfact> 0.36093523E+01</totfact>
</mgrwt>
</event>
<event>
13    1  0.2742815E-008  0.1095366E+03  0.7546771E-02  0.1283614E+00
          2   -1    0    0  503    0  0.00000000000E+00  0.00000000000E+00  0.32451565281E+04  0.32451565281E+04  0.00000000000E+00 0. -1.
          2   -1    0    0  502    0 -0.00000000000E+00 -0.00000000000E+00 -0.18955867326E+04  0.18955867326E+04  0.00000000000E+00 0. -1.
         25    2    1    2    0    0  0.57329802531E+02 -0.32481145306E+02 -0.39766123543E+03  0.42202042014E+03  0.12500018317E+03 0.  0.
         24    2    1    2    0    0  0.43968413016E+02  0.11345216764E+03  0.35463176833E+02  0.14692331340E+03  0.74325012104E+02 0.  0.
         24    2    1    2    0    0 -0.11424303158E+03  0.11386489339E+03  0.66309351727E+03  0.68715349311E+03  0.80437716473E+02 0.  0.
        -13    1    4    4    0    0  0.27537046353E+02  0.11862273001E+03  0.19290635534E+02  0.12329545659E+03  0.00000000000E+00 0.  1.
         14    1    4    4    0    0  0.16431366663E+02 -0.51705623639E+01  0.16172541299E+02  0.23627856815E+02  0.00000000000E+00 0. -1.
        -13    1    5    5    0    0 -0.98444674677E+02  0.11912659295E+03  0.64168312798E+03  0.66003010224E+03  0.00000000000E+00 0.  1.
         14    1    5    5    0    0 -0.15798356900E+02 -0.52616995537E+01  0.21410389291E+02  0.27123390874E+02  0.00000000000E+00 0. -1.
          5    1    3    3  501    0  0.70429231062E+01  0.29083030019E+02 -0.20573989947E+02  0.36616996919E+02  0.47000000000E+01 0. -1.
         -5    1    3    3    0  501  0.50286879425E+02 -0.61564175325E+02 -0.37708724548E+03  0.38540342322E+03  0.47000000000E+01 0. -1.
          1    1    1    2  502    0  0.21394701305E+02 -0.85838805431E+02 -0.14153928785E+04  0.14181547991E+04  0.00000000000E+00 0. -1.
          1    1    1    2  503    0 -0.84498852756E+01 -0.10899711030E+03  0.24640672153E+04  0.24664912349E+04  0.00000000000E+00 0. -1.
<mgrwt>
<rscale>  0 0.98438526E+02</rscale>
<asrwt>0</asrwt>
<pdfrwt beam="1">  1        2 0.47722890E+00 0.10953662E+03</pdfrwt>
<pdfrwt beam="2">  1        2 0.27876276E+00 0.88464873E+02</pdfrwt>
<totfact> 0.33975119E+00</totfact>
</mgrwt>
</event>
<event>
13    1  0.2742815E-008  0.1605773E+03  0.7546771E-02  0.1446403E+00
          2   -1    0    0  503    0  0.00000000000E+00  0.00000000000E+00  0.35247924506E+04  0.35247924506E+04  0.00000000000E+00 0. -1.
          2   -1    0    0  502    0 -0.00000000000E+00 -0.00000000000E+00 -0.23670533537E+04  0.23670533537E+04  0.00000000000E+00 0. -1.
         25    2    1    2    0    0 -0.10167404066E+03  0.72065196897E+02 -0.51776493230E+03  0.54702269615E+03  0.12498920689E+03 0.  0.
         24    2    1    2    0    0 -0.15791811728E+03  0.33240587940E+03 -0.63996442222E+03  0.74263964249E+03  0.80792180783E+02 0.  0.
         24    2    1    2    0    0  0.30132496158E+03 -0.56159266494E+03  0.12227091220E+04  0.13804390136E+04  0.66417011905E+02 0.  0.
        -11    1    4    4    0    0 -0.96291128682E+02  0.26223667755E+03 -0.42913020005E+03  0.51204763949E+03  0.00000000000E+00 0.  1.
         12    1    4    4    0    0 -0.61626988594E+02  0.70169201854E+02 -0.21083422216E+03  0.23059200300E+03  0.00000000000E+00 0. -1.
        -11    1    5    5    0    0  0.18342922327E+03 -0.38159088833E+03  0.75511452643E+03  0.86571117241E+03  0.00000000000E+00 0.  1.
         12    1    5    5    0    0  0.11789573831E+03 -0.18000177660E+03  0.46759459559E+03  0.51472784121E+03  0.00000000000E+00 0. -1.
          5    1    3    3  501    0 -0.38827967953E+02  0.59626651089E+02 -0.44189195159E+03  0.44760868568E+03  0.47000000000E+01 0. -1.
         -5    1    3    3    0  501 -0.62846072706E+02  0.12438545808E+02 -0.75872980707E+02  0.99414010470E+02  0.47000000000E+01 0. -1.
          1    1    1    2  502    0 -0.15393849673E+02 -0.12779109493E+01 -0.10614482115E+04  0.10615606009E+04  0.00000000000E+00 0. -1.
          1    1    1    2  503    0 -0.26338953976E+02  0.15839949958E+03  0.21542075408E+04  0.21601838512E+04  0.00000000000E+00 0. -1.
<mgrwt>
<rscale>  0 0.49803672E+02</rscale>
<asrwt>0</asrwt>
<pdfrwt beam="1">  1        2 0.51835184E+00 0.16057731E+03</pdfrwt>
<pdfrwt beam="2">  1        2 0.34809608E+00 0.15446801E+02</pdfrwt>
<totfact> 0.16614889E+00</totfact>
</mgrwt>
</event>
<event>
13    1  0.2742815E-008  0.1643894E+03  0.7546771E-02  0.1365579E+00
          2   -1    0    0  502    0  0.00000000000E+00  0.00000000000E+00  0.16084414527E+04  0.16084414527E+04  0.00000000000E+00 0. -1.
          2   -1    0    0  503    0 -0.00000000000E+00 -0.00000000000E+00 -0.16482957824E+04  0.16482957824E+04  0.00000000000E+00 0. -1.
         25    2    1    2    0    0  0.99180512455E+02 -0.44646132128E+02 -0.53115310327E+03  0.55639605366E+03  0.12499159273E+03 0.  0.
         24    2    1    2    0    0 -0.37452613173E+02  0.85424064669E+02  0.48490914183E+02  0.13208832279E+03  0.79974916072E+02 0.  0.
         24    2    1    2    0    0  0.10290870734E+03  0.73080082567E+02  0.21286481927E+03  0.26055426825E+03  0.81524198298E+02 0.  0.
        -11    1    4    4    0    0 -0.97255833307E+01  0.71115095412E+02 -0.30466834455E+01  0.71841673468E+02  0.00000000000E+00 0.  1.
         12    1    4    4    0    0 -0.27727029842E+02  0.14308969257E+02  0.51537597629E+02  0.60246649321E+02  0.00000000000E+00 0. -1.
        -13    1    5    5    0    0  0.49066693413E+01 -0.71755801116E+01 -0.38718855080E+01  0.95160838242E+01  0.00000000000E+00 0.  1.
         14    1    5    5    0    0  0.98002037995E+02  0.80255662679E+02  0.21673670477E+03  0.25103818443E+03  0.00000000000E+00 0. -1.
          5    1    3    3  501    0  0.88144450450E+02 -0.83823274015E+02 -0.34675592492E+03  0.36750176446E+03  0.47000000000E+01 0.  1.
         -5    1    3    3    0  501  0.11036062004E+02  0.39177141887E+02 -0.18439717835E+03  0.18889428920E+03  0.47000000000E+01 0.  1.
          1    1    1    2  502    0 -0.13693123346E+03 -0.10730433363E+03  0.12626606231E+04  0.12745886520E+04  0.00000000000E+00 0. -1.
          1    1    1    2  503    0 -0.27705373160E+02 -0.65536814787E+01 -0.10327175830E+04  0.10331099384E+04  0.00000000000E+00 0. -1.
<mgrwt>
<rscale>  0 0.68411690E+02</rscale>
<asrwt>0</asrwt>
<pdfrwt beam="1">  1        2 0.23653551E+00 0.16438941E+03</pdfrwt>
<pdfrwt beam="2">  1        2 0.24239644E+00 0.28469957E+02</pdfrwt>
<totfact> 0.32193693E+01</totfact>
</mgrwt>
</event>
<event>
13    1  0.2742815E-008  0.4153956E+02  0.7546771E-02  0.1509847E+00
          2   -1    0    0  503    0  0.00000000000E+00  0.00000000000E+00  0.13430008731E+04  0.13430008731E+04  0.00000000000E+00 0. -1.
         -1   -1    0    0    0  501 -0.00000000000E+00 -0.00000000000E+00 -0.51205646068E+03  0.51205646068E+03  0.00000000000E+00 0.  1.
         25    2    1    2    0    0 -0.26075359405E+03 -0.71822954631E+02 -0.24410293752E+03  0.38517871567E+03  0.12500170112E+03 0.  0.
         24    2    1    2    0    0  0.23289574898E+03  0.36793705343E+02  0.63800418868E+03  0.68475398311E+03  0.79021933519E+02 0.  0.
         24    2    1    2    0    0 -0.14038860776E+02  0.12768419535E+02  0.30621351423E+03  0.31707238179E+03  0.80050339467E+02 0.  0.
        -13    1    5    5    0    0 -0.44195348305E+02 -0.64468132263E+01  0.13609160617E+03  0.14323308096E+03  0.00000000000E+00 0.  1.
         14    1    5    5    0    0  0.30156487530E+02  0.19215232762E+02  0.17012190807E+03  0.17383930083E+03  0.00000000000E+00 0. -1.
        -13    1    4    4    0    0  0.72706453291E+02 -0.23728920739E+02  0.17023781302E+03  0.18662851607E+03  0.00000000000E+00 0.  1.
         14    1    4    4    0    0  0.16018929569E+03  0.60522626083E+02  0.46776637566E+03  0.49812546704E+03  0.00000000000E+00 0. -1.
          5    1    3    3  502    0 -0.22146614386E+03 -0.10113980140E+03 -0.22739299541E+03  0.33317589448E+03  0.47000000000E+01 0. -1.
         -5    1    3    3    0  502 -0.39287450188E+02  0.29316846765E+02 -0.16709942104E+02  0.52002821189E+02  0.47000000000E+01 0. -1.
          1    1    1    2  503    0  0.38516585445E+02 -0.15681248719E+02  0.29581637117E+03  0.29872521549E+03  0.00000000000E+00 0. -1.
         -2    1    1    2    0  501  0.33801203977E+01  0.37942078471E+02 -0.16498672418E+03  0.16932703767E+03  0.00000000000E+00 0.  1.
<mgrwt>
<rscale>  0 0.39778625E+02</rscale>
<asrwt>0</asrwt>
<pdfrwt beam="1">  1        2 0.19750013E+00 0.41539556E+02</pdfrwt>
<pdfrwt beam="2">  1       -1 0.75302421E-01 0.38092342E+02</pdfrwt>
<totfact> 0.45880851E+01</totfact>
</mgrwt>
</event>
<event>
13    1  0.2742815E-008  0.1364093E+03  0.7546771E-02  0.1276239E+00
          2   -1    0    0  502    0  0.00000000000E+00  0.00000000000E+00  0.14779824033E+04  0.14779824033E+04  0.00000000000E+00 0. -1.
          4   -1    0    0  503    0 -0.00000000000E+00 -0.00000000000E+00 -0.53521451602E+03  0.53521451602E+03  0.00000000000E+00 0. -1.
         25    2    1    2    0    0 -0.30376655130E+02 -0.14333589586E+03  0.53905219174E+02  0.19999583946E+03  0.12499857170E+03 0.  0.
         24    2    1    2    0    0  0.46113634001E+02  0.19521035092E+02  0.38515785805E+02  0.10327198923E+03  0.81695164796E+02 0.  0.
         24    2    1    2    0    0 -0.43489066646E+02 -0.75247202292E+02  0.18080176488E+03  0.21602383788E+03  0.80147239347E+02 0.  0.
        -11    1    4    4    0    0  0.41389432944E+02  0.11282305707E+02 -0.17591705423E+02  0.46366406818E+02  0.00000000000E+00 0.  1.
         12    1    4    4    0    0  0.47242010572E+01  0.82387293852E+01  0.56107491228E+02  0.56905582410E+02  0.00000000000E+00 0. -1.
        -13    1    5    5    0    0 -0.31322489515E+02  0.90761654741E+01  0.58449949141E+02  0.66931843570E+02  0.00000000000E+00 0.  1.
         14    1    5    5    0    0 -0.12166577131E+02 -0.84323367766E+02  0.12235181574E+03  0.14909199431E+03  0.00000000000E+00 0. -1.
          5    1    3    3  501    0  0.15352323630E+02 -0.68030941461E+02  0.81673888400E+02  0.10750170642E+03  0.47000000000E+01 0.  1.
         -5    1    3    3    0  501 -0.45728978760E+02 -0.75304954397E+02 -0.27768669227E+02  0.92494133035E+02  0.47000000000E+01 0.  1.
          1    1    1    2  502    0 -0.14225796089E+02  0.13546495598E+03  0.10738640625E+04  0.10824680837E+04  0.00000000000E+00 0. -1.
          3    1    1    2  503    0  0.41977883864E+02  0.63597107077E+02 -0.40431894504E+03  0.41143716906E+03  0.00000000000E+00 0. -1.
<mgrwt>
<rscale>  0 0.10195417E+03</rscale>
<asrwt>0</asrwt>
<pdfrwt beam="1">  1        2 0.21735035E+00 0.13640931E+03</pdfrwt>
<pdfrwt beam="2">  1        4 0.78708017E-01 0.76201934E+02</pdfrwt>
<totfact> 0.11853770E+01</totfact>
</mgrwt>
</event>
<event>
13    1  0.2742815E-008  0.4866876E+02  0.7546771E-02  0.1472279E+00
          2   -1    0    0  503    0  0.00000000000E+00  0.00000000000E+00  0.33259491071E+04  0.33259491071E+04  0.00000000000E+00 0. -1.
         -1   -1    0    0    0  501 -0.00000000000E+00 -0.00000000000E+00 -0.25017970138E+03  0.25017970138E+03  0.00000000000E+00 0.  1.
         25    2    1    2    0    0 -0.30420119304E+00 -0.10024473438E+03 -0.24322182705E+02  0.16206848004E+03  0.12500209735E+03 0.  0.
         24    2    1    2    0    0  0.56412829699E+02  0.75936177612E+02  0.39828554826E+03  0.41708364230E+03  0.79866615632E+02 0.  0.
         24    2    1    2    0    0 -0.47690208270E+01 -0.31150530680E+02  0.20792915861E+03  0.22566457373E+03  0.81834379777E+02 0.  0.
        -11    1    4    4    0    0 -0.18211473325E+02  0.33045984142E+02  0.12109812824E+03  0.12684025974E+03  0.00000000000E+00 0.  1.
         12    1    4    4    0    0  0.74624303024E+02  0.42890193469E+02  0.27718742003E+03  0.29024338256E+03  0.00000000000E+00 0. -1.
        -11    1    5    5    0    0  0.24538074417E+02 -0.45418151223E+02  0.94934252846E+02  0.10806219468E+03  0.00000000000E+00 0.  1.
         12    1    5    5    0    0 -0.29307095244E+02  0.14267620543E+02  0.11299490577E+03  0.11760237904E+03  0.00000000000E+00 0. -1.
          5    1    3    3  502    0 -0.45899936951E+02  0.12460994664E+01 -0.20863294927E+02  0.50652976726E+02  0.47000000000E+01 0.  1.
         -5    1    3    3    0  502  0.45595735758E+02 -0.10149083385E+03 -0.34588877776E+01  0.11141550331E+03  0.47000000000E+01 0.  1.
          1    1    1    2  503    0 -0.98477019997E+01  0.47628941736E+02  0.26291512054E+04  0.26296010257E+04  0.00000000000E+00 0. -1.
         -2    1    1    2    0  501 -0.41491905679E+02  0.78301457110E+01 -0.13527432385E+03  0.14171108676E+03  0.00000000000E+00 0.  1.
<mgrwt>
<rscale>  0 0.45332142E+02</rscale>
<asrwt>0</asrwt>
<pdfrwt beam="1">  1        2 0.48911013E+00 0.48668760E+02</pdfrwt>
<pdfrwt beam="2">  1       -1 0.36791135E-01 0.42224275E+02</pdfrwt>
<totfact> 0.17641190E+01</totfact>
</mgrwt>
</event>
<event>
13    1  0.2742815E-008  0.4501492E+02  0.7546771E-02  0.1515536E+00
          2   -1    0    0  502    0  0.00000000000E+00  0.00000000000E+00  0.15176370563E+04  0.15176370563E+04  0.00000000000E+00 0. -1.
          2   -1    0    0  503    0 -0.00000000000E+00 -0.00000000000E+00 -0.67708653364E+03  0.67708653364E+03  0.00000000000E+00 0. -1.
         25    2    1    2    0    0 -0.18660582953E+02 -0.15237727542E+03 -0.16239574460E+03  0.25605901984E+03  0.12500716921E+03 0.  0.
         24    2    1    2    0    0  0.11436416503E+03 -0.40566700292E+03  0.15008310488E+02  0.42807828912E+03  0.73354568604E+02 0.  0.
         24    2    1    2    0    0 -0.97659896789E+02  0.51742032165E+03  0.88530824837E+03  0.10331354232E+04  0.79604417270E+02 0.  0.
        -11    1    4    4    0    0  0.12114459766E+03 -0.33614443774E+03  0.21304364894E+02  0.35794269447E+03  0.00000000000E+00 0.  1.
         12    1    4    4    0    0 -0.67804326243E+01 -0.69522565176E+02 -0.62960544066E+01  0.70135594646E+02  0.00000000000E+00 0. -1.
        -13    1    5    5    0    0 -0.94487524458E+02  0.39627784907E+03  0.62569432675E+03  0.74663070956E+03  0.00000000000E+00 0.  1.
         14    1    5    5    0    0 -0.31723723315E+01  0.12114247258E+03  0.25961392162E+03  0.28650471359E+03  0.00000000000E+00 0. -1.
          5    1    3    3  501    0 -0.45302803464E+02 -0.45241275775E+02 -0.58766362835E+01  0.64465043935E+02  0.47000000000E+01 0.  1.
         -5    1    3    3    0  501  0.26642220511E+02 -0.10713599965E+03 -0.15651910831E+03  0.19159397590E+03  0.47000000000E+01 0.  1.
          1    1    1    2  502    0  0.32896823668E+02  0.78766728386E+01  0.28632264149E+03  0.28831388800E+03  0.00000000000E+00 0. -1.
          1    1    1    2  503    0 -0.30940508958E+02  0.32747283849E+02 -0.18369293309E+03  0.18913696984E+03  0.00000000000E+00 0. -1.
<mgrwt>
<rscale>  0 0.39021844E+02</rscale>
<asrwt>0</asrwt>
<pdfrwt beam="1">  1        2 0.22318192E+00 0.33826661E+02</pdfrwt>
<pdfrwt beam="2">  1        2 0.99571549E-01 0.45014917E+02</pdfrwt>
<totfact> 0.12920377E+02</totfact>
</mgrwt>
</event>
<event>
13    1  0.2742815E-008  0.4028655E+02  0.7546771E-02  0.1669428E+00
          2   -1    0    0  502    0  0.00000000000E+00  0.00000000000E+00  0.27262581657E+04  0.27262581657E+04  0.00000000000E+00 0. -1.
          2   -1    0    0  503    0 -0.00000000000E+00 -0.00000000000E+00 -0.19534805054E+04  0.19534805054E+04  0.00000000000E+00 0. -1.
         25    2    1    2    0    0  0.20345999914E+02 -0.11857595414E+02 -0.14478683571E+04  0.14534447008E+04  0.12499662613E+03 0.  0.
         24    2    1    2    0    0  0.23208302161E+02 -0.75000951217E+02 -0.21140737396E+03  0.24007031125E+03  0.82321981323E+02 0.  0.
         24    2    1    2    0    0 -0.51866494869E+02  0.53739199751E+02  0.17989442483E+04  0.18023487778E+04  0.81747620391E+02 0.  0.
        -11    1    5    5    0    0 -0.26677166890E+02 -0.70492076324E+01  0.18330410712E+03  0.18536924839E+03  0.00000000000E+00 0.  1.
         12    1    5    5    0    0 -0.25189327979E+02  0.60788407383E+02  0.16156401412E+04  0.16169795294E+04  0.00000000000E+00 0. -1.
        -13    1    4    4    0    0  0.49842386505E+02 -0.64565176360E+02 -0.17982633985E+03  0.19745996555E+03  0.00000000000E+00 0.  1.
         14    1    4    4    0    0 -0.26634084344E+02 -0.10435774857E+02 -0.31581034108E+02  0.42610345704E+02  0.00000000000E+00 0. -1.
          5    1    3    3  501    0  0.31937604803E+01  0.10406492501E+02 -0.10631109171E+02  0.15925001550E+02  0.47000000000E+01 0.  1.
         -5    1    3    3    0  501  0.17152239434E+02 -0.22264087915E+02 -0.14372372479E+04  0.14375196993E+04  0.47000000000E+01 0.  1.
          1    1    1    2  502    0 -0.47970281224E+01  0.40002183864E+02  0.90784590176E+03  0.90873943875E+03  0.00000000000E+00 0. -1.
          1    1    1    2  503    0  0.13109220916E+02 -0.68828369832E+01 -0.27473675869E+03  0.27513544245E+03  0.00000000000E+00 0. -1.
<mgrwt>
<rscale>  0 0.24423203E+02</rscale>
<asrwt>0</asrwt>
<pdfrwt beam="1">  1        2 0.40092032E+00 0.40286551E+02</pdfrwt>
<pdfrwt beam="2">  1        2 0.28727654E+00 0.14806253E+02</pdfrwt>
<totfact> 0.86107089E+00</totfact>
</mgrwt>
</event>
<event>
13    1  0.2742815E-008  0.7091117E+02  0.7546771E-02  0.1516165E+00
          2   -1    0    0  502    0  0.00000000000E+00  0.00000000000E+00  0.21939030869E+04  0.21939030869E+04  0.00000000000E+00 0. -1.
          2   -1    0    0  503    0 -0.00000000000E+00 -0.00000000000E+00 -0.32384209402E+04  0.32384209402E+04  0.00000000000E+00 0. -1.
         25    2    1    2    0    0  0.14874362085E+03  0.17602459497E+02 -0.16612590523E+04  0.16726738199E+04  0.12498623090E+03 0.  0.
         24    2    1    2    0    0 -0.59996277964E+01 -0.79146959357E+02 -0.60434735019E+02  0.12861904283E+03  0.81180442670E+02 0.  0.
         24    2    1    2    0    0 -0.71436253358E+02  0.24008725479E+02  0.13018253294E+03  0.17313188278E+03  0.85718141378E+02 0.  0.
        -11    1    4    4    0    0 -0.99284334476E+01 -0.94167967315E+02 -0.61737012676E+02  0.11303821740E+03  0.00000000000E+00 0.  1.
         12    1    4    4    0    0  0.39288056513E+01  0.15021007958E+02  0.13022776574E+01  0.15580825428E+02  0.00000000000E+00 0. -1.
        -11    1    5    5    0    0 -0.60161874492E+02  0.54349686592E+02  0.84090033633E+02  0.11680956010E+03  0.00000000000E+00 0.  1.
         12    1    5    5    0    0 -0.11274378866E+02 -0.30340961112E+02  0.46092499303E+02  0.56322322680E+02  0.00000000000E+00 0. -1.
          5    1    3    3  501    0  0.60212306574E+02  0.45747184452E+02 -0.11848075697E+04  0.11872276084E+04  0.47000000000E+01 0. -1.
         -5    1    3    3    0  501  0.88531314276E+02 -0.28144724955E+02 -0.47645148252E+03  0.48544621159E+03  0.47000000000E+01 0. -1.
          1    1    1    2  502    0 -0.69015372418E+02  0.16276284012E+02  0.20017400099E+04  0.20029955332E+04  0.00000000000E+00 0. -1.
          1    1    1    2  503    0 -0.22923672784E+01  0.21259490369E+02 -0.14547466089E+04  0.14549037483E+04  0.00000000000E+00 0. -1.
<mgrwt>
<rscale>  0 0.38939363E+02</rscale>
<asrwt>0</asrwt>
<pdfrwt beam="1">  1        2 0.32263281E+00 0.70911170E+02</pdfrwt>
<pdfrwt beam="2">  1        2 0.47623836E+00 0.21382724E+02</pdfrwt>
<totfact> 0.34239425E+00</totfact>
</mgrwt>
</event>
<event>
13    1  0.2742815E-008  0.1787120E+03  0.7546771E-02  0.1199879E+00
          2   -1    0    0  503    0  0.00000000000E+00  0.00000000000E+00  0.38941977535E+04  0.38941977535E+04  0.00000000000E+00 0. -1.
          2   -1    0    0  502    0 -0.00000000000E+00 -0.00000000000E+00 -0.26547412898E+04  0.26547412898E+04  0.00000000000E+00 0. -1.
         25    2    1    2    0    0 -0.35547596499E+03  0.32794287108E+02 -0.36582466132E+03  0.52620123118E+03  0.12498570281E+03 0.  0.
         24    2    1    2    0    0 -0.29872382246E+02 -0.60906246271E+02  0.97537602088E+02  0.14422574239E+03  0.81765218106E+02 0.  0.
         24    2    1    2    0    0 -0.43192916258E+02 -0.13772680349E+03  0.95945859279E+03  0.97356438491E+03  0.80202991607E+02 0.  0.
        -11    1    5    5    0    0 -0.58489063795E+02 -0.74152812866E+02  0.44106345199E+03  0.45106161322E+03  0.00000000000E+00 0.  1.
         12    1    5    5    0    0  0.15296147537E+02 -0.63573990628E+02  0.51839514081E+03  0.52250277169E+03  0.00000000000E+00 0. -1.
        -13    1    4    4    0    0 -0.23224412688E+02 -0.79331478901E+02  0.60872365352E+02  0.10265623095E+03  0.00000000000E+00 0.  1.
         14    1    4    4    0    0 -0.66479695582E+01  0.18425232630E+02  0.36665236735E+02  0.41569511443E+02  0.00000000000E+00 0. -1.
          5    1    3    3  501    0 -0.16029454688E+03 -0.14629700416E+02 -0.24040635117E+03  0.28935388985E+03  0.47000000000E+01 0. -1.
         -5    1    3    3    0  501 -0.19518141811E+03  0.47423987524E+02 -0.12541831016E+03  0.23684734132E+03  0.47000000000E+01 0. -1.
          1    1    1    2  502    0  0.11852578716E+03  0.44882841725E+02 -0.21663187536E+04  0.21700229893E+04  0.00000000000E+00 0. -1.
          1    1    1    2  503    0  0.31001547633E+03  0.12095592093E+03  0.27146036838E+04  0.27349246956E+04  0.00000000000E+00 0. -1.
<mgrwt>
<rscale>  0 0.15048414E+03</rscale>
<asrwt>0</asrwt>
<pdfrwt beam="1">  1        2 0.57267614E+00 0.17871199E+03</pdfrwt>
<pdfrwt beam="2">  1        2 0.39040313E+00 0.12671493E+03</pdfrwt>
<totfact> 0.51137314E-01</totfact>
</mgrwt>
</event>
<event>
13    1  0.2742815E-008  0.5011383E+02  0.7546771E-02  0.1449124E+00
          2   -1    0    0  502    0  0.00000000000E+00  0.00000000000E+00  0.64632492216E+03  0.64632492216E+03  0.00000000000E+00 0. -1.
          2   -1    0    0  503    0 -0.00000000000E+00 -0.00000000000E+00 -0.58080933911E+03  0.58080933911E+03  0.00000000000E+00 0. -1.
         25    2    1    2    0    0  0.91560089315E+02 -0.10734135810E+02 -0.18437966040E+03  0.24107372379E+03  0.12498883752E+03 0.  0.
         24    2    1    2    0    0  0.11066556701E+03  0.87679088929E+02 -0.65019609785E+02  0.17553456232E+03  0.81549632475E+02 0.  0.
         24    2    1    2    0    0 -0.11475276239E+03 -0.58883580639E+02  0.10977561954E+03  0.18733485473E+03  0.80051162428E+02 0.  0.
        -11    1    5    5    0    0 -0.65946330381E+02 -0.22723378626E+02  0.99169451593E+01  0.70452936264E+02  0.00000000000E+00 0.  1.
         12    1    5    5    0    0 -0.48806432007E+02 -0.36160202012E+02  0.99858674380E+02  0.11688191846E+03  0.00000000000E+00 0. -1.
        -13    1    4    4    0    0 -0.11168398166E+02  0.19643282594E+02 -0.15770079658E+02  0.27555164327E+02  0.00000000000E+00 0.  1.
         14    1    4    4    0    0  0.12183396517E+03  0.68035806335E+02 -0.49249530127E+02  0.14797939799E+03  0.00000000000E+00 0. -1.
          5    1    3    3  501    0  0.82152616043E+02  0.26521498168E+02 -0.47125593591E+02  0.98464987478E+02  0.47000000000E+01 0. -1.
         -5    1    3    3    0  501  0.94074732719E+01 -0.37255633978E+02 -0.13725406681E+03  0.14260873631E+03  0.47000000000E+01 0. -1.
          1    1    1    2  502    0 -0.47221066709E+02  0.11108822158E+02  0.40975855230E+03  0.41262005072E+03  0.00000000000E+00 0. -1.
          1    1    1    2  503    0 -0.40251827223E+02 -0.29170194639E+02 -0.20461931861E+03  0.21057106971E+03  0.00000000000E+00 0. -1.
<mgrwt>
<rscale>  0 0.49305472E+02</rscale>
<asrwt>0</asrwt>
<pdfrwt beam="1">  1        2 0.95047783E-01 0.48510154E+02</pdfrwt>
<pdfrwt beam="2">  1        2 0.85413138E-01 0.50113829E+02</pdfrwt>
<totfact> 0.45023414E+02</totfact>
</mgrwt>
</event>
<event>
13    1  0.2742815E-008  0.5382139E+02  0.7546771E-02  0.1533189E+00
          2   -1    0    0  502    0  0.00000000000E+00  0.00000000000E+00  0.13752062188E+04  0.13752062188E+04  0.00000000000E+00 0. -1.
          2   -1    0    0  503    0 -0.00000000000E+00 -0.00000000000E+00 -0.33167208902E+04  0.33167208902E+04  0.00000000000E+00 0. -1.
         25    2    1    2    0    0 -0.35961818462E+03 -0.22014358247E+03 -0.13101228048E+04  0.13819675065E+04  0.12499595899E+03 0.  0.
         24    2    1    2    0    0  0.18323132548E+03  0.72753284642E+03  0.44991999497E+03  0.87850386029E+03  0.80394461377E+02 0.  0.
         24    2    1    2    0    0  0.18555740661E+03 -0.43333338010E+03 -0.40658990844E+03  0.63200381384E+03  0.10910590085E+03 0.  0.
        -13    1    5    5    0    0  0.11305404193E+03 -0.19474352914E+03 -0.25494198423E+03  0.34014948752E+03  0.00000000000E+00 0.  1.
         14    1    5    5    0    0  0.72503364686E+02 -0.23858985096E+03 -0.15164792421E+03  0.29185432632E+03  0.00000000000E+00 0. -1.
        -13    1    4    4    0    0  0.12553350885E+03  0.55127358092E+03  0.30014567058E+03  0.64011611949E+03  0.00000000000E+00 0.  1.
         14    1    4    4    0    0  0.57697816630E+02  0.17625926550E+03  0.14977432439E+03  0.23838774080E+03  0.00000000000E+00 0. -1.
          5    1    3    3  501    0 -0.20366917444E+02 -0.19189598917E+01 -0.15901623639E+02  0.26333350861E+02  0.47000000000E+01 0. -1.
         -5    1    3    3    0  501 -0.33925126717E+03 -0.21822462258E+03 -0.12942211811E+04  0.13556341556E+04  0.47000000000E+01 0. -1.
          1    1    1    2  502    0 -0.18287647447E+02 -0.50606730404E+02  0.56094945431E+03  0.56352441784E+03  0.00000000000E+00 0. -1.
          1    1    1    2  503    0  0.91170999698E+01 -0.23449153447E+02 -0.12356714074E+04  0.12359275106E+04  0.00000000000E+00 0. -1.
<mgrwt>
<rscale>  0 0.36798124E+02</rscale>
<asrwt>0</asrwt>
<pdfrwt beam="1">  1        2 0.20223621E+00 0.53821386E+02</pdfrwt>
<pdfrwt beam="2">  1        2 0.48775306E+00 0.25159179E+02</pdfrwt>
<totfact> 0.75736706E+00</totfact>
</mgrwt>
</event>
<event>
13    1  0.2742815E-008  0.6721886E+02  0.7546771E-02  0.1472000E+00
          2   -1    0    0  502    0  0.00000000000E+00  0.00000000000E+00  0.29548997187E+04  0.29548997187E+04  0.00000000000E+00 0. -1.
          4   -1    0    0  503    0 -0.00000000000E+00 -0.00000000000E+00 -0.33757485998E+03  0.33757485998E+03  0.00000000000E+00 0. -1.
         25    2    1    2    0    0  0.43546057023E+02 -0.11968594197E+03 -0.40633526744E+02  0.18302221438E+03  0.12500025469E+03 0.  0.
         24    2    1    2    0    0  0.41209613073E+02 -0.16520818746E+01  0.61259014131E+02  0.10988765530E+03  0.81373634488E+02 0.  0.
         24    2    1    2    0    0 -0.32041545441E+02  0.59833361736E+02  0.15347555761E+03  0.18860708992E+03  0.86088302187E+02 0.  0.
        -11    1    5    5    0    0  0.22887014177E+02 -0.61684817454E+01  0.30806976345E+02  0.38870752199E+02  0.00000000000E+00 0.  1.
         12    1    5    5    0    0 -0.54928559617E+02  0.66001843482E+02  0.12266858126E+03  0.14973633772E+03  0.00000000000E+00 0. -1.
        -11    1    4    4    0    0  0.35060421975E+02 -0.92780980695E+01 -0.10268070708E+02  0.37692831798E+02  0.00000000000E+00 0.  1.
         12    1    4    4    0    0  0.61491910981E+01  0.76260161949E+01  0.71527084840E+02  0.72194823498E+02  0.00000000000E+00 0. -1.
          5    1    3    3  501    0  0.41540967236E+02 -0.30298948778E+01 -0.50744497555E+02  0.65817370458E+02  0.47000000000E+01 0. -1.
         -5    1    3    3    0  501  0.20050897872E+01 -0.11665604709E+03  0.10110970811E+02  0.11720484392E+03  0.47000000000E+01 0. -1.
          1    1    1    2  502    0 -0.22142833595E+02  0.63442670745E+02  0.26253819647E+04  0.26262417517E+04  0.00000000000E+00 0. -1.
          3    1    1    2  503    0 -0.30571291061E+02 -0.19380086392E+01 -0.18215815097E+03  0.18471586743E+03  0.00000000000E+00 0. -1.
<mgrwt>
<rscale>  0 0.45377222E+02</rscale>
<asrwt>0</asrwt>
<pdfrwt beam="1">  1        2 0.43454406E+00 0.67218859E+02</pdfrwt>
<pdfrwt beam="2">  1        4 0.49643363E-01 0.30632658E+02</pdfrwt>
<totfact> 0.56734524E+00</totfact>
</mgrwt>
</event>
<event>
13    1  0.2742815E-008  0.8353537E+02  0.7546771E-02  0.1388077E+00
          2   -1    0    0  503    0  0.00000000000E+00  0.00000000000E+00  0.51655285626E+04  0.51655285626E+04  0.00000000000E+00 0. -1.
          2   -1    0    0  502    0 -0.00000000000E+00 -0.00000000000E+00 -0.10736663778E+04  0.10736663778E+04  0.00000000000E+00 0. -1.
         25    2    1    2    0    0 -0.71295388244E+02  0.20610695038E+02 -0.76998454818E+02  0.16450152434E+03  0.12499662528E+03 0.  0.
         24    2    1    2    0    0 -0.57886367499E+02  0.33261886722E+02  0.22146874697E+03  0.24519252703E+03  0.81325179247E+02 0.  0.
         24    2    1    2    0    0  0.46207624329E+02 -0.34961615503E+02  0.10085495961E+04  0.10134744373E+04  0.81244619328E+02 0.  0.
        -11    1    5    5    0    0  0.65706208349E+02 -0.33898970652E+02  0.61292467764E+03  0.61736788586E+03  0.00000000000E+00 0.  1.
         12    1    5    5    0    0 -0.19498584020E+02 -0.10626448518E+01  0.39562491847E+03  0.39610655146E+03  0.00000000000E+00 0. -1.
        -11    1    4    4    0    0 -0.72624100946E+02  0.39635589876E+02  0.14398917005E+03  0.16606661650E+03  0.00000000000E+00 0.  1.
         12    1    4    4    0    0  0.14737733447E+02 -0.63737031543E+01  0.77479576914E+02  0.79125910534E+02  0.00000000000E+00 0. -1.
          5    1    3    3  501    0  0.93597015068E+01  0.55385275835E+02 -0.20589738015E+02  0.60009666748E+02  0.47000000000E+01 0. -1.
         -5    1    3    3    0  501 -0.80655089750E+02 -0.34774580798E+02 -0.56408716804E+02  0.10449185760E+03  0.47000000000E+01 0. -1.
          1    1    1    2  502    0  0.40568308446E+01 -0.46416437682E+02 -0.93756315866E+03  0.93872020328E+03  0.00000000000E+00 0. -1.
          1    1    1    2  503    0  0.78917300569E+02  0.27505471426E+02  0.38764054552E+04  0.38773062484E+04  0.00000000000E+00 0. -1.
<mgrwt>
<rscale>  0 0.62387463E+02</rscale>
<asrwt>0</asrwt>
<pdfrwt beam="1">  1        2 0.75963654E+00 0.83535366E+02</pdfrwt>
<pdfrwt beam="2">  1        2 0.15789212E+00 0.46593385E+02</pdfrwt>
<totfact> 0.35798369E-01</totfact>
</mgrwt>
</event>
<event>
13    1  0.2742815E-008  0.1431060E+03  0.7546771E-02  0.1249004E+00
         -3   -1    0    0    0  501 -0.00000000000E+00  0.00000000000E+00  0.29180310917E+03  0.29180310917E+03  0.00000000000E+00 0.  1.
          2   -1    0    0  503    0  0.00000000000E+00 -0.00000000000E+00 -0.30624424446E+04  0.30624424446E+04  0.00000000000E+00 0. -1.
         25    2    1    2    0    0 -0.39565945043E+02  0.22980166181E+03 -0.32321603612E+03  0.41769304886E+03  0.12499843712E+03 0.  0.
         24    2    1    2    0    0  0.99884727711E+01 -0.10724122677E+02 -0.14756134301E+03  0.16753957671E+03  0.77976813325E+02 0.  0.
         24    2    1    2    0    0 -0.48659223751E+02  0.51464774090E+02 -0.73033963839E+03  0.73846046281E+03  0.83135580250E+02 0.  0.
        -13    1    5    5    0    0  0.18688607033E+02  0.23553711558E+02 -0.34334307333E+03  0.34465708663E+03  0.00000000000E+00 0.  1.
         14    1    5    5    0    0 -0.67347830784E+02  0.27911062533E+02 -0.38699656506E+03  0.39380337618E+03  0.00000000000E+00 0. -1.
        -13    1    4    4    0    0  0.96015276757E+01 -0.32154365806E+02 -0.14127096487E+03  0.14520185291E+03  0.00000000000E+00 0.  1.
         14    1    4    4    0    0  0.38694509539E+00  0.21430243129E+02 -0.62903781393E+01  0.22337723792E+02  0.00000000000E+00 0. -1.
          5    1    3    3  502    0  0.21464048061E+02  0.18936762247E+03 -0.24542546840E+03  0.31076768227E+03  0.47000000000E+01 0.  1.
         -5    1    3    3    0  502 -0.61029993104E+02  0.40434039343E+02 -0.77790567715E+02  0.10692536659E+03  0.47000000000E+01 0.  1.
          1    1    1    2  503    0  0.12446674009E+02 -0.10683709568E+03 -0.17643992310E+04  0.17676746677E+04  0.00000000000E+00 0. -1.
         -4    1    1    2    0  501  0.65790022015E+02 -0.16370521754E+03  0.19487691307E+03  0.26287779765E+03  0.00000000000E+00 0.  1.
<mgrwt>
<rscale>  0 0.11648906E+03</rscale>
<asrwt>0</asrwt>
<pdfrwt beam="2">  1        2 0.45035918E+00 0.94822731E+02</pdfrwt>
<pdfrwt beam="1">  1       -3 0.42912222E-01 0.14310600E+03</pdfrwt>
<totfact> 0.88875699E+00</totfact>
</mgrwt>
</event>
<event>
13    1  0.2742815E-008  0.8641873E+02  0.7546771E-02  0.1406030E+00
         -3   -1    0    0    0  501 -0.00000000000E+00  0.00000000000E+00  0.25648541259E+04  0.25648541259E+04  0.00000000000E+00 0.  1.
          2   -1    0    0  503    0  0.00000000000E+00 -0.00000000000E+00 -0.97427273349E+03  0.97427273349E+03  0.00000000000E+00 0. -1.
         25    2    1    2    0    0 -0.46543893020E+03 -0.10775085393E+03  0.15957255938E+04  0.16703919572E+04  0.12500190192E+03 0.  0.
         24    2    1    2    0    0  0.49036753945E+03  0.80223879653E+02  0.63448132880E+03  0.81219872044E+03  0.10101490130E+03 0.  0.
         24    2    1    2    0    0  0.41860278885E+02 -0.40609802727E+02  0.24586918866E+02  0.10309776634E+03  0.81383006942E+02 0.  0.
        -11    1    4    4    0    0  0.21737871218E+03  0.28841640552E+02  0.36101840380E+03  0.42239748178E+03  0.00000000000E+00 0.  1.
         12    1    4    4    0    0  0.27298882727E+03  0.51382239101E+02  0.27346292500E+03  0.38980123866E+03  0.00000000000E+00 0. -1.
        -11    1    5    5    0    0 -0.18383506062E+02 -0.31212592129E+01  0.26159141409E+02  0.32124698184E+02  0.00000000000E+00 0.  1.
         12    1    5    5    0    0  0.60243784947E+02 -0.37488543514E+02 -0.15722225428E+01  0.70973068154E+02  0.00000000000E+00 0. -1.
          5    1    3    3  502    0 -0.30155108269E+03 -0.65484973869E+02  0.81398588609E+03  0.87052653609E+03  0.47000000000E+01 0. -1.
         -5    1    3    3    0  502 -0.16388784751E+03 -0.42265880061E+02  0.78173970776E+03  0.79986542109E+03  0.47000000000E+01 0. -1.
          1    1    1    2  503    0 -0.59366128325E+02  0.10647144395E+03 -0.80149418657E+03  0.81071168530E+03  0.00000000000E+00 0. -1.
         -4    1    1    2    0  501 -0.74227598065E+01 -0.38334666948E+02  0.13728173749E+03  0.14272673016E+03  0.00000000000E+00 0.  1.
<mgrwt>
<rscale>  0 0.58089289E+02</rscale>
<asrwt>0</asrwt>
<pdfrwt beam="2">  1        2 0.14327540E+00 0.86418732E+02</pdfrwt>
<pdfrwt beam="1">  1       -3 0.37718443E+00 0.39046691E+02</pdfrwt>
<totfact> 0.40018522E-01</totfact>
</mgrwt>
</event>
<event>
13    1  0.2742815E-008  0.7082786E+02  0.7546771E-02  0.1424440E+00
          2   -1    0    0  503    0  0.00000000000E+00  0.00000000000E+00  0.36226785228E+04  0.36226785228E+04  0.00000000000E+00 0. -1.
         -1   -1    0    0    0  501 -0.00000000000E+00 -0.00000000000E+00 -0.27966397925E+03  0.27966397925E+03  0.00000000000E+00 0.  1.
         25    2    1    2    0    0 -0.18503623759E+02 -0.11043729905E+03 -0.39695034531E+02  0.17245541771E+03  0.12500557674E+03 0.  0.
         24    2    1    2    0    0 -0.66015692153E+01  0.32407609330E+02  0.64256912787E+03  0.64866200228E+03  0.82301125401E+02 0.  0.
         24    2    1    2    0    0  0.18451818347E+02  0.26115650206E+02  0.91125905571E+03  0.91536303854E+03  0.80460729154E+02 0.  0.
        -11    1    5    5    0    0 -0.30420006132E+02  0.21882681855E+02  0.37869312805E+03  0.38054265696E+03  0.00000000000E+00 0.  1.
         12    1    5    5    0    0  0.48871824478E+02  0.42329683515E+01  0.53256592766E+03  0.53482038158E+03  0.00000000000E+00 0. -1.
        -13    1    4    4    0    0  0.13136497410E+02  0.41362087962E+02  0.59269653703E+03  0.59428324466E+03  0.00000000000E+00 0.  1.
         14    1    4    4    0    0 -0.19738066626E+02 -0.89544786315E+01  0.49872590846E+02  0.54378757612E+02  0.00000000000E+00 0. -1.
          5    1    3    3  502    0  0.50431754404E+02 -0.28185791238E+02 -0.28078182491E+02  0.64407103739E+02  0.47000000000E+01 0. -1.
         -5    1    3    3    0  502 -0.68935378164E+02 -0.82251507814E+02 -0.11616852040E+02  0.10804831397E+03  0.47000000000E+01 0. -1.
          1    1    1    2  503    0 -0.33215125755E+02  0.62736889516E+02  0.19941984248E+04  0.19954614803E+04  0.00000000000E+00 0. -1.
         -2    1    1    2    0  501  0.39868500383E+02 -0.10822850001E+02 -0.16531703035E+03  0.17040056317E+03  0.00000000000E+00 0.  1.
<mgrwt>
<rscale>  0 0.54092493E+02</rscale>
<asrwt>0</asrwt>
<pdfrwt beam="1">  1        2 0.53274682E+00 0.70827862E+02</pdfrwt>
<pdfrwt beam="2">  1       -1 0.41127058E-01 0.41311396E+02</pdfrwt>
<totfact> 0.91913367E+00</totfact>
</mgrwt>
</event>
<event>
13    1  0.2742815E-008  0.7478727E+02  0.7546771E-02  0.1361579E+00
          2   -1    0    0  502    0  0.00000000000E+00  0.00000000000E+00  0.18590442820E+04  0.18590442820E+04  0.00000000000E+00 0. -1.
          4   -1    0    0  503    0 -0.00000000000E+00 -0.00000000000E+00 -0.15166055971E+03  0.15166055971E+03  0.00000000000E+00 0. -1.
         25    2    1    2    0    0  0.13378417471E+03  0.76229362701E+01  0.21495473065E+01  0.18324857108E+03  0.12497641253E+03 0.  0.
         24    2    1    2    0    0 -0.48234484083E+02  0.80192095039E+02  0.32258354755E+03  0.34489476796E+03  0.78325718998E+02 0.  0.
         24    2    1    2    0    0 -0.76593686516E+02 -0.10925320209E+03  0.69525429292E+03  0.71243351370E+03  0.79875682342E+02 0.  0.
        -11    1    4    4    0    0  0.14858969608E+01  0.70561142042E+02  0.20706016060E+03  0.21875784046E+03  0.00000000000E+00 0.  1.
         12    1    4    4    0    0 -0.49720381044E+02  0.96309529968E+01  0.11552338695E+03  0.12613692750E+03  0.00000000000E+00 0. -1.
        -13    1    5    5    0    0  0.82328912996E+01 -0.52346350137E+02  0.21463283134E+03  0.22107730133E+03  0.00000000000E+00 0.  1.
         14    1    5    5    0    0 -0.84826577816E+02 -0.56906851956E+02  0.48062146158E+03  0.49135621237E+03  0.00000000000E+00 0. -1.
          5    1    3    3  501    0  0.77451997185E+02 -0.54958731460E+02 -0.17437802648E+02  0.96671821090E+02  0.47000000000E+01 0.  1.
         -5    1    3    3    0  501  0.56332177521E+02  0.62581667730E+02  0.19587349954E+02  0.86576749987E+02  0.47000000000E+01 0.  1.
          1    1    1    2  502    0 -0.73601329823E+02  0.18614100120E+02  0.70008441025E+03  0.70418876869E+03  0.00000000000E+00 0. -1.
          3    1    1    2  503    0  0.64645325715E+02  0.28240706644E+01 -0.12688075702E+02  0.65939220324E+02  0.00000000000E+00 0. -1.
<mgrwt>
<rscale>  0 0.69564777E+02</rscale>
<asrwt>0</asrwt>
<pdfrwt beam="1">  1        2 0.27338885E+00 0.74787266E+02</pdfrwt>
<pdfrwt beam="2">  1        4 0.22303025E-01 0.64706982E+02</pdfrwt>
<totfact> 0.95112073E+01</totfact>
</mgrwt>
</event>
<event>
13    1  0.2742815E-008  0.4628061E+02  0.7546771E-02  0.1629768E+00
          2   -1    0    0  503    0  0.00000000000E+00  0.00000000000E+00  0.34548505777E+04  0.34548505777E+04  0.00000000000E+00 0. -1.
         -1   -1    0    0    0  501 -0.00000000000E+00 -0.00000000000E+00 -0.26290671966E+03  0.26290671966E+03  0.00000000000E+00 0.  1.
         25    2    1    2    0    0 -0.64820541058E+02  0.10146269567E+03 -0.98262547391E+02  0.19944142050E+03  0.12499988334E+03 0.  0.
         24    2    1    2    0    0  0.96629521581E+02  0.29974322768E+02  0.46077688006E+03  0.47869373740E+03  0.81219680912E+02 0.  0.
         24    2    1    2    0    0 -0.74555951424E+02 -0.17439028289E+03  0.27256868631E+04  0.27334902750E+04  0.81422644375E+02 0.  0.
        -11    1    4    4    0    0 -0.90769055388E+01 -0.52742903434E+01  0.11335227001E+03  0.11383736412E+03  0.00000000000E+00 0.  1.
         12    1    4    4    0    0  0.10570642712E+03  0.35248613112E+02  0.34742461005E+03  0.36485637328E+03  0.00000000000E+00 0. -1.
        -13    1    5    5    0    0 -0.82816905050E+02 -0.15226196062E+03  0.20246472316E+04  0.20320528430E+04  0.00000000000E+00 0.  1.
         14    1    5    5    0    0  0.82609536260E+01 -0.22128322273E+02  0.70103963155E+03  0.70143743200E+03  0.00000000000E+00 0. -1.
          5    1    3    3  502    0 -0.44031774784E+02 -0.30592172926E+01 -0.79612677029E+02  0.91150558664E+02  0.47000000000E+01 0.  1.
         -5    1    3    3    0  502 -0.20788766275E+02  0.10452191296E+03 -0.18649870362E+02  0.10829086184E+03  0.47000000000E+01 0.  1.
          1    1    1    2  503    0  0.14988392737E+02  0.59494436061E+01  0.19930813797E+03  0.19995945003E+03  0.00000000000E+00 0. -1.
         -2    1    1    2    0  501  0.27758578164E+02  0.37003820845E+02 -0.95565475764E+02  0.10617241439E+03  0.00000000000E+00 0.  1.
<mgrwt>
<rscale>  0 0.27318877E+02</rscale>
<asrwt>0</asrwt>
<pdfrwt beam="1">  1        2 0.50806623E+00 0.16125998E+02</pdfrwt>
<pdfrwt beam="2">  1       -1 0.38662755E-01 0.46280613E+02</pdfrwt>
<totfact> 0.17465532E+01</totfact>
</mgrwt>
</event>
<event>
13    1  0.2742815E-008  0.1433865E+03  0.7546771E-02  0.1288229E+00
          2   -1    0    0  503    0  0.00000000000E+00  0.00000000000E+00  0.22454923685E+04  0.22454923685E+04  0.00000000000E+00 0. -1.
          2   -1    0    0  502    0 -0.00000000000E+00 -0.00000000000E+00 -0.10159620546E+04  0.10159620546E+04  0.00000000000E+00 0. -1.
         25    2    1    2    0    0 -0.53492217594E+02 -0.26359950411E+02 -0.10026826058E+03  0.17097801521E+03  0.12499397296E+03 0.  0.
         24    2    1    2    0    0  0.25653255148E+03 -0.55269057824E+02  0.26568951689E+03  0.38106453756E+03  0.75865958651E+02 0.  0.
         24    2    1    2    0    0  0.26341122127E+01  0.85663063804E+02  0.73287174954E+02  0.13876928060E+03  0.80875238346E+02 0.  0.
        -11    1    4    4    0    0  0.50177586441E+02 -0.16790379392E+02  0.10187861132E+03  0.11479964489E+03  0.00000000000E+00 0.  1.
         12    1    4    4    0    0  0.20635496503E+03 -0.38478678433E+02  0.16381090557E+03  0.26626489268E+03  0.00000000000E+00 0. -1.
        -13    1    5    5    0    0 -0.16263582110E+02  0.19248668671E+02  0.64392942329E+02  0.69148147990E+02  0.00000000000E+00 0.  1.
         14    1    5    5    0    0  0.18897694323E+02  0.66414395133E+02  0.88942326243E+01  0.69621132608E+02  0.00000000000E+00 0. -1.
          5    1    3    3  501    0 -0.33010611556E+02  0.40691175084E+02 -0.53471655293E+01  0.52878676082E+02  0.47000000000E+01 0. -1.
         -5    1    3    3    0  501 -0.20481606039E+02 -0.67051125494E+02 -0.94921095053E+02  0.11809933913E+03  0.47000000000E+01 0. -1.
          1    1    1    2  502    0 -0.63804719711E+02  0.10748514193E+02 -0.78572204620E+03  0.78838170114E+03  0.00000000000E+00 0. -1.
          1    1    1    2  503    0 -0.14186972638E+03 -0.14782569762E+02  0.17765439289E+04  0.17822608885E+04  0.00000000000E+00 0. -1.
<mgrwt>
<rscale>  0 0.96320513E+02</rscale>
<asrwt>0</asrwt>
<pdfrwt beam="1">  1        2 0.33021947E+00 0.14338650E+03</pdfrwt>
<pdfrwt beam="2">  1        2 0.14940618E+00 0.64703731E+02</pdfrwt>
<totfact> 0.30616205E+01</totfact>
</mgrwt>
</event>
<event>
13    1  0.2742815E-008  0.3446480E+03  0.7546771E-02  0.1295892E+00
          2   -1    0    0  503    0  0.00000000000E+00  0.00000000000E+00  0.20523796157E+04  0.20523796157E+04  0.00000000000E+00 0. -1.
          2   -1    0    0  502    0 -0.00000000000E+00 -0.00000000000E+00 -0.22695343530E+04  0.22695343530E+04  0.00000000000E+00 0. -1.
         25    2    1    2    0    0  0.14637126675E+03 -0.94820693024E+02 -0.69323667062E+03  0.72568713732E+03  0.12501691175E+03 0.  0.
         24    2    1    2    0    0  0.39915455948E+01 -0.66561814927E+02 -0.12447125052E+03  0.16357373643E+03  0.82564322818E+02 0.  0.
         24    2    1    2    0    0 -0.35786507219E+03  0.37071467780E+03  0.45318114097E+03  0.69128749187E+03  0.83716591216E+02 0.  0.
        -11    1    5    5    0    0 -0.24028882599E+03  0.18975984300E+03  0.27003822749E+03  0.40825012213E+03  0.00000000000E+00 0.  1.
         12    1    5    5    0    0 -0.11757624620E+03  0.18095483481E+03  0.18314291348E+03  0.28303736974E+03  0.00000000000E+00 0. -1.
        -11    1    4    4    0    0 -0.30554169426E+02 -0.98535215333E+01 -0.72370490755E+02  0.79171567422E+02  0.00000000000E+00 0.  1.
         12    1    4    4    0    0  0.34545715021E+02 -0.56708293394E+02 -0.52100759765E+02  0.84402169012E+02  0.00000000000E+00 0. -1.
          5    1    3    3  501    0  0.92030977496E+01 -0.68985523251E+02 -0.31124108368E+03  0.31896206922E+03  0.47000000000E+01 0.  1.
         -5    1    3    3    0  501  0.13716816900E+03 -0.25835169773E+02 -0.38199558693E+03  0.40672506810E+03  0.47000000000E+01 0.  1.
          1    1    1    2  502    0 -0.13751623672E+02  0.20951162808E+02 -0.12792206013E+04  0.12794660625E+04  0.00000000000E+00 0. -1.
          1    1    1    2  503    0  0.22125388352E+03 -0.23028333266E+03  0.14265926442E+04  0.14618995406E+04  0.00000000000E+00 0. -1.
<mgrwt>
<rscale>  0 0.92936830E+02</rscale>
<asrwt>0</asrwt>
<pdfrwt beam="1">  1        2 0.30182053E+00 0.34464795E+03</pdfrwt>
<pdfrwt beam="2">  1        2 0.33375505E+00 0.25061093E+02</pdfrwt>
<totfact> 0.96499811E+00</totfact>
</mgrwt>
</event>
<event>
13    1  0.2742815E-008  0.1759060E+03  0.7546771E-02  0.1353329E+00
          4   -1    0    0  503    0 -0.00000000000E+00  0.00000000000E+00  0.11968923833E+04  0.11968923833E+04  0.00000000000E+00 0. -1.
          2   -1    0    0  502    0  0.00000000000E+00 -0.00000000000E+00 -0.34119852999E+04  0.34119852999E+04  0.00000000000E+00 0. -1.
         25    2    1    2    0    0 -0.40241116009E+03 -0.28558887777E+03 -0.59049952736E+02  0.51245054288E+03  0.12499165213E+03 0.  0.
         24    2    1    2    0    0  0.43670783259E+02  0.93246080750E+03 -0.11274749601E+03  0.94359051020E+03  0.79124953480E+02 0.  0.
         24    2    1    2    0    0  0.15829114678E+03 -0.69025353834E+03 -0.11603217079E+04  0.13627108538E+04  0.95542508066E+02 0.  0.
        -11    1    4    4    0    0  0.61838631613E+02  0.70853746641E+03 -0.10368288896E+03  0.71874856461E+03  0.00000000000E+00 0.  1.
         12    1    4    4    0    0 -0.18167848354E+02  0.22392334108E+03 -0.90646070438E+01  0.22484194559E+03  0.00000000000E+00 0. -1.
        -13    1    5    5    0    0  0.92365376937E+02 -0.42609076176E+03 -0.80002242864E+03  0.91110953592E+03  0.00000000000E+00 0.  1.
         14    1    5    5    0    0  0.65925769840E+02 -0.26416277658E+03 -0.36029927926E+03  0.45160131786E+03  0.00000000000E+00 0. -1.
          5    1    3    3  501    0 -0.26798105759E+03 -0.13669413476E+03  0.77483533675E+01  0.30096720865E+03  0.47000000000E+01 0.  1.
         -5    1    3    3    0  501 -0.13443010250E+03 -0.14889474301E+03 -0.66798306104E+02  0.21148333422E+03  0.47000000000E+01 0.  1.
          1    1    1    2  502    0  0.17125996963E+03  0.39156829322E+02 -0.13302891099E+04  0.13418391671E+04  0.00000000000E+00 0. -1.
          3    1    1    2  503    0  0.29189260421E+02  0.42247792937E+01  0.44731534995E+03  0.44828660919E+03  0.00000000000E+00 0. -1.
<mgrwt>
<rscale>  0 0.72028249E+02</rscale>
<asrwt>0</asrwt>
<pdfrwt beam="2">  1        2 0.50176254E+00 0.17590598E+03</pdfrwt>
<pdfrwt beam="1">  1        4 0.17601359E+00 0.29493418E+02</pdfrwt>
<totfact> 0.16665526E-01</totfact>
</mgrwt>
</event>
<event>
13    1  0.2742815E-008  0.1665720E+03  0.7546771E-02  0.1352876E+00
          2   -1    0    0  502    0  0.00000000000E+00  0.00000000000E+00  0.26124055368E+04  0.26124055368E+04  0.00000000000E+00 0. -1.
          2   -1    0    0  503    0 -0.00000000000E+00 -0.00000000000E+00 -0.10060569733E+04  0.10060569733E+04  0.00000000000E+00 0. -1.
         25    2    1    2    0    0 -0.13346632208E+03  0.15315649301E+03 -0.51854724789E+03  0.57077671873E+03  0.12499857551E+03 0.  0.
         24    2    1    2    0    0  0.14993838873E+01 -0.27885048916E+03  0.11115433755E+04  0.11486631933E+04  0.78349299036E+02 0.  0.
         24    2    1    2    0    0  0.97908286813E+02 -0.82659186324E+01  0.55372472713E+03  0.56767191091E+03  0.77369031045E+02 0.  0.
        -11    1    4    4    0    0  0.46075503267E+01 -0.12527017665E+03  0.34973109868E+03  0.37151808578E+03  0.00000000000E+00 0.  1.
         12    1    4    4    0    0 -0.31081664394E+01 -0.15358031250E+03  0.76181227681E+03  0.77714510755E+03  0.00000000000E+00 0. -1.
        -11    1    5    5    0    0  0.73884658372E+01 -0.30871667293E+02  0.14479545062E+03  0.14823417888E+03  0.00000000000E+00 0.  1.
         12    1    5    5    0    0  0.90519820976E+02  0.22605748660E+02  0.40892927651E+03  0.41943773203E+03  0.00000000000E+00 0. -1.
          5    1    3    3  501    0  0.35795019077E+01  0.13858439587E+02 -0.17395221777E+03  0.17460335979E+03  0.47000000000E+01 0.  1.
         -5    1    3    3    0  501 -0.13704582399E+03  0.13929805342E+03 -0.34459503011E+03  0.39617335895E+03  0.47000000000E+01 0.  1.
          1    1    1    2  502    0 -0.20731290792E+02 -0.23404497291E+02  0.87927554113E+03  0.87983125322E+03  0.00000000000E+00 0. -1.
          1    1    1    2  503    0  0.54789942170E+02  0.15736441207E+03 -0.41964783236E+03  0.45151943386E+03  0.00000000000E+00 0. -1.
<mgrwt>
<rscale>  0 0.72166654E+02</rscale>
<asrwt>0</asrwt>
<pdfrwt beam="1">  1        2 0.38417728E+00 0.31265907E+02</pdfrwt>
<pdfrwt beam="2">  1        2 0.14794956E+00 0.16657204E+03</pdfrwt>
<totfact> 0.24095096E+01</totfact>
</mgrwt>
</event>
<event>
13    1  0.2742815E-008  0.1028860E+03  0.7546771E-02  0.1356837E+00
          2   -1    0    0  503    0  0.00000000000E+00  0.00000000000E+00  0.13008709217E+04  0.13008709217E+04  0.00000000000E+00 0. -1.
          2   -1    0    0  502    0 -0.00000000000E+00 -0.00000000000E+00 -0.64701670778E+03  0.64701670778E+03  0.00000000000E+00 0. -1.
         25    2    1    2    0    0 -0.11041661495E+03  0.17495290293E+03  0.11100339101E+03  0.26598348145E+03  0.12500044996E+03 0.  0.
         24    2    1    2    0    0 -0.73358528301E+01 -0.24089836564E+03  0.81229081260E+02  0.26673523331E+03  0.80397038122E+02 0.  0.
         24    2    1    2    0    0  0.13227822037E+03  0.18976823497E+03  0.71659227246E+03  0.75851922170E+03  0.91309441746E+02 0.  0.
        -13    1    5    5    0    0  0.26225982167E+02  0.97566290011E+02  0.21398786743E+03  0.23663852285E+03  0.00000000000E+00 0.  1.
         14    1    5    5    0    0  0.10605223821E+03  0.92201944956E+02  0.50260440503E+03  0.52188069885E+03  0.00000000000E+00 0. -1.
        -13    1    4    4    0    0  0.10643697864E+00 -0.31867330857E+02 -0.16478270433E+02  0.35875778755E+02  0.00000000000E+00 0.  1.
         14    1    4    4    0    0 -0.74422898088E+01 -0.20903103479E+03  0.97707351693E+02  0.23085945455E+03  0.00000000000E+00 0. -1.
          5    1    3    3  501    0 -0.89059011687E+02  0.12469976669E+03  0.13674563546E+03  0.20543368320E+03  0.47000000000E+01 0.  1.
         -5    1    3    3    0  501 -0.21357603260E+02  0.50253136236E+02 -0.25742244452E+02  0.60549798249E+02  0.47000000000E+01 0.  1.
          1    1    1    2  502    0  0.34711542278E+02 -0.34513258581E+02 -0.44142317564E+03  0.44412889590E+03  0.00000000000E+00 0. -1.
          1    1    1    2  503    0 -0.49237294875E+02 -0.89309513670E+02  0.18645264479E+03  0.21252079707E+03  0.00000000000E+00 0. -1.
<mgrwt>
<rscale>  0 0.70966346E+02</rscale>
<asrwt>0</asrwt>
<pdfrwt beam="1">  1        2 0.19130455E+00 0.10288602E+03</pdfrwt>
<pdfrwt beam="2">  1        2 0.95149516E-01 0.48949527E+02</pdfrwt>
<totfact> 0.15903592E+02</totfact>
</mgrwt>
</event>
<event>
13    1  0.2742815E-008  0.8120559E+02  0.7546771E-02  0.1507217E+00
          2   -1    0    0  502    0  0.00000000000E+00  0.00000000000E+00  0.49253764810E+03  0.49253764810E+03  0.00000000000E+00 0. -1.
          2   -1    0    0  503    0 -0.00000000000E+00 -0.00000000000E+00 -0.12331907746E+04  0.12331907746E+04  0.00000000000E+00 0. -1.
         25    2    1    2    0    0  0.10914312632E+03 -0.72570684824E+02 -0.34596656916E+03  0.39051057372E+03  0.12500765933E+03 0.  0.
         24    2    1    2    0    0  0.42197926462E+01  0.35773646090E+02  0.21143045774E+02  0.10583579286E+03  0.97245186315E+02 0.  0.
         24    2    1    2    0    0 -0.61832231162E+02 -0.31782449066E+02  0.11369048190E+03  0.15515274694E+03  0.79457537888E+02 0.  0.
        -11    1    4    4    0    0 -0.41122131648E+02  0.37556238722E+02  0.23389221867E+02  0.60403282011E+02  0.00000000000E+00 0.  1.
         12    1    4    4    0    0  0.45341924294E+02 -0.17825926318E+01 -0.22461760929E+01  0.45432510851E+02  0.00000000000E+00 0. -1.
        -11    1    5    5    0    0 -0.62206412084E+02  0.23636873052E+01  0.10115732366E+03  0.11877722363E+03  0.00000000000E+00 0.  1.
         12    1    5    5    0    0  0.37418092193E+00 -0.34146136371E+02  0.12533158240E+02  0.36375523308E+02  0.00000000000E+00 0. -1.
          5    1    3    3  501    0  0.12531293913E+03 -0.28728516184E+02 -0.29127781127E+03  0.31842348170E+03  0.47000000000E+01 0.  1.
         -5    1    3    3    0  501 -0.16169812807E+02 -0.43842168640E+02 -0.54688757889E+02  0.72087092025E+02  0.47000000000E+01 0.  1.
          1    1    1    2  502    0 -0.62362636272E+02  0.51961254232E+02  0.26618000707E+03  0.27828199099E+03  0.00000000000E+00 0. -1.
          1    1    1    2  503    0  0.10831948464E+02  0.16618233568E+02 -0.79570009212E+03  0.79594731823E+03  0.00000000000E+00 0. -1.
<mgrwt>
<rscale>  0 0.40135461E+02</rscale>
<asrwt>0</asrwt>
<pdfrwt beam="1">  1        2 0.72432007E-01 0.81205588E+02</pdfrwt>
<pdfrwt beam="2">  1        2 0.18135158E+00 0.19836754E+02</pdfrwt>
<totfact> 0.25602519E+02</totfact>
</mgrwt>
</event>
<event>
13    1  0.2742815E-008  0.7912251E+02  0.7546771E-02  0.1351552E+00
          2   -1    0    0  503    0  0.00000000000E+00  0.00000000000E+00  0.21447257738E+04  0.21447257738E+04  0.00000000000E+00 0. -1.
          2   -1    0    0  502    0 -0.00000000000E+00 -0.00000000000E+00 -0.10995794348E+04  0.10995794348E+04  0.00000000000E+00 0. -1.
         25    2    1    2    0    0  0.24872762995E+02  0.14609218549E+02 -0.43583820113E+03  0.45432544132E+03  0.12499834182E+03 0.  0.
         24    2    1    2    0    0  0.71862492793E+00  0.85111902216E+02 -0.78752322765E+02  0.14003975275E+03  0.78515295890E+02 0.  0.
         24    2    1    2    0    0  0.26629739480E+02 -0.40895598827E+02  0.96034774693E+03  0.96504915766E+03  0.81673059364E+02 0.  0.
        -11    1    4    4    0    0  0.28609210804E+02  0.56118608049E+01 -0.33484644743E+02  0.44398213456E+02  0.00000000000E+00 0.  1.
         12    1    4    4    0    0 -0.27890585876E+02  0.79500041411E+02 -0.45267678022E+02  0.95641539293E+02  0.00000000000E+00 0. -1.
        -11    1    5    5    0    0 -0.27693991669E+02 -0.17826522896E+02  0.47205848764E+03  0.47320604164E+03  0.00000000000E+00 0.  1.
         12    1    5    5    0    0  0.54323731149E+02 -0.23069075931E+02  0.48828925930E+03  0.49184311602E+03  0.00000000000E+00 0. -1.
          5    1    3    3  501    0 -0.14473399233E+02  0.15100796328E+02 -0.40096365537E+03  0.40153636979E+03  0.47000000000E+01 0.  1.
         -5    1    3    3    0  501  0.39346162228E+02 -0.49157777863E+00 -0.34874545762E+02  0.52789071529E+02  0.47000000000E+01 0.  1.
          1    1    1    2  502    0  0.26945075676E+02 -0.60870359366E+02 -0.53932937529E+03  0.54342194729E+03  0.00000000000E+00 0. -1.
          1    1    1    2  503    0 -0.79166203078E+02  0.20448374279E+01  0.11387184913E+04  0.11414689095E+04  0.00000000000E+00 0. -1.
<mgrwt>
<rscale>  0 0.72574040E+02</rscale>
<asrwt>0</asrwt>
<pdfrwt beam="1">  1        2 0.31540085E+00 0.79122513E+02</pdfrwt>
<pdfrwt beam="2">  1        2 0.16170286E+00 0.66567543E+02</pdfrwt>
<totfact> 0.32931185E+01</totfact>
</mgrwt>
</event>
<event>
13    1  0.2742815E-008  0.2403888E+03  0.7546771E-02  0.1212424E+00
          2   -1    0    0  503    0  0.00000000000E+00  0.00000000000E+00  0.24941721242E+03  0.24941721242E+03  0.00000000000E+00 0. -1.
          2   -1    0    0  502    0 -0.00000000000E+00 -0.00000000000E+00 -0.23527113005E+04  0.23527113005E+04  0.00000000000E+00 0. -1.
         25    2    1    2    0    0  0.14609065909E+03 -0.19156932510E+03 -0.25220890957E+03  0.37050716104E+03  0.12499974130E+03 0.  0.
         24    2    1    2    0    0  0.14279312046E+02  0.18749475031E+02 -0.56129083797E+02  0.10247926566E+03  0.82438366532E+02 0.  0.
         24    2    1    2    0    0 -0.46538752161E+02  0.32215019316E+02 -0.10669425283E+02  0.99814721614E+02  0.81519807978E+02 0.  0.
        -13    1    5    5    0    0 -0.18639235190E+02 -0.23798907791E+02  0.13005823046E+02  0.32908365709E+02  0.00000000000E+00 0.  1.
         14    1    5    5    0    0 -0.27899516971E+02  0.56013927106E+02 -0.23675248329E+02  0.66906355905E+02  0.00000000000E+00 0. -1.
        -13    1    4    4    0    0 -0.32882822764E+01 -0.31645460753E+02 -0.15416686533E+02  0.35354238929E+02  0.00000000000E+00 0.  1.
         14    1    4    4    0    0  0.17567594323E+02  0.50394935784E+02 -0.40712397264E+02  0.67125026733E+02  0.00000000000E+00 0. -1.
          5    1    3    3  501    0  0.19677369214E+02 -0.34263121620E+00 -0.83310172122E+02  0.85732088709E+02  0.47000000000E+01 0.  1.
         -5    1    3    3    0  501  0.12641328988E+03 -0.19122669388E+03 -0.16889873745E+03  0.28477507233E+03  0.47000000000E+01 0.  1.
          1    1    1    2  502    0 -0.96322786053E+02  0.22104344359E+03 -0.18843719651E+04  0.18997357674E+04  0.00000000000E+00 0. -1.
          1    1    1    2  503    0 -0.17508432921E+02 -0.80438612841E+02  0.10008529567E+03  0.12959159721E+03  0.00000000000E+00 0. -1.
<mgrwt>
<rscale>  0 0.14067442E+03</rscale>
<asrwt>0</asrwt>
<pdfrwt beam="1">  1        2 0.36679003E-01 0.82322024E+02</pdfrwt>
<pdfrwt beam="2">  1        2 0.34598695E+00 0.24038881E+03</pdfrwt>
<totfact> 0.11956796E+02</totfact>
</mgrwt>
</event>
<event>
13    1  0.2742815E-008  0.7010543E+02  0.7546771E-02  0.1380573E+00
          2   -1    0    0  502    0  0.00000000000E+00  0.00000000000E+00  0.64452495772E+03  0.64452495772E+03  0.00000000000E+00 0. -1.
          2   -1    0    0  503    0 -0.00000000000E+00 -0.00000000000E+00 -0.10769387300E+04  0.10769387300E+04  0.00000000000E+00 0. -1.
         25    2    1    2    0    0 -0.10198612660E+01 -0.17809479701E+03 -0.64061735581E+03  0.67656040850E+03  0.12499837175E+03 0.  0.
         24    2    1    2    0    0 -0.70173983895E+02  0.73555280429E+02  0.96214915527E+02  0.16162236481E+03  0.80806630555E+02 0.  0.
         24    2    1    2    0    0  0.79432199471E+02  0.65415302323E+02  0.21133856053E+03  0.24679157371E+03  0.75189477953E+02 0.  0.
        -11    1    4    4    0    0 -0.85567184361E+01 -0.16455234531E+02  0.44429376295E+01  0.19071755783E+02  0.00000000000E+00 0.  1.
         12    1    4    4    0    0 -0.61617265459E+02  0.90010514961E+02  0.91771977897E+02  0.14255060902E+03  0.00000000000E+00 0. -1.
        -11    1    5    5    0    0 -0.62704084318E+01  0.10745664640E+02  0.78707332903E+02  0.79684575566E+02  0.00000000000E+00 0.  1.
         12    1    5    5    0    0  0.85702607903E+02  0.54669637683E+02  0.13263122763E+03  0.16710699814E+03  0.00000000000E+00 0. -1.
          5    1    3    3  501    0 -0.11600842707E+02 -0.19286639506E+03 -0.61597656482E+03  0.64558596972E+03  0.47000000000E+01 0.  1.
         -5    1    3    3    0  501  0.10580981441E+02  0.14771598041E+02 -0.24640790995E+02  0.30974438781E+02  0.47000000000E+01 0.  1.
          1    1    1    2  502    0 -0.57986379185E+02 -0.10888829859E+02  0.26187600792E+03  0.26843999387E+03  0.00000000000E+00 0. -1.
          1    1    1    2  503    0  0.49748024876E+02  0.50013044121E+02 -0.36122590046E+03  0.36804934686E+03  0.00000000000E+00 0. -1.
<mgrwt>
<rscale>  0 0.64313394E+02</rscale>
<asrwt>0</asrwt>
<pdfrwt beam="1">  1        2 0.94783082E-01 0.58999888E+02</pdfrwt>
<pdfrwt beam="2">  1        2 0.15837334E+00 0.70105431E+02</pdfrwt>
<totfact> 0.21375930E+02</totfact>
</mgrwt>
</event>
<event>
13    1  0.2742815E-008  0.5187969E+02  0.7546771E-02  0.1522934E+00
          2   -1    0    0  503    0  0.00000000000E+00  0.00000000000E+00  0.34305790819E+03  0.34305790819E+03  0.00000000000E+00 0. -1.
          2   -1    0    0  502    0 -0.00000000000E+00 -0.00000000000E+00 -0.19107654488E+04  0.19107654488E+04  0.00000000000E+00 0. -1.
         25    2    1    2    0    0  0.29139196390E+02  0.82828058600E+02 -0.10335166175E+04  0.10447482612E+04  0.12503099834E+03 0.  0.
         24    2    1    2    0    0  0.14900353397E+03 -0.72433466598E+02 -0.26546268871E+03  0.32119944053E+03  0.72456754545E+02 0.  0.
         24    2    1    2    0    0 -0.11667013090E+03  0.22739748988E+02  0.15460779455E+03  0.21067495615E+03  0.79695366136E+02 0.  0.
        -11    1    4    4    0    0  0.12252805826E+02  0.10625329473E+02 -0.80306717586E+01  0.18097529276E+02  0.00000000000E+00 0.  1.
         12    1    4    4    0    0  0.13675072815E+03 -0.83058796071E+02 -0.25743201695E+03  0.30310191125E+03  0.00000000000E+00 0. -1.
        -11    1    5    5    0    0 -0.40777420528E+01  0.23854763936E+02  0.55988952585E+02  0.60995414207E+02  0.00000000000E+00 0.  1.
         12    1    5    5    0    0 -0.11259238885E+03 -0.11150149487E+01  0.98618841968E+02  0.14967954194E+03  0.00000000000E+00 0. -1.
          5    1    3    3  501    0  0.68102357335E+02  0.89307682824E+02 -0.80200755092E+03  0.80984689603E+03  0.47000000000E+01 0. -1.
         -5    1    3    3    0  501 -0.38963160944E+02 -0.64796242241E+01 -0.23150906656E+03  0.23490136513E+03  0.47000000000E+01 0. -1.
          1    1    1    2  502    0 -0.27314604258E+02  0.58431266457E+01 -0.54460523347E+03  0.54532108895E+03  0.00000000000E+00 0. -1.
          1    1    1    2  503    0 -0.34157995201E+02 -0.38977467635E+02  0.12126920451E+03  0.13187961018E+03  0.00000000000E+00 0. -1.
<mgrwt>
<rscale>  0 0.38067496E+02</rscale>
<asrwt>0</asrwt>
<pdfrwt beam="1">  1        2 0.50449691E-01 0.51879691E+02</pdfrwt>
<pdfrwt beam="2">  1        2 0.28099492E+00 0.27932593E+02</pdfrwt>
<totfact> 0.17762076E+02</totfact>
</mgrwt>
</event>
<event>
13    1  0.2742815E-008  0.6886489E+02  0.7546771E-02  0.1443700E+00
          2   -1    0    0  503    0  0.00000000000E+00  0.00000000000E+00  0.63866459061E+03  0.63866459061E+03  0.00000000000E+00 0. -1.
          2   -1    0    0  502    0 -0.00000000000E+00 -0.00000000000E+00 -0.27415178945E+04  0.27415178945E+04  0.00000000000E+00 0. -1.
         25    2    1    2    0    0 -0.56132485349E+02  0.39663698939E+02 -0.19475035579E+04  0.19527208213E+04  0.12499773177E+03 0.  0.
         24    2    1    2    0    0 -0.26244653499E+02 -0.79947755270E+02  0.48019719416E+02  0.12659198976E+03  0.81481366027E+02 0.  0.
         24    2    1    2    0    0 -0.98920377620E+01  0.58851634713E+02  0.16569946138E+02  0.10506940027E+03  0.84874309655E+02 0.  0.
        -11    1    4    4    0    0 -0.28880469162E+02 -0.90799812402E+02  0.21302127732E+02  0.97634359101E+02  0.00000000000E+00 0.  1.
         12    1    4    4    0    0  0.26358156625E+01  0.10852057132E+02  0.26717591684E+02  0.28957630663E+02  0.00000000000E+00 0. -1.
        -13    1    5    5    0    0  0.27072396394E+02  0.48448569254E+02  0.31561953195E+02  0.63846185467E+02  0.00000000000E+00 0.  1.
         14    1    5    5    0    0 -0.36964434156E+02  0.10403065459E+02 -0.14992007057E+02  0.41223214806E+02  0.00000000000E+00 0. -1.
          5    1    3    3  501    0 -0.61323445646E+02  0.10780950367E+02 -0.39269711861E+03  0.39763036962E+03  0.47000000000E+01 0. -1.
         -5    1    3    3    0  501  0.51909602971E+01  0.28882748572E+02 -0.15548064393E+04  0.15550904516E+04  0.47000000000E+01 0. -1.
          1    1    1    2  502    0  0.24048415793E+02 -0.27786781188E+02 -0.70496073424E+03  0.70591789064E+03  0.00000000000E+00 0. -1.
          1    1    1    2  503    0  0.68220760817E+02  0.92192028069E+01  0.48502132266E+03  0.48988238317E+03  0.00000000000E+00 0. -1.
<mgrwt>
<rscale>  0 0.50305685E+02</rscale>
<asrwt>0</asrwt>
<pdfrwt beam="1">  1        2 0.93921262E-01 0.68864890E+02</pdfrwt>
<pdfrwt beam="2">  1        2 0.40316440E+00 0.36748218E+02</pdfrwt>
<totfact> 0.36507812E+01</totfact>
</mgrwt>
</event>
<event>
13    1  0.2742815E-008  0.1120134E+03  0.7546771E-02  0.1350116E+00
          2   -1    0    0  502    0  0.00000000000E+00  0.00000000000E+00  0.24416365058E+04  0.24416365058E+04  0.00000000000E+00 0. -1.
          2   -1    0    0  503    0 -0.00000000000E+00 -0.00000000000E+00 -0.92399776080E+03  0.92399776080E+03  0.00000000000E+00 0. -1.
         25    2    1    2    0    0 -0.60538837920E+02  0.58274533504E+02 -0.37648340742E+03  0.40548989913E+03  0.12498571950E+03 0.  0.
         24    2    1    2    0    0  0.42353111147E+02 -0.26611879276E+03  0.48101577098E+03  0.55710525553E+03  0.79856721219E+02 0.  0.
         24    2    1    2    0    0  0.75281949405E+02  0.13122197726E+03  0.13128788184E+04  0.13240865117E+04  0.81656104206E+02 0.  0.
        -11    1    4    4    0    0  0.38023579287E+02 -0.45615501731E+02  0.12350845214E+03  0.13704343958E+03  0.00000000000E+00 0.  1.
         12    1    4    4    0    0  0.43295318606E+01 -0.22050329103E+03  0.35750731884E+03  0.42006181596E+03  0.00000000000E+00 0. -1.
        -13    1    5    5    0    0  0.19397062445E+02  0.38807379414E+02  0.72992579967E+03  0.73121401228E+03  0.00000000000E+00 0.  1.
         14    1    5    5    0    0  0.55884886960E+02  0.92414597849E+02  0.58295301877E+03  0.59287249943E+03  0.00000000000E+00 0. -1.
          5    1    3    3  501    0  0.22505486827E+02  0.36246466611E+02 -0.24241033161E+03  0.24618115718E+03  0.47000000000E+01 0.  1.
         -5    1    3    3    0  501 -0.83044324747E+02  0.22028066893E+02 -0.13407307581E+03  0.15930874195E+03  0.47000000000E+01 0.  1.
          1    1    1    2  502    0 -0.98734207861E+02  0.53556498613E+02  0.58305932564E+03  0.59378019466E+03  0.00000000000E+00 0. -1.
          1    1    1    2  503    0  0.41637985229E+02  0.23065783384E+02 -0.48283176261E+03  0.48517240561E+03  0.00000000000E+00 0. -1.
<mgrwt>
<rscale>  0 0.73019381E+02</rscale>
<asrwt>0</asrwt>
<pdfrwt beam="1">  1        2 0.35906419E+00 0.11201343E+03</pdfrwt>
<pdfrwt beam="2">  1        2 0.13588202E+00 0.47599918E+02</pdfrwt>
<totfact> 0.28841639E+01</totfact>
</mgrwt>
</event>
<event>
13    1  0.2742815E-008  0.9762419E+02  0.7546771E-02  0.1536664E+00
          2   -1    0    0  502    0  0.00000000000E+00  0.00000000000E+00  0.97848171538E+03  0.97848171538E+03  0.00000000000E+00 0. -1.
          2   -1    0    0  503    0 -0.00000000000E+00 -0.00000000000E+00 -0.54065048250E+03  0.54065048250E+03  0.00000000000E+00 0. -1.
         25    2    1    2    0    0  0.20484052684E+03  0.15859131781E+03 -0.34195724665E+03  0.44684402236E+03  0.12499589697E+03 0.  0.
         24    2    1    2    0    0 -0.40410093390E+02 -0.15958727255E+03  0.34161624024E+02  0.18667616139E+03  0.81116579479E+02 0.  0.
         24    2    1    2    0    0 -0.86672793197E+02  0.54141059202E+02  0.72234585570E+02  0.14903842644E+03  0.80939420748E+02 0.  0.
        -11    1    5    5    0    0  0.15298732124E+02  0.10829551744E+01  0.68835743951E+01  0.16810936707E+02  0.00000000000E+00 0.  1.
         12    1    5    5    0    0 -0.10197152532E+03  0.53058104027E+02  0.65351011175E+02  0.13222748973E+03  0.00000000000E+00 0. -1.
        -13    1    4    4    0    0 -0.44366897660E+02 -0.16552009332E+03  0.22261729943E+02  0.17280308886E+03  0.00000000000E+00 0.  1.
         14    1    4    4    0    0  0.39568042703E+01  0.59328207642E+01  0.11899894080E+02  0.13873072528E+02  0.00000000000E+00 0. -1.
          5    1    3    3  501    0  0.83780203180E+01  0.53341108967E+02 -0.12280829394E+03  0.13423647862E+03  0.47000000000E+01 0.  1.
         -5    1    3    3    0  501  0.19646250652E+03  0.10525020885E+03 -0.21914895271E+03  0.31260754374E+03  0.47000000000E+01 0.  1.
          1    1    1    2  502    0 -0.72355249175E+02 -0.65580564354E+02  0.69996381774E+03  0.70674283771E+03  0.00000000000E+00 0. -1.
          1    1    1    2  503    0 -0.54023910798E+01  0.12435459894E+02 -0.26571547799E+02  0.29830749984E+02  0.00000000000E+00 0. -1.
<mgrwt>
<rscale>  0 0.36381513E+02</rscale>
<asrwt>0</asrwt>
<pdfrwt beam="1">  1        2 0.14389437E+00 0.97624194E+02</pdfrwt>
<pdfrwt beam="2">  1        2 0.79507424E-01 0.13558263E+02</pdfrwt>
<totfact> 0.29332824E+02</totfact>
</mgrwt>
</event>
<event>
13    1  0.2742815E-008  0.1151460E+03  0.7546771E-02  0.1453655E+00
          2   -1    0    0  502    0  0.00000000000E+00  0.00000000000E+00  0.11501679719E+04  0.11501679719E+04  0.00000000000E+00 0. -1.
          2   -1    0    0  503    0 -0.00000000000E+00 -0.00000000000E+00 -0.13653069788E+04  0.13653069788E+04  0.00000000000E+00 0. -1.
         25    2    1    2    0    0 -0.23952080059E+02  0.39539340439E+02 -0.94155824870E+03  0.95094359884E+03  0.12499892359E+03 0.  0.
         24    2    1    2    0    0  0.22889713749E+02 -0.55841167080E+02  0.36583944113E+02  0.10562985547E+03  0.78594570188E+02 0.  0.
         24    2    1    2    0    0 -0.10204759654E+03 -0.27669343950E+02  0.11061717866E+03  0.17095327151E+03  0.76220445214E+02 0.  0.
        -13    1    4    4    0    0  0.85106294638E+00 -0.21283335232E+02 -0.24250052365E+02  0.32276457464E+02  0.00000000000E+00 0.  1.
         14    1    4    4    0    0  0.22038650803E+02 -0.34557831848E+02  0.60833996478E+02  0.73353398004E+02  0.00000000000E+00 0. -1.
        -13    1    5    5    0    0 -0.10091839425E+03 -0.33474780712E+02  0.64291683549E+02  0.12425177590E+03  0.00000000000E+00 0.  1.
         14    1    5    5    0    0 -0.11292022902E+01  0.58054367617E+01  0.46325495114E+02  0.46701495601E+02  0.00000000000E+00 0. -1.
          5    1    3    3  501    0  0.12012018889E+02 -0.68812336747E+01 -0.75848036471E+03  0.75862124518E+03  0.47000000000E+01 0. -1.
         -5    1    3    3    0  501 -0.35964098948E+02  0.46420574114E+02 -0.18307788398E+03  0.19232235366E+03  0.47000000000E+01 0. -1.
          1    1    1    2  502    0  0.11714474567E+03  0.29137536379E+02  0.92938231543E+03  0.93718908215E+03  0.00000000000E+00 0. -1.
          1    1    1    2  503    0 -0.14034782817E+02  0.14833634211E+02 -0.35016419641E+03  0.35075914283E+03  0.00000000000E+00 0. -1.
<mgrwt>
<rscale>  0 0.48491045E+02</rscale>
<asrwt>0</asrwt>
<pdfrwt beam="1">  1        2 0.16914235E+00 0.11514601E+03</pdfrwt>
<pdfrwt beam="2">  1        2 0.20078044E+00 0.20420868E+02</pdfrwt>
<totfact> 0.78896748E+01</totfact>
</mgrwt>
</event>
<event>
13    1  0.2742815E-008  0.8854906E+02  0.7546771E-02  0.1349175E+00
          2   -1    0    0  503    0  0.00000000000E+00  0.00000000000E+00  0.62559946959E+03  0.62559946959E+03  0.00000000000E+00 0. -1.
          2   -1    0    0  502    0 -0.00000000000E+00 -0.00000000000E+00 -0.13573387345E+04  0.13573387345E+04  0.00000000000E+00 0. -1.
         25    2    1    2    0    0  0.54665508333E+02 -0.95321756673E+02 -0.34388403243E+03  0.38204151995E+03  0.12499976042E+03 0.  0.
         24    2    1    2    0    0 -0.12132954372E+03  0.12878280355E+03  0.61040654108E+02  0.20396074012E+03  0.81044144674E+02 0.  0.
         24    2    1    2    0    0  0.10775241871E+03 -0.12420933248E+02 -0.42264872979E+02  0.14111890925E+03  0.79770694741E+02 0.  0.
        -11    1    4    4    0    0 -0.29132858367E+02 -0.74324179564E+01  0.11323496345E+02  0.32127649194E+02  0.00000000000E+00 0.  1.
         12    1    4    4    0    0 -0.92196685355E+02  0.13621522151E+03  0.49717157763E+02  0.17183309092E+03  0.00000000000E+00 0. -1.
        -13    1    5    5    0    0  0.86098699424E+02 -0.36611614519E+02 -0.52238146431E+02  0.10715512262E+03  0.00000000000E+00 0.  1.
         14    1    5    5    0    0  0.21653719291E+02  0.24190681271E+02  0.99732734518E+01  0.33963786638E+02  0.00000000000E+00 0. -1.
          5    1    3    3  501    0  0.88457379581E+02 -0.31854742425E+02 -0.20488757626E+03  0.22547825066E+03  0.47000000000E+01 0. -1.
         -5    1    3    3    0  501 -0.33791871248E+02 -0.63467014247E+02 -0.13899645618E+03  0.15656326929E+03  0.47000000000E+01 0. -1.
          1    1    1    2  502    0  0.45963481678E+02 -0.39645277640E+02 -0.82543160280E+03  0.82766038964E+03  0.00000000000E+00 0. -1.
          1    1    1    2  503    0 -0.87051865004E+02  0.18605164010E+02  0.41880058915E+03  0.42815664517E+03  0.00000000000E+00 0. -1.
<mgrwt>
<rscale>  0 0.73313402E+02</rscale>
<asrwt>0</asrwt>
<pdfrwt beam="1">  1        2 0.91999924E-01 0.88549063E+02</pdfrwt>
<pdfrwt beam="2">  1        2 0.19960863E+00 0.60699174E+02</pdfrwt>
<totfact> 0.15817584E+02</totfact>
</mgrwt>
</event>
<event>
13    1  0.2742815E-008  0.8295313E+02  0.7546771E-02  0.1353137E+00
          2   -1    0    0  503    0  0.00000000000E+00  0.00000000000E+00  0.91612404229E+03  0.91612404229E+03  0.00000000000E+00 0. -1.
          2   -1    0    0  502    0 -0.00000000000E+00 -0.00000000000E+00 -0.23919871070E+04  0.23919871070E+04  0.00000000000E+00 0. -1.
         25    2    1    2    0    0 -0.15921747517E+02 -0.38654291321E+02 -0.51380955925E+03  0.53044541922E+03  0.12499769325E+03 0.  0.
         24    2    1    2    0    0 -0.92841312622E+01  0.82816951543E+02 -0.56126980573E+02  0.12858344033E+03  0.80241015838E+02 0.  0.
         24    2    1    2    0    0 -0.53231955719E+02 -0.66644336296E+02  0.19993102267E+03  0.23188793631E+03  0.80774330757E+02 0.  0.
        -11    1    5    5    0    0 -0.49051580194E+02 -0.21292924201E+02  0.43410895523E+02  0.68876352913E+02  0.00000000000E+00 0.  1.
         12    1    5    5    0    0 -0.41803755254E+01 -0.45351412095E+02  0.15652012715E+03  0.16301158340E+03  0.00000000000E+00 0. -1.
        -13    1    4    4    0    0  0.18863242521E+02  0.83516869656E+02 -0.51871351493E+02  0.10010757484E+03  0.00000000000E+00 0.  1.
         14    1    4    4    0    0 -0.28147373783E+02 -0.69991811358E+00 -0.42556290791E+01  0.28475865485E+02  0.00000000000E+00 0. -1.
          5    1    3    3  501    0 -0.18443992567E+02  0.32695071453E+02 -0.59309088118E+02  0.70347753998E+02  0.47000000000E+01 0.  1.
         -5    1    3    3    0  501  0.25222450497E+01 -0.71349362774E+02 -0.45450047113E+03  0.46009766522E+03  0.47000000000E+01 0.  1.
          1    1    1    2  502    0  0.37799750121E+02 -0.49954635208E+02 -0.17583356123E+04  0.17594511679E+04  0.00000000000E+00 0. -1.
          1    1    1    2  503    0  0.40638084377E+02  0.72436311283E+02  0.65247806477E+03  0.65774318552E+03  0.00000000000E+00 0. -1.
<mgrwt>
<rscale>  0 0.72086939E+02</rscale>
<asrwt>0</asrwt>
<pdfrwt beam="1">  1        2 0.13472412E+00 0.82953134E+02</pdfrwt>
<pdfrwt beam="2">  1        2 0.35176281E+00 0.62644127E+02</pdfrwt>
<totfact> 0.32408089E+01</totfact>
</mgrwt>
</event>
<event>
13    1  0.2742815E-008  0.7237927E+02  0.7546771E-02  0.1358738E+00
          2   -1    0    0  502    0  0.00000000000E+00  0.00000000000E+00  0.16081058641E+04  0.16081058641E+04  0.00000000000E+00 0. -1.
          2   -1    0    0  503    0 -0.00000000000E+00 -0.00000000000E+00 -0.12266886183E+04  0.12266886183E+04  0.00000000000E+00 0. -1.
         25    2    1    2    0    0  0.16708189637E+03  0.20424456122E+03 -0.54326064628E+03  0.61675604534E+03  0.12499475503E+03 0.  0.
         24    2    1    2    0    0 -0.18715594715E+03 -0.22473112659E+03  0.27551432444E+03  0.40975866227E+03  0.80390238950E+02 0.  0.
         24    2    1    2    0    0  0.16498118655E+01  0.30413877356E+02  0.26762663377E+02  0.90610934262E+02  0.81033174946E+02 0.  0.
        -11    1    4    4    0    0 -0.10203670044E+02  0.64236657220E+01  0.13499298483E+02  0.18099984066E+02  0.00000000000E+00 0.  1.
         12    1    4    4    0    0 -0.17695227710E+03 -0.23115479231E+03  0.26201502596E+03  0.39165867820E+03  0.00000000000E+00 0. -1.
        -13    1    5    5    0    0 -0.79092891134E+01  0.56986612280E+02  0.12100255675E+02  0.58791555694E+02  0.00000000000E+00 0.  1.
         14    1    5    5    0    0  0.95591009788E+01 -0.26572734925E+02  0.14662407702E+02  0.31819378569E+02  0.00000000000E+00 0. -1.
          5    1    3    3  501    0  0.17479219302E+03  0.21183920123E+03 -0.48563744294E+03  0.55793724907E+03  0.47000000000E+01 0. -1.
         -5    1    3    3    0  501 -0.77102966499E+01 -0.75946400079E+01 -0.57623203339E+02  0.58818796267E+02  0.47000000000E+01 0. -1.
          1    1    1    2  502    0 -0.11340167240E+02 -0.71595146437E+02  0.11667651898E+04  0.11690147444E+04  0.00000000000E+00 0. -1.
          1    1    1    2  503    0  0.29764406145E+02  0.61667834445E+02 -0.54436428559E+03  0.54865409604E+03  0.00000000000E+00 0. -1.
<mgrwt>
<rscale>  0 0.70400135E+02</rscale>
<asrwt>0</asrwt>
<pdfrwt beam="1">  1        2 0.23648616E+00 0.72379270E+02</pdfrwt>
<pdfrwt beam="2">  1        2 0.18039539E+00 0.68475117E+02</pdfrwt>
<totfact> 0.51226293E+01</totfact>
</mgrwt>
</event>
<event>
13    1  0.2742815E-008  0.5416183E+02  0.7546771E-02  0.1489770E+00
          2   -1    0    0  502    0  0.00000000000E+00  0.00000000000E+00  0.13942637325E+04  0.13942637325E+04  0.00000000000E+00 0. -1.
          2   -1    0    0  503    0 -0.00000000000E+00 -0.00000000000E+00 -0.75219079341E+03  0.75219079341E+03  0.00000000000E+00 0. -1.
         25    2    1    2    0    0  0.81453882962E+02  0.18156032864E+03 -0.18930924498E+03  0.30176534924E+03  0.12500179113E+03 0.  0.
         24    2    1    2    0    0 -0.80789149003E+02  0.36808182549E+02  0.12873966688E+03  0.17599780786E+03  0.80744025443E+02 0.  0.
         24    2    1    2    0    0  0.44305288156E+02 -0.15687708604E+03  0.59700769479E+03  0.62415837103E+03  0.81130178148E+02 0.  0.
        -13    1    4    4    0    0 -0.11931530134E+02  0.47629062326E+02  0.65669437879E+02  0.81996122229E+02  0.00000000000E+00 0.  1.
         14    1    4    4    0    0 -0.68857618869E+02 -0.10820879777E+02  0.63070228998E+02  0.94001685630E+02  0.00000000000E+00 0. -1.
        -13    1    5    5    0    0  0.35706009173E+01  0.98361302651E+01  0.35365418340E+02  0.36881044778E+02  0.00000000000E+00 0.  1.
         14    1    5    5    0    0  0.40734687238E+02 -0.16671321631E+03  0.56164227645E+03  0.58727732626E+03  0.00000000000E+00 0. -1.
          5    1    3    3  501    0  0.54852238321E+02  0.19395877082E+03 -0.18089037658E+03  0.27087301668E+03  0.47000000000E+01 0. -1.
         -5    1    3    3    0  501  0.26601644640E+02 -0.12398442182E+02 -0.84188683973E+01  0.30892332564E+02  0.47000000000E+01 0. -1.
          1    1    1    2  502    0  0.13679601470E+01 -0.33509941849E+02  0.57303154902E+03  0.57401214595E+03  0.00000000000E+00 0. -1.
          1    1    1    2  503    0 -0.46337982262E+02 -0.27981483293E+02 -0.46739672659E+03  0.47052085186E+03  0.00000000000E+00 0. -1.
<mgrwt>
<rscale>  0 0.42620083E+02</rscale>
<asrwt>0</asrwt>
<pdfrwt beam="1">  1        2 0.20503878E+00 0.33537852E+02</pdfrwt>
<pdfrwt beam="2">  1        2 0.11061629E+00 0.54161831E+02</pdfrwt>
<totfact> 0.13058935E+02</totfact>
</mgrwt>
</event>
<event>
13    1  0.2742815E-008  0.1912112E+03  0.7546771E-02  0.1275534E+00
          2   -1    0    0  502    0  0.00000000000E+00  0.00000000000E+00  0.47131400603E+04  0.47131400603E+04  0.00000000000E+00 0. -1.
          2   -1    0    0  503    0 -0.00000000000E+00 -0.00000000000E+00 -0.18929268603E+04  0.18929268603E+04  0.00000000000E+00 0. -1.
         25    2    1    2    0    0  0.43623491322E+02  0.21749314006E+02 -0.92809577025E+03  0.93774272456E+03  0.12499446806E+03 0.  0.
         24    2    1    2    0    0 -0.24374453451E+03  0.11200378900E+03  0.18842594051E+03  0.33694591056E+03  0.77922812643E+02 0.  0.
         24    2    1    2    0    0  0.11349619621E+02 -0.10284631235E+03  0.59395953174E+03  0.60759395636E+03  0.75341307599E+02 0.  0.
        -11    1    5    5    0    0 -0.26044706413E+02 -0.20863056399E+02  0.24166448782E+03  0.24395761625E+03  0.00000000000E+00 0.  1.
         12    1    5    5    0    0  0.37394326035E+02 -0.81983255950E+02  0.35229504392E+03  0.36363634011E+03  0.00000000000E+00 0. -1.
        -13    1    4    4    0    0 -0.66356151906E+02  0.41431846095E+02  0.98863775892E+02  0.12607054751E+03  0.00000000000E+00 0.  1.
         14    1    4    4    0    0 -0.17738838260E+03  0.70571942905E+02  0.89562164621E+02  0.21087536304E+03  0.00000000000E+00 0. -1.
          5    1    3    3  501    0  0.43729931969E+02  0.65373526392E+02 -0.75780809164E+03  0.76189316748E+03  0.47000000000E+01 0.  1.
         -5    1    3    3    0  501 -0.10644064742E+00 -0.43624212386E+02 -0.17028767862E+03  0.17584955708E+03  0.47000000000E+01 0.  1.
          1    1    1    2  502    0  0.24084626553E+03 -0.47749322918E+02  0.38400772297E+04  0.38479189247E+04  0.00000000000E+00 0. -1.
          1    1    1    2  503    0 -0.52074841969E+02  0.16842532260E+02 -0.87415373171E+03  0.87586540445E+03  0.00000000000E+00 0. -1.
<mgrwt>
<rscale>  0 0.10229926E+03</rscale>
<asrwt>0</asrwt>
<pdfrwt beam="1">  1        2 0.69310883E+00 0.19121115E+03</pdfrwt>
<pdfrwt beam="2">  1        2 0.27837160E+00 0.54730796E+02</pdfrwt>
<totfact> 0.31207781E-01</totfact>
</mgrwt>
</event>
<event>
13    1  0.2742815E-008  0.1949302E+03  0.7546771E-02  0.1381279E+00
          2   -1    0    0  503    0  0.00000000000E+00  0.00000000000E+00  0.73132680958E+03  0.73132680958E+03  0.00000000000E+00 0. -1.
          2   -1    0    0  502    0 -0.00000000000E+00 -0.00000000000E+00 -0.23818140612E+04  0.23818140612E+04  0.00000000000E+00 0. -1.
         25    2    1    2    0    0 -0.84908917531E+02 -0.17166593382E+03 -0.46464004361E+03  0.51787201717E+03  0.12498935527E+03 0.  0.
         24    2    1    2    0    0 -0.38665078516E+02  0.11243270555E+03 -0.41357790875E+02  0.16172436696E+03  0.10152931808E+03 0.  0.
         24    2    1    2    0    0  0.27630001724E+03 -0.64185013581E+02  0.17367921058E+03  0.34218338093E+03  0.80396408487E+02 0.  0.
        -11    1    5    5    0    0  0.62637865238E+02 -0.21755740511E+02  0.46683509268E+01  0.66472610203E+02  0.00000000000E+00 0.  1.
         12    1    5    5    0    0  0.21366215201E+03 -0.42429273070E+02  0.16901085965E+03  0.27571077072E+03  0.00000000000E+00 0. -1.
        -13    1    4    4    0    0 -0.30380582640E+02  0.13158510579E+03 -0.31632228336E+02  0.13870190242E+03  0.00000000000E+00 0.  1.
         14    1    4    4    0    0 -0.82844958759E+01 -0.19152400238E+02 -0.97255625382E+01  0.23022464540E+02  0.00000000000E+00 0. -1.
          5    1    3    3  501    0 -0.14429681705E+02 -0.11324305260E+03 -0.14089171832E+03  0.18139672259E+03  0.47000000000E+01 0.  1.
         -5    1    3    3    0  501 -0.70479235826E+02 -0.58422881224E+02 -0.32374832529E+03  0.33647529458E+03  0.47000000000E+01 0.  1.
          1    1    1    2  502    0 -0.17871909083E+02 -0.11211039538E+02 -0.16812136563E+04  0.16813460234E+04  0.00000000000E+00 0. -1.
          1    1    1    2  503    0 -0.13485411211E+03  0.13462928139E+03  0.36304502854E+03  0.41001508229E+03  0.00000000000E+00 0. -1.
<mgrwt>
<rscale>  0 0.64128658E+02</rscale>
<asrwt>0</asrwt>
<pdfrwt beam="1">  1        2 0.10754806E+00 0.19493021E+03</pdfrwt>
<pdfrwt beam="2">  1        2 0.35026677E+00 0.21097216E+02</pdfrwt>
<totfact> 0.48909838E+01</totfact>
</mgrwt>
</event>
<event>
13    1  0.2742815E-008  0.1334001E+03  0.7546771E-02  0.1452782E+00
          2   -1    0    0  503    0  0.00000000000E+00  0.00000000000E+00  0.74970897526E+03  0.74970897526E+03  0.00000000000E+00 0. -1.
          2   -1    0    0  502    0 -0.00000000000E+00 -0.00000000000E+00 -0.15838533877E+04  0.15838533877E+04  0.00000000000E+00 0. -1.
         25    2    1    2    0    0 -0.22343764406E+02 -0.56544090084E+02 -0.50161004146E+03  0.52051263278E+03  0.12499715700E+03 0.  0.
         24    2    1    2    0    0 -0.23704659671E+02 -0.64003046032E+02 -0.74784330215E+02  0.12943152434E+03  0.80632020044E+02 0.  0.
         24    2    1    2    0    0  0.16111058634E+03  0.10867966741E+03  0.23637284852E+03  0.31630556675E+03  0.80057460008E+02 0.  0.
        -13    1    5    5    0    0  0.11054151818E+03  0.72915027750E+02  0.21154978933E+03  0.24957832814E+03  0.00000000000E+00 0.  1.
         14    1    5    5    0    0  0.50569068163E+02  0.35764639661E+02  0.24823059185E+02  0.66727238608E+02  0.00000000000E+00 0. -1.
        -13    1    4    4    0    0 -0.16119911745E+02 -0.80036453262E+02 -0.41197544862E+02  0.91449019175E+02  0.00000000000E+00 0.  1.
         14    1    4    4    0    0 -0.75847479258E+01  0.16033407229E+02 -0.33586785352E+02  0.37982505167E+02  0.00000000000E+00 0. -1.
          5    1    3    3  501    0 -0.53644923195E+02 -0.51778415032E+02 -0.15124843264E+03  0.16869190978E+03  0.47000000000E+01 0. -1.
         -5    1    3    3    0  501  0.31301158789E+02 -0.47656750526E+01 -0.35036160881E+03  0.35182072300E+03  0.47000000000E+01 0. -1.
          1    1    1    2  502    0  0.17700619296E+02 -0.11761725568E+01 -0.92044002466E+03  0.92061095708E+03  0.00000000000E+00 0. -1.
          1    1    1    2  503    0 -0.13276278156E+03  0.13043641263E+02  0.42631713540E+03  0.44670168198E+03  0.00000000000E+00 0. -1.
<mgrwt>
<rscale>  0 0.48646387E+02</rscale>
<asrwt>0</asrwt>
<pdfrwt beam="1">  1        2 0.11025132E+00 0.13340007E+03</pdfrwt>
<pdfrwt beam="2">  1        2 0.23291961E+00 0.17739653E+02</pdfrwt>
<totfact> 0.11042915E+02</totfact>
</mgrwt>
</event>
<event>
13    1  0.2742815E-008  0.5184686E+02  0.7546771E-02  0.1453121E+00
          2   -1    0    0  503    0  0.00000000000E+00  0.00000000000E+00  0.29787017820E+04  0.29787017820E+04  0.00000000000E+00 0. -1.
          2   -1    0    0  502    0 -0.00000000000E+00 -0.00000000000E+00 -0.12097542528E+04  0.12097542528E+04  0.00000000000E+00 0. -1.
         25    2    1    2    0    0  0.13078438943E+02  0.24288327250E+01  0.36953985692E+02  0.13102283911E+03  0.12499777005E+03 0.  0.
         24    2    1    2    0    0 -0.64752429868E+03 -0.31585854439E+03  0.34147820938E+03  0.80148704414E+03  0.81974245903E+02 0.  0.
         24    2    1    2    0    0  0.63424871883E+03  0.32113853476E+03  0.12092328278E+04  0.14047601062E+04  0.75534949040E+02 0.  0.
        -11    1    5    5    0    0  0.35388533359E+03  0.16971757077E+03  0.73865398723E+03  0.83644999612E+03  0.00000000000E+00 0.  1.
         12    1    5    5    0    0  0.28036338523E+03  0.15142096399E+03  0.47057884053E+03  0.56831011013E+03  0.00000000000E+00 0. -1.
        -13    1    4    4    0    0 -0.42919589124E+03 -0.25080714797E+03  0.22574181901E+03  0.54596035330E+03  0.00000000000E+00 0.  1.
         14    1    4    4    0    0 -0.21832840744E+03 -0.65051396419E+02  0.11573639036E+03  0.25552669083E+03  0.00000000000E+00 0. -1.
          5    1    3    3  501    0 -0.32048998272E+02  0.49750111431E+02  0.10296775060E+02  0.60252182154E+02  0.47000000000E+01 0. -1.
         -5    1    3    3    0  501  0.45127437214E+02 -0.47321278706E+02  0.26657210632E+02  0.70770656960E+02  0.47000000000E+01 0. -1.
          1    1    1    2  502    0 -0.28053147631E+02  0.35861098123E+02 -0.83366684069E+03  0.83490921585E+03  0.00000000000E+00 0. -1.
          1    1    1    2  503    0  0.28250288545E+02 -0.43569921220E+02  0.10149493471E+04  0.10162768294E+04  0.00000000000E+00 0. -1.
<mgrwt>
<rscale>  0 0.48585976E+02</rscale>
<asrwt>0</asrwt>
<pdfrwt beam="1">  1        2 0.43804438E+00 0.51846863E+02</pdfrwt>
<pdfrwt beam="2">  1        2 0.17790504E+00 0.45530182E+02</pdfrwt>
<totfact> 0.12152794E+01</totfact>
</mgrwt>
</event>
<event>
13    1  0.2742815E-008  0.4410737E+02  0.7546771E-02  0.1529093E+00
          2   -1    0    0  503    0  0.00000000000E+00  0.00000000000E+00  0.47382530923E+04  0.47382530923E+04  0.00000000000E+00 0. -1.
          2   -1    0    0  502    0 -0.00000000000E+00 -0.00000000000E+00 -0.17563375754E+04  0.17563375754E+04  0.00000000000E+00 0. -1.
         25    2    1    2    0    0 -0.50703619058E+02 -0.31686245187E+01 -0.31791887943E+03  0.34536677543E+03  0.12499959403E+03 0.  0.
         24    2    1    2    0    0 -0.10979777394E+03 -0.38111943061E+02  0.34524083475E+03  0.37298711504E+03  0.80125418170E+02 0.  0.
         24    2    1    2    0    0  0.15190378891E+03  0.50572850338E+02  0.15416551300E+04  0.15518862059E+04  0.77575009698E+02 0.  0.
        -13    1    4    4    0    0 -0.40954850918E+02  0.19429480647E+02  0.69153059324E+02  0.82685852150E+02  0.00000000000E+00 0.  1.
         14    1    4    4    0    0 -0.68842923019E+02 -0.57541423708E+02  0.27608777543E+03  0.29030126289E+03  0.00000000000E+00 0. -1.
        -13    1    5    5    0    0  0.79112214689E+02  0.24447274527E+01  0.46387437678E+03  0.47057853397E+03  0.00000000000E+00 0.  1.
         14    1    5    5    0    0  0.72791574217E+02  0.48128122885E+02  0.10777807532E+04  0.10813076720E+04  0.00000000000E+00 0. -1.
          5    1    3    3  501    0 -0.77750037780E+02  0.37032782805E+02 -0.20242885876E+03  0.22003642479E+03  0.47000000000E+01 0.  1.
         -5    1    3    3    0  501  0.27046418722E+02 -0.40201407323E+02 -0.11549002067E+03  0.12533035063E+03  0.47000000000E+01 0.  1.
          1    1    1    2  502    0 -0.18236606880E+02  0.25732769141E+02 -0.14053564503E+04  0.14057103193E+04  0.00000000000E+00 0. -1.
          1    1    1    2  503    0  0.26834210968E+02 -0.35025051899E+02  0.28182948819E+04  0.28186402521E+04  0.00000000000E+00 0. -1.
<mgrwt>
<rscale>  0 0.37297867E+02</rscale>
<asrwt>0</asrwt>
<pdfrwt beam="1">  1        2 0.69680193E+00 0.44107372E+02</pdfrwt>
<pdfrwt beam="2">  1        2 0.25828494E+00 0.31539645E+02</pdfrwt>
<totfact> 0.52801804E-01</totfact>
</mgrwt>
</event>
<event>
13    1  0.2742815E-008  0.1260492E+03  0.7546771E-02  0.1346871E+00
          2   -1    0    0  503    0  0.00000000000E+00  0.00000000000E+00  0.16100595140E+04  0.16100595140E+04  0.00000000000E+00 0. -1.
          2   -1    0    0  502    0 -0.00000000000E+00 -0.00000000000E+00 -0.87629433002E+03  0.87629433002E+03  0.00000000000E+00 0. -1.
         25    2    1    2    0    0  0.12846657444E+03  0.23853707047E+03 -0.46978823274E+03  0.55653440567E+03  0.12500386531E+03 0.  0.
         24    2    1    2    0    0 -0.28756180012E+03 -0.15155250771E+03  0.56377894838E+02  0.34020086165E+03  0.83055449926E+02 0.  0.
         24    2    1    2    0    0  0.76792081731E+02 -0.10439718588E+03  0.81982779450E+03  0.83408646449E+03  0.82382166559E+02 0.  0.
        -11    1    4    4    0    0 -0.11537699861E+03 -0.52565431511E+02 -0.18125853257E+02  0.12807623884E+03  0.00000000000E+00 0.  1.
         12    1    4    4    0    0 -0.17218480151E+03 -0.98987076203E+02  0.74503748095E+02  0.21212462282E+03  0.00000000000E+00 0. -1.
        -11    1    5    5    0    0  0.14727681129E+02  0.13083180903E+02  0.14191938333E+03  0.14328009484E+03  0.00000000000E+00 0.  1.
         12    1    5    5    0    0  0.62064400602E+02 -0.11748036678E+03  0.67790841118E+03  0.69080636965E+03  0.00000000000E+00 0. -1.
          5    1    3    3  501    0 -0.18784632227E+02  0.64839005727E+02 -0.77187767290E+02  0.10264989279E+03  0.47000000000E+01 0. -1.
         -5    1    3    3    0  501  0.14725120667E+03  0.17369806475E+03 -0.39260046545E+03  0.45388451288E+03  0.47000000000E+01 0. -1.
          1    1    1    2  502    0 -0.43390220267E+02  0.29448695793E+01 -0.20438142671E+03  0.20895729482E+03  0.00000000000E+00 0. -1.
          1    1    1    2  503    0  0.12569336421E+03  0.14467753540E+02  0.53172915411E+03  0.54657481741E+03  0.00000000000E+00 0. -1.
<mgrwt>
<rscale>  0 0.74039751E+02</rscale>
<asrwt>0</asrwt>
<pdfrwt beam="1">  1        2 0.23677346E+00 0.12604920E+03</pdfrwt>
<pdfrwt beam="2">  1        2 0.12886681E+00 0.43490039E+02</pdfrwt>
<totfact> 0.77773440E+01</totfact>
</mgrwt>
</event>
<event>
13    1  0.2742815E-008  0.1788289E+03  0.7546771E-02  0.1221921E+00
          2   -1    0    0  503    0  0.00000000000E+00  0.00000000000E+00  0.32987993677E+04  0.32987993677E+04  0.00000000000E+00 0. -1.
          2   -1    0    0  502    0 -0.00000000000E+00 -0.00000000000E+00 -0.98136691955E+03  0.98136691955E+03  0.00000000000E+00 0. -1.
         25    2    1    2    0    0 -0.14818086847E+03 -0.29172724614E+02 -0.96807680866E+02  0.21864295639E+03  0.12499759063E+03 0.  0.
         24    2    1    2    0    0 -0.38909355903E+02  0.16071137469E+03  0.10045275826E+04  0.10214896149E+04  0.83805042562E+02 0.  0.
         24    2    1    2    0    0  0.45106663604E+02 -0.99590914432E+02  0.12176416596E+04  0.12250421834E+04  0.78257131586E+02 0.  0.
        -13    1    4    4    0    0 -0.45643086061E+02  0.30301639324E+02  0.30168922416E+03  0.30662333346E+03  0.00000000000E+00 0.  1.
         14    1    4    4    0    0  0.67337301582E+01  0.13040973537E+03  0.70283835848E+03  0.71486628145E+03  0.00000000000E+00 0. -1.
        -13    1    5    5    0    0 -0.11148741467E+02 -0.67713483449E+02  0.70710432347E+03  0.71042658632E+03  0.00000000000E+00 0.  1.
         14    1    5    5    0    0  0.56255405071E+02 -0.31877430983E+02  0.51053733615E+03  0.51461559713E+03  0.00000000000E+00 0. -1.
          5    1    3    3  501    0 -0.98470886561E+02  0.14789229089E+00  0.79962388834E+01  0.98906861281E+02  0.47000000000E+01 0. -1.
         -5    1    3    3    0  501 -0.49709981912E+02 -0.29320616905E+02 -0.10480391975E+03  0.11973609511E+03  0.47000000000E+01 0. -1.
          1    1    1    2  502    0  0.12212167731E+03 -0.13007000690E+03 -0.79910125047E+03  0.81877635486E+03  0.00000000000E+00 0. -1.
          1    1    1    2  503    0  0.19861883463E+02  0.98122271256E+02  0.99117213719E+03  0.99621517759E+03  0.00000000000E+00 0. -1.
<mgrwt>
<rscale>  0 0.13380199E+03</rscale>
<asrwt>0</asrwt>
<pdfrwt beam="1">  1        2 0.48511755E+00 0.10011231E+03</pdfrwt>
<pdfrwt beam="2">  1        2 0.14431867E+00 0.17882887E+03</pdfrwt>
<totfact> 0.90602467E+00</totfact>
</mgrwt>
</event>
<event>
13    1  0.2742815E-008  0.4757064E+02  0.7546771E-02  0.1602839E+00
          2   -1    0    0  503    0  0.00000000000E+00  0.00000000000E+00  0.52018680766E+03  0.52018680766E+03  0.00000000000E+00 0. -1.
         -1   -1    0    0    0  501 -0.00000000000E+00 -0.00000000000E+00 -0.11331940775E+04  0.11331940775E+04  0.00000000000E+00 0.  1.
         25    2    1    2    0    0 -0.13505078761E+03  0.60579004557E+01 -0.43652904650E+03  0.47376772033E+03  0.12499132370E+03 0.  0.
         24    2    1    2    0    0  0.30794469400E+02 -0.55842363973E+02  0.89480933083E+01  0.10344879256E+03  0.80962431705E+02 0.  0.
         24    2    1    2    0    0  0.10015578310E+03  0.20745398279E+02  0.75577299660E+02  0.14995948365E+03  0.79462985564E+02 0.  0.
        -11    1    5    5    0    0 -0.13041180847E+02 -0.34261944823E+01  0.11092023548E+02  0.17459787882E+02  0.00000000000E+00 0.  1.
         12    1    5    5    0    0  0.11319696395E+03  0.24171592762E+02  0.64485276112E+02  0.13249969577E+03  0.00000000000E+00 0. -1.
        -13    1    4    4    0    0  0.94560042266E+01  0.89971316271E+01 -0.24253044750E+02  0.27542232536E+02  0.00000000000E+00 0.  1.
         14    1    4    4    0    0  0.21338465174E+02 -0.64839495600E+02  0.33201138058E+02  0.75906560019E+02  0.00000000000E+00 0. -1.
          5    1    3    3  502    0 -0.66133677669E+01 -0.42311753386E+02 -0.14942950593E+03  0.15551619964E+03  0.47000000000E+01 0. -1.
         -5    1    3    3    0  502 -0.12843741984E+03  0.48369653841E+02 -0.28709954056E+03  0.31825152069E+03  0.47000000000E+01 0. -1.
          1    1    1    2  503    0 -0.42661039482E+01 -0.17884707282E+02  0.33138858693E+03  0.33189826445E+03  0.00000000000E+00 0. -1.
         -2    1    1    2    0  501  0.83666390568E+01  0.46923772519E+02 -0.59239220320E+03  0.59430662413E+03  0.00000000000E+00 0.  1.
<mgrwt>
<rscale>  0 0.29574590E+02</rscale>
<asrwt>0</asrwt>
<pdfrwt beam="1">  1        2 0.76498061E-01 0.18386473E+02</pdfrwt>
<pdfrwt beam="2">  1       -1 0.16664619E+00 0.47570644E+02</pdfrwt>
<totfact> 0.24098998E+01</totfact>
</mgrwt>
</event>
<event>
13    1  0.2742815E-008  0.7321620E+02  0.7546771E-02  0.1350610E+00
         -3   -1    0    0    0  501 -0.00000000000E+00  0.00000000000E+00  0.42449250578E+03  0.42449250578E+03  0.00000000000E+00 0.  1.
          2   -1    0    0  503    0  0.00000000000E+00 -0.00000000000E+00 -0.93504032904E+03  0.93504032904E+03  0.00000000000E+00 0. -1.
         25    2    1    2    0    0  0.84852895776E+02  0.50331568953E+02  0.20457889227E+03  0.25924511124E+03  0.12498889464E+03 0.  0.
         24    2    1    2    0    0 -0.54882017971E+02 -0.26279926179E+02 -0.63791144914E+02  0.11894281544E+03  0.79846181872E+02 0.  0.
         24    2    1    2    0    0  0.60978755702E+02 -0.45924429823E+02 -0.30327907351E+03  0.32225951141E+03  0.77753034431E+02 0.  0.
        -11    1    4    4    0    0 -0.54551206976E+02 -0.11597145517E+02 -0.79710556933E+02  0.97283610404E+02  0.00000000000E+00 0.  1.
         12    1    4    4    0    0 -0.33081099515E+00 -0.14682780662E+02  0.15919412019E+02  0.21659205039E+02  0.00000000000E+00 0. -1.
        -11    1    5    5    0    0  0.71224961962E+02 -0.57760721047E+02 -0.27565062326E+03  0.29050397968E+03  0.00000000000E+00 0.  1.
         12    1    5    5    0    0 -0.10246206260E+02  0.11836291224E+02 -0.27628450251E+02  0.31755531738E+02  0.00000000000E+00 0. -1.
          5    1    3    3  502    0  0.60142869313E+02 -0.30358453620E+02  0.53604788671E+02  0.86222756879E+02  0.47000000000E+01 0.  1.
         -5    1    3    3    0  502  0.24710026463E+02  0.80690022573E+02  0.15097410360E+03  0.17302235436E+03  0.47000000000E+01 0.  1.
          1    1    1    2  503    0 -0.59182943764E+02 -0.43316727904E+02 -0.49224993407E+03  0.49768359159E+03  0.00000000000E+00 0. -1.
         -4    1    1    2    0  501 -0.31766689744E+02  0.65189514953E+02  0.14419343697E+03  0.16140180514E+03  0.00000000000E+00 0.  1.
<mgrwt>
<rscale>  0 0.72866037E+02</rscale>
<asrwt>0</asrwt>
<pdfrwt beam="2">  1        2 0.13750593E+00 0.73216196E+02</pdfrwt>
<pdfrwt beam="1">  1       -3 0.62425368E-01 0.72517553E+02</pdfrwt>
<totfact> 0.48985721E+01</totfact>
</mgrwt>
</event>
<event>
13    1  0.2742815E-008  0.4486588E+02  0.7546771E-02  0.1529449E+00
          2   -1    0    0  503    0  0.00000000000E+00  0.00000000000E+00  0.43779548125E+04  0.43779548125E+04  0.00000000000E+00 0. -1.
          2   -1    0    0  502    0 -0.00000000000E+00 -0.00000000000E+00 -0.40815259223E+03  0.40815259223E+03  0.00000000000E+00 0. -1.
         25    2    1    2    0    0 -0.26396968925E+02  0.49128912922E+02 -0.28995362978E+03  0.32064046836E+03  0.12500700970E+03 0.  0.
         24    2    1    2    0    0 -0.63509507725E+02 -0.63454833905E+02  0.73108069293E+03  0.74097917014E+03  0.80691867614E+02 0.  0.
         24    2    1    2    0    0  0.75698295267E+02  0.67832368720E+01  0.18083302849E+04  0.18117146425E+04  0.80469140044E+02 0.  0.
        -13    1    5    5    0    0  0.73645192611E+02  0.20149578064E+02  0.17561986779E+04  0.17578576211E+04  0.00000000000E+00 0.  1.
         14    1    5    5    0    0  0.20531026559E+01 -0.13366341192E+02  0.52131607026E+02  0.53857021441E+02  0.00000000000E+00 0. -1.
        -13    1    4    4    0    0  0.19280385716E+02 -0.13729881053E+02  0.17155500987E+03  0.17318014990E+03  0.00000000000E+00 0.  1.
         14    1    4    4    0    0 -0.82789893441E+02 -0.49724952852E+02  0.55952568306E+03  0.56779902025E+03  0.00000000000E+00 0. -1.
          5    1    3    3  501    0 -0.75262306576E+02  0.25357795225E+02 -0.20254999751E+03  0.21761439304E+03  0.47000000000E+01 0. -1.
         -5    1    3    3    0  501  0.48865337651E+02  0.23771117697E+02 -0.87403632272E+02  0.10302607531E+03  0.47000000000E+01 0. -1.
          1    1    1    2  502    0 -0.13321407323E+02 -0.27918307565E+02 -0.93442826821E+02  0.98429942978E+02  0.00000000000E+00 0. -1.
          1    1    1    2  503    0  0.27529588706E+02  0.35460991675E+02  0.18137876991E+04  0.18143431807E+04  0.00000000000E+00 0. -1.
<mgrwt>
<rscale>  0 0.37254076E+02</rscale>
<asrwt>0</asrwt>
<pdfrwt beam="1">  1        2 0.64381686E+00 0.44865879E+02</pdfrwt>
<pdfrwt beam="2">  1        2 0.60022442E-01 0.30933668E+02</pdfrwt>
<totfact> 0.61839347E+00</totfact>
</mgrwt>
</event>
<event>
13    1  0.2742815E-008  0.1215327E+03  0.7546771E-02  0.1306285E+00
          2   -1    0    0  503    0  0.00000000000E+00  0.00000000000E+00  0.32418614923E+04  0.32418614923E+04  0.00000000000E+00 0. -1.
          2   -1    0    0  502    0 -0.00000000000E+00 -0.00000000000E+00 -0.65116862633E+03  0.65116862633E+03  0.00000000000E+00 0. -1.
         25    2    1    2    0    0  0.11670816792E+03 -0.95961771864E+02  0.29934209899E+03  0.35785516559E+03  0.12500067677E+03 0.  0.
         24    2    1    2    0    0 -0.27973057758E+02  0.43701562431E+03  0.47776036064E+03  0.65193631988E+03  0.70716724544E+02 0.  0.
         24    2    1    2    0    0  0.42856834095E+02 -0.28612409765E+03  0.15496269422E+04  0.15782368672E+04  0.76054200234E+02 0.  0.
        -11    1    4    4    0    0  0.19482359135E+02  0.64329732924E+02  0.60110949210E+02  0.90173183766E+02  0.00000000000E+00 0.  1.
         12    1    4    4    0    0 -0.47455416893E+02  0.37268589139E+03  0.41764941143E+03  0.56176313612E+03  0.00000000000E+00 0. -1.
        -13    1    5    5    0    0  0.51653013253E+02 -0.25816154788E+03  0.14698927517E+04  0.14932850096E+04  0.00000000000E+00 0.  1.
         14    1    5    5    0    0 -0.87961791579E+01 -0.27962549767E+02  0.79734190553E+02  0.84951857545E+02  0.00000000000E+00 0. -1.
          5    1    3    3  501    0  0.15304655153E+02 -0.28532684431E+02  0.19409200956E+03  0.19683024342E+03  0.47000000000E+01 0. -1.
         -5    1    3    3    0  501  0.10140351276E+03 -0.67429087433E+02  0.10525008942E+03  0.16102492216E+03  0.47000000000E+01 0. -1.
          1    1    1    2  502    0 -0.10605191972E+02 -0.63710477490E+02 -0.51379588349E+03  0.51783945864E+03  0.00000000000E+00 0. -1.
          1    1    1    2  503    0 -0.12098675228E+03  0.87807226912E+01  0.77775934761E+03  0.78716230735E+03  0.00000000000E+00 0. -1.
<mgrwt>
<rscale>  0 0.88597107E+02</rscale>
<asrwt>0</asrwt>
<pdfrwt beam="1">  1        2 0.47674433E+00 0.12153272E+03</pdfrwt>
<pdfrwt beam="2">  1        2 0.95760093E-01 0.64587112E+02</pdfrwt>
<totfact> 0.16116806E+01</totfact>
</mgrwt>
</event>
<event>
13    1  0.2742815E-008  0.1403190E+03  0.7546771E-02  0.1341093E+00
          2   -1    0    0  503    0  0.00000000000E+00  0.00000000000E+00  0.30199405122E+04  0.30199405122E+04  0.00000000000E+00 0. -1.
         -1   -1    0    0    0  501 -0.00000000000E+00 -0.00000000000E+00 -0.32939251453E+03  0.32939251453E+03  0.00000000000E+00 0.  1.
         25    2    1    2    0    0  0.99955170832E+02  0.10483968977E+03 -0.82022613106E+02  0.20817170296E+03  0.12500140849E+03 0.  0.
         24    2    1    2    0    0 -0.30305031403E+01  0.72454587252E+02  0.63673901891E+01  0.11117021927E+03  0.84020371530E+02 0.  0.
         24    2    1    2    0    0 -0.14097134471E+02 -0.32367288136E+02  0.16432681389E+03  0.18604735691E+03  0.79774348689E+02 0.  0.
        -11    1    5    5    0    0 -0.12323413603E+02  0.15296571608E+02  0.11776359401E+03  0.11939060138E+03  0.00000000000E+00 0.  1.
         12    1    5    5    0    0 -0.17737208686E+01 -0.47663859744E+02  0.46563219887E+02  0.66656755529E+02  0.00000000000E+00 0. -1.
        -13    1    4    4    0    0 -0.24553504762E+02  0.77865836093E+02 -0.11794837180E+02  0.82492916124E+02  0.00000000000E+00 0.  1.
         14    1    4    4    0    0  0.21523001622E+02 -0.54112488410E+01  0.18162227369E+02  0.28677303148E+02  0.00000000000E+00 0. -1.
          5    1    3    3  502    0  0.72753618168E+00 -0.95762998680E+01 -0.52780673026E+02  0.53852801906E+02  0.47000000000E+01 0. -1.
         -5    1    3    3    0  502  0.99227634650E+02  0.11441598963E+03 -0.29241940079E+02  0.15431890105E+03  0.47000000000E+01 0. -1.
          1    1    1    2  503    0 -0.11848245270E+03 -0.16528971514E+03  0.27155124898E+04  0.27231171227E+04  0.00000000000E+00 0. -1.
         -2    1    1    2    0  501  0.35654919479E+02  0.20362726258E+02 -0.11363608311E+03  0.12082662491E+03  0.00000000000E+00 0.  1.
<mgrwt>
<rscale>  0 0.75904414E+02</rscale>
<asrwt>0</asrwt>
<pdfrwt beam="1">  1        2 0.44410888E+00 0.14031896E+03</pdfrwt>
<pdfrwt beam="2">  1       -1 0.48440078E-01 0.41059882E+02</pdfrwt>
<totfact> 0.13547878E+01</totfact>
</mgrwt>
</event>
<event>
13    1  0.2742815E-008  0.8992390E+02  0.7546771E-02  0.1413485E+00
          2   -1    0    0  502    0  0.00000000000E+00  0.00000000000E+00  0.21026981370E+04  0.21026981370E+04  0.00000000000E+00 0. -1.
          2   -1    0    0  503    0 -0.00000000000E+00 -0.00000000000E+00 -0.91613424763E+03  0.91613424763E+03  0.00000000000E+00 0. -1.
         25    2    1    2    0    0  0.33205772928E+02 -0.94880755502E+02 -0.26498515358E+03  0.30975021768E+03  0.12499233822E+03 0.  0.
         24    2    1    2    0    0  0.31645727901E+02  0.77814024400E+02  0.10250113781E+03  0.15373179590E+03  0.77913460531E+02 0.  0.
         24    2    1    2    0    0 -0.41577642210E+02 -0.92201557850E+02  0.78229878183E+02  0.15025966410E+03  0.78919105496E+02 0.  0.
        -11    1    5    5    0    0 -0.61734197968E+02 -0.45519761877E+02  0.39061929724E+02  0.86075514950E+02  0.00000000000E+00 0.  1.
         12    1    5    5    0    0  0.20156555758E+02 -0.46681795973E+02  0.39167948459E+02  0.64184149147E+02  0.00000000000E+00 0. -1.
        -13    1    4    4    0    0  0.11092387395E+02  0.73396588063E+02  0.10886790263E+03  0.13176615810E+03  0.00000000000E+00 0.  1.
         14    1    4    4    0    0  0.20553340506E+02  0.44174363371E+01 -0.63667648228E+01  0.21965637803E+02  0.00000000000E+00 0. -1.
          5    1    3    3  501    0 -0.20722330972E+02 -0.22597358831E+01 -0.15368938196E+03  0.15516777221E+03  0.47000000000E+01 0.  1.
         -5    1    3    3    0  501  0.53928103900E+02 -0.92621019619E+02 -0.11129577162E+03  0.15458244547E+03  0.47000000000E+01 0.  1.
          1    1    1    2  502    0  0.61999602050E+01  0.89654691723E+02  0.18363018923E+04  0.18384996717E+04  0.00000000000E+00 0. -1.
          1    1    1    2  503    0 -0.29473818824E+02  0.19613597229E+02 -0.56548386536E+03  0.56659103520E+03  0.00000000000E+00 0. -1.
<mgrwt>
<rscale>  0 0.56423486E+02</rscale>
<asrwt>0</asrwt>
<pdfrwt beam="1">  1        2 0.30922031E+00 0.89923898E+02</pdfrwt>
<pdfrwt beam="2">  1        2 0.13472563E+00 0.35403378E+02</pdfrwt>
<totfact> 0.44341789E+01</totfact>
</mgrwt>
</event>
<event>
13    1  0.2742815E-008  0.5815836E+02  0.7546771E-02  0.1563009E+00
          2   -1    0    0  503    0  0.00000000000E+00  0.00000000000E+00  0.10851475477E+04  0.10851475477E+04  0.00000000000E+00 0. -1.
          2   -1    0    0  502    0 -0.00000000000E+00 -0.00000000000E+00 -0.13229482354E+04  0.13229482354E+04  0.00000000000E+00 0. -1.
         25    2    1    2    0    0  0.32074869789E+02 -0.17675768646E+02 -0.52662798686E+03  0.54249724454E+03  0.12499997486E+03 0.  0.
         24    2    1    2    0    0  0.79139081045E+01  0.14816437736E+02 -0.23535466388E+03  0.24952905374E+03  0.81183582578E+02 0.  0.
         24    2    1    2    0    0 -0.28057287660E+02 -0.51938522231E+02  0.16283088945E+02  0.10285815077E+03  0.82642838234E+02 0.  0.
        -11    1    4    4    0    0  0.13677300386E+01  0.45169087213E+02 -0.18442172791E+03  0.18987756805E+03  0.00000000000E+00 0.  1.
         12    1    4    4    0    0  0.65461780659E+01 -0.30352649478E+02 -0.50932935973E+02  0.59651485685E+02  0.00000000000E+00 0. -1.
        -13    1    5    5    0    0 -0.47904501761E+02 -0.13257701956E+02 -0.11818828027E+02  0.51091023146E+02  0.00000000000E+00 0.  1.
         14    1    5    5    0    0  0.19847214101E+02 -0.38680820275E+02  0.28101916972E+02  0.51767127622E+02  0.00000000000E+00 0. -1.
          5    1    3    3  501    0 -0.12433435238E+02 -0.11379360736E+02 -0.46868625986E+03  0.46901277205E+03  0.47000000000E+01 0. -1.
         -5    1    3    3    0  501  0.44508305027E+02 -0.62964079099E+01 -0.57941727002E+02  0.73484472489E+02  0.47000000000E+01 0. -1.
          1    1    1    2  502    0  0.70398922161E+01  0.57847936376E+02 -0.50087543043E+03  0.50425404375E+03  0.00000000000E+00 0. -1.
          1    1    1    2  503    0 -0.18971382449E+02 -0.30500832347E+01  0.10087743045E+04  0.10089572904E+04  0.00000000000E+00 0. -1.
<mgrwt>
<rscale>  0 0.33429225E+02</rscale>
<asrwt>0</asrwt>
<pdfrwt beam="1">  1        2 0.15958052E+00 0.19215004E+02</pdfrwt>
<pdfrwt beam="2">  1        2 0.19455121E+00 0.58158359E+02</pdfrwt>
<totfact> 0.91695260E+01</totfact>
</mgrwt>
</event>
<event>
13    1  0.2742815E-008  0.8785585E+02  0.7546771E-02  0.1392746E+00
         -1   -1    0    0    0  501 -0.00000000000E+00  0.00000000000E+00  0.16177008736E+03  0.16177008736E+03  0.00000000000E+00 0.  1.
          2   -1    0    0  503    0  0.00000000000E+00 -0.00000000000E+00 -0.13991160721E+04  0.13991160721E+04  0.00000000000E+00 0. -1.
         25    2    1    2    0    0  0.16970258257E+02  0.14482138160E+03 -0.11062829660E+03  0.22163855356E+03  0.12499522464E+03 0.  0.
         24    2    1    2    0    0  0.32141543070E+02 -0.96072980318E+02 -0.53237739047E+03  0.54741683792E+03  0.77307258474E+02 0.  0.
         24    2    1    2    0    0 -0.35404304488E+02  0.89908616312E+01 -0.34101257723E+03  0.35140115964E+03  0.76543430793E+02 0.  0.
        -13    1    5    5    0    0 -0.14046507484E+01  0.39245430567E+02 -0.15326853015E+03  0.15821952850E+03  0.00000000000E+00 0.  1.
         14    1    5    5    0    0 -0.33999653740E+02 -0.30254568936E+02 -0.18774404708E+03  0.19318163114E+03  0.00000000000E+00 0. -1.
        -13    1    4    4    0    0  0.27780078573E+01 -0.26554082789E+02 -0.33375007098E+02  0.42740235601E+02  0.00000000000E+00 0.  1.
         14    1    4    4    0    0  0.29363535212E+02 -0.69518897529E+02 -0.49900238337E+03  0.50467660232E+03  0.00000000000E+00 0. -1.
          5    1    3    3  502    0  0.40751428335E+02  0.11488293000E+02  0.57764123041E+01  0.42989728151E+02  0.47000000000E+01 0. -1.
         -5    1    3    3    0  502 -0.23781170078E+02  0.13333308860E+03 -0.11640470890E+03  0.17864882541E+03  0.47000000000E+01 0. -1.
          1    1    1    2  503    0  0.41032830274E+02  0.11713067817E+02 -0.32426579021E+03  0.32706144960E+03  0.00000000000E+00 0. -1.
         -2    1    1    2    0  501 -0.54740327112E+02 -0.69452330733E+02  0.70938069817E+02  0.11336815870E+03  0.00000000000E+00 0.  1.
<mgrwt>
<rscale>  0 0.61228867E+02</rscale>
<asrwt>0</asrwt>
<pdfrwt beam="2">  1        2 0.20575237E+00 0.42671877E+02</pdfrwt>
<pdfrwt beam="1">  1       -1 0.23789718E-01 0.87855854E+02</pdfrwt>
<totfact> 0.32268515E+02</totfact>
</mgrwt>
</event>
<event>
13    1  0.2742815E-008  0.1060438E+03  0.7546771E-02  0.1287072E+00
          2   -1    0    0  503    0  0.00000000000E+00  0.00000000000E+00  0.87201969549E+03  0.87201969549E+03  0.00000000000E+00 0. -1.
          2   -1    0    0  502    0 -0.00000000000E+00 -0.00000000000E+00 -0.21639540422E+04  0.21639540422E+04  0.00000000000E+00 0. -1.
         25    2    1    2    0    0 -0.32534709066E+02 -0.92462790438E+02 -0.45387943011E+03  0.48087341349E+03  0.12499931123E+03 0.  0.
         24    2    1    2    0    0  0.89337034832E+01  0.82375680231E+02 -0.26465603301E+03  0.28861794973E+03  0.79949617533E+02 0.  0.
         24    2    1    2    0    0  0.31098867690E+01  0.82527871486E+01  0.15131305787E+03  0.17165430837E+03  0.80571584375E+02 0.  0.
        -13    1    5    5    0    0  0.25115547993E+02 -0.11809196374E+02  0.13475302655E+03  0.13758134334E+03  0.00000000000E+00 0.  1.
         14    1    5    5    0    0 -0.22005661224E+02  0.20061983522E+02  0.16560031318E+02  0.34072965031E+02  0.00000000000E+00 0. -1.
        -13    1    4    4    0    0  0.20916754556E+02 -0.91498266178E+01 -0.53462436323E+02  0.58133140685E+02  0.00000000000E+00 0.  1.
         14    1    4    4    0    0 -0.11983051073E+02  0.91525506849E+02 -0.21119359669E+03  0.23048480904E+03  0.00000000000E+00 0. -1.
          5    1    3    3  501    0 -0.50016408697E+02 -0.68000790277E+02 -0.43887419094E+03  0.44694339026E+03  0.47000000000E+01 0.  1.
         -5    1    3    3    0  501  0.17481699631E+02 -0.24462000161E+02 -0.15005239171E+02  0.33930023231E+02  0.47000000000E+01 0.  1.
          1    1    1    2  502    0  0.17240282450E+02  0.10607834395E+03 -0.14037345754E+04  0.14078425340E+04  0.00000000000E+00 0. -1.
          1    1    1    2  503    0  0.32508363633E+01 -0.10424402089E+03  0.67902263397E+03  0.68698553207E+03  0.00000000000E+00 0. -1.
<mgrwt>
<rscale>  0 0.96845849E+02</rscale>
<asrwt>0</asrwt>
<pdfrwt beam="1">  1        2 0.12823819E+00 0.88445735E+02</pdfrwt>
<pdfrwt beam="2">  1        2 0.31822853E+00 0.10604376E+03</pdfrwt>
<totfact> 0.41571667E+01</totfact>
</mgrwt>
</event>
<event>
13    1  0.2742815E-008  0.5397960E+02  0.7546771E-02  0.1495512E+00
          4   -1    0    0  503    0 -0.00000000000E+00  0.00000000000E+00  0.99795347900E+03  0.99795347900E+03  0.00000000000E+00 0. -1.
          2   -1    0    0  502    0  0.00000000000E+00 -0.00000000000E+00 -0.12493097688E+04  0.12493097688E+04  0.00000000000E+00 0. -1.
         25    2    1    2    0    0  0.14940878741E+03  0.70691481288E+02  0.12364430252E+02  0.20760008722E+03  0.12499858319E+03 0.  0.
         24    2    1    2    0    0 -0.13050860007E+03 -0.23798410021E+02 -0.23062074326E+03  0.27825644994E+03  0.81497642286E+02 0.  0.
         24    2    1    2    0    0 -0.14926280794E+02  0.36050349841E+02 -0.33839882701E+03  0.34991489768E+03  0.80026545046E+02 0.  0.
        -13    1    5    5    0    0 -0.46476614597E+02  0.87206790906E+01 -0.17833716533E+03  0.18450005552E+03  0.00000000000E+00 0.  1.
         14    1    5    5    0    0  0.31550333804E+02  0.27329670751E+02 -0.16006166168E+03  0.16541484216E+03  0.00000000000E+00 0. -1.
        -13    1    4    4    0    0 -0.57161590213E+02 -0.45246467544E+02 -0.15220297223E+03  0.16876147361E+03  0.00000000000E+00 0.  1.
         14    1    4    4    0    0 -0.73347009860E+02  0.21448057523E+02 -0.78417771028E+02  0.10949497632E+03  0.00000000000E+00 0. -1.
          5    1    3    3  501    0  0.15121782762E+03  0.62957394786E+02  0.48028713565E+02  0.17076097995E+03  0.47000000000E+01 0.  1.
         -5    1    3    3    0  501 -0.18090402061E+01  0.77340865016E+01 -0.35664283313E+02  0.36839107274E+02  0.47000000000E+01 0.  1.
          1    1    1    2  502    0 -0.12751636754E+02 -0.29715884287E+02 -0.55177508338E+03  0.55272179319E+03  0.00000000000E+00 0. -1.
          3    1    1    2  503    0  0.87777302112E+01 -0.53227536822E+02  0.85707393359E+03  0.85877001978E+03  0.00000000000E+00 0. -1.
<mgrwt>
<rscale>  0 0.41779204E+02</rscale>
<asrwt>0</asrwt>
<pdfrwt beam="2">  1        2 0.18372202E+00 0.32336327E+02</pdfrwt>
<pdfrwt beam="1">  1        4 0.14675786E+00 0.53979598E+02</pdfrwt>
<totfact> 0.39961103E+00</totfact>
</mgrwt>
</event>
<event>
13    1  0.2742815E-008  0.1465776E+03  0.7546771E-02  0.1325556E+00
          2   -1    0    0  503    0  0.00000000000E+00  0.00000000000E+00  0.32853299974E+04  0.32853299974E+04  0.00000000000E+00 0. -1.
          2   -1    0    0  502    0 -0.00000000000E+00 -0.00000000000E+00 -0.23966339920E+04  0.23966339920E+04  0.00000000000E+00 0. -1.
         25    2    1    2    0    0 -0.19930451200E+03 -0.53410987968E+02 -0.28058181351E+03  0.37003511779E+03  0.12499924873E+03 0.  0.
         24    2    1    2    0    0 -0.42858707049E+01  0.23689986828E+03 -0.20037145832E+01  0.25035417508E+03  0.80828719084E+02 0.  0.
         24    2    1    2    0    0  0.14683565022E+02 -0.25471007191E+02  0.44616376186E+03  0.45421276907E+03  0.79892164218E+02 0.  0.
        -11    1    5    5    0    0  0.43225814011E+02 -0.26900518956E+02  0.19929635053E+03  0.20569672883E+03  0.00000000000E+00 0.  1.
         12    1    5    5    0    0 -0.28542248990E+02  0.14295117650E+01  0.24686741133E+03  0.24851604025E+03  0.00000000000E+00 0. -1.
        -13    1    4    4    0    0  0.63334645258E+01  0.19870080457E+01 -0.13369775013E+02  0.14926883726E+02  0.00000000000E+00 0.  1.
         14    1    4    4    0    0 -0.10619335231E+02  0.23491286023E+03  0.11366060430E+02  0.23542729135E+03  0.00000000000E+00 0. -1.
          5    1    3    3  501    0 -0.20497575512E+03 -0.72867052693E+02 -0.23697609276E+03  0.32172103769E+03  0.47000000000E+01 0.  1.
         -5    1    3    3    0  501  0.56712431201E+01  0.19456064725E+02 -0.43605720752E+02  0.48314080095E+02  0.47000000000E+01 0.  1.
          1    1    1    2  502    0 -0.11984299536E+02 -0.43408062927E+02 -0.19358439958E+04  0.19363676974E+04  0.00000000000E+00 0. -1.
          1    1    1    2  503    0  0.20089111722E+03 -0.11460981019E+03  0.26609617674E+04  0.26709942301E+04  0.00000000000E+00 0. -1.
<mgrwt>
<rscale>  0 0.81244608E+02</rscale>
<asrwt>0</asrwt>
<pdfrwt beam="1">  1        2 0.48313676E+00 0.14657760E+03</pdfrwt>
<pdfrwt beam="2">  1        2 0.35244618E+00 0.45032026E+02</pdfrwt>
<totfact> 0.19278985E+00</totfact>
</mgrwt>
</event>
<event>
13    1  0.2742815E-008  0.9672256E+02  0.7546771E-02  0.1296147E+00
          2   -1    0    0  502    0  0.00000000000E+00  0.00000000000E+00  0.27308167928E+04  0.27308167928E+04  0.00000000000E+00 0. -1.
          2   -1    0    0  503    0 -0.00000000000E+00 -0.00000000000E+00 -0.19390977214E+04  0.19390977214E+04  0.00000000000E+00 0. -1.
         25    2    1    2    0    0 -0.60083090678E+02  0.28727738022E+03 -0.30323604234E+03  0.44013075897E+03  0.12499886657E+03 0.  0.
         24    2    1    2    0    0  0.10410037099E+03 -0.82632296249E+03 -0.88527630772E+03  0.12183815462E+04  0.84219507500E+02 0.  0.
         24    2    1    2    0    0  0.71318017812E+02  0.46211457318E+03  0.53878602853E+03  0.71797903682E+03  0.81039338331E+02 0.  0.
        -11    1    4    4    0    0  0.41138166546E+02 -0.44646996605E+03 -0.53306175838E+03  0.69655051330E+03  0.00000000000E+00 0.  1.
         12    1    4    4    0    0  0.62962204446E+02 -0.37985299643E+03 -0.35221454934E+03  0.52183103286E+03  0.00000000000E+00 0. -1.
        -13    1    5    5    0    0  0.53373777676E+02  0.40518457119E+03  0.42579623465E+03  0.59019126587E+03  0.00000000000E+00 0.  1.
         14    1    5    5    0    0  0.17944240136E+02  0.56930001993E+02  0.11298979388E+03  0.12778777094E+03  0.00000000000E+00 0. -1.
          5    1    3    3  501    0 -0.22995321141E+02  0.87121377819E+02 -0.18204070022E+03  0.20317437290E+03  0.47000000000E+01 0.  1.
         -5    1    3    3    0  501 -0.37087769537E+02  0.20015600240E+03 -0.12119534212E+03  0.23695638607E+03  0.47000000000E+01 0.  1.
          1    1    1    2  502    0 -0.19203092065E+02  0.86993473972E+02  0.18608719706E+04  0.18630032513E+04  0.00000000000E+00 0. -1.
          1    1    1    2  503    0 -0.96132206061E+02 -0.10062464890E+02 -0.41942657777E+03  0.43041992099E+03  0.00000000000E+00 0. -1.
<mgrwt>
<rscale>  0 0.92826682E+02</rscale>
<asrwt>0</asrwt>
<pdfrwt beam="1">  1        2 0.40159071E+00 0.89087728E+02</pdfrwt>
<pdfrwt beam="2">  1        2 0.28516143E+00 0.96722557E+02</pdfrwt>
<totfact> 0.62257992E+00</totfact>
</mgrwt>
</event>
<event>
13    1  0.2742815E-008  0.1376854E+03  0.7546771E-02  0.1305423E+00
          2   -1    0    0  502    0  0.00000000000E+00  0.00000000000E+00  0.77933777327E+03  0.77933777327E+03  0.00000000000E+00 0. -1.
          2   -1    0    0  503    0 -0.00000000000E+00 -0.00000000000E+00 -0.21876426413E+04  0.21876426413E+04  0.00000000000E+00 0. -1.
         25    2    1    2    0    0  0.16362443827E+03  0.10248372009E+03 -0.29636875706E+03  0.37514794302E+03  0.12500267720E+03 0.  0.
         24    2    1    2    0    0 -0.17447514969E+03 -0.59293044627E+02  0.12720621984E+02  0.20314617725E+03  0.84553604939E+02 0.  0.
         24    2    1    2    0    0  0.84699353751E+02  0.87426951758E+02 -0.39911195030E+02  0.15132241658E+03  0.80548853819E+02 0.  0.
        -11    1    5    5    0    0 -0.73919497548E+01  0.14359480276E+02  0.14572836487E+02  0.21753233282E+02  0.00000000000E+00 0.  1.
         12    1    5    5    0    0  0.92091303506E+02  0.73067471482E+02 -0.54484031517E+02  0.12956918330E+03  0.00000000000E+00 0. -1.
        -13    1    4    4    0    0 -0.13400864834E+03 -0.76607386785E+02  0.27348673411E+02  0.15676402482E+03  0.00000000000E+00 0.  1.
         14    1    4    4    0    0 -0.40466501349E+02  0.17314342158E+02 -0.14628051427E+02  0.46382152433E+02  0.00000000000E+00 0. -1.
          5    1    3    3  501    0  0.98395227414E+02  0.79869761807E+01 -0.20764001281E+03  0.22996059986E+03  0.47000000000E+01 0.  1.
         -5    1    3    3    0  501  0.65229210858E+02  0.94496743908E+02 -0.88728744245E+02  0.14518734316E+03  0.47000000000E+01 0.  1.
          1    1    1    2  502    0 -0.10847798061E+03 -0.84764503233E+02  0.56758114152E+03  0.58403839385E+03  0.00000000000E+00 0. -1.
          1    1    1    2  503    0  0.34629338275E+02 -0.45853123987E+02 -0.16523266794E+04  0.16533254838E+04  0.00000000000E+00 0. -1.
<mgrwt>
<rscale>  0 0.88946409E+02</rscale>
<asrwt>0</asrwt>
<pdfrwt beam="1">  1        2 0.11460850E+00 0.13768544E+03</pdfrwt>
<pdfrwt beam="2">  1        2 0.32171215E+00 0.57460422E+02</pdfrwt>
<totfact> 0.49119169E+01</totfact>
</mgrwt>
</event>
<event>
13    1  0.2742815E-008  0.8694443E+02  0.7546771E-02  0.1423228E+00
          2   -1    0    0  502    0  0.00000000000E+00  0.00000000000E+00  0.12260789176E+04  0.12260789176E+04  0.00000000000E+00 0. -1.
          2   -1    0    0  503    0 -0.00000000000E+00 -0.00000000000E+00 -0.21314419558E+04  0.21314419558E+04  0.00000000000E+00 0. -1.
         25    2    1    2    0    0 -0.46475069193E+03 -0.31776564252E+03 -0.46327549124E+03  0.73974152702E+03  0.12500054724E+03 0.  0.
         24    2    1    2    0    0  0.56634870814E+03  0.19185067094E+03 -0.25574719937E+03  0.65539590521E+03  0.81114877981E+02 0.  0.
         24    2    1    2    0    0 -0.13364113863E+03  0.49961358253E+02  0.20812733188E+03  0.26542762518E+03  0.82333144476E+02 0.  0.
        -13    1    4    4    0    0  0.28296774912E+03  0.66292914927E+02 -0.91962091171E+02  0.30483195998E+03  0.00000000000E+00 0.  1.
         14    1    4    4    0    0  0.28338095902E+03  0.12555775601E+03 -0.16378510819E+03  0.35056394523E+03  0.00000000000E+00 0. -1.
        -13    1    5    5    0    0 -0.96110410723E+02 -0.11445487023E+01  0.91643017551E+02  0.13280423076E+03  0.00000000000E+00 0.  1.
         14    1    5    5    0    0 -0.37530727907E+02  0.51105906956E+02  0.11648431433E+03  0.13262339442E+03  0.00000000000E+00 0. -1.
          5    1    3    3  501    0 -0.43807454609E+03 -0.29971578549E+03 -0.46697213287E+03  0.70698226490E+03  0.47000000000E+01 0.  1.
         -5    1    3    3    0  501 -0.26676145833E+02 -0.18049857029E+02  0.36966416359E+01  0.32759262120E+02  0.47000000000E+01 0.  1.
          1    1    1    2  502    0 -0.30316746769E+02  0.15318605940E+02  0.64899049548E+03  0.64987877950E+03  0.00000000000E+00 0. -1.
          1    1    1    2  503    0  0.62359869183E+02  0.60635007388E+02 -0.10434581750E+04  0.10470770365E+04  0.00000000000E+00 0. -1.
<mgrwt>
<rscale>  0 0.54343824E+02</rscale>
<asrwt>0</asrwt>
<pdfrwt beam="1">  1        2 0.18030572E+00 0.33967114E+02</pdfrwt>
<pdfrwt beam="2">  1        2 0.31344734E+00 0.86944427E+02</pdfrwt>
<totfact> 0.29640178E+01</totfact>
</mgrwt>
</event>
<event>
13    1  0.2742815E-008  0.5834439E+02  0.7546771E-02  0.1443531E+00
          2   -1    0    0  502    0  0.00000000000E+00  0.00000000000E+00  0.12794497417E+04  0.12794497417E+04  0.00000000000E+00 0. -1.
          2   -1    0    0  503    0 -0.00000000000E+00 -0.00000000000E+00 -0.35556508694E+03  0.35556508694E+03  0.00000000000E+00 0. -1.
         25    2    1    2    0    0 -0.67287719048E+01 -0.35078021583E+02 -0.40023205146E+02  0.13602472478E+03  0.12500049933E+03 0.  0.
         24    2    1    2    0    0 -0.58477896133E+02  0.10416317573E+03  0.10424545328E+03  0.18246217473E+03  0.90308909654E+02 0.  0.
         24    2    1    2    0    0  0.36677279177E+02 -0.28248277533E+02  0.20703798123E+03  0.22706178888E+03  0.80926771273E+02 0.  0.
        -11    1    4    4    0    0 -0.28847138752E+02  0.10288873978E+03  0.10875161778E+03  0.15246364995E+03  0.00000000000E+00 0.  1.
         12    1    4    4    0    0 -0.29630757381E+02  0.12744359422E+01 -0.45061644985E+01  0.29998524771E+02  0.00000000000E+00 0. -1.
        -13    1    5    5    0    0 -0.25514831489E+02 -0.40738385618E+01  0.46242115372E+02  0.52971086648E+02  0.00000000000E+00 0.  1.
         14    1    5    5    0    0  0.62192110666E+02 -0.24174438972E+02  0.16079586585E+03  0.17409070223E+03  0.00000000000E+00 0. -1.
          5    1    3    3  501    0 -0.27962985686E+02 -0.26572294921E+02  0.38138802710E+02  0.54448817232E+02  0.47000000000E+01 0.  1.
         -5    1    3    3    0  501  0.21234213781E+02 -0.85057266628E+01 -0.78162007856E+02  0.81575907553E+02  0.47000000000E+01 0.  1.
          1    1    1    2  502    0  0.57850656646E+02 -0.88005269811E+01  0.86789152837E+03  0.86986197340E+03  0.00000000000E+00 0. -1.
          1    1    1    2  503    0 -0.29321267785E+02 -0.32036349628E+02 -0.21526710301E+03  0.21960416681E+03  0.00000000000E+00 0. -1.
<mgrwt>
<rscale>  0 0.50337158E+02</rscale>
<asrwt>0</asrwt>
<pdfrwt beam="1">  1        2 0.18815437E+00 0.58344393E+02</pdfrwt>
<pdfrwt beam="2">  1        2 0.52288984E-01 0.43428843E+02</pdfrwt>
<totfact> 0.31643884E+02</totfact>
</mgrwt>
</event>
<event>
13    1  0.2742815E-008  0.6215108E+02  0.7546771E-02  0.1391056E+00
          2   -1    0    0  502    0  0.00000000000E+00  0.00000000000E+00  0.33287307406E+04  0.33287307406E+04  0.00000000000E+00 0. -1.
          2   -1    0    0  503    0 -0.00000000000E+00 -0.00000000000E+00 -0.35060800283E+04  0.35060800283E+04  0.00000000000E+00 0. -1.
         25    2    1    2    0    0 -0.54978974778E+02 -0.93296941424E+02 -0.45327523517E+03  0.48250030530E+03  0.12498439440E+03 0.  0.
         24    2    1    2    0    0 -0.14456685002E+04 -0.41641158710E+03 -0.42035159972E+03  0.15646723671E+04  0.90266974622E+02 0.  0.
         24    2    1    2    0    0  0.14521986120E+04  0.53759381353E+03 -0.18501632151E+03  0.15615050362E+04  0.78606754037E+02 0.  0.
        -11    1    5    5    0    0  0.10037845520E+04  0.41001433829E+03 -0.12871808998E+03  0.10919082064E+04  0.00000000000E+00 0.  1.
         12    1    5    5    0    0  0.44841406001E+03  0.12757947524E+03 -0.56298231536E+02  0.46959682984E+03  0.00000000000E+00 0. -1.
        -13    1    4    4    0    0 -0.11910395198E+04 -0.31397341325E+03 -0.32201313507E+03  0.12731248568E+04  0.00000000000E+00 0.  1.
         14    1    4    4    0    0 -0.25462898041E+03 -0.10243817385E+03 -0.98338464644E+02  0.29154751029E+03  0.00000000000E+00 0. -1.
          5    1    3    3  501    0 -0.91212132993E+02 -0.46219379475E+02 -0.23690187722E+03  0.25807067574E+03  0.47000000000E+01 0. -1.
         -5    1    3    3    0  501  0.36233158215E+02 -0.47077561949E+02 -0.21637335795E+03  0.22442962956E+03  0.47000000000E+01 0. -1.
          1    1    1    2  502    0  0.50649572443E+02  0.34250108763E+02  0.20524335884E+04  0.20533441222E+04  0.00000000000E+00 0. -1.
          1    1    1    2  503    0 -0.22007094827E+01 -0.62135393764E+02 -0.11711397197E+04  0.11727889381E+04  0.00000000000E+00 0. -1.
<mgrwt>
<rscale>  0 0.61644908E+02</rscale>
<asrwt>0</asrwt>
<pdfrwt beam="1">  1        2 0.48951923E+00 0.61142858E+02</pdfrwt>
<pdfrwt beam="2">  1        2 0.51560000E+00 0.62151081E+02</pdfrwt>
<totfact> 0.53411390E-01</totfact>
</mgrwt>
</event>
<event>
13    1  0.2742815E-008  0.4428869E+02  0.7546771E-02  0.1581232E+00
         -1   -1    0    0    0  501 -0.00000000000E+00  0.00000000000E+00  0.18676265694E+03  0.18676265694E+03  0.00000000000E+00 0.  1.
          2   -1    0    0  503    0  0.00000000000E+00 -0.00000000000E+00 -0.93425613086E+03  0.93425613086E+03  0.00000000000E+00 0. -1.
         25    2    1    2    0    0 -0.48362074744E+01  0.92819324838E+02 -0.33751847391E+01  0.15580684747E+03  0.12500226351E+03 0.  0.
         24    2    1    2    0    0  0.52542562219E+02 -0.12228872846E+03 -0.54770768909E+02  0.17253399846E+03  0.95146673840E+02 0.  0.
         24    2    1    2    0    0  0.11004375401E+02  0.48122630260E+02 -0.18697717692E+03  0.20995861268E+03  0.81763503656E+02 0.  0.
        -11    1    4    4    0    0  0.47327125225E+02 -0.70179871920E+02 -0.78128651858E+02  0.11519182890E+03  0.00000000000E+00 0.  1.
         12    1    4    4    0    0  0.52154369935E+01 -0.52108856543E+02  0.23357882949E+02  0.57342169554E+02  0.00000000000E+00 0. -1.
        -13    1    5    5    0    0  0.40836025091E+02  0.48319952109E+02 -0.14735201135E+03  0.16035901586E+03  0.00000000000E+00 0.  1.
         14    1    5    5    0    0 -0.29831649690E+02 -0.19732184914E+00 -0.39625165567E+02  0.49599596827E+02  0.00000000000E+00 0. -1.
          5    1    3    3  502    0 -0.60331766660E+01  0.82394151718E+01 -0.55306939210E+02  0.56437883623E+02  0.47000000000E+01 0.  1.
         -5    1    3    3    0  502  0.11969691916E+01  0.84579909666E+02  0.51931754471E+02  0.99368963851E+02  0.47000000000E+01 0.  1.
          1    1    1    2  503    0 -0.36911098632E+02 -0.24307359279E+02 -0.53841043193E+03  0.54022131588E+03  0.00000000000E+00 0. -1.
         -2    1    1    2    0  501 -0.21799631514E+02  0.56541326442E+01  0.36040088577E+02  0.42498013304E+02  0.00000000000E+00 0.  1.
<mgrwt>
<rscale>  0 0.31582009E+02</rscale>
<asrwt>0</asrwt>
<pdfrwt beam="2">  1        2 0.13739061E+00 0.44288688E+02</pdfrwt>
<pdfrwt beam="1">  1       -1 0.27465097E-01 0.22520949E+02</pdfrwt>
<totfact> 0.42386486E+02</totfact>
</mgrwt>
</event>
<event>
13    1  0.2742815E-008  0.1057226E+03  0.7546771E-02  0.1496905E+00
          2   -1    0    0  502    0  0.00000000000E+00  0.00000000000E+00  0.12138972150E+04  0.12138972150E+04  0.00000000000E+00 0. -1.
          2   -1    0    0  503    0 -0.00000000000E+00 -0.00000000000E+00 -0.23381675991E+04  0.23381675991E+04  0.00000000000E+00 0. -1.
         25    2    1    2    0    0  0.73705047865E+02 -0.10398326941E+03 -0.41824437464E+03  0.45475096645E+03  0.12500052068E+03 0.  0.
         24    2    1    2    0    0 -0.67770081874E+01  0.20099448426E+02  0.17282865601E+02  0.85139788663E+02  0.80623634892E+02 0.  0.
         24    2    1    2    0    0 -0.94955339010E+02 -0.10336203190E+02 -0.42830946749E+02  0.12762396734E+03  0.73007078675E+02 0.  0.
        -11    1    5    5    0    0 -0.10183875668E+03 -0.13079574239E+02 -0.52598458121E+02  0.11536379597E+03  0.00000000000E+00 0.  1.
         12    1    5    5    0    0  0.68834176689E+01  0.27433710499E+01  0.97675113720E+01  0.12260171366E+02  0.00000000000E+00 0. -1.
        -13    1    4    4    0    0 -0.41234756573E+02  0.25497628041E+02  0.10628543696E+02  0.49632651817E+02  0.00000000000E+00 0.  1.
         14    1    4    4    0    0  0.34457748385E+02 -0.53981796150E+01  0.66543219050E+01  0.35507136845E+02  0.00000000000E+00 0. -1.
          5    1    3    3  501    0  0.26599957911E+02  0.83709700638E+01 -0.22146497046E+03  0.22326319456E+03  0.47000000000E+01 0. -1.
         -5    1    3    3    0  501  0.47105089954E+02 -0.11235423948E+03 -0.19677940418E+03  0.23148777189E+03  0.47000000000E+01 0. -1.
          1    1    1    2  502    0  0.15351789481E+02  0.10455066050E+03  0.10994652839E+04  0.11045317689E+04  0.00000000000E+00 0. -1.
          1    1    1    2  503    0  0.12675509851E+02 -0.10330636326E+02 -0.17799432122E+04  0.17800183227E+04  0.00000000000E+00 0. -1.
<mgrwt>
<rscale>  0 0.41578655E+02</rscale>
<asrwt>0</asrwt>
<pdfrwt beam="1">  1        2 0.17851430E+00 0.10572259E+03</pdfrwt>
<pdfrwt beam="2">  1        2 0.34384817E+00 0.16352082E+02</pdfrwt>
<totfact> 0.27992426E+01</totfact>
</mgrwt>
</event>
<event>
13    1  0.2742815E-008  0.9843968E+02  0.7546771E-02  0.1308933E+00
          2   -1    0    0  503    0  0.00000000000E+00  0.00000000000E+00  0.24815464931E+04  0.24815464931E+04  0.00000000000E+00 0. -1.
          2   -1    0    0  502    0 -0.00000000000E+00 -0.00000000000E+00 -0.18607507334E+04  0.18607507334E+04  0.00000000000E+00 0. -1.
         25    2    1    2    0    0  0.75171867790E+02  0.43362306708E+02 -0.52333374916E+03  0.54500809618E+03  0.12499805015E+03 0.  0.
         24    2    1    2    0    0  0.38949638136E+03 -0.38229090623E+03 -0.23377032125E+03  0.59917317245E+03  0.80660767414E+02 0.  0.
         24    2    1    2    0    0 -0.50288560563E+03  0.28020883202E+03  0.13182944594E+04  0.14425145367E+04  0.10741035810E+03 0.  0.
        -11    1    4    4    0    0  0.32217020924E+02 -0.61077144612E+02 -0.12300046497E+02  0.70140182314E+02  0.00000000000E+00 0.  1.
         12    1    4    4    0    0  0.35727936044E+03 -0.32121376162E+03 -0.22147027475E+03  0.52903299013E+03  0.00000000000E+00 0. -1.
        -11    1    5    5    0    0 -0.34817254636E+03  0.14477432427E+03  0.78229578124E+03  0.86842985690E+03  0.00000000000E+00 0.  1.
         12    1    5    5    0    0 -0.15471305927E+03  0.13543450775E+03  0.53599867816E+03  0.57408467981E+03  0.00000000000E+00 0. -1.
          5    1    3    3  501    0 -0.13665723729E+01  0.37288078708E+02 -0.38411414914E+03  0.38595082317E+03  0.47000000000E+01 0.  1.
         -5    1    3    3    0  501  0.76538440163E+02  0.60742280007E+01 -0.13921960002E+03  0.15905727301E+03  0.47000000000E+01 0.  1.
          1    1    1    2  502    0  0.98125941579E+02  0.90225049331E+01 -0.84345549912E+03  0.84919213668E+03  0.00000000000E+00 0. -1.
          1    1    1    2  503    0 -0.59908585105E+02  0.49697262567E+02  0.90306086983E+03  0.90640928454E+03  0.00000000000E+00 0. -1.
<mgrwt>
<rscale>  0 0.87535206E+02</rscale>
<asrwt>0</asrwt>
<pdfrwt beam="1">  1        2 0.36493331E+00 0.77838657E+02</pdfrwt>
<pdfrwt beam="2">  1        2 0.27363981E+00 0.98439679E+02</pdfrwt>
<totfact> 0.91981153E+00</totfact>
</mgrwt>
</event>
<event>
13    1  0.2742815E-008  0.1458315E+03  0.7546771E-02  0.1285398E+00
          2   -1    0    0  503    0  0.00000000000E+00  0.00000000000E+00  0.32027625783E+04  0.32027625783E+04  0.00000000000E+00 0. -1.
          2   -1    0    0  502    0 -0.00000000000E+00 -0.00000000000E+00 -0.24236463960E+04  0.24236463960E+04  0.00000000000E+00 0. -1.
         25    2    1    2    0    0  0.11300100406E+03 -0.57916698316E+02 -0.67450597070E+03  0.69764391120E+03  0.12500060585E+03 0.  0.
         24    2    1    2    0    0  0.65184062257E+01 -0.49279872737E+02 -0.51537341187E+01  0.92624501801E+02  0.77985523541E+02 0.  0.
         24    2    1    2    0    0  0.36392712866E+02 -0.70912252179E+02  0.39117426069E+03  0.40712589647E+03  0.79882515534E+02 0.  0.
        -11    1    5    5    0    0 -0.13030271745E+01 -0.26411681654E+02  0.28299214429E+03  0.28422496114E+03  0.00000000000E+00 0.  1.
         12    1    5    5    0    0  0.37695740040E+02 -0.44500570525E+02  0.10818211640E+03  0.12290093532E+03  0.00000000000E+00 0. -1.
        -13    1    4    4    0    0  0.29764660369E+02 -0.57945612755E+02  0.60094112062E+01  0.65419737599E+02  0.00000000000E+00 0.  1.
         14    1    4    4    0    0 -0.23246254144E+02  0.86657400179E+01 -0.11163145325E+02  0.27204764203E+02  0.00000000000E+00 0. -1.
          5    1    3    3  501    0  0.86279359545E+02 -0.80111799510E+02 -0.63033590869E+03  0.64125461097E+03  0.47000000000E+01 0.  1.
         -5    1    3    3    0  501  0.26721644517E+02  0.22195101194E+02 -0.44170062007E+02  0.56389300230E+02  0.47000000000E+01 0.  1.
          1    1    1    2  502    0 -0.30858163995E+02 -0.57590709564E+02 -0.16735915182E+04  0.16748664083E+04  0.00000000000E+00 0. -1.
          1    1    1    2  503    0 -0.12505395916E+03  0.23569953280E+03  0.27411931447E+04  0.27541482565E+04  0.00000000000E+00 0. -1.
<mgrwt>
<rscale>  0 0.97612423E+02</rscale>
<asrwt>0</asrwt>
<pdfrwt beam="1">  1        2 0.47099450E+00 0.14583151E+03</pdfrwt>
<pdfrwt beam="2">  1        2 0.35641859E+00 0.65336943E+02</pdfrwt>
<totfact> 0.19833224E+00</totfact>
</mgrwt>
</event>
<event>
13    1  0.2742815E-008  0.1818195E+03  0.7546771E-02  0.1238721E+00
          2   -1    0    0  502    0  0.00000000000E+00  0.00000000000E+00  0.22062173687E+04  0.22062173687E+04  0.00000000000E+00 0. -1.
          2   -1    0    0  503    0 -0.00000000000E+00 -0.00000000000E+00 -0.37450142734E+04  0.37450142734E+04  0.00000000000E+00 0. -1.
         25    2    1    2    0    0 -0.47281622893E+03  0.11776110682E+02 -0.13666635950E+04  0.14515812118E+04  0.12499907797E+03 0.  0.
         24    2    1    2    0    0 -0.62602774808E+03  0.77932240167E+03 -0.79049660064E+03  0.12768203421E+04  0.78301745742E+02 0.  0.
         24    2    1    2    0    0  0.99587171974E+03 -0.82893170140E+03  0.93107545791E+03  0.15970706222E+04  0.69604715013E+02 0.  0.
        -11    1    5    5    0    0  0.68265392944E+03 -0.53828441768E+03  0.59538851382E+03  0.10536859039E+04  0.00000000000E+00 0.  1.
         12    1    5    5    0    0  0.31321779030E+03 -0.29064728372E+03  0.33568694409E+03  0.54338471834E+03  0.00000000000E+00 0. -1.
        -13    1    4    4    0    0 -0.56182682066E+03  0.66361049496E+03 -0.66765221187E+03  0.10962607999E+04  0.00000000000E+00 0.  1.
         14    1    4    4    0    0 -0.64200927427E+02  0.11571190670E+03 -0.12284438877E+03  0.18055954223E+03  0.00000000000E+00 0. -1.
          5    1    3    3  501    0 -0.78963371888E+02 -0.16759969086E+02 -0.38618998384E+03  0.39456419539E+03  0.47000000000E+01 0. -1.
         -5    1    3    3    0  501 -0.39385285704E+03  0.28536079768E+02 -0.98047361111E+03  0.10570170164E+04  0.47000000000E+01 0. -1.
          1    1    1    2  502    0  0.14651823974E+03  0.10824910974E+03  0.64206078296E+03  0.66740356109E+03  0.00000000000E+00 0. -1.
          1    1    1    2  503    0 -0.43545982472E+02 -0.70415920691E+02 -0.95477294998E+03  0.95835590492E+03  0.00000000000E+00 0. -1.
<mgrwt>
<rscale>  0 0.12269212E+03</rscale>
<asrwt>0</asrwt>
<pdfrwt beam="1">  1        2 0.32444374E+00 0.18181953E+03</pdfrwt>
<pdfrwt beam="2">  1        2 0.55073738E+00 0.82792841E+02</pdfrwt>
<totfact> 0.11898301E+00</totfact>
</mgrwt>
</event>
<event>
13    1  0.2742815E-008  0.5214821E+02  0.7546771E-02  0.1565772E+00
          2   -1    0    0  503    0  0.00000000000E+00  0.00000000000E+00  0.31389984599E+04  0.31389984599E+04  0.00000000000E+00 0. -1.
          2   -1    0    0  502    0 -0.00000000000E+00 -0.00000000000E+00 -0.21429553249E+04  0.21429553249E+04  0.00000000000E+00 0. -1.
         25    2    1    2    0    0  0.43291602316E+02 -0.53170953288E+02 -0.89459949550E+03  0.90588914038E+03  0.12500225683E+03 0.  0.
         24    2    1    2    0    0  0.25158461725E+02 -0.88253405890E+02 -0.10677533105E+03  0.16164728320E+03  0.79418266147E+02 0.  0.
         24    2    1    2    0    0 -0.47807855956E+02  0.72537773736E+02  0.31239386981E+03  0.33419862525E+03  0.80941160842E+02 0.  0.
        -11    1    4    4    0    0 -0.11379094014E+02 -0.79700530163E+02 -0.89358306556E+02  0.12027703538E+03  0.00000000000E+00 0.  1.
         12    1    4    4    0    0  0.36537555739E+02 -0.85528757265E+01 -0.17417024491E+02  0.41370247820E+02  0.00000000000E+00 0. -1.
        -13    1    5    5    0    0 -0.55719004915E+02  0.51891398878E+02  0.29856324867E+03  0.30811903259E+03  0.00000000000E+00 0.  1.
         14    1    5    5    0    0  0.79111489589E+01  0.20646374858E+02  0.13830621140E+02  0.26079592668E+02  0.00000000000E+00 0. -1.
          5    1    3    3  501    0  0.63364788077E+01 -0.89075569134E+02 -0.50309634838E+03  0.51098202877E+03  0.47000000000E+01 0.  1.
         -5    1    3    3    0  501  0.36955123509E+02  0.35904615846E+02 -0.39150314712E+03  0.39490711161E+03  0.47000000000E+01 0.  1.
          1    1    1    2  502    0 -0.11690113259E+02  0.17517073233E+02 -0.10972519921E+04  0.10974540723E+04  0.00000000000E+00 0. -1.
          1    1    1    2  503    0 -0.89520948261E+01  0.51369512208E+02  0.27822760838E+04  0.27827646637E+04  0.00000000000E+00 0. -1.
<mgrwt>
<rscale>  0 0.33139408E+02</rscale>
<asrwt>0</asrwt>
<pdfrwt beam="1">  1        2 0.46161742E+00 0.52148214E+02</pdfrwt>
<pdfrwt beam="2">  1        2 0.31514049E+00 0.21059596E+02</pdfrwt>
<totfact> 0.40058798E+00</totfact>
</mgrwt>
</event>
<event>
13    1  0.2742815E-008  0.1096578E+03  0.7546771E-02  0.1283395E+00
          2   -1    0    0  503    0  0.00000000000E+00  0.00000000000E+00  0.30161902131E+04  0.30161902131E+04  0.00000000000E+00 0. -1.
         -1   -1    0    0    0  501 -0.00000000000E+00 -0.00000000000E+00 -0.15011374151E+04  0.15011374151E+04  0.00000000000E+00 0.  1.
         25    2    1    2    0    0  0.11665625728E+03 -0.13290873908E+03 -0.28886307435E+03  0.36102808786E+03  0.12500395679E+03 0.  0.
         24    2    1    2    0    0  0.16976578719E+03 -0.25006711281E+02 -0.16530254362E+03  0.25159979640E+03  0.80819357280E+02 0.  0.
         24    2    1    2    0    0 -0.16579336428E+03  0.75416872508E+02  0.91382035544E+03  0.93542057733E+03  0.82273143700E+02 0.  0.
        -11    1    4    4    0    0  0.15658163624E+03 -0.46565208687E+02 -0.13343615265E+03  0.21092969042E+03  0.00000000000E+00 0.  1.
         12    1    4    4    0    0  0.13184150951E+02  0.21558497406E+02 -0.31866390967E+02  0.40670105974E+02  0.00000000000E+00 0. -1.
        -11    1    5    5    0    0 -0.11581096872E+03  0.14384021056E+02  0.44706506912E+03  0.46204572995E+03  0.00000000000E+00 0.  1.
         12    1    5    5    0    0 -0.49982395559E+02  0.61032851452E+02  0.46675528632E+03  0.47337484738E+03  0.00000000000E+00 0. -1.
          5    1    3    3  502    0 -0.20774275763E+02 -0.16431233193E+02 -0.83897895470E+02  0.88105066949E+02  0.47000000000E+01 0. -1.
         -5    1    3    3    0  502  0.13743053304E+03 -0.11647750589E+03 -0.20496517888E+03  0.27292302091E+03  0.47000000000E+01 0. -1.
          1    1    1    2  503    0 -0.34726400072E+02  0.10399402598E+03  0.20087919901E+04  0.20117817824E+04  0.00000000000E+00 0. -1.
         -2    1    1    2    0  501 -0.85902280112E+02 -0.21495448130E+02 -0.95339392959E+03  0.95749738433E+03  0.00000000000E+00 0.  1.
<mgrwt>
<rscale>  0 0.98540825E+02</rscale>
<asrwt>0</asrwt>
<pdfrwt beam="1">  1        2 0.44355738E+00 0.10965781E+03</pdfrwt>
<pdfrwt beam="2">  1       -1 0.22075550E+00 0.88550867E+02</pdfrwt>
<totfact> 0.43702344E-01</totfact>
</mgrwt>
</event>
<event>
13    1  0.2742815E-008  0.1213461E+03  0.7546771E-02  0.1321924E+00
          2   -1    0    0  502    0  0.00000000000E+00  0.00000000000E+00  0.78898281807E+03  0.78898281807E+03  0.00000000000E+00 0. -1.
          2   -1    0    0  503    0 -0.00000000000E+00 -0.00000000000E+00 -0.87805829706E+03  0.87805829706E+03  0.00000000000E+00 0. -1.
         25    2    1    2    0    0  0.67560820448E+02  0.15003066223E+03 -0.13968629162E+03  0.24942106954E+03  0.12499978318E+03 0.  0.
         24    2    1    2    0    0  0.21468439542E+02 -0.68261778533E+02 -0.11437837870E+03  0.15622109200E+03  0.78753106394E+02 0.  0.
         24    2    1    2    0    0  0.17533988221E+02  0.44040196228E+02 -0.12285708152E+02  0.95099575544E+02  0.81523070459E+02 0.  0.
        -11    1    5    5    0    0 -0.30237232001E+02  0.33520408435E+02 -0.93109771481E+01  0.46093408164E+02  0.00000000000E+00 0.  1.
         12    1    5    5    0    0  0.47771220222E+02  0.10519787792E+02 -0.29747310036E+01  0.49006167380E+02  0.00000000000E+00 0. -1.
        -13    1    4    4    0    0  0.35921273847E+02 -0.12269052489E+02 -0.80995771540E+02  0.89449329629E+02  0.00000000000E+00 0.  1.
         14    1    4    4    0    0 -0.14452834306E+02 -0.55992726043E+02 -0.33382607160E+02  0.66771762370E+02  0.00000000000E+00 0. -1.
          5    1    3    3  501    0  0.10436144324E+03  0.10338270387E+03 -0.96637461896E+02  0.17589821868E+03  0.47000000000E+01 0. -1.
         -5    1    3    3    0  501 -0.36800622793E+02  0.46647958362E+02 -0.43048829726E+02  0.73522850857E+02  0.47000000000E+01 0. -1.
          1    1    1    2  502    0 -0.50755002908E+02 -0.24083276490E+02  0.66377816197E+03  0.66615127624E+03  0.00000000000E+00 0. -1.
          1    1    1    2  503    0 -0.55808245304E+02 -0.10172580343E+03 -0.48650326249E+03  0.50014810181E+03  0.00000000000E+00 0. -1.
<mgrwt>
<rscale>  0 0.82565700E+02</rscale>
<asrwt>0</asrwt>
<pdfrwt beam="1">  1        2 0.11602689E+00 0.56178951E+02</pdfrwt>
<pdfrwt beam="2">  1        2 0.12912622E+00 0.12134607E+03</pdfrwt>
<totfact> 0.21653540E+02</totfact>
</mgrwt>
</event>
<event>
13    1  0.2742815E-008  0.2050055E+03  0.7546771E-02  0.1357436E+00
          2   -1    0    0  503    0  0.00000000000E+00  0.00000000000E+00  0.12423285023E+04  0.12423285023E+04  0.00000000000E+00 0. -1.
          2   -1    0    0  502    0 -0.00000000000E+00 -0.00000000000E+00 -0.77711640941E+03  0.77711640941E+03  0.00000000000E+00 0. -1.
         25    2    1    2    0    0 -0.21333031428E+03 -0.70151425508E+02 -0.49251310858E+03  0.55554157494E+03  0.12500493541E+03 0.  0.
         24    2    1    2    0    0  0.45962072028E+02 -0.35463553372E+02 -0.31815718550E+02  0.10378878140E+03  0.79935571026E+02 0.  0.
         24    2    1    2    0    0 -0.18802808936E+03  0.86058268450E+02  0.11199121428E+03  0.24845375778E+03  0.80166387734E+02 0.  0.
        -11    1    4    4    0    0  0.55690720601E+02  0.58608447404E+01 -0.13822263584E+02  0.57678946182E+02  0.00000000000E+00 0.  1.
         12    1    4    4    0    0 -0.97286485725E+01 -0.41324398112E+02 -0.17993454966E+02  0.46109835220E+02  0.00000000000E+00 0. -1.
        -13    1    5    5    0    0 -0.17374412574E+03  0.48056634721E+02  0.99878607659E+02  0.20608783961E+03  0.00000000000E+00 0.  1.
         14    1    5    5    0    0 -0.14283963621E+02  0.38001633729E+02  0.12112606620E+02  0.42365918164E+02  0.00000000000E+00 0. -1.
          5    1    3    3  501    0 -0.11267294757E+03 -0.78271322120E+02 -0.38125227453E+03  0.40521226513E+03  0.47000000000E+01 0.  1.
         -5    1    3    3    0  501 -0.10065736671E+03  0.81198966125E+01 -0.11126083405E+03  0.15032930981E+03  0.47000000000E+01 0.  1.
          1    1    1    2  502    0  0.66913880135E+01  0.23508634214E+02 -0.84706772133E+02  0.88162734765E+02  0.00000000000E+00 0. -1.
          1    1    1    2  503    0  0.34870494360E+03 -0.39519237844E+01  0.96225647783E+03  0.10234980628E+04  0.00000000000E+00 0. -1.
<mgrwt>
<rscale>  0 0.70787182E+02</rscale>
<asrwt>0</asrwt>
<pdfrwt beam="1">  1        2 0.18269537E+00 0.20500551E+03</pdfrwt>
<pdfrwt beam="2">  1        2 0.11428183E+00 0.24442393E+02</pdfrwt>
<totfact> 0.13628999E+02</totfact>
</mgrwt>
</event>
<event>
13    1  0.2742815E-008  0.7411585E+02  0.7546771E-02  0.1413305E+00
          2   -1    0    0  503    0  0.00000000000E+00  0.00000000000E+00  0.17800554904E+04  0.17800554904E+04  0.00000000000E+00 0. -1.
          2   -1    0    0  502    0 -0.00000000000E+00 -0.00000000000E+00 -0.14274364869E+04  0.14274364869E+04  0.00000000000E+00 0. -1.
         25    2    1    2    0    0 -0.24953063287E+02 -0.63611975110E+02 -0.40957880226E+03  0.43364588493E+03  0.12499927805E+03 0.  0.
         24    2    1    2    0    0  0.38165699272E+02  0.52557860567E+02 -0.96256556564E+02  0.14245123997E+03  0.82511100949E+02 0.  0.
         24    2    1    2    0    0 -0.20587658435E+02 -0.35721206836E+02  0.15322245056E+03  0.17849294527E+03  0.81748124490E+02 0.  0.
        -13    1    5    5    0    0  0.25227821219E+02 -0.30181223380E+02  0.10315727403E+03  0.11040277348E+03  0.00000000000E+00 0.  1.
         14    1    5    5    0    0 -0.45815479654E+02 -0.55399834569E+01  0.50065176535E+02  0.68090171788E+02  0.00000000000E+00 0. -1.
        -13    1    4    4    0    0 -0.35863790644E+01  0.18744757369E+02 -0.85569471829E+02  0.87671902870E+02  0.00000000000E+00 0.  1.
         14    1    4    4    0    0  0.41752078337E+02  0.33813103198E+02 -0.10687084735E+02  0.54779337103E+02  0.00000000000E+00 0. -1.
          5    1    3    3  501    0  0.50630618508E+02 -0.33418374020E+02 -0.18240547336E+03  0.19228648930E+03  0.47000000000E+01 0. -1.
         -5    1    3    3    0  501 -0.75583681795E+02 -0.30193601090E+02 -0.22717332889E+03  0.24135939563E+03  0.47000000000E+01 0. -1.
          1    1    1    2  502    0 -0.42185013163E+02 -0.84060648101E+01 -0.87243387837E+03  0.87349362299E+03  0.00000000000E+00 0. -1.
          1    1    1    2  503    0  0.49560035613E+02  0.55181386190E+02  0.15776657902E+04  0.15794082842E+04  0.00000000000E+00 0. -1.
<mgrwt>
<rscale>  0 0.56462799E+02</rscale>
<asrwt>0</asrwt>
<pdfrwt beam="1">  1        2 0.26177287E+00 0.74115849E+02</pdfrwt>
<pdfrwt beam="2">  1        2 0.20991713E+00 0.43014384E+02</pdfrwt>
<totfact> 0.34762753E+01</totfact>
</mgrwt>
</event>
<event>
13    1  0.2742815E-008  0.1314675E+03  0.7546771E-02  0.1482252E+00
          2   -1    0    0  503    0  0.00000000000E+00  0.00000000000E+00  0.26697562521E+04  0.26697562521E+04  0.00000000000E+00 0. -1.
         -1   -1    0    0    0  501 -0.00000000000E+00 -0.00000000000E+00 -0.22285905681E+03  0.22285905681E+03  0.00000000000E+00 0.  1.
         25    2    1    2    0    0  0.89295423347E+02  0.10263695887E+03 -0.33242295565E+02  0.18771477786E+03  0.12499507852E+03 0.  0.
         24    2    1    2    0    0  0.49096168236E+01 -0.78785117653E+02  0.39172377206E+03  0.40765052105E+03  0.80624032491E+02 0.  0.
         24    2    1    2    0    0  0.65158320547E+01  0.22399501206E+02  0.14968818323E+03  0.17248700882E+03  0.82468310838E+02 0.  0.
        -13    1    5    5    0    0  0.25558188109E+02 -0.24106668704E+02  0.68985217070E+02  0.77416488099E+02  0.00000000000E+00 0.  1.
         14    1    5    5    0    0 -0.19042356055E+02  0.46506169909E+02  0.80702966156E+02  0.95070520721E+02  0.00000000000E+00 0. -1.
        -13    1    4    4    0    0 -0.23500450101E+02 -0.50667632127E+01  0.36206618379E+02  0.43461045303E+02  0.00000000000E+00 0.  1.
         14    1    4    4    0    0  0.28410066924E+02 -0.73718354441E+02  0.35551715368E+03  0.36418947575E+03  0.00000000000E+00 0. -1.
          5    1    3    3  502    0  0.83636394415E+01  0.99459313738E+02  0.30667035013E+00  0.99921417127E+02  0.47000000000E+01 0.  1.
         -5    1    3    3    0  502  0.80931783906E+02  0.31776451340E+01 -0.33548965915E+02  0.87793360733E+02  0.47000000000E+01 0.  1.
          1    1    1    2  503    0 -0.11412206872E+03 -0.40548607590E+02  0.20293585231E+04  0.20329692696E+04  0.00000000000E+00 0. -1.
         -2    1    1    2    0  501  0.13401196496E+02 -0.57027348348E+01 -0.90630987509E+02  0.91793731534E+02  0.00000000000E+00 0.  1.
<mgrwt>
<rscale>  0 0.43757357E+02</rscale>
<asrwt>0</asrwt>
<pdfrwt beam="1">  1        2 0.39261120E+00 0.13146746E+03</pdfrwt>
<pdfrwt beam="2">  1       -1 0.32773392E-01 0.14564108E+02</pdfrwt>
<totfact> 0.39139416E+01</totfact>
</mgrwt>
</event>
<event>
13    1  0.4158741E-008  0.7614139E+02  0.7546771E-02  0.1444538E+00
          2   -1    0    0  503    0  0.00000000000E+00  0.00000000000E+00  0.26237192862E+04  0.26237192862E+04  0.00000000000E+00 0. -1.
          2   -1    0    0  502    0 -0.00000000000E+00 -0.00000000000E+00 -0.47444881513E+04  0.47444881513E+04  0.00000000000E+00 0. -1.
         25    2    1    2    0    0  0.33073456021E+03 -0.37081281810E+03 -0.76334926274E+03  0.91935563481E+03  0.12500076380E+03 0.  0.
         24    2    1    2    0    0 -0.88433232463E+03  0.14981249192E+04 -0.10143059957E+04  0.20153686287E+04  0.80449504766E+02 0.  0.
         24    2    1    2    0    0  0.56636016249E+03 -0.12130598000E+04  0.55843037733E+03  0.14542319290E+04  0.10328651868E+03 0.  0.
        -13    1    5    5    0    0  0.15057698449E+03 -0.43772037689E+03  0.19875250498E+03  0.50376096994E+03  0.00000000000E+00 0.  1.
         14    1    5    5    0    0  0.41578317800E+03 -0.77533942315E+03  0.35967787235E+03  0.95047095908E+03  0.00000000000E+00 0. -1.
        -13    1    4    4    0    0 -0.15986714056E+03  0.22398324760E+03 -0.18042038417E+03  0.32905548599E+03  0.00000000000E+00 0.  1.
         14    1    4    4    0    0 -0.72446518407E+03  0.12741416716E+04 -0.83388561149E+03  0.16863131427E+04  0.00000000000E+00 0. -1.
          5    1    3    3  501    0  0.12090263149E+03 -0.20304599547E+03 -0.28075576692E+03  0.36700274282E+03  0.47000000000E+01 0. -1.
         -5    1    3    3    0  501  0.20983192872E+03 -0.16776682263E+03 -0.48259349582E+03  0.55235289200E+03  0.47000000000E+01 0. -1.
          1    1    1    2  502    0 -0.38846393856E+02  0.65484141624E+02 -0.19393878679E+04  0.19408818917E+04  0.00000000000E+00 0. -1.
          1    1    1    2  503    0  0.26083995788E+02  0.20263557331E+02  0.10378438839E+04  0.10383693534E+04  0.00000000000E+00 0. -1.
<mgrwt>
<rscale>  0 0.50149343E+02</rscale>
<asrwt>0</asrwt>
<pdfrwt beam="1">  1        2 0.38584107E+00 0.33030086E+02</pdfrwt>
<pdfrwt beam="2">  1        2 0.69771885E+00 0.76141388E+02</pdfrwt>
<totfact> 0.17824637E-01</totfact>
</mgrwt>
</event>
<event>
13    1  0.2742815E-008  0.6396898E+02  0.7546771E-02  0.1385591E+00
          2   -1    0    0  503    0  0.00000000000E+00  0.00000000000E+00  0.28586833650E+04  0.28586833650E+04  0.00000000000E+00 0. -1.
          2   -1    0    0  502    0 -0.00000000000E+00 -0.00000000000E+00 -0.17875580005E+04  0.17875580005E+04  0.00000000000E+00 0. -1.
         25    2    1    2    0    0 -0.12390572338E+02  0.53166611781E+02 -0.14103925084E+03  0.19620612677E+03  0.12499823604E+03 0.  0.
         24    2    1    2    0    0 -0.43121830571E+02 -0.98097178992E+02 -0.36496169509E+02  0.13948476787E+03  0.81495283798E+02 0.  0.
         24    2    1    2    0    0  0.43141276286E+02  0.52081170498E+02  0.11653651571E+04  0.11701244966E+04  0.80881209376E+02 0.  0.
        -13    1    4    4    0    0  0.22731459993E+02 -0.16158781408E+02  0.91496737810E+00  0.27904527506E+02  0.00000000000E+00 0.  1.
         14    1    4    4    0    0 -0.65853290565E+02 -0.81938397584E+02 -0.37411136888E+02  0.11158024037E+03  0.00000000000E+00 0. -1.
        -13    1    5    5    0    0  0.64517470932E+02  0.52827260897E+02  0.97583719744E+03  0.97939341403E+03  0.00000000000E+00 0.  1.
         14    1    5    5    0    0 -0.21376194647E+02 -0.74609039953E+00  0.18952795970E+03  0.19073108257E+03  0.00000000000E+00 0. -1.
          5    1    3    3  501    0 -0.61959701136E+02  0.55858779255E+02 -0.67791086397E+02  0.10759613924E+03  0.47000000000E+01 0. -1.
         -5    1    3    3    0  501  0.49569128798E+02 -0.26921674743E+01 -0.73248164445E+02  0.88609987530E+02  0.47000000000E+01 0. -1.
          1    1    1    2  502    0 -0.17528098345E+02 -0.61554497697E+02 -0.15272970048E+04  0.15286374100E+04  0.00000000000E+00 0. -1.
          1    1    1    2  503    0  0.29899224969E+02  0.54403894410E+02  0.16105926326E+04  0.16117885642E+04  0.00000000000E+00 0. -1.
<mgrwt>
<rscale>  0 0.63016680E+02</rscale>
<asrwt>0</asrwt>
<pdfrwt beam="1">  1        2 0.42039461E+00 0.62078558E+02</pdfrwt>
<pdfrwt beam="2">  1        2 0.26287618E+00 0.63968978E+02</pdfrwt>
<totfact> 0.69576398E+00</totfact>
</mgrwt>
</event>
<event>
13    1  0.2742815E-008  0.2244130E+03  0.7546771E-02  0.1234822E+00
          2   -1    0    0  502    0  0.00000000000E+00  0.00000000000E+00  0.18797953786E+04  0.18797953786E+04  0.00000000000E+00 0. -1.
          2   -1    0    0  503    0 -0.00000000000E+00 -0.00000000000E+00 -0.42586744681E+04  0.42586744681E+04  0.00000000000E+00 0. -1.
         25    2    1    2    0    0 -0.25657778416E+02 -0.13232239200E+03 -0.93154298657E+03  0.94950784928E+03  0.12500113198E+03 0.  0.
         24    2    1    2    0    0  0.82076502125E+02  0.10133858214E+03  0.20349702533E+02  0.15426879783E+03  0.79866708710E+02 0.  0.
         24    2    1    2    0    0 -0.16035744020E+03 -0.23839216004E+03 -0.22984175964E+03  0.37662651292E+03  0.80467168245E+02 0.  0.
        -11    1    5    5    0    0 -0.55950953417E+02 -0.14042074765E+03 -0.87116952515E+02  0.17446449201E+03  0.00000000000E+00 0.  1.
         12    1    5    5    0    0 -0.10440648678E+03 -0.97971412390E+02 -0.14272480713E+03  0.20216202091E+03  0.00000000000E+00 0. -1.
        -13    1    4    4    0    0  0.50864560731E+02  0.10913183314E+03  0.20275419614E+02  0.12209853883E+03  0.00000000000E+00 0.  1.
         14    1    4    4    0    0  0.31211941393E+02 -0.77932509972E+01  0.74282918659E-01  0.32170259007E+02  0.00000000000E+00 0. -1.
          5    1    3    3  501    0  0.22624302008E+02 -0.68389993722E+02 -0.71389189137E+03  0.71753241937E+03  0.47000000000E+01 0. -1.
         -5    1    3    3    0  501 -0.48282080424E+02 -0.63932398275E+02 -0.21765109520E+03  0.23197542991E+03  0.47000000000E+01 0. -1.
          1    1    1    2  502    0  0.60212283250E+02  0.21496616651E+03  0.17024098408E+04  0.17169843441E+04  0.00000000000E+00 0. -1.
          1    1    1    2  503    0  0.43726433242E+02  0.54409803381E+02 -0.29402538867E+04  0.29410823425E+04  0.00000000000E+00 0. -1.
<mgrwt>
<rscale>  0 0.12515849E+03</rscale>
<asrwt>0</asrwt>
<pdfrwt beam="1">  1        2 0.27644050E+00 0.22441296E+03</pdfrwt>
<pdfrwt beam="2">  1        2 0.62627565E+00 0.69802777E+02</pdfrwt>
<totfact> 0.79959780E-01</totfact>
</mgrwt>
</event>
<event>
13    1  0.2742815E-008  0.5316283E+02  0.7546771E-02  0.1499161E+00
         -1   -1    0    0    0  501 -0.00000000000E+00  0.00000000000E+00  0.11349337807E+04  0.11349337807E+04  0.00000000000E+00 0.  1.
          2   -1    0    0  503    0  0.00000000000E+00 -0.00000000000E+00 -0.12577392959E+04  0.12577392959E+04  0.00000000000E+00 0. -1.
         25    2    1    2    0    0 -0.57220831825E+02  0.47959945795E+03 -0.12930904594E+03  0.51539809581E+03  0.12499801656E+03 0.  0.
         24    2    1    2    0    0 -0.15152387193E+03 -0.48981293180E+03 -0.18327497470E+03  0.55238432534E+03  0.93072738235E+02 0.  0.
         24    2    1    2    0    0  0.13984958109E+03 -0.39274906885E+02 -0.17498343866E+03  0.24007336625E+03  0.76912897080E+02 0.  0.
        -11    1    4    4    0    0 -0.82884869781E+02 -0.30415548773E+03 -0.65250374668E+02  0.32192867805E+03  0.00000000000E+00 0.  1.
         12    1    4    4    0    0 -0.68639002148E+02 -0.18565744408E+03 -0.11802460004E+03  0.23045564730E+03  0.00000000000E+00 0. -1.
        -11    1    5    5    0    0  0.90747744886E+02 -0.45009726874E+02 -0.67387049207E+02  0.12166364747E+03  0.00000000000E+00 0.  1.
         12    1    5    5    0    0  0.49101836203E+02  0.57348199890E+01 -0.10759638945E+03  0.11840971878E+03  0.00000000000E+00 0. -1.
          5    1    3    3  502    0 -0.57793878113E+02  0.37219921620E+03 -0.15082455876E+03  0.40576166208E+03  0.47000000000E+01 0. -1.
         -5    1    3    3    0  502  0.57304628832E+00  0.10740024175E+03  0.21515512820E+02  0.10963643373E+03  0.47000000000E+01 0. -1.
          1    1    1    2  503    0  0.23762807653E+02  0.21457522624E+02 -0.35833935125E+03  0.35976685083E+03  0.00000000000E+00 0. -1.
         -2    1    1    2    0  501  0.45132315012E+02  0.28030858113E+02  0.72310129537E+03  0.72505043841E+03  0.00000000000E+00 0.  1.
<mgrwt>
<rscale>  0 0.41256770E+02</rscale>
<asrwt>0</asrwt>
<pdfrwt beam="2">  1        2 0.18496166E+00 0.32017125E+02</pdfrwt>
<pdfrwt beam="1">  1       -1 0.16690203E+00 0.53162832E+02</pdfrwt>
<totfact> 0.84480074E+00</totfact>
</mgrwt>
</event>
<event>
13    1  0.2742815E-008  0.6783537E+02  0.7546771E-02  0.1373759E+00
         -1   -1    0    0    0  501 -0.00000000000E+00  0.00000000000E+00  0.74181487140E+03  0.74181487140E+03  0.00000000000E+00 0.  1.
          2   -1    0    0  503    0  0.00000000000E+00 -0.00000000000E+00 -0.30392785705E+04  0.30392785705E+04  0.00000000000E+00 0. -1.
         25    2    1    2    0    0  0.78784452631E+02 -0.25444507393E+03 -0.95729509970E+02  0.30941491896E+03  0.12499666945E+03 0.  0.
         24    2    1    2    0    0 -0.36843142144E+02  0.15257701694E+03 -0.30407204216E+03  0.35169375186E+03  0.81188207598E+02 0.  0.
         24    2    1    2    0    0 -0.31850163603E+02  0.91742968654E+01 -0.62237989040E+03  0.62842224446E+03  0.80369078050E+02 0.  0.
        -11    1    4    4    0    0 -0.37138477491E+02  0.14457278754E+03 -0.21201690424E+03  0.25929081181E+03  0.00000000000E+00 0.  1.
         12    1    4    4    0    0  0.29533534685E+00  0.80042293937E+01 -0.92055137926E+02  0.92402940049E+02  0.00000000000E+00 0. -1.
        -13    1    5    5    0    0  0.14266223451E+02 -0.19168950493E+02 -0.34397328991E+03  0.34480225923E+03  0.00000000000E+00 0.  1.
         14    1    5    5    0    0 -0.46116387054E+02  0.28343247358E+02 -0.27840660049E+03  0.28361998523E+03  0.00000000000E+00 0. -1.
          5    1    3    3  502    0  0.62217488108E+02 -0.52191870661E+02 -0.64982417348E+02  0.10411441665E+03  0.47000000000E+01 0.  1.
         -5    1    3    3    0  502  0.16566964523E+02 -0.20225320327E+03 -0.30747092622E+02  0.20530050231E+03  0.47000000000E+01 0.  1.
          1    1    1    2  503    0  0.41842560397E+02  0.49051776568E+02 -0.18809766212E+04  0.18820812751E+04  0.00000000000E+00 0. -1.
         -2    1    1    2    0  501 -0.51933707281E+02  0.43641983561E+02  0.60569436460E+03  0.60948125154E+03  0.00000000000E+00 0.  1.
<mgrwt>
<rscale>  0 0.66133255E+02</rscale>
<asrwt>0</asrwt>
<pdfrwt beam="2">  1        2 0.44695273E+00 0.64473845E+02</pdfrwt>
<pdfrwt beam="1">  1       -1 0.10909042E+00 0.67835375E+02</pdfrwt>
<totfact> 0.30140698E+00</totfact>
</mgrwt>
</event>
<event>
13    1  0.2742815E-008  0.2930035E+03  0.7546771E-02  0.1229736E+00
          2   -1    0    0  502    0  0.00000000000E+00  0.00000000000E+00  0.14980070742E+04  0.14980070742E+04  0.00000000000E+00 0. -1.
          4   -1    0    0  503    0 -0.00000000000E+00 -0.00000000000E+00 -0.96508864852E+03  0.96508864852E+03  0.00000000000E+00 0. -1.
         25    2    1    2    0    0  0.19692413422E+03 -0.25405976371E+03 -0.12515313374E+03  0.36690016488E+03  0.12500778349E+03 0.  0.
         24    2    1    2    0    0  0.46088763721E+02  0.90909153891E+02  0.11895853971E+03  0.17684828577E+03  0.82070296753E+02 0.  0.
         24    2    1    2    0    0 -0.33310648611E+02  0.96111936888E+01  0.34003662907E+03  0.34586824975E+03  0.52895772240E+02 0.  0.
        -11    1    4    4    0    0 -0.10960141286E+02 -0.97453566861E+01  0.88446122171E+01  0.17126699601E+02  0.00000000000E+00 0.  1.
         12    1    4    4    0    0  0.57048905007E+02  0.10065451058E+03  0.11011392749E+03  0.15972158617E+03  0.00000000000E+00 0. -1.
        -11    1    5    5    0    0  0.47128737431E+01  0.21312685422E+02  0.85545238224E+02  0.88286066407E+02  0.00000000000E+00 0.  1.
         12    1    5    5    0    0 -0.38023522355E+02 -0.11701491733E+02  0.25449139085E+03  0.25758218334E+03  0.00000000000E+00 0. -1.
          5    1    3    3  501    0 -0.15442238871E+00 -0.47474100640E+02 -0.55096843716E+02  0.72880493037E+02  0.47000000000E+01 0.  1.
         -5    1    3    3    0  501  0.19707855661E+03 -0.20658566307E+03 -0.70056290022E+02  0.29401967185E+03  0.47000000000E+01 0.  1.
          1    1    1    2  502    0  0.56752678620E+02  0.31454967805E+02  0.85373952750E+03  0.85620176498E+03  0.00000000000E+00 0. -1.
          3    1    1    2  503    0 -0.26645492795E+03  0.12208444833E+03 -0.65466313685E+03  0.71727725735E+03  0.00000000000E+00 0. -1.
<mgrwt>
<rscale>  0 0.12847527E+03</rscale>
<asrwt>0</asrwt>
<pdfrwt beam="1">  1        2 0.22029516E+00 0.56333429E+02</pdfrwt>
<pdfrwt beam="2">  1        4 0.14192480E+00 0.29300354E+03</pdfrwt>
<totfact> 0.32231976E+00</totfact>
</mgrwt>
</event>
<event>
13    1  0.2742815E-008  0.3477737E+02  0.7546771E-02  0.1560845E+00
          2   -1    0    0  503    0  0.00000000000E+00  0.00000000000E+00  0.10556253396E+04  0.10556253396E+04  0.00000000000E+00 0. -1.
          2   -1    0    0  502    0 -0.00000000000E+00 -0.00000000000E+00 -0.15151615739E+04  0.15151615739E+04  0.00000000000E+00 0. -1.
         25    2    1    2    0    0 -0.12865131177E+03 -0.54946538866E+02 -0.13163882805E+03  0.22918166460E+03  0.12500068875E+03 0.  0.
         24    2    1    2    0    0  0.14144865918E+03  0.44045716094E+02  0.40581850080E+03  0.43949771637E+03  0.80757902469E+02 0.  0.
         24    2    1    2    0    0 -0.10544645626E+02  0.11239142036E+02  0.20640596243E+03  0.22198542899E+03  0.80228433185E+02 0.  0.
        -13    1    4    4    0    0  0.92368909017E+02 -0.13071927025E+02  0.23316944230E+03  0.25113916352E+03  0.00000000000E+00 0.  1.
         14    1    4    4    0    0  0.49079750163E+02  0.57117643119E+02  0.17264905850E+03  0.18835855285E+03  0.00000000000E+00 0. -1.
        -13    1    5    5    0    0  0.31806540393E+02  0.67462669491E+01  0.48156019175E+02  0.58104821765E+02  0.00000000000E+00 0.  1.
         14    1    5    5    0    0 -0.42351186019E+02  0.44928750867E+01  0.15824994325E+03  0.16388060722E+03  0.00000000000E+00 0. -1.
          5    1    3    3  501    0  0.16826160862E+02  0.35538215306E+01  0.76474597028E+01  0.19399045769E+02  0.47000000000E+01 0.  1.
         -5    1    3    3    0  501 -0.14547747263E+03 -0.58500360397E+02 -0.13928628775E+03  0.20978261883E+03  0.47000000000E+01 0.  1.
          1    1    1    2  502    0 -0.34666840911E+02  0.29050378360E+01 -0.13091734497E+04  0.13096355793E+04  0.00000000000E+00 0. -1.
          1    1    1    2  503    0  0.32414139123E+02 -0.32433570994E+01  0.36905158019E+03  0.37048652421E+03  0.00000000000E+00 0. -1.
<mgrwt>
<rscale>  0 0.33658695E+02</rscale>
<asrwt>0</asrwt>
<pdfrwt beam="1">  1        2 0.15523902E+00 0.32576000E+02</pdfrwt>
<pdfrwt beam="2">  1        2 0.22281788E+00 0.34777374E+02</pdfrwt>
<totfact> 0.77521880E+01</totfact>
</mgrwt>
</event>
<event>
13    1  0.2742815E-008  0.7834015E+02  0.7546771E-02  0.1555022E+00
          2   -1    0    0  503    0  0.00000000000E+00  0.00000000000E+00  0.89672847232E+03  0.89672847232E+03  0.00000000000E+00 0. -1.
          2   -1    0    0  502    0 -0.00000000000E+00 -0.00000000000E+00 -0.11963203656E+04  0.11963203656E+04  0.00000000000E+00 0. -1.
         25    2    1    2    0    0  0.49253133091E+02 -0.70553216073E+02 -0.58344437648E+02  0.16258347110E+03  0.12500273698E+03 0.  0.
         24    2    1    2    0    0  0.19421061166E+03  0.20554421525E+03  0.44430167787E+02  0.29769624145E+03  0.81748555079E+02 0.  0.
         24    2    1    2    0    0 -0.31318806335E+03 -0.11231977536E+03  0.42748395670E+03  0.54811299484E+03  0.83563310835E+02 0.  0.
        -11    1    4    4    0    0  0.76058905464E+01 -0.74913982583E+01 -0.15320421859E+01  0.10785071726E+02  0.00000000000E+00 0.  1.
         12    1    4    4    0    0  0.18660472112E+03  0.21303561351E+03  0.45962209973E+02  0.28691116972E+03  0.00000000000E+00 0. -1.
        -13    1    5    5    0    0  0.54578000116E+01 -0.22687886591E+01  0.83036740232E+01  0.10192447460E+02  0.00000000000E+00 0.  1.
         14    1    5    5    0    0 -0.31864586336E+03 -0.11005098670E+03  0.41918028268E+03  0.53792054738E+03  0.00000000000E+00 0. -1.
          5    1    3    3  501    0  0.46667515411E+02 -0.23472287569E+02 -0.91001825947E+02  0.10503441152E+03  0.47000000000E+01 0.  1.
         -5    1    3    3    0  501  0.25856176800E+01 -0.47080928505E+02  0.32657388299E+02  0.57549059577E+02  0.47000000000E+01 0.  1.
          1    1    1    2  502    0  0.77718256245E+02 -0.99710361617E+01 -0.89689486349E+03  0.90031102685E+03  0.00000000000E+00 0. -1.
          1    1    1    2  503    0 -0.79939376517E+01 -0.12700187658E+02  0.18373328341E+03  0.18434510365E+03  0.00000000000E+00 0. -1.
<mgrwt>
<rscale>  0 0.34287296E+02</rscale>
<asrwt>0</asrwt>
<pdfrwt beam="1">  1        2 0.13187183E+00 0.15006592E+02</pdfrwt>
<pdfrwt beam="2">  1        2 0.17592946E+00 0.78340151E+02</pdfrwt>
<totfact> 0.13259193E+02</totfact>
</mgrwt>
</event>
<event>
13    1  0.2742815E-008  0.1047531E+03  0.7546771E-02  0.1343565E+00
          2   -1    0    0  503    0  0.00000000000E+00  0.00000000000E+00  0.19655042122E+04  0.19655042122E+04  0.00000000000E+00 0. -1.
          2   -1    0    0  502    0 -0.00000000000E+00 -0.00000000000E+00 -0.27633056469E+04  0.27633056469E+04  0.00000000000E+00 0. -1.
         25    2    1    2    0    0  0.23144702040E+03 -0.62066236202E+03 -0.35349698277E+02  0.67503089382E+03  0.12501046178E+03 0.  0.
         24    2    1    2    0    0 -0.30897424081E+03  0.49989657984E+03  0.49038981213E+03  0.77334227406E+03  0.11051892594E+03 0.  0.
         24    2    1    2    0    0  0.12404126002E+03  0.32979089336E+02  0.36716520172E+02  0.15695131956E+03  0.82533383175E+02 0.  0.
        -11    1    4    4    0    0 -0.32763947186E+02  0.13878088649E+03  0.10098012899E+03  0.17473006937E+03  0.00000000000E+00 0.  1.
         12    1    4    4    0    0 -0.27621029362E+03  0.36111569335E+03  0.38940968313E+03  0.59861220469E+03  0.00000000000E+00 0. -1.
        -13    1    5    5    0    0  0.55104355450E+02 -0.26867201126E+02  0.15016715909E+02  0.63117653969E+02  0.00000000000E+00 0.  1.
         14    1    5    5    0    0  0.68936904565E+02  0.59846290461E+02  0.21699804263E+02  0.93833665590E+02  0.00000000000E+00 0. -1.
          5    1    3    3  501    0  0.18039276969E+02 -0.21378123787E+03 -0.14561964200E+02  0.21508596881E+03  0.47000000000E+01 0. -1.
         -5    1    3    3    0  501  0.21340774343E+03 -0.40688112416E+03 -0.20787734076E+02  0.45994492500E+03  0.47000000000E+01 0. -1.
          1    1    1    2  502    0  0.46085332860E+01  0.10467432271E+03 -0.22044860916E+04  0.22069745990E+04  0.00000000000E+00 0. -1.
          1    1    1    2  503    0 -0.51122572889E+02 -0.16887629854E+02  0.91492802283E+03  0.91651077270E+03  0.00000000000E+00 0. -1.
<mgrwt>
<rscale>  0 0.75099072E+02</rscale>
<asrwt>0</asrwt>
<pdfrwt beam="1">  1        2 0.28904474E+00 0.53839665E+02</pdfrwt>
<pdfrwt beam="2">  1        2 0.40636847E+00 0.10475308E+03</pdfrwt>
<totfact> 0.60514922E+00</totfact>
</mgrwt>
</event>
<event>
13    1  0.2742815E-008  0.1053535E+03  0.7546771E-02  0.1433909E+00
          2   -1    0    0  503    0  0.00000000000E+00  0.00000000000E+00  0.20373155873E+04  0.20373155873E+04  0.00000000000E+00 0. -1.
         -1   -1    0    0    0  501 -0.00000000000E+00 -0.00000000000E+00 -0.13106883132E+04  0.13106883132E+04  0.00000000000E+00 0.  1.
         25    2    1    2    0    0 -0.13425567558E+03  0.30669835581E+02 -0.20864051982E+03  0.27951414200E+03  0.12502825210E+03 0.  0.
         24    2    1    2    0    0  0.93018503778E+02  0.32546713412E+02 -0.12023810826E+03  0.17431102698E+03  0.78837813577E+02 0.  0.
         24    2    1    2    0    0 -0.46557720736E+02 -0.38006934313E+02  0.22214891071E+03  0.24456555744E+03  0.82764877473E+02 0.  0.
        -11    1    5    5    0    0  0.21840393615E+02 -0.60053101633E+01  0.26570073027E+02  0.34914686366E+02  0.00000000000E+00 0.  1.
         12    1    5    5    0    0 -0.68398114350E+02 -0.32001624150E+02  0.19557883768E+03  0.20965087108E+03  0.00000000000E+00 0. -1.
        -11    1    4    4    0    0  0.71573189339E+02 -0.13757429866E+02 -0.86619546805E+02  0.11320306620E+03  0.00000000000E+00 0.  1.
         12    1    4    4    0    0  0.21445314440E+02  0.46304143279E+02 -0.33618561456E+02  0.61107960779E+02  0.00000000000E+00 0. -1.
          5    1    3    3  502    0  0.22308355843E+02  0.16764683417E+02 -0.39209643058E+02  0.48354973470E+02  0.47000000000E+01 0.  1.
         -5    1    3    3    0  502 -0.15656403143E+03  0.13905152163E+02 -0.16943087676E+03  0.23115916853E+03  0.47000000000E+01 0.  1.
          1    1    1    2  503    0 -0.71633834310E+01  0.24834786766E+02  0.17382168892E+04  0.17384090527E+04  0.00000000000E+00 0. -1.
         -2    1    1    2    0  501  0.94958275972E+02 -0.50044401446E+02 -0.90485989769E+03  0.91120412134E+03  0.00000000000E+00 0.  1.
<mgrwt>
<rscale>  0 0.52183323E+02</rscale>
<asrwt>0</asrwt>
<pdfrwt beam="1">  1        2 0.29960523E+00 0.25847257E+02</pdfrwt>
<pdfrwt beam="2">  1       -1 0.19274828E+00 0.10535351E+03</pdfrwt>
<totfact> 0.23962782E+00</totfact>
</mgrwt>
</event>
<event>
13    1  0.2742815E-008  0.6663862E+02  0.7546771E-02  0.1430690E+00
          2   -1    0    0  503    0  0.00000000000E+00  0.00000000000E+00  0.22406825909E+04  0.22406825909E+04  0.00000000000E+00 0. -1.
          2   -1    0    0  502    0 -0.00000000000E+00 -0.00000000000E+00 -0.16191999039E+04  0.16191999039E+04  0.00000000000E+00 0. -1.
         25    2    1    2    0    0 -0.86758719352E+02  0.53783581252E+02 -0.30434649595E+03  0.34450419285E+03  0.12504639259E+03 0.  0.
         24    2    1    2    0    0  0.11886286691E+03 -0.76727387068E+02  0.70112243468E+03  0.71960952683E+03  0.79055231537E+02 0.  0.
         24    2    1    2    0    0 -0.26984772681E+01  0.37197487370E+02  0.28571240443E+03  0.29935358024E+03  0.81179142090E+02 0.  0.
        -11    1    5    5    0    0 -0.61220057850E+01  0.62398850219E+02  0.17937498155E+03  0.19001705047E+03  0.00000000000E+00 0.  1.
         12    1    5    5    0    0  0.34235285168E+01 -0.25201362850E+02  0.10633742288E+03  0.10933652977E+03  0.00000000000E+00 0. -1.
        -11    1    4    4    0    0 -0.56091121271E+01 -0.91242114208E+00  0.29801989518E+01  0.64168712771E+01  0.00000000000E+00 0.  1.
         12    1    4    4    0    0  0.12447197904E+03 -0.75814965926E+02  0.69814223573E+03  0.71319265555E+03  0.00000000000E+00 0. -1.
          5    1    3    3  501    0 -0.88971838803E+02  0.21092753204E+02 -0.92729490088E+02  0.13031400796E+03  0.47000000000E+01 0.  1.
         -5    1    3    3    0  501  0.22131194512E+01  0.32690828047E+02 -0.21161700586E+03  0.21419018490E+03  0.47000000000E+01 0.  1.
          1    1    1    2  502    0 -0.37069058912E+02 -0.55416110715E+02 -0.12774809587E+04  0.12792195513E+04  0.00000000000E+00 0. -1.
          1    1    1    2  503    0  0.76633886236E+01  0.41162429162E+02  0.12164753026E+04  0.12171956437E+04  0.00000000000E+00 0. -1.
<mgrwt>
<rscale>  0 0.52821777E+02</rscale>
<asrwt>0</asrwt>
<pdfrwt beam="1">  1        2 0.32951215E+00 0.41869716E+02</pdfrwt>
<pdfrwt beam="2">  1        2 0.23811763E+00 0.66638621E+02</pdfrwt>
<totfact> 0.17599026E+01</totfact>
</mgrwt>
</event>
<event>
13    1  0.2742815E-008  0.6737260E+02  0.7546771E-02  0.1484682E+00
          2   -1    0    0  502    0  0.00000000000E+00  0.00000000000E+00  0.28839161345E+04  0.28839161345E+04  0.00000000000E+00 0. -1.
          2   -1    0    0  503    0 -0.00000000000E+00 -0.00000000000E+00 -0.15385499694E+04  0.15385499694E+04  0.00000000000E+00 0. -1.
         25    2    1    2    0    0 -0.83251384205E+03 -0.44700995156E+03 -0.17206192877E+03  0.96857070991E+03  0.12500687485E+03 0.  0.
         24    2    1    2    0    0  0.95314930571E+03  0.36981502470E+03 -0.11857346095E+03  0.10351597734E+04  0.11063154782E+03 0.  0.
         24    2    1    2    0    0 -0.63774818588E+02  0.53129574122E+02  0.21425353534E+03  0.24392296719E+03  0.81877087060E+02 0.  0.
        -11    1    4    4    0    0  0.31773501509E+03  0.16966765368E+03 -0.11205935305E+02  0.36037234287E+03  0.00000000000E+00 0.  1.
         12    1    4    4    0    0  0.63541429062E+03  0.20014737102E+03 -0.10736752564E+03  0.67478743054E+03  0.00000000000E+00 0. -1.
        -11    1    5    5    0    0 -0.18097666019E+02 -0.12999196795E+02  0.11027648976E+03  0.11250515022E+03  0.00000000000E+00 0.  1.
         12    1    5    5    0    0 -0.45677152569E+02  0.66128770917E+02  0.10397704559E+03  0.13141781698E+03  0.00000000000E+00 0. -1.
          5    1    3    3  501    0 -0.26078636393E+03 -0.77402148256E+02 -0.38498202149E+02  0.27478140719E+03  0.47000000000E+01 0.  1.
         -5    1    3    3    0  501 -0.57172747812E+03 -0.36960780331E+03 -0.13356372662E+03  0.69378930272E+03  0.47000000000E+01 0.  1.
          1    1    1    2  502    0 -0.67353883741E+02 -0.18275282855E+01  0.17971298925E+04  0.17983925423E+04  0.00000000000E+00 0. -1.
          1    1    1    2  503    0  0.10493238668E+02  0.25892881033E+02 -0.37538187310E+03  0.37642011104E+03  0.00000000000E+00 0. -1.
<mgrwt>
<rscale>  0 0.43385213E+02</rscale>
<asrwt>0</asrwt>
<pdfrwt beam="1">  1        2 0.42410532E+00 0.67372597E+02</pdfrwt>
<pdfrwt beam="2">  1        2 0.22625735E+00 0.27938313E+02</pdfrwt>
<totfact> 0.94137746E+00</totfact>
</mgrwt>
</event>
<event>
13    1  0.2742815E-008  0.1754760E+03  0.7546771E-02  0.1344508E+00
          2   -1    0    0  503    0  0.00000000000E+00  0.00000000000E+00  0.18216608930E+04  0.18216608930E+04  0.00000000000E+00 0. -1.
          2   -1    0    0  502    0 -0.00000000000E+00 -0.00000000000E+00 -0.21350480569E+04  0.21350480569E+04  0.00000000000E+00 0. -1.
         25    2    1    2    0    0 -0.21892189742E+01  0.26123934222E+02 -0.12979140093E+04  0.13041833383E+04  0.12500460684E+03 0.  0.
         24    2    1    2    0    0 -0.59304960006E+02 -0.36755175391E+02 -0.14361488406E+03  0.17763221226E+03  0.77845659535E+02 0.  0.
         24    2    1    2    0    0  0.46667773577E+02 -0.13621915495E+03 -0.11405370302E+03  0.20135692940E+03  0.82479249402E+02 0.  0.
        -11    1    4    4    0    0 -0.34322752838E+02  0.21859431360E+02 -0.51726952121E+02  0.65814615987E+02  0.00000000000E+00 0.  1.
         12    1    4    4    0    0 -0.24982207168E+02 -0.58614606752E+02 -0.91887931942E+02  0.11181759627E+03  0.00000000000E+00 0. -1.
        -11    1    5    5    0    0 -0.12872269654E+02 -0.78153226990E+02 -0.76455001439E+02  0.11008628189E+03  0.00000000000E+00 0.  1.
         12    1    5    5    0    0  0.59540043231E+02 -0.58065927957E+02 -0.37598701576E+02  0.91270647514E+02  0.00000000000E+00 0. -1.
          5    1    3    3  501    0 -0.12161553613E+02  0.55380567693E+02 -0.12010886561E+04  0.12024354288E+04  0.47000000000E+01 0.  1.
         -5    1    3    3    0  501  0.99723346385E+01 -0.29256633471E+02 -0.96825353143E+02  0.10174790942E+03  0.47000000000E+01 0.  1.
          1    1    1    2  502    0  0.11537998912E+02 -0.29719181393E+02 -0.51073681432E+03  0.51173083615E+03  0.00000000000E+00 0. -1.
          1    1    1    2  503    0  0.32884064905E+01  0.17656957751E+03  0.17529322468E+04  0.17618056338E+04  0.00000000000E+00 0. -1.
<mgrwt>
<rscale>  0 0.74794596E+02</rscale>
<asrwt>0</asrwt>
<pdfrwt beam="1">  1        2 0.26789131E+00 0.17547599E+03</pdfrwt>
<pdfrwt beam="2">  1        2 0.31397765E+00 0.31880326E+02</pdfrwt>
<totfact> 0.14923635E+01</totfact>
</mgrwt>
</event>
<event>
13    1  0.2742815E-008  0.6978778E+02  0.7546771E-02  0.1365940E+00
         -1   -1    0    0    0  501 -0.00000000000E+00  0.00000000000E+00  0.78815732676E+03  0.78815732676E+03  0.00000000000E+00 0.  1.
          2   -1    0    0  503    0  0.00000000000E+00 -0.00000000000E+00 -0.33376949397E+04  0.33376949397E+04  0.00000000000E+00 0. -1.
         25    2    1    2    0    0  0.79111341645E+02  0.40775430509E+02 -0.63941231749E+02  0.16623788131E+03  0.12500124782E+03 0.  0.
         24    2    1    2    0    0 -0.54572697529E+03 -0.48066166974E+03 -0.42190527206E+03  0.84722642027E+03  0.10457043694E+03 0.  0.
         24    2    1    2    0    0  0.45274047328E+03  0.48076676646E+03 -0.14666282593E+04  0.16104617493E+04  0.80485868534E+02 0.  0.
        -11    1    4    4    0    0 -0.13467943175E+03 -0.16639600610E+03 -0.88190927287E+02  0.23152498750E+03  0.00000000000E+00 0.  1.
         12    1    4    4    0    0 -0.41104754355E+03 -0.31426566365E+03 -0.33371434478E+03  0.61570143277E+03  0.00000000000E+00 0. -1.
        -13    1    5    5    0    0  0.41493284507E+03  0.42951282776E+03 -0.12624016581E+04  0.13965344541E+04  0.00000000000E+00 0.  1.
         14    1    5    5    0    0  0.37807628204E+02  0.51253938696E+02 -0.20422660116E+03  0.21392729513E+03  0.00000000000E+00 0. -1.
          5    1    3    3  502    0  0.34044299527E+02  0.39771667479E+02 -0.96872791970E+02  0.11021446225E+03  0.47000000000E+01 0. -1.
         -5    1    3    3    0  502  0.45067042118E+02  0.10037630299E+01  0.32931560221E+02  0.56023419068E+02  0.47000000000E+01 0. -1.
          1    1    1    2  503    0  0.69841529316E+02 -0.42986217799E+01 -0.10458487766E+04  0.10481869971E+04  0.00000000000E+00 0. -1.
         -2    1    1    2    0  501 -0.55966368946E+02 -0.36581905439E+02  0.44878592681E+03  0.45373921846E+03  0.00000000000E+00 0.  1.
<mgrwt>
<rscale>  0 0.68309009E+02</rscale>
<asrwt>0</asrwt>
<pdfrwt beam="2">  1        2 0.49083749E+00 0.69787776E+02</pdfrwt>
<pdfrwt beam="1">  1       -1 0.11590549E+00 0.66861575E+02</pdfrwt>
<totfact> 0.17879918E+00</totfact>
</mgrwt>
</event>
<event>
13    1  0.2742815E-008  0.6914818E+02  0.7546771E-02  0.1413984E+00
          2   -1    0    0  502    0  0.00000000000E+00  0.00000000000E+00  0.21160921373E+04  0.21160921373E+04  0.00000000000E+00 0. -1.
          2   -1    0    0  503    0 -0.00000000000E+00 -0.00000000000E+00 -0.44859382146E+03  0.44859382146E+03  0.00000000000E+00 0. -1.
         25    2    1    2    0    0  0.14304306618E+02  0.14609571004E+03 -0.56707307260E+02  0.20097046492E+03  0.12499935758E+03 0.  0.
         24    2    1    2    0    0 -0.68397949732E+02 -0.13264226039E+02  0.13155563421E+03  0.16940260027E+03  0.80846378191E+02 0.  0.
         24    2    1    2    0    0  0.79315192557E+02 -0.20962400390E+03  0.79825518431E+03  0.83285859934E+03  0.78797109339E+02 0.  0.
        -11    1    5    5    0    0  0.44305353497E+02 -0.17503869452E+03  0.70075171480E+03  0.72363974098E+03  0.00000000000E+00 0.  1.
         12    1    5    5    0    0  0.35009839060E+02 -0.34585309377E+02  0.97503469503E+02  0.10921885836E+03  0.00000000000E+00 0. -1.
        -11    1    4    4    0    0 -0.54768510175E+02  0.26839308320E+02  0.97716392381E+02  0.11518867791E+03  0.00000000000E+00 0.  1.
         12    1    4    4    0    0 -0.13629439557E+02 -0.40103534359E+02  0.33839241828E+02  0.54213922365E+02  0.00000000000E+00 0. -1.
          5    1    3    3  501    0 -0.21814004520E+02  0.71899892697E+02 -0.85058878434E+02  0.11358938403E+03  0.47000000000E+01 0. -1.
         -5    1    3    3    0  501  0.36118311139E+02  0.74195817343E+02  0.28351571174E+02  0.87381080897E+02  0.47000000000E+01 0. -1.
          1    1    1    2  502    0  0.29784945840E+02  0.34874127126E+02  0.10732102569E+04  0.10741897426E+04  0.00000000000E+00 0. -1.
          1    1    1    2  503    0 -0.55006495283E+02  0.41918392774E+02 -0.27881545228E+03  0.28726455160E+03  0.00000000000E+00 0. -1.
<mgrwt>
<rscale>  0 0.56314228E+02</rscale>
<asrwt>0</asrwt>
<pdfrwt beam="1">  1        2 0.31119002E+00 0.45862269E+02</pdfrwt>
<pdfrwt beam="2">  1        2 0.65969680E-01 0.69148175E+02</pdfrwt>
<totfact> 0.10232661E+02</totfact>
</mgrwt>
</event>
<event>
13    1  0.2742815E-008  0.1505195E+03  0.7546771E-02  0.1306776E+00
          2   -1    0    0  502    0  0.00000000000E+00  0.00000000000E+00  0.13745126961E+04  0.13745126961E+04  0.00000000000E+00 0. -1.
          2   -1    0    0  503    0 -0.00000000000E+00 -0.00000000000E+00 -0.40210807992E+04  0.40210807992E+04  0.00000000000E+00 0. -1.
         25    2    1    2    0    0 -0.16204606314E+03  0.33656057787E+01 -0.79722742347E+03  0.82308320039E+03  0.12499654457E+03 0.  0.
         24    2    1    2    0    0  0.35227410574E+02  0.62148976410E+02  0.10159008077E+03  0.14921977331E+03  0.82719589642E+02 0.  0.
         24    2    1    2    0    0  0.94022968291E+01 -0.20303486927E+03  0.16136726497E+03  0.26916108664E+03  0.71391421287E+02 0.  0.
        -11    1    5    5    0    0 -0.30511478994E+02 -0.84198508180E+02  0.76425339077E+02  0.11773347690E+03  0.00000000000E+00 0.  1.
         12    1    5    5    0    0  0.39913775823E+02 -0.11883636109E+03  0.84941925893E+02  0.15142760974E+03  0.00000000000E+00 0. -1.
        -13    1    4    4    0    0 -0.21581005469E+02  0.43696207346E+02  0.54868688449E+02  0.73387133106E+02  0.00000000000E+00 0.  1.
         14    1    4    4    0    0  0.56808416043E+02  0.18452769064E+02  0.46721392321E+02  0.75832640200E+02  0.00000000000E+00 0. -1.
          5    1    3    3  501    0  0.62912189765E+01 -0.28720103441E+02 -0.72918294391E+02  0.78762881071E+02  0.47000000000E+01 0.  1.
         -5    1    3    3    0  501 -0.16833728211E+03  0.32085709219E+02 -0.72430912908E+03  0.74432031932E+03  0.47000000000E+01 0.  1.
          1    1    1    2  502    0  0.67771753806E+02  0.15270809108E+03  0.10138635067E+04  0.10275368519E+04  0.00000000000E+00 0. -1.
          1    1    1    2  503    0  0.49644601929E+02 -0.15187804001E+02 -0.31261615321E+04  0.31265925830E+04  0.00000000000E+00 0. -1.
<mgrwt>
<rscale>  0 0.88398814E+02</rscale>
<asrwt>0</asrwt>
<pdfrwt beam="1">  1        2 0.20213422E+00 0.15051954E+03</pdfrwt>
<pdfrwt beam="2">  1        2 0.59133542E+00 0.51915854E+02</pdfrwt>
<totfact> 0.23099536E+00</totfact>
</mgrwt>
</event>
<event>
13    1  0.2742815E-008  0.1060495E+03  0.7546771E-02  0.1283935E+00
          2   -1    0    0  502    0  0.00000000000E+00  0.00000000000E+00  0.17788866402E+04  0.17788866402E+04  0.00000000000E+00 0. -1.
          2   -1    0    0  503    0 -0.00000000000E+00 -0.00000000000E+00 -0.19547447093E+04  0.19547447093E+04  0.00000000000E+00 0. -1.
         25    2    1    2    0    0  0.23355771950E+02  0.19435774151E+03 -0.67669004017E+03  0.71544154507E+03  0.12500708048E+03 0.  0.
         24    2    1    2    0    0  0.54132282736E+02 -0.20861475916E+03  0.14551481397E+03  0.27228638326E+03  0.80714878750E+02 0.  0.
         24    2    1    2    0    0 -0.19840615582E+03  0.15534459197E+03  0.53781090716E+03  0.59901484684E+03  0.77982497744E+02 0.  0.
        -11    1    4    4    0    0 -0.18469860758E+02 -0.22042441846E+02  0.96364357717E+01  0.30329291013E+02  0.00000000000E+00 0.  1.
         12    1    4    4    0    0  0.72602143494E+02 -0.18657231731E+03  0.13587837820E+03  0.24195709225E+03  0.00000000000E+00 0. -1.
        -11    1    5    5    0    0 -0.55537113163E+02  0.61745621758E+02  0.10604610544E+03  0.13469472605E+03  0.00000000000E+00 0.  1.
         12    1    5    5    0    0 -0.14286904266E+03  0.93598970212E+02  0.43176480171E+03  0.46432012079E+03  0.00000000000E+00 0. -1.
          5    1    3    3  501    0  0.59151098018E+02  0.16137371507E+03 -0.60275091353E+03  0.62679429007E+03  0.47000000000E+01 0. -1.
         -5    1    3    3    0  501 -0.35795326068E+02  0.32984026440E+02 -0.73939126649E+02  0.88647254995E+02  0.47000000000E+01 0. -1.
          1    1    1    2  502    0  0.30688848515E+02 -0.85772115368E+02  0.97767126036E+03  0.98190618418E+03  0.00000000000E+00 0. -1.
          1    1    1    2  503    0  0.90229252620E+02 -0.55315458952E+02 -0.11601650104E+04  0.11649823902E+04  0.00000000000E+00 0. -1.
<mgrwt>
<rscale>  0 0.98289302E+02</rscale>
<asrwt>0</asrwt>
<pdfrwt beam="1">  1        2 0.26160098E+00 0.91096988E+02</pdfrwt>
<pdfrwt beam="2">  1        2 0.28746246E+00 0.10604947E+03</pdfrwt>
<totfact> 0.17613428E+01</totfact>
</mgrwt>
</event>
<event>
13    1  0.2742815E-008  0.1631960E+03  0.7546771E-02  0.1197529E+00
          2   -1    0    0  502    0  0.00000000000E+00  0.00000000000E+00  0.57658348884E+03  0.57658348884E+03  0.00000000000E+00 0. -1.
          2   -1    0    0  503    0 -0.00000000000E+00 -0.00000000000E+00 -0.28249706752E+04  0.28249706752E+04  0.00000000000E+00 0. -1.
         25    2    1    2    0    0  0.76041613984E+02 -0.79794294483E+02 -0.65678644751E+03  0.67760170090E+03  0.12500468373E+03 0.  0.
         24    2    1    2    0    0 -0.97288289123E+02 -0.12254046699E+03 -0.80230901537E+02  0.19194591920E+03  0.76974418375E+02 0.  0.
         24    2    1    2    0    0 -0.32416764492E+02 -0.32624819883E+01  0.27146627694E+02  0.89638421551E+02  0.78972253445E+02 0.  0.
        -11    1    5    5    0    0 -0.69196570693E+01  0.25289673934E+02  0.41221317696E+02  0.48853314056E+02  0.00000000000E+00 0.  1.
         12    1    5    5    0    0 -0.25497107423E+02 -0.28552155922E+02 -0.14074690002E+02  0.40785107495E+02  0.00000000000E+00 0. -1.
        -13    1    4    4    0    0 -0.23909793519E+02 -0.63019951942E+02 -0.69563823909E+02  0.96862367129E+02  0.00000000000E+00 0.  1.
         14    1    4    4    0    0 -0.73378495604E+02 -0.59520515050E+02 -0.10667077628E+02  0.95083552069E+02  0.00000000000E+00 0. -1.
          5    1    3    3  501    0  0.22589384278E+02  0.33736678327E+02 -0.14688472888E+03  0.15246526596E+03  0.47000000000E+01 0.  1.
         -5    1    3    3    0  501  0.53452229705E+02 -0.11353097281E+03 -0.50990171863E+03  0.52513643495E+03  0.47000000000E+01 0.  1.
          1    1    1    2  502    0  0.24652833247E+03  0.10269073673E+03  0.40580439223E+03  0.48579708817E+03  0.00000000000E+00 0. -1.
          1    1    1    2  503    0 -0.19286489284E+03  0.10290650674E+03 -0.19443208572E+04  0.19565710342E+04  0.00000000000E+00 0. -1.
<mgrwt>
<rscale>  0 0.15242105E+03</rscale>
<asrwt>0</asrwt>
<pdfrwt beam="1">  1        2 0.84791689E-01 0.14235752E+03</pdfrwt>
<pdfrwt beam="2">  1        2 0.41543687E+00 0.16319598E+03</pdfrwt>
<totfact> 0.29275343E+01</totfact>
</mgrwt>
</event>
<event>
13    1  0.2742815E-008  0.5138362E+02  0.7546771E-02  0.1448072E+00
          2   -1    0    0  503    0  0.00000000000E+00  0.00000000000E+00  0.59604062981E+03  0.59604062981E+03  0.00000000000E+00 0. -1.
          2   -1    0    0  502    0 -0.00000000000E+00 -0.00000000000E+00 -0.83986076523E+03  0.83986076523E+03  0.00000000000E+00 0. -1.
         25    2    1    2    0    0  0.69091021217E+02 -0.11916398221E+03 -0.20412725078E+03  0.27616475095E+03  0.12500164514E+03 0.  0.
         24    2    1    2    0    0 -0.39533794337E+02  0.64070805000E+02  0.16294617821E+03  0.19884918833E+03  0.85566078300E+02 0.  0.
         24    2    1    2    0    0  0.43625095681E+02  0.42258293185E+02  0.24442451708E+03  0.27131287813E+03  0.10088816071E+03 0.  0.
        -11    1    5    5    0    0 -0.16286157373E+02  0.54282781742E+01  0.20388934346E+00  0.17168188511E+02  0.00000000000E+00 0.  1.
         12    1    5    5    0    0  0.59911253054E+02  0.36830015011E+02  0.24422062774E+03  0.25414468962E+03  0.00000000000E+00 0. -1.
        -13    1    4    4    0    0  0.17514647118E+02 -0.59894237466E+01  0.55280262889E+02  0.58297028445E+02  0.00000000000E+00 0.  1.
         14    1    4    4    0    0 -0.57048441456E+02  0.70060228747E+02  0.10766591532E+03  0.14055215988E+03  0.00000000000E+00 0. -1.
          5    1    3    3  501    0  0.96829243917E+02 -0.12406626640E+03 -0.17248160823E+03  0.23353872509E+03  0.47000000000E+01 0.  1.
         -5    1    3    3    0  501 -0.27738222700E+02  0.49022841883E+01 -0.31645642548E+02  0.42626025866E+02  0.47000000000E+01 0.  1.
          1    1    1    2  502    0 -0.28610055304E+02  0.38142670628E+02 -0.56184723266E+03  0.56386674971E+03  0.00000000000E+00 0. -1.
          1    1    1    2  503    0 -0.44572267257E+02 -0.25307786598E+02  0.11478365272E+03  0.12570782793E+03  0.00000000000E+00 0. -1.
<mgrwt>
<rscale>  0 0.49497272E+02</rscale>
<asrwt>0</asrwt>
<pdfrwt beam="1">  1        2 0.87653034E-01 0.51383624E+02</pdfrwt>
<pdfrwt beam="2">  1        2 0.12350894E+00 0.47680170E+02</pdfrwt>
<totfact> 0.32528649E+02</totfact>
</mgrwt>
</event>
<event>
13    1  0.2742815E-008  0.9310514E+02  0.7546771E-02  0.1526308E+00
          2   -1    0    0  503    0  0.00000000000E+00  0.00000000000E+00  0.19515512499E+04  0.19515512499E+04  0.00000000000E+00 0. -1.
          2   -1    0    0  502    0 -0.00000000000E+00 -0.00000000000E+00 -0.15392594421E+04  0.15392594421E+04  0.00000000000E+00 0. -1.
         25    2    1    2    0    0 -0.40636575951E+03 -0.42699297002E+03 -0.29989318094E+02  0.60331011601E+03  0.12501043930E+03 0.  0.
         24    2    1    2    0    0  0.56573178386E+03 -0.35342013114E+03  0.28535850467E+03  0.72992272253E+03  0.79996651867E+02 0.  0.
         24    2    1    2    0    0 -0.18643965336E+03  0.85392639845E+03  0.66305193616E+03  0.11011432509E+04  0.94491007991E+02 0.  0.
        -11    1    5    5    0    0 -0.13924124203E+03  0.46099106888E+03  0.39900070107E+03  0.62538184218E+03  0.00000000000E+00 0.  1.
         12    1    5    5    0    0 -0.47198411332E+02  0.39293532957E+03  0.26405123508E+03  0.47576140869E+03  0.00000000000E+00 0. -1.
        -13    1    4    4    0    0  0.29444232100E+03 -0.15259001151E+03  0.10896846604E+03  0.34907609285E+03  0.00000000000E+00 0.  1.
         14    1    4    4    0    0  0.27128946287E+03 -0.20083011963E+03  0.17639003863E+03  0.38084662968E+03  0.00000000000E+00 0. -1.
          5    1    3    3  501    0 -0.30794152267E+03 -0.32283386933E+03  0.31529704878E+02  0.44728726884E+03  0.47000000000E+01 0.  1.
         -5    1    3    3    0  501 -0.98424236835E+02 -0.10415910068E+03 -0.61519022972E+02  0.15602284717E+03  0.47000000000E+01 0.  1.
          1    1    1    2  502    0  0.35830370186E+02 -0.85961191318E+02 -0.77829331007E+03  0.78384540462E+03  0.00000000000E+00 0. -1.
          1    1    1    2  503    0 -0.87567411797E+01  0.12447894027E+02  0.27216399515E+03  0.27258919795E+03  0.00000000000E+00 0. -1.
<mgrwt>
<rscale>  0 0.37643137E+02</rscale>
<asrwt>0</asrwt>
<pdfrwt beam="1">  1        2 0.28699283E+00 0.15219415E+02</pdfrwt>
<pdfrwt beam="2">  1        2 0.22636168E+00 0.93105140E+02</pdfrwt>
<totfact> 0.28752563E+01</totfact>
</mgrwt>
</event>
<event>
13    1  0.2742815E-008  0.7556996E+02  0.7546771E-02  0.1418267E+00
         -1   -1    0    0    0  501 -0.00000000000E+00  0.00000000000E+00  0.65580057796E+03  0.65580057796E+03  0.00000000000E+00 0.  1.
          2   -1    0    0  503    0  0.00000000000E+00 -0.00000000000E+00 -0.23452187258E+04  0.23452187258E+04  0.00000000000E+00 0. -1.
         25    2    1    2    0    0  0.58202956166E+02  0.92160014813E+01 -0.59793505270E+02  0.15057542842E+03  0.12500071032E+03 0.  0.
         24    2    1    2    0    0 -0.29112905821E+02  0.51757267114E+02 -0.40063662863E+03  0.41325089834E+03  0.82098847698E+02 0.  0.
         24    2    1    2    0    0 -0.66278791845E+02 -0.12797487446E+03 -0.75825933697E+03  0.77594224682E+03  0.79741467022E+02 0.  0.
        -11    1    4    4    0    0  0.13017792582E+02  0.54139430309E+02 -0.17313479612E+03  0.18186862969E+03  0.00000000000E+00 0.  1.
         12    1    4    4    0    0 -0.42130698403E+02 -0.23821631951E+01 -0.22750183251E+03  0.23138226865E+03  0.00000000000E+00 0. -1.
        -13    1    5    5    0    0 -0.42648472290E+02 -0.10631731802E+03 -0.39510409586E+03  0.41137514615E+03  0.00000000000E+00 0.  1.
         14    1    5    5    0    0 -0.23630319555E+02 -0.21657556442E+02 -0.36315524111E+03  0.36456710068E+03  0.00000000000E+00 0. -1.
          5    1    3    3  502    0  0.61686363787E+02  0.58102675671E+02 -0.54938385122E+02  0.10110116002E+03  0.47000000000E+01 0.  1.
         -5    1    3    3    0  502 -0.34834076210E+01 -0.48886674190E+02 -0.48551201488E+01  0.49474268399E+02  0.47000000000E+01 0.  1.
          1    1    1    2  503    0 -0.24564811735E+01  0.75743542383E+02 -0.10639481546E+04  0.10666437054E+04  0.00000000000E+00 0. -1.
         -2    1    1    2    0  501  0.39645222674E+02 -0.87419365223E+01  0.59321947771E+03  0.59460702474E+03  0.00000000000E+00 0.  1.
<mgrwt>
<rscale>  0 0.55389158E+02</rscale>
<asrwt>0</asrwt>
<pdfrwt beam="2">  1        2 0.34488512E+00 0.75569955E+02</pdfrwt>
<pdfrwt beam="1">  1       -1 0.96441259E-01 0.40597600E+02</pdfrwt>
<totfact> 0.87721699E+00</totfact>
</mgrwt>
</event>
<event>
13    1  0.2742815E-008  0.4299346E+02  0.7546771E-02  0.1568173E+00
          2   -1    0    0  502    0  0.00000000000E+00  0.00000000000E+00  0.12448048527E+04  0.12448048527E+04  0.00000000000E+00 0. -1.
          2   -1    0    0  503    0 -0.00000000000E+00 -0.00000000000E+00 -0.23264073163E+04  0.23264073163E+04  0.00000000000E+00 0. -1.
         25    2    1    2    0    0  0.13066810937E+03 -0.18135897454E+02 -0.34679715780E+03  0.39152953506E+03  0.12499617029E+03 0.  0.
         24    2    1    2    0    0 -0.44349451494E+02  0.33669005203E+02  0.10716082819E+03  0.14606135794E+03  0.82158392295E+02 0.  0.
         24    2    1    2    0    0 -0.66315392580E+02 -0.27496237309E+02  0.40939781241E+03  0.42342416578E+03  0.80794065391E+02 0.  0.
        -11    1    5    5    0    0 -0.55366768003E+02 -0.55198611514E+02  0.28765639327E+03  0.29809154014E+03  0.00000000000E+00 0.  1.
         12    1    5    5    0    0 -0.10948624577E+02  0.27702374205E+02  0.12174141913E+03  0.12533262564E+03  0.00000000000E+00 0. -1.
        -13    1    4    4    0    0 -0.38295700985E+02  0.57623383294E+02  0.55145691426E+02  0.88476337509E+02  0.00000000000E+00 0.  1.
         14    1    4    4    0    0 -0.60537505089E+01 -0.23954378091E+02  0.52015136767E+02  0.57585020429E+02  0.00000000000E+00 0. -1.
          5    1    3    3  501    0 -0.20528161678E+02  0.92157150449E+01 -0.20355617593E+02  0.30704657517E+02  0.47000000000E+01 0. -1.
         -5    1    3    3    0  501  0.15119627105E+03 -0.27351612499E+02 -0.32644154020E+03  0.36082487755E+03  0.47000000000E+01 0. -1.
          1    1    1    2  502    0  0.18106282226E+01 -0.25096451922E+02  0.67894406539E+03  0.67941015168E+03  0.00000000000E+00 0. -1.
          1    1    1    2  503    0 -0.21813893523E+02  0.37059581481E+02 -0.19303080118E+04  0.19307869585E+04  0.00000000000E+00 0. -1.
<mgrwt>
<rscale>  0 0.32890543E+02</rscale>
<asrwt>0</asrwt>
<pdfrwt beam="1">  1        2 0.18305954E+00 0.25161683E+02</pdfrwt>
<pdfrwt beam="2">  1        2 0.34211872E+00 0.42993461E+02</pdfrwt>
<totfact> 0.26105561E+01</totfact>
</mgrwt>
</event>
<event>
13    1  0.2742815E-008  0.2407757E+02  0.7546771E-02  0.1715160E+00
          2   -1    0    0  502    0  0.00000000000E+00  0.00000000000E+00  0.14508051367E+04  0.14508051367E+04  0.00000000000E+00 0. -1.
          2   -1    0    0  503    0 -0.00000000000E+00 -0.00000000000E+00 -0.12242086774E+04  0.12242086774E+04  0.00000000000E+00 0. -1.
         25    2    1    2    0    0  0.60698851102E+01 -0.68285988914E+02 -0.80466835302E+02  0.16369927441E+03  0.12499088396E+03 0.  0.
         24    2    1    2    0    0  0.14075311486E+03 -0.89541314307E+02  0.11201267492E+03  0.21898370021E+03  0.87051337173E+02 0.  0.
         24    2    1    2    0    0 -0.11851137690E+03  0.15301055667E+03  0.56338407453E+03  0.60137189870E+03  0.82397622540E+02 0.  0.
        -13    1    4    4    0    0  0.10228653111E+02  0.17833638002E+00 -0.13469713961E+02  0.16914205347E+02  0.00000000000E+00 0.  1.
         14    1    4    4    0    0  0.13052446175E+03 -0.89719650687E+02  0.12548238888E+03  0.20206949486E+03  0.00000000000E+00 0. -1.
        -13    1    5    5    0    0  0.87531967814E+01  0.20276818084E+02  0.10850724813E+03  0.11073206718E+03  0.00000000000E+00 0.  1.
         14    1    5    5    0    0 -0.12726457368E+03  0.13273373858E+03  0.45487682640E+03  0.49063983152E+03  0.00000000000E+00 0. -1.
          5    1    3    3  501    0  0.16945524843E+02  0.29951230657E+02  0.21441080731E+01  0.34798192906E+02  0.47000000000E+01 0.  1.
         -5    1    3    3    0  501 -0.10875639732E+02 -0.98237219571E+02 -0.82610943375E+02  0.12890108151E+03  0.47000000000E+01 0.  1.
          1    1    1    2  502    0 -0.79572799473E+01  0.17679610922E+02  0.66102982947E+03  0.66131408755E+03  0.00000000000E+00 0. -1.
          1    1    1    2  503    0 -0.20354343126E+02 -0.12862864366E+02 -0.10293632844E+04  0.10296448532E+04  0.00000000000E+00 0. -1.
<mgrwt>
<rscale>  0 0.21605813E+02</rscale>
<asrwt>0</asrwt>
<pdfrwt beam="1">  1        2 0.21335370E+00 0.19387804E+02</pdfrwt>
<pdfrwt beam="2">  1        2 0.18003069E+00 0.24077567E+02</pdfrwt>
<totfact> 0.73160833E+01</totfact>
</mgrwt>
</event>
<event>
13    1  0.2742815E-008  0.1043708E+03  0.7546771E-02  0.1427498E+00
          2   -1    0    0  502    0  0.00000000000E+00  0.00000000000E+00  0.26995118964E+04  0.26995118964E+04  0.00000000000E+00 0. -1.
          2   -1    0    0  503    0 -0.00000000000E+00 -0.00000000000E+00 -0.10338938653E+04  0.10338938653E+04  0.00000000000E+00 0. -1.
         25    2    1    2    0    0 -0.40950101921E+02  0.37268123870E+03 -0.34755071081E+03  0.52629418001E+03  0.12500340318E+03 0.  0.
         24    2    1    2    0    0 -0.25446631110E+03 -0.32206072846E+03 -0.13901808395E+03  0.43913476653E+03  0.70972524370E+02 0.  0.
         24    2    1    2    0    0  0.23128447607E+03 -0.50260344664E+01  0.11522784945E+04  0.11780571679E+04  0.80964140135E+02 0.  0.
        -13    1    4    4    0    0 -0.13498326024E+03 -0.21445116592E+03 -0.10760357216E+03  0.27529677051E+03  0.00000000000E+00 0.  1.
         14    1    4    4    0    0 -0.11948305085E+03 -0.10760956254E+03 -0.31414511789E+02  0.16383799603E+03  0.00000000000E+00 0. -1.
        -13    1    5    5    0    0  0.88918209442E+00  0.12221399881E+02  0.97791048094E+02  0.98555782921E+02  0.00000000000E+00 0.  1.
         14    1    5    5    0    0  0.23039529398E+03 -0.17247434347E+02  0.10544874465E+04  0.10795013850E+04  0.00000000000E+00 0. -1.
          5    1    3    3  501    0 -0.59958559682E+02  0.15113964153E+03 -0.20673478977E+03  0.26305813696E+03  0.47000000000E+01 0.  1.
         -5    1    3    3    0  501  0.19008457761E+02  0.22154159717E+03 -0.14081592104E+03  0.26323604305E+03  0.47000000000E+01 0.  1.
          1    1    1    2  502    0  0.78468653238E+02 -0.68930956150E+02  0.12921665937E+04  0.12963808515E+04  0.00000000000E+00 0. -1.
          1    1    1    2  503    0 -0.14336716293E+02  0.23336480378E+02 -0.29225826236E+03  0.29353879584E+03  0.00000000000E+00 0. -1.
<mgrwt>
<rscale>  0 0.53465552E+02</rscale>
<asrwt>0</asrwt>
<pdfrwt beam="1">  1        2 0.39698704E+00 0.10437081E+03</pdfrwt>
<pdfrwt beam="2">  1        2 0.15204322E+00 0.27388551E+02</pdfrwt>
<totfact> 0.19297420E+01</totfact>
</mgrwt>
</event>
<event>
13    1  0.2742815E-008  0.1723571E+03  0.7546771E-02  0.1384587E+00
          2   -1    0    0  503    0  0.00000000000E+00  0.00000000000E+00  0.44865322795E+04  0.44865322795E+04  0.00000000000E+00 0. -1.
          2   -1    0    0  502    0 -0.00000000000E+00 -0.00000000000E+00 -0.22090146158E+04  0.22090146158E+04  0.00000000000E+00 0. -1.
         25    2    1    2    0    0  0.89906632261E+02  0.11457127033E+03 -0.11115980525E+03  0.22178785467E+03  0.12499428654E+03 0.  0.
         24    2    1    2    0    0 -0.20138445281E+03 -0.16527147522E+03  0.43914820444E+03  0.51679117137E+03  0.79696994815E+02 0.  0.
         24    2    1    2    0    0  0.24143808255E+01  0.15560976584E+03  0.46065280701E+03  0.49285095650E+03  0.80503591609E+02 0.  0.
        -11    1    5    5    0    0  0.92942756794E+00  0.15953019449E+03  0.46173765112E+03  0.48852062930E+03  0.00000000000E+00 0.  1.
         12    1    5    5    0    0  0.14849532575E+01 -0.39204286485E+01 -0.10848441099E+01  0.43303272056E+01  0.00000000000E+00 0. -1.
        -13    1    4    4    0    0 -0.18411726371E+03 -0.12484204243E+03  0.40107118825E+03  0.45863144288E+03  0.00000000000E+00 0.  1.
         14    1    4    4    0    0 -0.17267189100E+02 -0.40429432799E+02  0.38077016195E+02  0.58159728491E+02  0.00000000000E+00 0. -1.
          5    1    3    3  501    0 -0.13317261905E+02 -0.15287942599E+02 -0.31377145686E+02  0.37652170256E+02  0.47000000000E+01 0.  1.
         -5    1    3    3    0  501  0.10322389417E+03  0.12985921293E+03 -0.79782659561E+02  0.18413568442E+03  0.47000000000E+01 0.  1.
          1    1    1    2  502    0 -0.81215479577E+01  0.21761886839E+02 -0.19854108719E+04  0.19855467433E+04  0.00000000000E+00 0. -1.
          1    1    1    2  503    0  0.11718498768E+03 -0.12667144778E+03  0.34742873294E+04  0.34785701696E+04  0.00000000000E+00 0. -1.
<mgrwt>
<rscale>  0 0.63273284E+02</rscale>
<asrwt>0</asrwt>
<pdfrwt beam="1">  1        2 0.65978416E+00 0.17235712E+03</pdfrwt>
<pdfrwt beam="2">  1        2 0.32485509E+00 0.23227984E+02</pdfrwt>
<totfact> 0.39392705E-01</totfact>
</mgrwt>
</event>
<event>
13    1  0.2742815E-008  0.7179570E+02  0.7546771E-02  0.1623647E+00
          2   -1    0    0  502    0  0.00000000000E+00  0.00000000000E+00  0.25883197730E+04  0.25883197730E+04  0.00000000000E+00 0. -1.
          2   -1    0    0  503    0 -0.00000000000E+00 -0.00000000000E+00 -0.18730064433E+04  0.18730064433E+04  0.00000000000E+00 0. -1.
         25    2    1    2    0    0  0.16180177198E+03 -0.25997761548E+02 -0.60816052070E+03  0.64213677937E+03  0.12499890984E+03 0.  0.
         24    2    1    2    0    0 -0.73468274830E+02  0.98085523403E+02  0.28860805176E+03  0.32388099048E+03  0.81153750015E+02 0.  0.
         24    2    1    2    0    0 -0.56959020706E+02 -0.18895675214E+02  0.11766057508E+03  0.15469501976E+03  0.80530501230E+02 0.  0.
        -11    1    5    5    0    0 -0.50553556461E+02 -0.27799387683E+02  0.12750924923E+03  0.13995383763E+03  0.00000000000E+00 0.  1.
         12    1    5    5    0    0 -0.64054642451E+01  0.89037124695E+01 -0.98486741565E+01  0.14741182130E+02  0.00000000000E+00 0. -1.
        -13    1    4    4    0    0 -0.31034190291E+02  0.85539793920E+02  0.12640912949E+03  0.15575443920E+03  0.00000000000E+00 0.  1.
         14    1    4    4    0    0 -0.42434084539E+02  0.12545729484E+02  0.16219892227E+03  0.16812655128E+03  0.00000000000E+00 0. -1.
          5    1    3    3  501    0 -0.73717046055E+01  0.20493860496E+02 -0.26750356959E+02  0.34813961916E+02  0.47000000000E+01 0. -1.
         -5    1    3    3    0  501  0.16917347659E+03 -0.46491622044E+02 -0.58141016374E+03  0.60732281746E+03  0.47000000000E+01 0. -1.
          1    1    1    2  502    0 -0.40018470808E+02 -0.59619448251E+02  0.21282798977E+04  0.21294908498E+04  0.00000000000E+00 0. -1.
          1    1    1    2  503    0  0.86439943616E+01  0.64273616095E+01 -0.12110746742E+04  0.12111225768E+04  0.00000000000E+00 0. -1.
<mgrwt>
<rscale>  0 0.27809388E+02</rscale>
<asrwt>0</asrwt>
<pdfrwt beam="1">  1        2 0.38063526E+00 0.71795702E+02</pdfrwt>
<pdfrwt beam="2">  1        2 0.27544212E+00 0.10771704E+02</pdfrwt>
<totfact> 0.10414078E+01</totfact>
</mgrwt>
</event>
<event>
13    1  0.2742815E-008  0.3535292E+02  0.7546771E-02  0.1572130E+00
         -1   -1    0    0    0  501 -0.00000000000E+00  0.00000000000E+00  0.17671489190E+04  0.17671489190E+04  0.00000000000E+00 0.  1.
          2   -1    0    0  503    0  0.00000000000E+00 -0.00000000000E+00 -0.21291630810E+04  0.21291630810E+04  0.00000000000E+00 0. -1.
         25    2    1    2    0    0  0.13476917759E+03 -0.25031140700E+02  0.13426513714E+03  0.22900561034E+03  0.12500861284E+03 0.  0.
         24    2    1    2    0    0 -0.14096088584E+03  0.32267763325E+02  0.63740573585E+02  0.17738600495E+03  0.80571422623E+02 0.  0.
         24    2    1    2    0    0 -0.44390229494E+02 -0.50952645857E+01 -0.52478978056E+02  0.10612204843E+03  0.80693195687E+02 0.  0.
        -13    1    4    4    0    0 -0.63906491818E+02  0.24401840014E+02  0.72212442060E+02  0.99469222782E+02  0.00000000000E+00 0.  1.
         14    1    4    4    0    0 -0.77054394022E+02  0.78659233119E+01 -0.84718684749E+01  0.77916782166E+02  0.00000000000E+00 0. -1.
        -13    1    5    5    0    0  0.19562152321E+02 -0.17413278531E+02 -0.22051354824E+02  0.34236856196E+02  0.00000000000E+00 0.  1.
         14    1    5    5    0    0 -0.63952381815E+02  0.12318013945E+02 -0.30427623231E+02  0.71885192237E+02  0.00000000000E+00 0. -1.
          5    1    3    3  502    0  0.14545095956E+03 -0.50484913093E+02  0.12808278681E+03  0.20032972411E+03  0.47000000000E+01 0. -1.
         -5    1    3    3    0  502 -0.10681781974E+02  0.25453772393E+02  0.61823503339E+01  0.28675886225E+02  0.47000000000E+01 0. -1.
          1    1    1    2  503    0  0.27964592761E+02 -0.21624159188E+02 -0.19453541105E+04  0.19456752653E+04  0.00000000000E+00 0. -1.
         -2    1    1    2    0  501  0.22617344987E+02  0.19482801149E+02  0.14378132158E+04  0.14381230710E+04  0.00000000000E+00 0.  1.
<mgrwt>
<rscale>  0 0.32486069E+02</rscale>
<asrwt>0</asrwt>
<pdfrwt beam="2">  1        2 0.31311222E+00 0.35352920E+02</pdfrwt>
<pdfrwt beam="1">  1       -1 0.25987484E+00 0.29851697E+02</pdfrwt>
<totfact> 0.91281845E-01</totfact>
</mgrwt>
</event>
<event>
13    1  0.2742815E-008  0.6995981E+02  0.7546771E-02  0.1379253E+00
          2   -1    0    0  503    0  0.00000000000E+00  0.00000000000E+00  0.27167860375E+04  0.27167860375E+04  0.00000000000E+00 0. -1.
          2   -1    0    0  502    0 -0.00000000000E+00 -0.00000000000E+00 -0.15900319073E+04  0.15900319073E+04  0.00000000000E+00 0. -1.
         25    2    1    2    0    0  0.26600391626E+02 -0.13635041275E+03 -0.32286877557E+03  0.37305083514E+03  0.12499465376E+03 0.  0.
         24    2    1    2    0    0 -0.61122289101E+02  0.16958628089E+01  0.26541187114E+02  0.10549200467E+03  0.81763795529E+02 0.  0.
         24    2    1    2    0    0  0.93748209697E+02  0.27305217912E+02  0.21563031348E+03  0.24982259040E+03  0.79878613130E+02 0.  0.
        -11    1    5    5    0    0 -0.75616165536E+01  0.31288089894E+01  0.71668257721E+02  0.72133949396E+02  0.00000000000E+00 0.  1.
         12    1    5    5    0    0  0.10130982625E+03  0.24176408923E+02  0.14396205576E+03  0.17768864100E+03  0.00000000000E+00 0. -1.
        -11    1    4    4    0    0 -0.66239248602E+02  0.16494647330E+02  0.44637867805E+02  0.81561330838E+02  0.00000000000E+00 0.  1.
         12    1    4    4    0    0  0.51169595010E+01 -0.14798784521E+02 -0.18096680690E+02  0.23930673828E+02  0.00000000000E+00 0. -1.
          5    1    3    3  501    0 -0.28430951624E+02 -0.12776965195E+03 -0.22534947294E+03  0.26064895535E+03  0.47000000000E+01 0. -1.
         -5    1    3    3    0  501  0.55031343250E+02 -0.85807607999E+01 -0.97519302627E+02  0.11240187979E+03  0.47000000000E+01 0. -1.
          1    1    1    2  502    0 -0.13886314416E+02  0.68415394005E+02 -0.11840992071E+04  0.11861553136E+04  0.00000000000E+00 0. -1.
          1    1    1    2  503    0 -0.45339997805E+02  0.38933938019E+02  0.23915506122E+04  0.23922972009E+04  0.00000000000E+00 0. -1.
<mgrwt>
<rscale>  0 0.64660494E+02</rscale>
<asrwt>0</asrwt>
<pdfrwt beam="1">  1        2 0.39952736E+00 0.59762588E+02</pdfrwt>
<pdfrwt beam="2">  1        2 0.23382822E+00 0.69959813E+02</pdfrwt>
<totfact> 0.10164566E+01</totfact>
</mgrwt>
</event>
<event>
13    1  0.2742815E-008  0.6367825E+02  0.7546771E-02  0.1406575E+00
          2   -1    0    0  503    0  0.00000000000E+00  0.00000000000E+00  0.39038068615E+04  0.39038068615E+04  0.00000000000E+00 0. -1.
          2   -1    0    0  502    0 -0.00000000000E+00 -0.00000000000E+00 -0.22297863933E+04  0.22297863933E+04  0.00000000000E+00 0. -1.
         25    2    1    2    0    0  0.17875472657E+03 -0.34136352597E+03  0.19841332055E+02  0.40558627074E+03  0.12499694165E+03 0.  0.
         24    2    1    2    0    0 -0.25306294806E+03  0.56365742552E+03  0.45510362655E+03  0.77168151588E+03  0.81378756573E+02 0.  0.
         24    2    1    2    0    0  0.15352251926E+03 -0.20509877657E+03  0.14800949846E+04  0.15056039498E+04  0.10260320844E+03 0.  0.
        -11    1    4    4    0    0 -0.52752898485E+02  0.18636079410E+03  0.11164802779E+03  0.22355870814E+03  0.00000000000E+00 0.  1.
         12    1    4    4    0    0 -0.20031004957E+03  0.37729663143E+03  0.34345559876E+03  0.54812280774E+03  0.00000000000E+00 0. -1.
        -13    1    5    5    0    0  0.65721266727E+02 -0.12704173199E+03  0.55738426972E+03  0.57544427245E+03  0.00000000000E+00 0.  1.
         14    1    5    5    0    0  0.87801252535E+02 -0.78057044580E+02  0.92271071485E+03  0.93015967739E+03  0.00000000000E+00 0. -1.
          5    1    3    3  501    0  0.65492088518E+02 -0.15427390882E+03  0.69114916320E+02  0.18135218294E+03  0.47000000000E+01 0.  1.
         -5    1    3    3    0  501  0.11326263805E+03 -0.18708961715E+03 -0.49273584265E+02  0.22423408780E+03  0.47000000000E+01 0.  1.
          1    1    1    2  502    0 -0.38482009465E+02 -0.50735758833E+02 -0.18648877356E+04  0.18659746109E+04  0.00000000000E+00 0. -1.
          1    1    1    2  503    0 -0.40732288305E+02  0.33540635849E+02  0.15838682606E+04  0.15847469074E+04  0.00000000000E+00 0. -1.
<mgrwt>
<rscale>  0 0.57965090E+02</rscale>
<asrwt>0</asrwt>
<pdfrwt beam="1">  1        2 0.57408924E+00 0.52764510E+02</pdfrwt>
<pdfrwt beam="2">  1        2 0.32790976E+00 0.63678250E+02</pdfrwt>
<totfact> 0.11403285E+00</totfact>
</mgrwt>
</event>
<event>
13    1  0.2742815E-008  0.5988791E+02  0.7546771E-02  0.1561036E+00
          2   -1    0    0  502    0  0.00000000000E+00  0.00000000000E+00  0.29778544895E+04  0.29778544895E+04  0.00000000000E+00 0. -1.
          2   -1    0    0  503    0 -0.00000000000E+00 -0.00000000000E+00 -0.10086942751E+04  0.10086942751E+04  0.00000000000E+00 0. -1.
         25    2    1    2    0    0 -0.43763831011E+02 -0.47651356605E+02 -0.32614662225E+02  0.14449524641E+03  0.12501694026E+03 0.  0.
         24    2    1    2    0    0  0.57312394110E+01 -0.49383655287E+02  0.40648183164E+03  0.41639685941E+03  0.75414007700E+02 0.  0.
         24    2    1    2    0    0 -0.10135583442E+01  0.38374352728E+02  0.22072529222E+04  0.22090441510E+04  0.80230794225E+02 0.  0.
        -11    1    5    5    0    0  0.29535645375E+02  0.60066135464E+01  0.36137762339E+03  0.36263234886E+03  0.00000000000E+00 0.  1.
         12    1    5    5    0    0 -0.30549203719E+02  0.32367739182E+02  0.18458752988E+04  0.18464118022E+04  0.00000000000E+00 0. -1.
        -13    1    4    4    0    0 -0.79107981567E+00 -0.69331107191E+02  0.31370375574E+03  0.32127476495E+03  0.00000000000E+00 0.  1.
         14    1    4    4    0    0  0.65223192267E+01  0.19947451904E+02  0.92778075901E+02  0.95122094454E+02  0.00000000000E+00 0. -1.
          5    1    3    3  501    0 -0.33362272322E+02  0.32875113338E+02  0.16028420287E+02  0.49727402389E+02  0.47000000000E+01 0.  1.
         -5    1    3    3    0  501 -0.10401558690E+02 -0.80526469943E+02 -0.48643082512E+02  0.94767844024E+02  0.47000000000E+01 0.  1.
          1    1    1    2  502    0 -0.50970142356E+01  0.18193776075E+02  0.30104923385E+03  0.30164156585E+03  0.00000000000E+00 0. -1.
          1    1    1    2  503    0  0.44143164180E+02  0.40466883089E+02 -0.91300911114E+03  0.91497094194E+03  0.00000000000E+00 0. -1.
<mgrwt>
<rscale>  0 0.33638338E+02</rscale>
<asrwt>0</asrwt>
<pdfrwt beam="1">  1        2 0.43791978E+00 0.18894259E+02</pdfrwt>
<pdfrwt beam="2">  1        2 0.14833739E+00 0.59887915E+02</pdfrwt>
<totfact> 0.18389924E+01</totfact>
</mgrwt>
</event>
<event>
13    1  0.2742815E-008  0.1243122E+03  0.7546771E-02  0.1243991E+00
          4   -1    0    0  503    0 -0.00000000000E+00  0.00000000000E+00  0.38554219749E+03  0.38554219749E+03  0.00000000000E+00 0. -1.
          2   -1    0    0  502    0  0.00000000000E+00 -0.00000000000E+00 -0.25823432152E+04  0.25823432152E+04  0.00000000000E+00 0. -1.
         25    2    1    2    0    0  0.14860663337E+03  0.58448027321E+02 -0.10791708124E+03  0.22972025840E+03  0.12500078926E+03 0.  0.
         24    2    1    2    0    0  0.43982746338E+02 -0.15613248519E+03 -0.40907451832E+03  0.44934762089E+03  0.90881725069E+02 0.  0.
         24    2    1    2    0    0 -0.14584878997E+03  0.13973146576E+03 -0.46331021444E+03  0.51196826910E+03  0.81599030027E+02 0.  0.
        -11    1    5    5    0    0 -0.13402607019E+03  0.14974215993E+03 -0.41249336199E+03  0.45884253904E+03  0.00000000000E+00 0.  1.
         12    1    5    5    0    0 -0.11822719784E+02 -0.10010694174E+02 -0.50816852457E+02  0.53125730062E+02  0.00000000000E+00 0. -1.
        -13    1    4    4    0    0 -0.23386714735E+02 -0.20436426727E+02 -0.41979321603E+02  0.52219243634E+02  0.00000000000E+00 0.  1.
         14    1    4    4    0    0  0.67369461073E+02 -0.13569605847E+03 -0.36709519671E+03  0.39712837725E+03  0.00000000000E+00 0. -1.
          5    1    3    3  501    0  0.15039595888E+03  0.62849304185E+02 -0.48780910059E+02  0.17020765750E+03  0.47000000000E+01 0. -1.
         -5    1    3    3    0  501 -0.17893255119E+01 -0.44012768649E+01 -0.59136171185E+02  0.59512600903E+02  0.47000000000E+01 0. -1.
          1    1    1    2  502    0  0.68411247847E+02 -0.92185431710E+02 -0.14802644199E+04  0.14847090643E+04  0.00000000000E+00 0. -1.
          3    1    1    2  503    0 -0.11515183759E+03  0.50138423823E+02  0.26376521617E+03  0.29214020008E+03  0.00000000000E+00 0. -1.
<mgrwt>
<rscale>  0 0.11945967E+03</rscale>
<asrwt>0</asrwt>
<pdfrwt beam="2">  1        2 0.37975634E+00 0.11479657E+03</pdfrwt>
<pdfrwt beam="1">  1        4 0.56697384E-01 0.12431220E+03</pdfrwt>
<totfact> 0.71420535E+00</totfact>
</mgrwt>
</event>
<event>
13    1  0.2742815E-008  0.5807626E+02  0.7546771E-02  0.1501693E+00
          2   -1    0    0  502    0  0.00000000000E+00  0.00000000000E+00  0.31216525369E+04  0.31216525369E+04  0.00000000000E+00 0. -1.
          2   -1    0    0  503    0 -0.00000000000E+00 -0.00000000000E+00 -0.14162072252E+04  0.14162072252E+04  0.00000000000E+00 0. -1.
         25    2    1    2    0    0 -0.20879162619E+02 -0.49705517791E+02 -0.17931362880E+03  0.22513189125E+03  0.12499765218E+03 0.  0.
         24    2    1    2    0    0 -0.60139535377E+01 -0.64003590875E+02  0.71157563269E+02  0.12449678934E+03  0.79394108498E+02 0.  0.
         24    2    1    2    0    0 -0.70604590502E+01  0.37255769765E+02  0.52446057404E+03  0.53216045244E+03  0.81841376851E+02 0.  0.
        -11    1    5    5    0    0  0.16566226405E+02  0.56463612532E+02  0.30824576086E+03  0.31381209105E+03  0.00000000000E+00 0.  1.
         12    1    5    5    0    0 -0.23626685455E+02 -0.19207842768E+02  0.21621481317E+03  0.21834836140E+03  0.00000000000E+00 0. -1.
        -11    1    4    4    0    0 -0.39637561656E+01 -0.74128378826E+02  0.26755240656E+02  0.78908623185E+02  0.00000000000E+00 0.  1.
         12    1    4    4    0    0 -0.20501973722E+01  0.10124787951E+02  0.44402322612E+02  0.45588166158E+02  0.00000000000E+00 0. -1.
          5    1    3    3  501    0 -0.61325072635E+02  0.11542345471E+02 -0.81779997181E+02  0.10297595939E+03  0.47000000000E+01 0. -1.
         -5    1    3    3    0  501  0.40445910016E+02 -0.61247863262E+02 -0.97533631624E+02  0.12215593186E+03  0.47000000000E+01 0. -1.
          1    1    1    2  502    0  0.33122405114E+02  0.47661983076E+02  0.24720897783E+04  0.24727710429E+04  0.00000000000E+00 0. -1.
          1    1    1    2  503    0  0.83117009282E+00  0.28791355826E+02 -0.11829489752E+04  0.11832995863E+04  0.00000000000E+00 0. -1.
<mgrwt>
<rscale>  0 0.40899765E+02</rscale>
<asrwt>0</asrwt>
<pdfrwt beam="1">  1        2 0.45906655E+00 0.58076256E+02</pdfrwt>
<pdfrwt beam="2">  1        2 0.20826577E+00 0.28803351E+02</pdfrwt>
<totfact> 0.82332835E+00</totfact>
</mgrwt>
</event>
<event>
13    1  0.2742815E-008  0.5947363E+02  0.7546771E-02  0.1606066E+00
         -1   -1    0    0    0  501 -0.00000000000E+00  0.00000000000E+00  0.10043608881E+04  0.10043608881E+04  0.00000000000E+00 0.  1.
          2   -1    0    0  503    0  0.00000000000E+00 -0.00000000000E+00 -0.74449367034E+03  0.74449367034E+03  0.00000000000E+00 0. -1.
         25    2    1    2    0    0 -0.64425624179E+02  0.25755594893E+02  0.21503371380E+03  0.25822321857E+03  0.12500288324E+03 0.  0.
         24    2    1    2    0    0  0.28738687370E+02  0.59986767446E+02  0.16503190078E+02  0.10329888873E+03  0.77291530650E+02 0.  0.
         24    2    1    2    0    0  0.57425668395E+02 -0.23182610379E+02 -0.15286459099E+03  0.18302781049E+03  0.79350207424E+02 0.  0.
        -13    1    5    5    0    0  0.34235496784E+02  0.26556391287E+02 -0.47944833395E+02  0.64622118563E+02  0.00000000000E+00 0.  1.
         14    1    5    5    0    0  0.23190171611E+02 -0.49739001666E+02 -0.10491975760E+03  0.11840569193E+03  0.00000000000E+00 0. -1.
        -13    1    4    4    0    0  0.33024078232E+02  0.67837339747E+02  0.34682601635E+02  0.83038408362E+02  0.00000000000E+00 0.  1.
         14    1    4    4    0    0 -0.42853908626E+01 -0.78505723019E+01 -0.18179411556E+02  0.20260480371E+02  0.00000000000E+00 0. -1.
          5    1    3    3  502    0 -0.82488273411E+02 -0.53885258755E+01  0.69109458948E+02  0.10784970458E+03  0.47000000000E+01 0. -1.
         -5    1    3    3    0  502  0.18062649232E+02  0.31144120768E+02  0.14592425485E+03  0.15037351399E+03  0.47000000000E+01 0. -1.
          1    1    1    2  503    0 -0.77766681445E+01 -0.58932817492E+02 -0.50975245968E+03  0.51320670659E+03  0.00000000000E+00 0. -1.
         -2    1    1    2    0  501 -0.13962063441E+02 -0.36269344675E+01  0.69094736458E+03  0.69109793408E+03  0.00000000000E+00 0.  1.
<mgrwt>
<rscale>  0 0.29290519E+02</rscale>
<asrwt>0</asrwt>
<pdfrwt beam="2">  1        2 0.10948436E+00 0.59473634E+02</pdfrwt>
<pdfrwt beam="1">  1       -1 0.14770013E+00 0.14425459E+02</pdfrwt>
<totfact> 0.23798653E+01</totfact>
</mgrwt>
</event>
<event>
13    1  0.2742815E-008  0.1257230E+03  0.7546771E-02  0.1410279E+00
          2   -1    0    0  502    0  0.00000000000E+00  0.00000000000E+00  0.21387272593E+04  0.21387272593E+04  0.00000000000E+00 0. -1.
          2   -1    0    0  503    0 -0.00000000000E+00 -0.00000000000E+00 -0.15498894255E+04  0.15498894255E+04  0.00000000000E+00 0. -1.
         25    2    1    2    0    0  0.17090038070E+03  0.82135161070E+02 -0.45754899944E+03  0.51081064668E+03  0.12499322009E+03 0.  0.
         24    2    1    2    0    0  0.18559262846E+02  0.57674021212E+02 -0.16760513059E+03  0.19574028692E+03  0.80944679659E+02 0.  0.
         24    2    1    2    0    0 -0.68597877443E+02  0.18369011158E+02  0.63027142401E+03  0.63920000547E+03  0.79318911422E+02 0.  0.
        -11    1    4    4    0    0 -0.19269856094E+02  0.27297291281E+02 -0.13036704032E+03  0.13458095952E+03  0.00000000000E+00 0.  1.
         12    1    4    4    0    0  0.37829118940E+02  0.30376729931E+02 -0.37238090274E+02  0.61159327403E+02  0.00000000000E+00 0. -1.
        -11    1    5    5    0    0 -0.49198314926E+02 -0.21622253869E+02  0.46357232461E+03  0.46667686486E+03  0.00000000000E+00 0.  1.
         12    1    5    5    0    0 -0.19399562517E+02  0.39991265027E+02  0.16669909940E+03  0.17252314061E+03  0.00000000000E+00 0. -1.
          5    1    3    3  501    0  0.61303391924E+02  0.17417989859E+02 -0.30715183236E+03  0.31372891221E+03  0.47000000000E+01 0.  1.
         -5    1    3    3    0  501  0.10959698877E+03  0.64717171211E+02 -0.15039716708E+03  0.19708173447E+03  0.47000000000E+01 0.  1.
          1    1    1    2  502    0 -0.20718300194E+02 -0.15645239762E+02  0.14545514243E+04  0.14547830998E+04  0.00000000000E+00 0. -1.
          1    1    1    2  503    0 -0.10014346591E+03 -0.14253295368E+03 -0.87083088447E+03  0.88808264593E+03  0.00000000000E+00 0. -1.
<mgrwt>
<rscale>  0 0.57131513E+02</rscale>
<asrwt>0</asrwt>
<pdfrwt beam="1">  1        2 0.31451871E+00 0.25961924E+02</pdfrwt>
<pdfrwt beam="2">  1        2 0.22792492E+00 0.12572296E+03</pdfrwt>
<totfact> 0.21399795E+01</totfact>
</mgrwt>
</event>
<event>
13    1  0.2742815E-008  0.6415216E+02  0.7546771E-02  0.1582578E+00
          2   -1    0    0  503    0  0.00000000000E+00  0.00000000000E+00  0.97422719615E+03  0.97422719615E+03  0.00000000000E+00 0. -1.
          2   -1    0    0  502    0 -0.00000000000E+00 -0.00000000000E+00 -0.70816345279E+03  0.70816345279E+03  0.00000000000E+00 0. -1.
         25    2    1    2    0    0  0.66822881611E+02  0.25401320079E+02  0.26170632795E+02  0.14636292177E+03  0.12500671294E+03 0.  0.
         24    2    1    2    0    0  0.51211362995E+02  0.24113284901E+02  0.25861442300E+03  0.27669595074E+03  0.80468473102E+02 0.  0.
         24    2    1    2    0    0 -0.82759031696E+02 -0.58800250352E+01  0.39948476260E+03  0.41598789196E+03  0.81081555759E+02 0.  0.
        -13    1    4    4    0    0  0.95252696252E+01 -0.19346926366E+02  0.16358245406E+02  0.27067074352E+02  0.00000000000E+00 0.  1.
         14    1    4    4    0    0  0.41686093369E+02  0.43460211267E+02  0.24225617760E+03  0.24962887639E+03  0.00000000000E+00 0. -1.
        -13    1    5    5    0    0 -0.34522077982E+02  0.26462336410E+02  0.78082159405E+02  0.89380382265E+02  0.00000000000E+00 0.  1.
         14    1    5    5    0    0 -0.48236953714E+02 -0.32342361445E+02  0.32140260319E+03  0.32660750969E+03  0.00000000000E+00 0. -1.
          5    1    3    3  501    0 -0.29671245840E+02  0.22862419626E+02 -0.15897216554E+02  0.40961989149E+02  0.47000000000E+01 0. -1.
         -5    1    3    3    0  501  0.96494127451E+02  0.25389004528E+01  0.42067849349E+02  0.10540093262E+03  0.47000000000E+01 0. -1.
          1    1    1    2  502    0 -0.28510738401E+02 -0.57491044290E+02 -0.62886030710E+03  0.63212606988E+03  0.00000000000E+00 0. -1.
          1    1    1    2  503    0 -0.67644745085E+01  0.13856464345E+02  0.21065423206E+03  0.21121781460E+03  0.00000000000E+00 0. -1.
<mgrwt>
<rscale>  0 0.31451418E+02</rscale>
<asrwt>0</asrwt>
<pdfrwt beam="1">  1        2 0.14326870E+00 0.15419459E+02</pdfrwt>
<pdfrwt beam="2">  1        2 0.10414168E+00 0.64152165E+02</pdfrwt>
<totfact> 0.23593525E+02</totfact>
</mgrwt>
</event>
<event>
13    1  0.2742815E-008  0.5398794E+02  0.7546771E-02  0.1536419E+00
          2   -1    0    0  503    0  0.00000000000E+00  0.00000000000E+00  0.38571831461E+04  0.38571831461E+04  0.00000000000E+00 0. -1.
         -3   -1    0    0    0  501 -0.00000000000E+00 -0.00000000000E+00 -0.22302557525E+04  0.22302557525E+04  0.00000000000E+00 0.  1.
         25    2    1    2    0    0  0.37470801223E+02 -0.13339595723E+03 -0.11798481918E+03  0.22077949222E+03  0.12499849712E+03 0.  0.
         24    2    1    2    0    0 -0.19885982315E+01  0.24466754741E+03  0.31647489363E+03  0.40862198703E+03  0.83363101579E+02 0.  0.
         24    2    1    2    0    0  0.36760147808E+02 -0.81472486007E+02  0.43049144585E+03  0.44950723522E+03  0.93513609258E+02 0.  0.
        -11    1    5    5    0    0  0.62237759475E+02 -0.75887385118E+02  0.38244728267E+03  0.39483966106E+03  0.00000000000E+00 0.  1.
         12    1    5    5    0    0 -0.25477611666E+02 -0.55851008886E+01  0.48044163181E+02  0.54667574155E+02  0.00000000000E+00 0. -1.
        -13    1    4    4    0    0  0.25984046546E+01  0.24979912887E+03  0.31412549255E+03  0.40134920152E+03  0.00000000000E+00 0.  1.
         14    1    4    4    0    0 -0.45870028861E+01 -0.51315814510E+01  0.23494010795E+01  0.72727855116E+01  0.00000000000E+00 0. -1.
          5    1    3    3  502    0  0.22839820547E+02  0.20726138158E+02 -0.26198627714E+02  0.40739272203E+02  0.47000000000E+01 0. -1.
         -5    1    3    3    0  502  0.14630980676E+02 -0.15412209538E+03 -0.91786191468E+02  0.18004022002E+03  0.47000000000E+01 0. -1.
          1    1    1    2  503    0 -0.51124956964E+02 -0.17266887682E+02  0.30029204402E+04  0.30034052468E+04  0.00000000000E+00 0. -1.
         -4    1    1    2    0  501 -0.21117393836E+02 -0.12532216500E+02 -0.20049745668E+04  0.20051249374E+04  0.00000000000E+00 0.  1.
<mgrwt>
<rscale>  0 0.36410600E+02</rscale>
<asrwt>0</asrwt>
<pdfrwt beam="1">  1        2 0.56723282E+00 0.53987937E+02</pdfrwt>
<pdfrwt beam="2">  1       -3 0.32797879E+00 0.24556074E+02</pdfrwt>
<totfact> 0.24920892E-02</totfact>
</mgrwt>
</event>
<event>
13    1  0.2742815E-008  0.6065390E+02  0.7546771E-02  0.1401745E+00
         -1   -1    0    0    0  501 -0.00000000000E+00  0.00000000000E+00  0.61143396307E+03  0.61143396307E+03  0.00000000000E+00 0.  1.
          2   -1    0    0  503    0  0.00000000000E+00 -0.00000000000E+00 -0.19267736937E+04  0.19267736937E+04  0.00000000000E+00 0. -1.
         25    2    1    2    0    0 -0.16871518991E+02 -0.29579139523E+02  0.20824588282E+03  0.24525518663E+03  0.12499674079E+03 0.  0.
         24    2    1    2    0    0  0.79200988530E+02 -0.50822443882E+02 -0.70497144737E+02  0.14251316246E+03  0.80525999967E+02 0.  0.
         24    2    1    2    0    0 -0.74489772552E+02 -0.33134507790E+02 -0.14002874539E+03  0.18076487318E+03  0.80132814871E+02 0.  0.
        -11    1    4    4    0    0  0.22560582405E+02 -0.60762133527E+02 -0.26141694838E+02  0.69888518071E+02  0.00000000000E+00 0.  1.
         12    1    4    4    0    0  0.56640406125E+02  0.99396896446E+01 -0.44355449899E+02  0.72624644384E+02  0.00000000000E+00 0. -1.
        -13    1    5    5    0    0  0.16751389465E+02 -0.72381861219E+01 -0.13820349131E+02  0.22891099524E+02  0.00000000000E+00 0.  1.
         14    1    5    5    0    0 -0.91241162017E+02 -0.25896321669E+02 -0.12620839626E+03  0.15787377366E+03  0.00000000000E+00 0. -1.
          5    1    3    3  502    0  0.45610603321E+02  0.11686207674E+02  0.12249226508E+03  0.13131389717E+03  0.47000000000E+01 0. -1.
         -5    1    3    3    0  502 -0.62482122312E+02 -0.41265347197E+02  0.85753617740E+02  0.11394128946E+03  0.47000000000E+01 0. -1.
          1    1    1    2  503    0 -0.82707021409E+01  0.56944092589E+02 -0.16381010463E+04  0.16391113666E+04  0.00000000000E+00 0. -1.
         -2    1    1    2    0  501  0.20431005154E+02  0.56591998607E+02  0.32504132293E+03  0.33056306795E+03  0.00000000000E+00 0.  1.
<mgrwt>
<rscale>  0 0.59077253E+02</rscale>
<asrwt>0</asrwt>
<pdfrwt beam="2">  1        2 0.28334907E+00 0.57541587E+02</pdfrwt>
<pdfrwt beam="1">  1       -1 0.89916760E-01 0.60653904E+02</pdfrwt>
<totfact> 0.16317029E+01</totfact>
</mgrwt>
</event>
<event>
13    1  0.2742815E-008  0.5898707E+02  0.7546771E-02  0.1438734E+00
          2   -1    0    0  502    0  0.00000000000E+00  0.00000000000E+00  0.18538926183E+04  0.18538926183E+04  0.00000000000E+00 0. -1.
          2   -1    0    0  503    0 -0.00000000000E+00 -0.00000000000E+00 -0.21950557192E+04  0.21950557192E+04  0.00000000000E+00 0. -1.
         25    2    1    2    0    0  0.22069022378E+02 -0.19970788953E+02 -0.43974218227E+03  0.45813015954E+03  0.12499672816E+03 0.  0.
         24    2    1    2    0    0 -0.15734228704E+02  0.45058384601E+02  0.30417201001E+02  0.97390878394E+02  0.79258773028E+02 0.  0.
         24    2    1    2    0    0 -0.33914991398E+02 -0.30332783602E+01  0.65517658893E+02  0.10738066246E+03  0.77965477131E+02 0.  0.
        -13    1    5    5    0    0 -0.20844481110E+02 -0.26175235516E+02 -0.32861380343E+01  0.33621928117E+02  0.00000000000E+00 0.  1.
         14    1    5    5    0    0 -0.13070510288E+02  0.23141957156E+02  0.68803796928E+02  0.73758734343E+02  0.00000000000E+00 0. -1.
        -13    1    4    4    0    0  0.28605770801E+02 -0.53588447112E+00  0.13157228704E+02  0.31491109260E+02  0.00000000000E+00 0.  1.
         14    1    4    4    0    0 -0.44339999504E+02  0.45594269072E+02  0.17259972296E+02  0.65899769134E+02  0.00000000000E+00 0. -1.
          5    1    3    3  501    0 -0.50551667753E+02  0.57722800905E+01 -0.18789081961E+03  0.19471476683E+03  0.47000000000E+01 0.  1.
         -5    1    3    3    0  501  0.72620690131E+02 -0.25743069044E+02 -0.25185136266E+03  0.26341539271E+03  0.47000000000E+01 0.  1.
          1    1    1    2  502    0  0.58108698917E+02  0.10351610894E+02  0.16935383013E+04  0.16945665389E+04  0.00000000000E+00 0. -1.
          1    1    1    2  503    0 -0.30528501193E+02 -0.32405928181E+02 -0.16908940798E+04  0.16914800982E+04  0.00000000000E+00 0. -1.
<mgrwt>
<rscale>  0 0.51246196E+02</rscale>
<asrwt>0</asrwt>
<pdfrwt beam="1">  1        2 0.27263127E+00 0.58987067E+02</pdfrwt>
<pdfrwt beam="2">  1        2 0.32280231E+00 0.44521159E+02</pdfrwt>
<totfact> 0.14366921E+01</totfact>
</mgrwt>
</event>
<event>
13    1  0.2742815E-008  0.8340085E+02  0.7546771E-02  0.1417748E+00
          2   -1    0    0  502    0  0.00000000000E+00  0.00000000000E+00  0.70336592964E+03  0.70336592964E+03  0.00000000000E+00 0. -1.
          2   -1    0    0  503    0 -0.00000000000E+00 -0.00000000000E+00 -0.95429369365E+03  0.95429369365E+03  0.00000000000E+00 0. -1.
         25    2    1    2    0    0 -0.34765296359E+02 -0.14500254795E+03 -0.35778184048E+03  0.40726970704E+03  0.12500561651E+03 0.  0.
         24    2    1    2    0    0 -0.12021670377E+02  0.58689432286E+02  0.87859304163E+02  0.13343787704E+03  0.80606697494E+02 0.  0.
         24    2    1    2    0    0 -0.64372448559E+01 -0.48812947841E+02  0.15597447437E+03  0.18180846589E+03  0.79386016516E+02 0.  0.
        -11    1    4    4    0    0 -0.22285216903E+02  0.75850574666E+02  0.78318656233E+02  0.11128230984E+03  0.00000000000E+00 0.  1.
         12    1    4    4    0    0  0.10263546526E+02 -0.17161142380E+02  0.95406479297E+01  0.22155567201E+02  0.00000000000E+00 0. -1.
        -13    1    5    5    0    0 -0.77736421360E+01 -0.67073872699E+02  0.85245670880E+02  0.10874814166E+03  0.00000000000E+00 0.  1.
         14    1    5    5    0    0  0.13363972801E+01  0.18260924858E+02  0.70728803486E+02  0.73060324233E+02  0.00000000000E+00 0. -1.
          5    1    3    3  501    0 -0.51102012365E+02 -0.13433629092E+03 -0.35943349777E+03  0.38713328977E+03  0.47000000000E+01 0.  1.
         -5    1    3    3    0  501  0.16336716006E+02 -0.10666257026E+02  0.16516572978E+01  0.20136417273E+02  0.47000000000E+01 0.  1.
          1    1    1    2  502    0  0.42475814902E+02  0.99791385933E+02  0.39105648958E+03  0.40581731555E+03  0.00000000000E+00 0. -1.
          1    1    1    2  503    0  0.10748396691E+02  0.35334677566E+02 -0.52803619164E+03  0.52932625776E+03  0.00000000000E+00 0. -1.
<mgrwt>
<rscale>  0 0.55500156E+02</rscale>
<asrwt>0</asrwt>
<pdfrwt beam="1">  1        2 0.10343617E+00 0.83400850E+02</pdfrwt>
<pdfrwt beam="2">  1        2 0.14033731E+00 0.36933284E+02</pdfrwt>
<totfact> 0.23186780E+02</totfact>
</mgrwt>
</event>
<event>
13    1  0.2742815E-008  0.8158023E+02  0.7546771E-02  0.1437463E+00
          2   -1    0    0  502    0  0.00000000000E+00  0.00000000000E+00  0.29731956050E+04  0.29731956050E+04  0.00000000000E+00 0. -1.
          2   -1    0    0  503    0 -0.00000000000E+00 -0.00000000000E+00 -0.11517021362E+04  0.11517021362E+04  0.00000000000E+00 0. -1.
         25    2    1    2    0    0 -0.16797668750E+03  0.41573258812E+03 -0.43004062977E+03  0.63372638293E+03  0.12499773118E+03 0.  0.
         24    2    1    2    0    0  0.23882254970E+03 -0.76953344100E+02  0.39421973209E+03  0.47471856672E+03  0.83609168188E+02 0.  0.
         24    2    1    2    0    0 -0.68378606609E+02 -0.22519612937E+03  0.11107123199E+04  0.11384274490E+04  0.83344276295E+02 0.  0.
        -11    1    5    5    0    0 -0.47726439224E+02 -0.55306258393E+02  0.23291421012E+03  0.24410166836E+03  0.00000000000E+00 0.  1.
         12    1    5    5    0    0 -0.20652167384E+02 -0.16988987098E+03  0.87779810982E+03  0.89432578062E+03  0.00000000000E+00 0. -1.
        -13    1    4    4    0    0  0.30316296120E+02 -0.35854287435E+02  0.40209496212E+02  0.61817564846E+02  0.00000000000E+00 0.  1.
         14    1    4    4    0    0  0.20850625358E+03 -0.41099056665E+02  0.35401023588E+03  0.41290100187E+03  0.00000000000E+00 0. -1.
          5    1    3    3  501    0 -0.11412846546E+03  0.28735118055E+03 -0.36956750411E+03  0.48186952351E+03  0.47000000000E+01 0. -1.
         -5    1    3    3    0  501 -0.53848222038E+02  0.12838140757E+03 -0.60473125658E+02  0.15185685942E+03  0.47000000000E+01 0. -1.
          1    1    1    2  502    0 -0.60745931616E+01 -0.81284698625E+02  0.13105797156E+04  0.13131120645E+04  0.00000000000E+00 0. -1.
          1    1    1    2  503    0  0.36073375707E+01 -0.32298416022E+02 -0.56397766912E+03  0.56491327815E+03  0.00000000000E+00 0. -1.
<mgrwt>
<rscale>  0 0.51490732E+02</rscale>
<asrwt>0</asrwt>
<pdfrwt beam="1">  1        2 0.43723465E+00 0.81580233E+02</pdfrwt>
<pdfrwt beam="2">  1        2 0.16936796E+00 0.32499239E+02</pdfrwt>
<totfact> 0.12429143E+01</totfact>
</mgrwt>
</event>
<event>
13    1  0.2742815E-008  0.1422307E+03  0.7546771E-02  0.1254974E+00
          2   -1    0    0  502    0  0.00000000000E+00  0.00000000000E+00  0.11541882561E+04  0.11541882561E+04  0.00000000000E+00 0. -1.
          2   -1    0    0  503    0 -0.00000000000E+00 -0.00000000000E+00 -0.21234935815E+04  0.21234935815E+04  0.00000000000E+00 0. -1.
         25    2    1    2    0    0  0.12407168201E+03  0.11337433357E+03 -0.56189830872E+03  0.59966837847E+03  0.12499973201E+03 0.  0.
         24    2    1    2    0    0  0.69242281987E+02 -0.11184542313E+02 -0.16696357303E+03  0.19836152270E+03  0.80937453416E+02 0.  0.
         24    2    1    2    0    0  0.36921897194E+02  0.13414333130E+02  0.69679071160E+02  0.11380628478E+03  0.80953855204E+02 0.  0.
        -13    1    5    5    0    0  0.19079679761E+02 -0.26132313227E+02  0.61734053669E+02  0.69699536274E+02  0.00000000000E+00 0.  1.
         14    1    5    5    0    0  0.17842217433E+02  0.39546646357E+02  0.79450174908E+01  0.44106748508E+02  0.00000000000E+00 0. -1.
        -13    1    4    4    0    0 -0.57576868071E+01  0.19908676943E+02 -0.63797725049E+02  0.67079475970E+02  0.00000000000E+00 0.  1.
         14    1    4    4    0    0  0.74999968794E+02 -0.31093219256E+02 -0.10316584798E+03  0.13128204673E+03  0.00000000000E+00 0. -1.
          5    1    3    3  501    0  0.43060333041E+02  0.89008295941E+02 -0.15405013982E+03  0.18311254628E+03  0.47000000000E+01 0. -1.
         -5    1    3    3    0  501  0.81011348970E+02  0.24366037633E+02 -0.40784816890E+03  0.41655583219E+03  0.47000000000E+01 0. -1.
          1    1    1    2  502    0 -0.12408829960E+03 -0.28323830067E+02  0.10203685831E+04  0.10282763203E+04  0.00000000000E+00 0. -1.
          1    1    1    2  503    0 -0.10614756159E+03 -0.87280294324E+02 -0.13304910979E+04  0.13375693314E+04  0.00000000000E+00 0. -1.
<mgrwt>
<rscale>  0 0.11307799E+03</rscale>
<asrwt>0</asrwt>
<pdfrwt beam="1">  1        2 0.16973357E+00 0.89900641E+02</pdfrwt>
<pdfrwt beam="2">  1        2 0.31227846E+00 0.14223071E+03</pdfrwt>
<totfact> 0.29048639E+01</totfact>
</mgrwt>
</event>
<event>
13    1  0.2742815E-008  0.1731025E+02  0.7546771E-02  0.1912117E+00
          2   -1    0    0  503    0  0.00000000000E+00  0.00000000000E+00  0.96794711511E+03  0.96794711511E+03  0.00000000000E+00 0. -1.
          2   -1    0    0  502    0 -0.00000000000E+00 -0.00000000000E+00 -0.12951395676E+04  0.12951395676E+04  0.00000000000E+00 0. -1.
         25    2    1    2    0    0  0.12039948663E+02 -0.52415219324E+02 -0.62498821462E+02  0.14977629354E+03  0.12503807357E+03 0.  0.
         24    2    1    2    0    0 -0.53931092642E+02  0.54273641462E+02  0.16545414120E+03  0.20052384865E+03  0.83549686564E+02 0.  0.
         24    2    1    2    0    0  0.47230703407E+02 -0.86247887689E+01  0.53262778367E+03  0.54100744930E+03  0.81802065615E+02 0.  0.
        -11    1    4    4    0    0  0.64693840211E+01  0.31334722771E+02  0.11257531465E+03  0.11703383805E+03  0.00000000000E+00 0.  1.
         12    1    4    4    0    0 -0.60400476663E+02  0.22938918691E+02  0.52878826551E+02  0.83490010596E+02  0.00000000000E+00 0. -1.
        -13    1    5    5    0    0  0.40197101233E+02  0.73646421583E+01  0.10001121258E+03  0.10803836145E+03  0.00000000000E+00 0.  1.
         14    1    5    5    0    0  0.70336021740E+01 -0.15989430927E+02  0.43261657109E+03  0.43296908786E+03  0.00000000000E+00 0. -1.
          5    1    3    3  501    0 -0.35127740975E+02 -0.71656019643E+02 -0.17930216578E+02  0.81927565591E+02  0.47000000000E+01 0.  1.
         -5    1    3    3    0  501  0.47167689639E+02  0.19240800320E+02 -0.44568604884E+02  0.67848727948E+02  0.47000000000E+01 0.  1.
          1    1    1    2  502    0 -0.16103335853E+02  0.63526389386E+01 -0.11670712443E+04  0.11671996242E+04  0.00000000000E+00 0. -1.
          1    1    1    2  503    0  0.10763776425E+02  0.41372769177E+00  0.20429568837E+03  0.20457946706E+03  0.00000000000E+00 0. -1.
<mgrwt>
<rscale>  0 0.13655081E+02</rscale>
<asrwt>0</asrwt>
<pdfrwt beam="1">  1        2 0.14234516E+00 0.10771725E+02</pdfrwt>
<pdfrwt beam="2">  1        2 0.19046170E+00 0.17310250E+02</pdfrwt>
<totfact> 0.12236430E+02</totfact>
</mgrwt>
</event>
<event>
13    1  0.2742815E-008  0.2171322E+03  0.7546771E-02  0.1314930E+00
          2   -1    0    0  502    0  0.00000000000E+00  0.00000000000E+00  0.35716814974E+04  0.35716814974E+04  0.00000000000E+00 0. -1.
          2   -1    0    0  503    0 -0.00000000000E+00 -0.00000000000E+00 -0.10178291215E+04  0.10178291215E+04  0.00000000000E+00 0. -1.
         25    2    1    2    0    0  0.62815470438E+03  0.42554034899E+03  0.11496464248E+03  0.77749883415E+03  0.12499858728E+03 0.  0.
         24    2    1    2    0    0 -0.36676888680E+03 -0.64950506796E+03  0.48434284205E+03  0.89291499728E+03  0.79579859845E+02 0.  0.
         24    2    1    2    0    0 -0.32847673610E+03  0.41434762602E+03  0.13028224448E+04  0.14072237446E+04  0.57891478605E+02 0.  0.
        -11    1    4    4    0    0 -0.21235937074E+03 -0.36095706613E+03  0.31772889549E+03  0.52567875833E+03  0.00000000000E+00 0.  1.
         12    1    4    4    0    0 -0.15440951606E+03 -0.28854800183E+03  0.16661394656E+03  0.36723623895E+03  0.00000000000E+00 0. -1.
        -13    1    5    5    0    0 -0.18474515124E+03  0.24133831054E+03  0.82210366355E+03  0.87648695636E+03  0.00000000000E+00 0.  1.
         14    1    5    5    0    0 -0.14373158486E+03  0.17300931548E+03  0.48071878123E+03  0.53073678821E+03  0.00000000000E+00 0. -1.
          5    1    3    3  501    0  0.36359106464E+03  0.31548873076E+03  0.90867666919E+02  0.48990879193E+03  0.47000000000E+01 0. -1.
         -5    1    3    3    0  501  0.26456363974E+03  0.11005161823E+03  0.24096975560E+02  0.28759004221E+03  0.47000000000E+01 0. -1.
          1    1    1    2  502    0  0.42685519011E+02 -0.21322238529E+03  0.10701970010E+04  0.10920656848E+04  0.00000000000E+00 0. -1.
          1    1    1    2  503    0  0.24405399506E+02  0.22839478251E+02 -0.41847455430E+03  0.41980735807E+03  0.00000000000E+00 0. -1.
<mgrwt>
<rscale>  0 0.85192461E+02</rscale>
<asrwt>0</asrwt>
<pdfrwt beam="1">  1        2 0.52524728E+00 0.21713217E+03</pdfrwt>
<pdfrwt beam="2">  1        2 0.14968075E+00 0.33425519E+02</pdfrwt>
<totfact> 0.56849082E+00</totfact>
</mgrwt>
</event>
<event>
13    1  0.2742815E-008  0.7892369E+02  0.7546771E-02  0.1444979E+00
          2   -1    0    0  503    0  0.00000000000E+00  0.00000000000E+00  0.10959300048E+04  0.10959300048E+04  0.00000000000E+00 0. -1.
          2   -1    0    0  502    0 -0.00000000000E+00 -0.00000000000E+00 -0.83295530842E+03  0.83295530842E+03  0.00000000000E+00 0. -1.
         25    2    1    2    0    0 -0.11342842835E+03 -0.13199168384E+03 -0.11666705491E+03  0.24397242581E+03  0.12499411943E+03 0.  0.
         24    2    1    2    0    0  0.12194536417E+02 -0.56390984390E+01  0.10702095526E+03  0.13868365635E+03  0.87173192693E+02 0.  0.
         24    2    1    2    0    0  0.89435186312E+01  0.78731150518E+02  0.48932656129E+02  0.12227320895E+03  0.79232267447E+02 0.  0.
        -11    1    4    4    0    0 -0.60094415642E+01  0.38213943663E+02  0.63040965764E+02  0.73963384472E+02  0.00000000000E+00 0.  1.
         12    1    4    4    0    0  0.18203977981E+02 -0.43853042102E+02  0.43979989498E+02  0.64720271879E+02  0.00000000000E+00 0. -1.
        -13    1    5    5    0    0  0.36443041792E+02  0.98169521805E+01  0.13900634740E+02  0.40220585418E+02  0.00000000000E+00 0.  1.
         14    1    5    5    0    0 -0.27499523161E+02  0.68914198338E+02  0.35032021390E+02  0.82052623537E+02  0.00000000000E+00 0. -1.
          5    1    3    3  501    0 -0.29258023386E+02 -0.33509458232E+02 -0.10461494728E+03  0.11377738316E+03  0.47000000000E+01 0.  1.
         -5    1    3    3    0  501 -0.84170404964E+02 -0.98482225605E+02 -0.12052107629E+02  0.13019504265E+03  0.47000000000E+01 0.  1.
          1    1    1    2  502    0  0.22669446501E+02  0.22246223143E+02 -0.59783281502E+03  0.59867593318E+03  0.00000000000E+00 0. -1.
          1    1    1    2  503    0  0.69620926801E+02  0.36653408614E+02  0.82152095491E+03  0.82528008892E+03  0.00000000000E+00 0. -1.
<mgrwt>
<rscale>  0 0.50067370E+02</rscale>
<asrwt>0</asrwt>
<pdfrwt beam="1">  1        2 0.16116618E+00 0.78923692E+02</pdfrwt>
<pdfrwt beam="2">  1        2 0.12249343E+00 0.31761584E+02</pdfrwt>
<totfact> 0.15826372E+02</totfact>
</mgrwt>
</event>
<event>
13    1  0.2742815E-008  0.6377192E+02  0.7546771E-02  0.1461312E+00
         -3   -1    0    0    0  501 -0.00000000000E+00  0.00000000000E+00  0.85729870259E+03  0.85729870259E+03  0.00000000000E+00 0.  1.
          2   -1    0    0  503    0  0.00000000000E+00 -0.00000000000E+00 -0.43813808516E+04  0.43813808516E+04  0.00000000000E+00 0. -1.
         25    2    1    2    0    0  0.13142979437E+03 -0.45137742836E+02  0.18189411041E+03  0.26080497131E+03  0.12499023554E+03 0.  0.
         24    2    1    2    0    0 -0.18329578138E+03 -0.75923426999E+02 -0.36957963186E+03  0.42899857666E+03  0.89938669401E+02 0.  0.
         24    2    1    2    0    0  0.67277482192E+02  0.79092419777E+02 -0.66825811875E+03  0.68015453149E+03  0.72521741242E+02 0.  0.
        -11    1    4    4    0    0 -0.87166167275E+02 -0.84344327150E+02 -0.20997267450E+03  0.24248800027E+03  0.00000000000E+00 0.  1.
         12    1    4    4    0    0 -0.96129614108E+02  0.84209001501E+01 -0.15960695736E+03  0.18651057639E+03  0.00000000000E+00 0. -1.
        -13    1    5    5    0    0  0.58146007348E+01  0.62381905068E+02 -0.30769245061E+03  0.31400629902E+03  0.00000000000E+00 0.  1.
         14    1    5    5    0    0  0.61462881457E+02  0.16710514710E+02 -0.36056566814E+03  0.36614823247E+03  0.00000000000E+00 0. -1.
          5    1    3    3  502    0  0.97404553733E+02  0.14534864289E+02  0.16110899580E+03  0.18888384763E+03  0.47000000000E+01 0.  1.
         -5    1    3    3    0  502  0.34025240634E+02 -0.59672607125E+02  0.20785114609E+02  0.71921123675E+02  0.47000000000E+01 0.  1.
          1    1    1    2  503    0 -0.28167871694E+02 -0.20554323829E+02 -0.32666408921E+04  0.32668269968E+04  0.00000000000E+00 0. -1.
         -4    1    1    2    0  501  0.12756376518E+02  0.62523073887E+02  0.59850238322E+03  0.60189447799E+03  0.00000000000E+00 0.  1.
<mgrwt>
<rscale>  0 0.47156336E+02</rscale>
<asrwt>0</asrwt>
<pdfrwt beam="2">  1        2 0.64432072E+00 0.34869890E+02</pdfrwt>
<pdfrwt beam="1">  1       -3 0.12607334E+00 0.63771925E+02</pdfrwt>
<totfact> 0.16603425E-01</totfact>
</mgrwt>
</event>
<event>
13    1  0.2742815E-008  0.8630555E+02  0.7546771E-02  0.1460001E+00
          2   -1    0    0  503    0  0.00000000000E+00  0.00000000000E+00  0.10712689331E+04  0.10712689331E+04  0.00000000000E+00 0. -1.
          2   -1    0    0  502    0 -0.00000000000E+00 -0.00000000000E+00 -0.15435173605E+04  0.15435173605E+04  0.00000000000E+00 0. -1.
         25    2    1    2    0    0 -0.38571450204E+02  0.81762856491E+02 -0.70778028475E+01  0.15441784754E+03  0.12498741887E+03 0.  0.
         24    2    1    2    0    0 -0.27418976416E+02  0.78192829365E-01  0.50366237153E+01  0.85202418378E+02  0.80512596140E+02 0.  0.
         24    2    1    2    0    0  0.16303778258E+02 -0.16920401249E+02  0.61603355816E+03  0.62195173103E+03  0.82307337344E+02 0.  0.
        -11    1    4    4    0    0 -0.38855950374E+02  0.32094277787E+02 -0.21940749083E+01  0.50444439841E+02  0.00000000000E+00 0.  1.
         12    1    4    4    0    0  0.11436973958E+02 -0.32016084958E+02  0.72306986236E+01  0.34757978537E+02  0.00000000000E+00 0. -1.
        -13    1    5    5    0    0 -0.11215652288E+02 -0.11262056349E+02  0.21410046509E+02  0.26664861916E+02  0.00000000000E+00 0.  1.
         14    1    5    5    0    0  0.27519430546E+02 -0.56583448999E+01  0.59462351165E+03  0.59528686911E+03  0.00000000000E+00 0. -1.
          5    1    3    3  501    0 -0.79981792103E+02  0.31298482661E+02 -0.18491185772E+02  0.87981225475E+02  0.47000000000E+01 0. -1.
         -5    1    3    3    0  501  0.41410341899E+02  0.50464373829E+02  0.11413382924E+02  0.66436622069E+02  0.47000000000E+01 0. -1.
          1    1    1    2  502    0  0.29320543934E+02 -0.81102264446E+02 -0.14179082173E+04  0.14205284173E+04  0.00000000000E+00 0. -1.
          1    1    1    2  503    0  0.20366104428E+02  0.16181616375E+02  0.33166741085E+03  0.33268587938E+03  0.00000000000E+00 0. -1.
<mgrwt>
<rscale>  0 0.47381199E+02</rscale>
<asrwt>0</asrwt>
<pdfrwt beam="1">  1        2 0.15753955E+00 0.26011976E+02</pdfrwt>
<pdfrwt beam="2">  1        2 0.22698785E+00 0.86305554E+02</pdfrwt>
<totfact> 0.69203043E+01</totfact>
</mgrwt>
</event>
<event>
13    1  0.2742815E-008  0.9238146E+02  0.7546771E-02  0.1323607E+00
         -1   -1    0    0    0  501 -0.00000000000E+00  0.00000000000E+00  0.17531276755E+04  0.17531276755E+04  0.00000000000E+00 0.  1.
          2   -1    0    0  503    0  0.00000000000E+00 -0.00000000000E+00 -0.13820605186E+04  0.13820605186E+04  0.00000000000E+00 0. -1.
         25    2    1    2    0    0  0.61700974061E+02 -0.21060041210E+02 -0.19319966531E+03  0.23917145353E+03  0.12500535177E+03 0.  0.
         24    2    1    2    0    0  0.13275425689E+02  0.53184477636E+02 -0.29248164239E+03  0.30847253344E+03  0.81270949061E+02 0.  0.
         24    2    1    2    0    0  0.39882437675E+01 -0.65716160523E+01 -0.21473264493E+03  0.22954415940E+03  0.80754690818E+02 0.  0.
        -11    1    4    4    0    0  0.46854491944E+02  0.20451043978E+02 -0.15009365781E+03  0.15856132797E+03  0.00000000000E+00 0.  1.
         12    1    4    4    0    0 -0.33579066255E+02  0.32733433658E+02 -0.14238798459E+03  0.14991120547E+03  0.00000000000E+00 0. -1.
        -13    1    5    5    0    0 -0.36455740051E+02 -0.15425376742E+02 -0.11153602499E+03  0.11835222051E+03  0.00000000000E+00 0.  1.
         14    1    5    5    0    0  0.40443983818E+02  0.88537606897E+01 -0.10319661995E+03  0.11119193889E+03  0.00000000000E+00 0. -1.
          5    1    3    3  502    0  0.54965907140E+02 -0.53827896765E+02 -0.19023968185E+03  0.20526061475E+03  0.47000000000E+01 0.  1.
         -5    1    3    3    0  502  0.67350669210E+01  0.32767855556E+02 -0.29599834549E+01  0.33910838772E+02  0.47000000000E+01 0.  1.
          1    1    1    2  503    0 -0.84720528179E+02  0.46915679897E+02 -0.63883797650E+03  0.64613667992E+03  0.00000000000E+00 0. -1.
         -2    1    1    2    0  501  0.57558846617E+01 -0.72468500270E+02  0.17103190861E+04  0.17118633678E+04  0.00000000000E+00 0.  1.
<mgrwt>
<rscale>  0 0.81950167E+02</rscale>
<asrwt>0</asrwt>
<pdfrwt beam="2">  1        2 0.20324419E+00 0.92381464E+02</pdfrwt>
<pdfrwt beam="1">  1       -1 0.25781289E+00 0.72696724E+02</pdfrwt>
<totfact> 0.17397910E+00</totfact>
</mgrwt>
</event>
<event>
13    1  0.2742815E-008  0.4182160E+02  0.7546771E-02  0.1511059E+00
          4   -1    0    0  503    0 -0.00000000000E+00  0.00000000000E+00  0.25569177147E+03  0.25569177147E+03  0.00000000000E+00 0. -1.
          2   -1    0    0  502    0  0.00000000000E+00 -0.00000000000E+00 -0.19845493674E+04  0.19845493674E+04  0.00000000000E+00 0. -1.
         25    2    1    2    0    0 -0.15642345622E+03  0.18566159950E+02 -0.66971067218E+02  0.21195158404E+03  0.12500140071E+03 0.  0.
         24    2    1    2    0    0  0.11317377657E+03  0.63629061461E+02 -0.48374676943E+03  0.50796520484E+03  0.84621222092E+02 0.  0.
         24    2    1    2    0    0  0.80869969078E+02 -0.76582076848E+02 -0.85205905522E+03  0.86302655528E+03  0.80033962495E+02 0.  0.
        -11    1    4    4    0    0  0.12510336652E+02  0.55334375081E+01 -0.38728994261E+01  0.14217130645E+02  0.00000000000E+00 0.  1.
         12    1    4    4    0    0  0.10066343992E+03  0.58095623953E+02 -0.47987387000E+03  0.49374807419E+03  0.00000000000E+00 0. -1.
        -11    1    5    5    0    0  0.41514270861E+01 -0.35643257736E+02 -0.46202355047E+03  0.46341497317E+03  0.00000000000E+00 0.  1.
         12    1    5    5    0    0  0.76718541992E+02 -0.40938819112E+02 -0.39003550475E+03  0.39961158211E+03  0.00000000000E+00 0. -1.
          5    1    3    3  501    0 -0.12041660187E+03  0.19688076933E+02  0.14289905497E+02  0.12293929306E+03  0.47000000000E+01 0. -1.
         -5    1    3    3    0  501 -0.36006854356E+02 -0.11219169835E+01 -0.81260972715E+02  0.89012290977E+02  0.47000000000E+01 0. -1.
          1    1    1    2  502    0 -0.28581284626E+02  0.30808131529E+02 -0.48864993262E+03  0.49045365474E+03  0.00000000000E+00 0. -1.
          3    1    1    2  503    0 -0.90390047961E+01 -0.36421276093E+02  0.16256922857E+03  0.16684413996E+03  0.00000000000E+00 0. -1.
<mgrwt>
<rscale>  0 0.39615707E+02</rscale>
<asrwt>0</asrwt>
<pdfrwt beam="2">  1        2 0.29184551E+00 0.41821601E+02</pdfrwt>
<pdfrwt beam="1">  1        4 0.37601729E-01 0.37526164E+02</pdfrwt>
<totfact> 0.31398693E+01</totfact>
</mgrwt>
</event>
<event>
13    1  0.2742815E-008  0.7091530E+02  0.7546771E-02  0.1460594E+00
          2   -1    0    0  502    0  0.00000000000E+00  0.00000000000E+00  0.30030066713E+04  0.30030066713E+04  0.00000000000E+00 0. -1.
          2   -1    0    0  503    0 -0.00000000000E+00 -0.00000000000E+00 -0.33337028940E+04  0.33337028940E+04  0.00000000000E+00 0. -1.
         25    2    1    2    0    0  0.84563969670E+02  0.82970746491E+02 -0.36231950761E+03  0.40116949602E+03  0.12500531669E+03 0.  0.
         24    2    1    2    0    0 -0.14342875446E+02 -0.63768606593E+01  0.10604408829E+03  0.13577651094E+03  0.83327845482E+02 0.  0.
         24    2    1    2    0    0 -0.46965856410E+02  0.23051494850E+02  0.28964375039E+03  0.30522727816E+03  0.80827137231E+02 0.  0.
        -13    1    4    4    0    0  0.31868443680E+02  0.18159308185E+01  0.19722525466E+02  0.37521637998E+02  0.00000000000E+00 0.  1.
         14    1    4    4    0    0 -0.46211319126E+02 -0.81927914779E+01  0.86321562825E+02  0.98254872938E+02  0.00000000000E+00 0. -1.
        -13    1    5    5    0    0  0.21063349668E+02  0.25550580731E+01  0.35679529446E+02  0.41511707294E+02  0.00000000000E+00 0.  1.
         14    1    5    5    0    0 -0.68029206078E+02  0.20496436777E+02  0.25396422094E+03  0.26371557087E+03  0.00000000000E+00 0. -1.
          5    1    3    3  501    0  0.19076956674E+02  0.16084529569E+01 -0.23764217922E+03  0.23845840883E+03  0.47000000000E+01 0.  1.
         -5    1    3    3    0  501  0.65487012996E+02  0.81362293534E+02 -0.12467732840E+03  0.16271108720E+03  0.47000000000E+01 0.  1.
          1    1    1    2  502    0 -0.14337736398E+02 -0.69411980843E+02  0.25646614521E+04  0.25656406525E+04  0.00000000000E+00 0. -1.
          1    1    1    2  503    0 -0.89175014162E+01 -0.30233399838E+02 -0.29287260059E+04  0.29288956277E+04  0.00000000000E+00 0. -1.
<mgrwt>
<rscale>  0 0.47279265E+02</rscale>
<asrwt>0</asrwt>
<pdfrwt beam="1">  1        2 0.44161863E+00 0.70915299E+02</pdfrwt>
<pdfrwt beam="2">  1        2 0.49025043E+00 0.31521109E+02</pdfrwt>
<totfact> 0.11146121E+00</totfact>
</mgrwt>
</event>
<event>
13    1  0.2742815E-008  0.1126626E+03  0.7546771E-02  0.1330216E+00
          2   -1    0    0  502    0  0.00000000000E+00  0.00000000000E+00  0.16579281584E+04  0.16579281584E+04  0.00000000000E+00 0. -1.
          2   -1    0    0  503    0 -0.00000000000E+00 -0.00000000000E+00 -0.24315805492E+04  0.24315805492E+04  0.00000000000E+00 0. -1.
         25    2    1    2    0    0 -0.31301092218E+01  0.11107086000E+03 -0.57673132729E+03  0.60049161577E+03  0.12499849282E+03 0.  0.
         24    2    1    2    0    0 -0.34147002263E+02 -0.81723954265E+02 -0.33361471187E+03  0.35394483156E+03  0.78315677551E+02 0.  0.
         24    2    1    2    0    0  0.91013671065E+02  0.88168545671E+02  0.23480968791E+03  0.27858003055E+03  0.80087846251E+02 0.  0.
        -11    1    5    5    0    0 -0.55208669623E+01  0.42944937945E+02  0.68659503006E+02  0.81171885651E+02  0.00000000000E+00 0.  1.
         12    1    5    5    0    0  0.96534538027E+02  0.45223607725E+02  0.16615018491E+03  0.19740814490E+03  0.00000000000E+00 0. -1.
        -13    1    4    4    0    0 -0.25578843778E+02 -0.71834024645E+01 -0.25498914168E+02  0.36824898422E+02  0.00000000000E+00 0.  1.
         14    1    4    4    0    0 -0.85681584847E+01 -0.74540551800E+02 -0.30811579770E+03  0.31711993314E+03  0.00000000000E+00 0. -1.
          5    1    3    3  501    0  0.25998891712E+02 -0.28852427003E+01 -0.25501741209E+02  0.36833351740E+02  0.47000000000E+01 0.  1.
         -5    1    3    3    0  501 -0.29129000934E+02  0.11395610270E+03 -0.55122958608E+03  0.56365826403E+03  0.47000000000E+01 0.  1.
          1    1    1    2  502    0 -0.86682426122E+02 -0.71951096769E+02  0.13763509357E+04  0.13809535479E+04  0.00000000000E+00 0. -1.
          1    1    1    2  503    0  0.32945866542E+02 -0.45564354633E+02 -0.14744669752E+04  0.14755386818E+04  0.00000000000E+00 0. -1.
<mgrwt>
<rscale>  0 0.79591102E+02</rscale>
<asrwt>0</asrwt>
<pdfrwt beam="1">  1        2 0.24381297E+00 0.11266257E+03</pdfrwt>
<pdfrwt beam="2">  1        2 0.35758537E+00 0.56227578E+02</pdfrwt>
<totfact> 0.12585994E+01</totfact>
</mgrwt>
</event>
<event>
13    1  0.2742815E-008  0.5212867E+02  0.7546771E-02  0.1483604E+00
          2   -1    0    0  502    0  0.00000000000E+00  0.00000000000E+00  0.43916332077E+03  0.43916332077E+03  0.00000000000E+00 0. -1.
          2   -1    0    0  503    0 -0.00000000000E+00 -0.00000000000E+00 -0.12912435113E+04  0.12912435113E+04  0.00000000000E+00 0. -1.
         25    2    1    2    0    0 -0.10822496943E+03  0.20854555296E+02 -0.30928145415E+03  0.35132254882E+03  0.12499983577E+03 0.  0.
         24    2    1    2    0    0  0.86891911138E+02  0.11976174667E+03  0.33203610838E+02  0.17166448337E+03  0.80455794647E+02 0.  0.
         24    2    1    2    0    0  0.10096323482E+01 -0.61327143139E+02  0.85509402250E+02  0.13228635891E+03  0.80160994495E+02 0.  0.
        -11    1    4    4    0    0  0.41447701565E+02  0.51082004308E+02 -0.25476955098E+02  0.70543308472E+02  0.00000000000E+00 0.  1.
         12    1    4    4    0    0  0.45444209574E+02  0.68679742365E+02  0.58680565936E+02  0.10112117490E+03  0.00000000000E+00 0. -1.
        -13    1    5    5    0    0 -0.13912044840E+02 -0.61227883507E+02  0.95526378989E+02  0.11431398774E+03  0.00000000000E+00 0.  1.
         14    1    5    5    0    0  0.14921677189E+02 -0.99259632244E-01 -0.10016976739E+02  0.17972371173E+02  0.00000000000E+00 0. -1.
          5    1    3    3  501    0 -0.48205692786E+02  0.80063080575E+01 -0.27794457460E+03  0.28224664097E+03  0.47000000000E+01 0. -1.
         -5    1    3    3    0  501 -0.60019276640E+02  0.12848247238E+02 -0.31336879548E+02  0.69075907849E+02  0.47000000000E+01 0. -1.
          1    1    1    2  502    0 -0.35229829932E+01 -0.51810967066E+02  0.20316228765E+03  0.20969430808E+03  0.00000000000E+00 0. -1.
          1    1    1    2  503    0  0.23846408932E+02 -0.27478191763E+02 -0.86467403712E+03  0.86543913288E+03  0.00000000000E+00 0. -1.
<mgrwt>
<rscale>  0 0.43549772E+02</rscale>
<asrwt>0</asrwt>
<pdfrwt beam="1">  1        2 0.64582843E-01 0.52128668E+02</pdfrwt>
<pdfrwt beam="2">  1        2 0.18988875E+00 0.36382719E+02</pdfrwt>
<totfact> 0.26006159E+02</totfact>
</mgrwt>
</event>
<event>
13    1  0.2742815E-008  0.6966899E+02  0.7546771E-02  0.1487417E+00
          2   -1    0    0  502    0  0.00000000000E+00  0.00000000000E+00  0.44609381860E+04  0.44609381860E+04  0.00000000000E+00 0. -1.
          2   -1    0    0  503    0 -0.00000000000E+00 -0.00000000000E+00 -0.11821038372E+04  0.11821038372E+04  0.00000000000E+00 0. -1.
         25    2    1    2    0    0  0.97765022349E+01 -0.61691539582E+03  0.39302030766E+03  0.74214069411E+03  0.12501064766E+03 0.  0.
         24    2    1    2    0    0  0.43117385263E+03  0.60752404312E+03  0.24857276356E+03  0.79114261067E+03  0.95508415665E+02 0.  0.
         24    2    1    2    0    0 -0.53353583440E+03 -0.12965460185E+02  0.27470240721E+04  0.27996020276E+04  0.82472240507E+02 0.  0.
        -11    1    5    5    0    0 -0.34433985099E+03  0.25978873670E+02  0.16578096897E+04  0.16933923946E+04  0.00000000000E+00 0.  1.
         12    1    5    5    0    0 -0.18919598341E+03 -0.38944333854E+02  0.10892143824E+04  0.11062096330E+04  0.00000000000E+00 0. -1.
        -13    1    4    4    0    0  0.88717246867E+02  0.82416252182E+02  0.14483840264E+02  0.12195478730E+03  0.00000000000E+00 0.  1.
         14    1    4    4    0    0  0.34245660577E+03  0.52510779094E+03  0.23408892329E+03  0.66918782337E+03  0.00000000000E+00 0. -1.
          5    1    3    3  501    0  0.97059126107E+01 -0.17493342410E+01  0.19748993902E+02  0.22569396758E+02  0.47000000000E+01 0.  1.
         -5    1    3    3    0  501  0.70589624170E-01 -0.61516606158E+03  0.37327131376E+03  0.71957129735E+03  0.47000000000E+01 0.  1.
          1    1    1    2  502    0  0.23731858023E+02  0.11802658391E+02  0.59818418919E+03  0.59877109819E+03  0.00000000000E+00 0. -1.
          1    1    1    2  503    0  0.68853621507E+02  0.10554154492E+02 -0.70796698373E+03  0.71138559264E+03  0.00000000000E+00 0. -1.
<mgrwt>
<rscale>  0 0.42971640E+02</rscale>
<asrwt>0</asrwt>
<pdfrwt beam="1">  1        2 0.65602031E+00 0.26504789E+02</pdfrwt>
<pdfrwt beam="2">  1        2 0.17383880E+00 0.69668989E+02</pdfrwt>
<totfact> 0.17935017E+00</totfact>
</mgrwt>
</event>
<event>
13    1  0.2742815E-008  0.1215268E+03  0.7546771E-02  0.1276208E+00
          2   -1    0    0  502    0  0.00000000000E+00  0.00000000000E+00  0.28521170404E+04  0.28521170404E+04  0.00000000000E+00 0. -1.
          2   -1    0    0  503    0 -0.00000000000E+00 -0.00000000000E+00 -0.73422212794E+03  0.73422212794E+03  0.00000000000E+00 0. -1.
         25    2    1    2    0    0  0.19928054439E+03  0.10807876092E+02  0.24508828914E+03  0.33989256653E+03  0.12501656590E+03 0.  0.
         24    2    1    2    0    0 -0.54570174972E+02 -0.16804463188E+02  0.10904775863E+03  0.14712330007E+03  0.80582614637E+02 0.  0.
         24    2    1    2    0    0  0.73010607654E+02 -0.13690642290E+02  0.66594272510E+03  0.67470868351E+03  0.78956392822E+02 0.  0.
        -11    1    4    4    0    0 -0.54056574874E+02  0.22425201278E+02  0.54799120977E+02  0.80174475984E+02  0.00000000000E+00 0.  1.
         12    1    4    4    0    0 -0.51360009797E+00 -0.39229664466E+02  0.54248637658E+02  0.66948824089E+02  0.00000000000E+00 0. -1.
        -13    1    5    5    0    0  0.75623077270E+02  0.16064331613E+01  0.33632650935E+03  0.34472735798E+03  0.00000000000E+00 0.  1.
         14    1    5    5    0    0 -0.26124696158E+01 -0.15297075452E+02  0.32961621575E+03  0.32998132553E+03  0.00000000000E+00 0. -1.
          5    1    3    3  501    0  0.57317890548E+02  0.58468053715E+02  0.11639422824E+03  0.14238525292E+03  0.47000000000E+01 0. -1.
         -5    1    3    3    0  501  0.14196265384E+03 -0.47660177623E+02  0.12869406090E+03  0.19750731361E+03  0.47000000000E+01 0. -1.
          1    1    1    2  502    0 -0.96124546417E+02 -0.24537172132E+02  0.17534909570E+04  0.17562951169E+04  0.00000000000E+00 0. -1.
          1    1    1    2  503    0 -0.12159643066E+03  0.44224401519E+02 -0.65567481745E+03  0.66831950134E+03  0.00000000000E+00 0. -1.
<mgrwt>
<rscale>  0 0.10196960E+03</rscale>
<asrwt>0</asrwt>
<pdfrwt beam="1">  1        2 0.41942897E+00 0.12152676E+03</pdfrwt>
<pdfrwt beam="2">  1        2 0.10797384E+00 0.85559758E+02</pdfrwt>
<totfact> 0.22697636E+01</totfact>
</mgrwt>
</event>
<event>
13    1  0.2742815E-008  0.1431162E+03  0.7546771E-02  0.1378712E+00
          2   -1    0    0  502    0  0.00000000000E+00  0.00000000000E+00  0.18703388753E+04  0.18703388753E+04  0.00000000000E+00 0. -1.
          2   -1    0    0  503    0 -0.00000000000E+00 -0.00000000000E+00 -0.17931025995E+04  0.17931025995E+04  0.00000000000E+00 0. -1.
         25    2    1    2    0    0 -0.22117014463E+02  0.36473666962E+02 -0.41492531727E+03  0.43543854128E+03  0.12499685441E+03 0.  0.
         24    2    1    2    0    0  0.39933907481E+02  0.62235753498E+02 -0.87511121630E+02  0.14021864516E+03  0.80839755445E+02 0.  0.
         24    2    1    2    0    0 -0.34919755565E+02  0.55687857998E+02 -0.24159516316E+02  0.10751467220E+03  0.81579382520E+02 0.  0.
        -11    1    5    5    0    0 -0.21791878467E+02 -0.26529691475E+01  0.22672710920E+02  0.31559087960E+02  0.00000000000E+00 0.  1.
         12    1    5    5    0    0 -0.13127877098E+02  0.58340827146E+02 -0.46832227236E+02  0.75955584239E+02  0.00000000000E+00 0. -1.
        -11    1    4    4    0    0  0.41000837011E+02  0.76969954694E+02 -0.89905014005E+02  0.12525316006E+03  0.00000000000E+00 0.  1.
         12    1    4    4    0    0 -0.10669295297E+01 -0.14734201197E+02  0.23938923753E+01  0.14965485098E+02  0.00000000000E+00 0. -1.
          5    1    3    3  501    0 -0.28328217581E+02 -0.42560638076E+02 -0.13384862903E+03  0.14335773896E+03  0.47000000000E+01 0.  1.
         -5    1    3    3    0  501  0.62112031183E+01  0.79034305039E+02 -0.28107668824E+03  0.29208080233E+03  0.47000000000E+01 0.  1.
          1    1    1    2  502    0 -0.10139488174E+02 -0.14349367264E+03  0.17889822188E+04  0.17947564243E+04  0.00000000000E+00 0. -1.
          1    1    1    2  503    0  0.27242350720E+02 -0.10903605817E+02 -0.11851499878E+04  0.11855131918E+04  0.00000000000E+00 0. -1.
<mgrwt>
<rscale>  0 0.64803662E+02</rscale>
<asrwt>0</asrwt>
<pdfrwt beam="1">  1        2 0.27504984E+00 0.14311623E+03</pdfrwt>
<pdfrwt beam="2">  1        2 0.26369156E+00 0.29343386E+02</pdfrwt>
<totfact> 0.20739630E+01</totfact>
</mgrwt>
</event>
<event>
13    1  0.2742815E-008  0.5850415E+02  0.7546771E-02  0.1590659E+00
         -3   -1    0    0    0  501 -0.00000000000E+00  0.00000000000E+00  0.25344974480E+03  0.25344974480E+03  0.00000000000E+00 0.  1.
          2   -1    0    0  503    0  0.00000000000E+00 -0.00000000000E+00 -0.24993916493E+04  0.24993916493E+04  0.00000000000E+00 0. -1.
         25    2    1    2    0    0  0.31093654086E+02 -0.11024351415E+03 -0.10973090903E+03  0.20195666365E+03  0.12500069544E+03 0.  0.
         24    2    1    2    0    0 -0.19158903156E+02  0.44998831608E+02 -0.20002470421E+03  0.22043952557E+03  0.78687633880E+02 0.  0.
         24    2    1    2    0    0  0.40130739222E+02  0.12192536586E+02 -0.17827421147E+03  0.20080140696E+03  0.82343040906E+02 0.  0.
        -13    1    4    4    0    0  0.25716990273E+02  0.11143299808E+02 -0.28644833397E+02  0.40075718330E+02  0.00000000000E+00 0.  1.
         14    1    4    4    0    0 -0.44875893429E+02  0.33855531800E+02 -0.17137987081E+03  0.18036380724E+03  0.00000000000E+00 0. -1.
        -13    1    5    5    0    0  0.26351060298E+02  0.40379243348E+02 -0.15328970992E+03  0.16069410954E+03  0.00000000000E+00 0.  1.
         14    1    5    5    0    0  0.13779678924E+02 -0.28186706762E+02 -0.24984501543E+02  0.40107297424E+02  0.00000000000E+00 0. -1.
          5    1    3    3  502    0 -0.12094006348E+02 -0.12303291239E+03 -0.72998045006E+02  0.14364597834E+03  0.47000000000E+01 0. -1.
         -5    1    3    3    0  502  0.43187660434E+02  0.12789398240E+02 -0.36732864026E+02  0.58310685304E+02  0.47000000000E+01 0. -1.
          1    1    1    2  503    0 -0.39446244658E+02  0.43066808829E+02 -0.19429900544E+04  0.19438675643E+04  0.00000000000E+00 0. -1.
         -4    1    1    2    0  501 -0.12619245494E+02  0.99853371223E+01  0.18507797455E+03  0.18577623362E+03  0.00000000000E+00 0.  1.
<mgrwt>
<rscale>  0 0.30683034E+02</rscale>
<asrwt>0</asrwt>
<pdfrwt beam="2">  1        2 0.36755760E+00 0.58504155E+02</pdfrwt>
<pdfrwt beam="1">  1       -3 0.37272021E-01 0.16091995E+02</pdfrwt>
<totfact> 0.19717553E+01</totfact>
</mgrwt>
</event>
<event>
13    1  0.2742815E-008  0.9678943E+02  0.7546771E-02  0.1421418E+00
          2   -1    0    0  502    0  0.00000000000E+00  0.00000000000E+00  0.89647215121E+03  0.89647215121E+03  0.00000000000E+00 0. -1.
          2   -1    0    0  503    0 -0.00000000000E+00 -0.00000000000E+00 -0.33780021988E+04  0.33780021988E+04  0.00000000000E+00 0. -1.
         25    2    1    2    0    0 -0.22544082219E+03 -0.55739822663E+02 -0.10144964013E+04  0.10482165785E+04  0.12499821976E+03 0.  0.
         24    2    1    2    0    0  0.30114176733E+03 -0.14804018565E+03 -0.17039406433E+03  0.38439072139E+03  0.78229335520E+02 0.  0.
         24    2    1    2    0    0 -0.39492104950E+02  0.84534042805E+02  0.68859069791E+03  0.69980759977E+03  0.82872774130E+02 0.  0.
        -11    1    5    5    0    0  0.59734343181E+01 -0.14286030183E+02  0.66570949612E+02  0.68348108300E+02  0.00000000000E+00 0.  1.
         12    1    5    5    0    0 -0.45465539269E+02  0.98820072989E+02  0.62201974830E+03  0.63145949147E+03  0.00000000000E+00 0. -1.
        -13    1    4    4    0    0  0.25936453794E+03 -0.12780412875E+03 -0.17461598862E+03  0.33777892526E+03  0.00000000000E+00 0.  1.
         14    1    4    4    0    0  0.41777229386E+02 -0.20236056903E+02  0.42219242875E+01  0.46611796134E+02  0.00000000000E+00 0. -1.
          5    1    3    3  501    0 -0.39357562931E+02 -0.81876530701E+01 -0.45214378715E+03  0.45395170413E+03  0.47000000000E+01 0. -1.
         -5    1    3    3    0  501 -0.18608325926E+03 -0.47552169593E+02 -0.56235261418E+03  0.59426487435E+03  0.47000000000E+01 0. -1.
          1    1    1    2  502    0  0.29959046235E+01  0.30792851182E+02  0.74182350319E+02  0.80375345892E+02  0.00000000000E+00 0. -1.
          1    1    1    2  503    0 -0.39204744811E+02  0.88453114325E+02 -0.20594126301E+04  0.20616841045E+04  0.00000000000E+00 0. -1.
<mgrwt>
<rscale>  0 0.54721982E+02</rscale>
<asrwt>0</asrwt>
<pdfrwt beam="1">  1        2 0.13183414E+00 0.30938247E+02</pdfrwt>
<pdfrwt beam="2">  1        2 0.49676502E+00 0.96789431E+02</pdfrwt>
<totfact> 0.99615034E+00</totfact>
</mgrwt>
</event>
<event>
13    1  0.2742815E-008  0.2274998E+03  0.7546771E-02  0.1336696E+00
          4   -1    0    0  503    0 -0.00000000000E+00  0.00000000000E+00  0.34578426120E+03  0.34578426120E+03  0.00000000000E+00 0. -1.
          2   -1    0    0  502    0  0.00000000000E+00 -0.00000000000E+00 -0.13448673491E+04  0.13448673491E+04  0.00000000000E+00 0. -1.
         25    2    1    2    0    0  0.10266511482E+03  0.11262080704E+03  0.77429839065E+02  0.21176409689E+03  0.12500032309E+03 0.  0.
         24    2    1    2    0    0  0.54288355891E+02 -0.16053870230E+03 -0.43769021950E+02  0.19994124378E+03  0.96648192731E+02 0.  0.
         24    2    1    2    0    0 -0.28396435023E+02  0.23851264058E+03 -0.40286370132E+03  0.47573560922E+03  0.79564884211E+02 0.  0.
        -11    1    4    4    0    0  0.69580981564E+02 -0.91454763146E+02 -0.56492053131E+02  0.12805014160E+03  0.00000000000E+00 0.  1.
         12    1    4    4    0    0 -0.15292625673E+02 -0.69083939157E+02  0.12723031181E+02  0.71891102174E+02  0.00000000000E+00 0. -1.
        -13    1    5    5    0    0 -0.36980276322E+01 -0.34296259665E+01 -0.30990179461E+02  0.31397913397E+02  0.00000000000E+00 0.  1.
         14    1    5    5    0    0 -0.24698407390E+02  0.24194226654E+03 -0.37187352186E+03  0.44433769582E+03  0.00000000000E+00 0. -1.
          5    1    3    3  501    0  0.20750954076E+02 -0.27384403953E+02  0.16778169945E+02  0.38524078985E+02  0.47000000000E+01 0. -1.
         -5    1    3    3    0  501  0.81914160741E+02  0.14000521099E+03  0.60651669120E+02  0.17324001790E+03  0.47000000000E+01 0. -1.
          1    1    1    2  502    0 -0.15468542051E+03 -0.19368193402E+03 -0.69237309090E+03  0.73540517260E+03  0.00000000000E+00 0. -1.
          3    1    1    2  503    0  0.26128384822E+02  0.30871887053E+01  0.62492887205E+02  0.67805487822E+02  0.00000000000E+00 0. -1.
<mgrwt>
<rscale>  0 0.77366339E+02</rscale>
<asrwt>0</asrwt>
<pdfrwt beam="2">  1        2 0.19777461E+00 0.22749979E+03</pdfrwt>
<pdfrwt beam="1">  1        4 0.50850626E-01 0.26310135E+02</pdfrwt>
<totfact> 0.29504772E+01</totfact>
</mgrwt>
</event>
<event>
13    1  0.2742815E-008  0.1621011E+03  0.7546771E-02  0.1288886E+00
          2   -1    0    0  503    0  0.00000000000E+00  0.00000000000E+00  0.39074206123E+03  0.39074206123E+03  0.00000000000E+00 0. -1.
          2   -1    0    0  502    0 -0.00000000000E+00 -0.00000000000E+00 -0.27592949374E+04  0.27592949374E+04  0.00000000000E+00 0. -1.
         25    2    1    2    0    0  0.32288926526E+03 -0.28798560681E+01 -0.17018808433E+04  0.17367469207E+04  0.12500276212E+03 0.  0.
         24    2    1    2    0    0 -0.18257191746E+03 -0.17732564490E+03 -0.34057701462E+03  0.43331319166E+03  0.83610584212E+02 0.  0.
         24    2    1    2    0    0 -0.17674500019E+03  0.34456049252E+01 -0.30088311531E+02  0.19713633352E+03  0.81894811919E+02 0.  0.
        -11    1    5    5    0    0 -0.12924640660E+03 -0.16479930162E+02 -0.53129806635E+02  0.14070891255E+03  0.00000000000E+00 0.  1.
         12    1    5    5    0    0 -0.47498593588E+02  0.19925535087E+02  0.23041495103E+02  0.56427420976E+02  0.00000000000E+00 0. -1.
        -11    1    4    4    0    0 -0.60328416672E+01  0.35472607578E+01 -0.39942467864E+02  0.40550942980E+02  0.00000000000E+00 0.  1.
         12    1    4    4    0    0 -0.17653907579E+03 -0.18087290566E+03 -0.30063454676E+03  0.39276224868E+03  0.00000000000E+00 0. -1.
          5    1    3    3  501    0  0.24646950560E+03  0.46937579453E+02 -0.11223731587E+04  0.11500843234E+04  0.47000000000E+01 0. -1.
         -5    1    3    3    0  501  0.76419759656E+02 -0.49817435521E+02 -0.57950768463E+03  0.58666259732E+03  0.47000000000E+01 0. -1.
          1    1    1    2  502    0 -0.43942127519E+02  0.36119877018E+02 -0.51072021271E+03  0.51387809036E+03  0.00000000000E+00 0. -1.
          1    1    1    2  503    0  0.80369779911E+02  0.14064001903E+03  0.21471350604E+03  0.26896246235E+03  0.00000000000E+00 0. -1.
<mgrwt>
<rscale>  0 0.96024094E+02</rscale>
<asrwt>0</asrwt>
<pdfrwt beam="1">  1        2 0.57462069E-01 0.16210110E+03</pdfrwt>
<pdfrwt beam="2">  1        2 0.40577866E+00 0.56881949E+02</pdfrwt>
<totfact> 0.56252724E+01</totfact>
</mgrwt>
</event>
<event>
13    1  0.2742815E-008  0.1989126E+03  0.7546771E-02  0.1371709E+00
          2   -1    0    0  502    0  0.00000000000E+00  0.00000000000E+00  0.18226017664E+04  0.18226017664E+04  0.00000000000E+00 0. -1.
          2   -1    0    0  503    0 -0.00000000000E+00 -0.00000000000E+00 -0.13484831188E+04  0.13484831188E+04  0.00000000000E+00 0. -1.
         25    2    1    2    0    0 -0.84414424881E+02  0.63875625483E+02 -0.80439756826E+03  0.82090620895E+03  0.12500266162E+03 0.  0.
         24    2    1    2    0    0  0.21150206136E+02  0.81536945027E+02  0.18458060709E+03  0.21813360008E+03  0.80104071974E+02 0.  0.
         24    2    1    2    0    0 -0.19871795010E+03 -0.25438825886E+03  0.10601879131E+03  0.34933784613E+03  0.81207984131E+02 0.  0.
        -11    1    4    4    0    0  0.32749411671E+02  0.68982191943E+02  0.18591759392E+03  0.20098860291E+03  0.00000000000E+00 0.  1.
         12    1    4    4    0    0 -0.11599205535E+02  0.12554753084E+02 -0.13369868363E+01  0.17144997167E+02  0.00000000000E+00 0. -1.
        -11    1    5    5    0    0 -0.67336121256E+01 -0.26012793296E+02 -0.10762682672E+02  0.28945505448E+02  0.00000000000E+00 0.  1.
         12    1    5    5    0    0 -0.19198433798E+03 -0.22837546556E+03  0.11678147398E+03  0.32039234068E+03  0.00000000000E+00 0. -1.
          5    1    3    3  501    0 -0.59198119298E+02  0.57054154773E+02 -0.20501519424E+03  0.22093644737E+03  0.47000000000E+01 0. -1.
         -5    1    3    3    0  501 -0.25216305583E+02  0.68214707099E+01 -0.59938237402E+03  0.59996976158E+03  0.47000000000E+01 0. -1.
          1    1    1    2  502    0  0.28217633285E+03  0.11858138305E+03  0.13680725899E+04  0.14018943036E+04  0.00000000000E+00 0. -1.
          1    1    1    2  503    0 -0.20194163997E+02 -0.96056947010E+01 -0.38015577246E+03  0.38081292647E+03  0.00000000000E+00 0. -1.
<mgrwt>
<rscale>  0 0.66694443E+02</rscale>
<asrwt>0</asrwt>
<pdfrwt beam="1">  1        2 0.26802967E+00 0.19891262E+03</pdfrwt>
<pdfrwt beam="2">  1        2 0.19830634E+00 0.22362326E+02</pdfrwt>
<totfact> 0.34761486E+01</totfact>
</mgrwt>
</event>
<event>
13    1  0.2742815E-008  0.1387377E+03  0.7546771E-02  0.1301081E+00
          2   -1    0    0  502    0  0.00000000000E+00  0.00000000000E+00  0.19243004578E+04  0.19243004578E+04  0.00000000000E+00 0. -1.
          2   -1    0    0  503    0 -0.00000000000E+00 -0.00000000000E+00 -0.14573005982E+04  0.14573005982E+04  0.00000000000E+00 0. -1.
         25    2    1    2    0    0  0.10113668363E+03 -0.43686345394E+02 -0.57731301415E+03  0.60087647034E+03  0.12500036299E+03 0.  0.
         24    2    1    2    0    0 -0.85349467904E+02  0.14062361265E+03  0.19543537388E+02  0.18627420985E+03  0.85185675400E+02 0.  0.
         24    2    1    2    0    0  0.95376070756E+02 -0.10146108701E+02  0.63436748477E+03  0.64658102130E+03  0.80283080299E+02 0.  0.
        -11    1    4    4    0    0 -0.58470877972E+02  0.10837405792E+03 -0.24361186836E+02  0.12552787509E+03  0.00000000000E+00 0.  1.
         12    1    4    4    0    0 -0.26878589932E+02  0.32249554739E+02  0.43904724225E+02  0.60746334761E+02  0.00000000000E+00 0. -1.
        -11    1    5    5    0    0 -0.63859469983E+01  0.11136891186E+02  0.18061934097E+03  0.18107500379E+03  0.00000000000E+00 0.  1.
         12    1    5    5    0    0  0.10176201775E+03 -0.21282999888E+02  0.45374814380E+03  0.46550601752E+03  0.00000000000E+00 0. -1.
          5    1    3    3  501    0 -0.23974119107E+01 -0.57283116602E+01 -0.32953741116E+03  0.32962942298E+03  0.47000000000E+01 0.  1.
         -5    1    3    3    0  501  0.10353409554E+03 -0.37958033734E+02 -0.24777560299E+03  0.27124704736E+03  0.47000000000E+01 0.  1.
          1    1    1    2  502    0 -0.10066612650E+03 -0.14519640896E+03  0.11613138803E+04  0.11746768044E+04  0.00000000000E+00 0. -1.
          1    1    1    2  503    0 -0.10497159983E+02  0.58405250405E+02 -0.77091202873E+03  0.77319255019E+03  0.00000000000E+00 0. -1.
<mgrwt>
<rscale>  0 0.90735012E+02</rscale>
<asrwt>0</asrwt>
<pdfrwt beam="1">  1        2 0.28298536E+00 0.13873766E+03</pdfrwt>
<pdfrwt beam="2">  1        2 0.21430891E+00 0.59341079E+02</pdfrwt>
<totfact> 0.26305575E+01</totfact>
</mgrwt>
</event>
<event>
13    1  0.2742815E-008  0.8515603E+02  0.7546771E-02  0.1402051E+00
          2   -1    0    0  502    0  0.00000000000E+00  0.00000000000E+00  0.13280268512E+04  0.13280268512E+04  0.00000000000E+00 0. -1.
          2   -1    0    0  503    0 -0.00000000000E+00 -0.00000000000E+00 -0.25214205953E+04  0.25214205953E+04  0.00000000000E+00 0. -1.
         25    2    1    2    0    0  0.14884991143E+02 -0.18321551106E+03  0.36289864010E+02  0.22523656019E+03  0.12500026944E+03 0.  0.
         24    2    1    2    0    0 -0.31119436496E+02  0.13959024305E+03  0.39715969203E+03  0.43012828113E+03  0.82587299083E+02 0.  0.
         24    2    1    2    0    0 -0.51261245333E+02 -0.11571661333E+02  0.28350288713E+03  0.29973122436E+03  0.81873690691E+02 0.  0.
        -11    1    4    4    0    0 -0.39026703502E+02  0.14673198215E+03  0.38555359508E+03  0.41437293933E+03  0.00000000000E+00 0.  1.
         12    1    4    4    0    0  0.79072670063E+01 -0.71417390916E+01  0.11606096950E+02  0.15755341798E+02  0.00000000000E+00 0. -1.
        -13    1    5    5    0    0 -0.38076078657E+02  0.29924231173E+02  0.19729962672E+03  0.20315607321E+03  0.00000000000E+00 0.  1.
         14    1    5    5    0    0 -0.13185166676E+02 -0.41495892507E+02  0.86203260408E+02  0.96575151153E+02  0.00000000000E+00 0. -1.
          5    1    3    3  501    0  0.58667454264E+02 -0.16018770716E+03  0.15463240507E+02  0.17135686015E+03  0.47000000000E+01 0.  1.
         -5    1    3    3    0  501 -0.43782463121E+02 -0.23027803903E+02  0.20826623503E+02  0.53879700037E+02  0.47000000000E+01 0.  1.
          1    1    1    2  502    0  0.96402267263E+02  0.26281762173E+02  0.48675325845E+03  0.49690327305E+03  0.00000000000E+00 0. -1.
          1    1    1    2  503    0 -0.28906576577E+02  0.28915167165E+02 -0.23970994457E+04  0.23974481078E+04  0.00000000000E+00 0. -1.
<mgrwt>
<rscale>  0 0.59005950E+02</rscale>
<asrwt>0</asrwt>
<pdfrwt beam="1">  1        2 0.19529807E+00 0.85156032E+02</pdfrwt>
<pdfrwt beam="2">  1        2 0.37079715E+00 0.40886148E+02</pdfrwt>
<totfact> 0.17759768E+01</totfact>
</mgrwt>
</event>
<event>
13    1  0.2742815E-008  0.6060236E+02  0.7546771E-02  0.1407043E+00
          2   -1    0    0  502    0  0.00000000000E+00  0.00000000000E+00  0.19897006730E+04  0.19897006730E+04  0.00000000000E+00 0. -1.
          2   -1    0    0  503    0 -0.00000000000E+00 -0.00000000000E+00 -0.14244453733E+04  0.14244453733E+04  0.00000000000E+00 0. -1.
         25    2    1    2    0    0  0.22420072027E+02  0.74170352257E+02 -0.26515960400E+03  0.30321540040E+03  0.12500425059E+03 0.  0.
         24    2    1    2    0    0  0.87268484937E+02 -0.69390769854E+02  0.20665293652E+03  0.24803354505E+03  0.79902039362E+02 0.  0.
         24    2    1    2    0    0 -0.30612085816E+02 -0.53448945581E+02  0.21305847361E+03  0.23543574169E+03  0.79007504099E+02 0.  0.
        -11    1    5    5    0    0 -0.52531854760E+01  0.19505584827E+02  0.25046890742E+02  0.32177795650E+02  0.00000000000E+00 0.  1.
         12    1    5    5    0    0 -0.25358900340E+02 -0.72954530408E+02  0.18801158287E+03  0.20325794604E+03  0.00000000000E+00 0. -1.
        -13    1    4    4    0    0  0.85876661557E+02 -0.85392552186E+02  0.18231204611E+03  0.21887067215E+03  0.00000000000E+00 0.  1.
         14    1    4    4    0    0  0.13918233792E+01  0.16001782331E+02  0.24340890401E+02  0.29162872897E+02  0.00000000000E+00 0. -1.
          5    1    3    3  501    0 -0.14142941979E+02  0.96983928371E+02 -0.21852060952E+03  0.23953966677E+03  0.47000000000E+01 0.  1.
         -5    1    3    3    0  501  0.36563014006E+02 -0.22813576113E+02 -0.46638994480E+02  0.63675733638E+02  0.47000000000E+01 0.  1.
          1    1    1    2  502    0 -0.18594272588E+02  0.52016167439E+02  0.15177519673E+04  0.15187568807E+04  0.00000000000E+00 0. -1.
          1    1    1    2  503    0 -0.60482198559E+02 -0.33468042604E+01 -0.11070484737E+04  0.11087044785E+04  0.00000000000E+00 0. -1.
<mgrwt>
<rscale>  0 0.57858952E+02</rscale>
<asrwt>0</asrwt>
<pdfrwt beam="1">  1        2 0.29260304E+00 0.55239738E+02</pdfrwt>
<pdfrwt beam="2">  1        2 0.20947726E+00 0.60602357E+02</pdfrwt>
<totfact> 0.27886082E+01</totfact>
</mgrwt>
</event>
<event>
13    1  0.2742815E-008  0.5182899E+02  0.7546771E-02  0.1488260E+00
          2   -1    0    0  503    0  0.00000000000E+00  0.00000000000E+00  0.12183505597E+04  0.12183505597E+04  0.00000000000E+00 0. -1.
          2   -1    0    0  502    0 -0.00000000000E+00 -0.00000000000E+00 -0.34102369169E+03  0.34102369169E+03  0.00000000000E+00 0. -1.
         25    2    1    2    0    0  0.24670886138E+03  0.64044218103E+02  0.90879111374E+02  0.29807813260E+03  0.12499854437E+03 0.  0.
         24    2    1    2    0    0 -0.15737377894E+03 -0.44146827491E+02  0.26072170292E+03  0.31889020868E+03  0.83664270399E+02 0.  0.
         24    2    1    2    0    0 -0.34965789059E+02  0.15048009487E+02  0.27810982642E+03  0.29237301392E+03  0.81779304975E+02 0.  0.
        -11    1    4    4    0    0 -0.99826502666E+02  0.14921108699E+02  0.13578346836E+03  0.16918959897E+03  0.00000000000E+00 0.  1.
         12    1    4    4    0    0 -0.57547276277E+02 -0.59067936190E+02  0.12493823456E+03  0.14970060971E+03  0.00000000000E+00 0. -1.
        -13    1    5    5    0    0  0.22518788891E+02  0.12593985479E+02  0.14622418078E+03  0.14848304741E+03  0.00000000000E+00 0.  1.
         14    1    5    5    0    0 -0.57484577950E+02  0.24540240082E+01  0.13188564564E+03  0.14388996651E+03  0.00000000000E+00 0. -1.
          5    1    3    3  501    0  0.25290723741E+03  0.76561626551E+02  0.97796645546E+02  0.28179784824E+03  0.47000000000E+01 0. -1.
         -5    1    3    3    0  501 -0.61983760320E+01 -0.12517408447E+02 -0.69175341711E+01  0.16280284355E+02  0.47000000000E+01 0. -1.
          1    1    1    2  502    0 -0.21173531621E+02 -0.47295600138E+02 -0.19715627304E+03  0.20385236872E+03  0.00000000000E+00 0. -1.
          1    1    1    2  503    0 -0.33195761755E+02  0.12350200039E+02  0.44477250038E+03  0.44618052751E+03  0.00000000000E+00 0. -1.
<mgrwt>
<rscale>  0 0.42845267E+02</rscale>
<asrwt>0</asrwt>
<pdfrwt beam="1">  1        2 0.17916920E+00 0.35418724E+02</pdfrwt>
<pdfrwt beam="2">  1        2 0.50150543E-01 0.51828995E+02</pdfrwt>
<totfact> 0.36688892E+02</totfact>
</mgrwt>
</event>
<event>
13    1  0.2742815E-008  0.1631257E+03  0.7546771E-02  0.1335028E+00
         -3   -1    0    0    0  501 -0.00000000000E+00  0.00000000000E+00  0.17793078440E+04  0.17793078440E+04  0.00000000000E+00 0.  1.
          2   -1    0    0  503    0  0.00000000000E+00 -0.00000000000E+00 -0.10027763213E+04  0.10027763213E+04  0.00000000000E+00 0. -1.
         25    2    1    2    0    0 -0.25401405810E+01 -0.10234680226E+03  0.18409450677E+03  0.24494609537E+03  0.12500592772E+03 0.  0.
         24    2    1    2    0    0  0.18308177672E+02 -0.42393515769E+02  0.37561274885E+00  0.93186932216E+02  0.80939877082E+02 0.  0.
         24    2    1    2    0    0 -0.61329794919E+02 -0.47256278601E+02 -0.59720035532E+03  0.60737387626E+03  0.79121814699E+02 0.  0.
        -11    1    5    5    0    0  0.16727746622E+02 -0.16798720889E+01 -0.49805270303E+02  0.52566190914E+02  0.00000000000E+00 0.  1.
         12    1    5    5    0    0 -0.78057541541E+02 -0.45576406512E+02 -0.54739508501E+03  0.55480768534E+03  0.00000000000E+00 0. -1.
        -13    1    4    4    0    0 -0.88773812485E+01 -0.11519341055E+02  0.35963276027E+02  0.38792529419E+02  0.00000000000E+00 0.  1.
         14    1    4    4    0    0  0.27185558920E+02 -0.30874174714E+02 -0.35587663278E+02  0.54394402797E+02  0.00000000000E+00 0. -1.
          5    1    3    3  502    0 -0.27307074599E+02 -0.96215801685E+02  0.56965489923E+02  0.11519684830E+03  0.47000000000E+01 0. -1.
         -5    1    3    3    0  502  0.24766934018E+02 -0.61310005709E+01  0.12712901685E+03  0.12974924706E+03  0.47000000000E+01 0. -1.
          1    1    1    2  503    0 -0.20709164982E+02  0.30938880249E+02 -0.31755458522E+03  0.31972957076E+03  0.00000000000E+00 0. -1.
         -4    1    1    2    0  501  0.66270922810E+02  0.16105771638E+03  0.15068163437E+04  0.15168476907E+04  0.00000000000E+00 0.  1.
<mgrwt>
<rscale>  0 0.77930707E+02</rscale>
<asrwt>0</asrwt>
<pdfrwt beam="2">  1        2 0.14746711E+00 0.37230147E+02</pdfrwt>
<pdfrwt beam="1">  1       -3 0.26166292E+00 0.16312573E+03</pdfrwt>
<totfact> 0.13713849E+00</totfact>
</mgrwt>
</event>
<event>
13    1  0.2742815E-008  0.3620293E+02  0.7546771E-02  0.1685359E+00
          2   -1    0    0  503    0  0.00000000000E+00  0.00000000000E+00  0.22454148587E+04  0.22454148587E+04  0.00000000000E+00 0. -1.
          2   -1    0    0  502    0 -0.00000000000E+00 -0.00000000000E+00 -0.24039061254E+04  0.24039061254E+04  0.00000000000E+00 0. -1.
         25    2    1    2    0    0  0.13106189139E+02  0.19946514638E+03 -0.16970072998E+03  0.29048431838E+03  0.12499873862E+03 0.  0.
         24    2    1    2    0    0  0.68160500997E+02 -0.16617804975E+03  0.91263892354E+03  0.93373740284E+03  0.81821357762E+02 0.  0.
         24    2    1    2    0    0 -0.64536176747E+02 -0.20394419500E+02  0.45651836326E+03  0.46850774772E+03  0.80682360040E+02 0.  0.
        -13    1    5    5    0    0  0.12982128428E+02  0.67268847450E+01  0.16486628757E+03  0.16551338137E+03  0.00000000000E+00 0.  1.
         14    1    5    5    0    0 -0.77518305176E+02 -0.27121304245E+02  0.29165207569E+03  0.30299436635E+03  0.00000000000E+00 0. -1.
        -13    1    4    4    0    0  0.53287119639E+02 -0.66835328027E+02  0.57992469859E+03  0.58619035664E+03  0.00000000000E+00 0.  1.
         14    1    4    4    0    0  0.14873381358E+02 -0.99342721725E+02  0.33271422495E+03  0.34754704619E+03  0.00000000000E+00 0. -1.
          5    1    3    3  501    0  0.46766060359E+02  0.95212220846E+02 -0.14213931381E+03  0.17742070322E+03  0.47000000000E+01 0. -1.
         -5    1    3    3    0  501 -0.33659871220E+02  0.10425292553E+03 -0.27561416168E+02  0.11306361516E+03  0.47000000000E+01 0. -1.
          1    1    1    2  502    0 -0.28021823211E+02 -0.22924749535E+02 -0.21570463966E+04  0.21573502089E+04  0.00000000000E+00 0. -1.
          1    1    1    2  503    0  0.11291309822E+02  0.10032072412E+02  0.79909857305E+03  0.79924130625E+03  0.00000000000E+00 0. -1.
<mgrwt>
<rscale>  0 0.23384085E+02</rscale>
<asrwt>0</asrwt>
<pdfrwt beam="1">  1        2 0.33020807E+00 0.15104177E+02</pdfrwt>
<pdfrwt beam="2">  1        2 0.35351561E+00 0.36202927E+02</pdfrwt>
<totfact> 0.93063224E+00</totfact>
</mgrwt>
</event>
<event>
13    1  0.2742815E-008  0.5820916E+02  0.7546771E-02  0.1569796E+00
          2   -1    0    0  502    0  0.00000000000E+00  0.00000000000E+00  0.29087092511E+04  0.29087092511E+04  0.00000000000E+00 0. -1.
          2   -1    0    0  503    0 -0.00000000000E+00 -0.00000000000E+00 -0.12608405624E+03  0.12608405624E+03  0.00000000000E+00 0. -1.
         25    2    1    2    0    0  0.45790867758E+02  0.23251778607E+01  0.65563845686E+02  0.14840918945E+03  0.12499783850E+03 0.  0.
         24    2    1    2    0    0 -0.15768004473E+03  0.79853386383E+02  0.51042157798E+03  0.54486314844E+03  0.71457004090E+02 0.  0.
         24    2    1    2    0    0  0.47115212956E+02 -0.85309642778E+02  0.13557305198E+04  0.13616766110E+04  0.81611103420E+02 0.  0.
        -13    1    4    4    0    0 -0.35538661109E+01  0.13083518604E+02  0.10722607759E+03  0.10807978599E+03  0.00000000000E+00 0.  1.
         14    1    4    4    0    0 -0.15412617862E+03  0.66769867779E+02  0.40319550039E+03  0.43678336245E+03  0.00000000000E+00 0. -1.
        -13    1    5    5    0    0  0.67953472739E+02 -0.49728727794E+02  0.10076573827E+04  0.10111696306E+04  0.00000000000E+00 0.  1.
         14    1    5    5    0    0 -0.20838259783E+02 -0.35580914984E+02  0.34807313712E+03  0.35050698048E+03  0.00000000000E+00 0. -1.
          5    1    3    3  501    0  0.69128217651E+02 -0.37937814643E+02  0.63902985966E+02  0.10160546182E+03  0.47000000000E+01 0. -1.
         -5    1    3    3    0  501 -0.23337349894E+02  0.40262992504E+02  0.16608597197E+01  0.46803727634E+02  0.47000000000E+01 0. -1.
          1    1    1    2  502    0  0.56594232633E+02 -0.13346887198E+02  0.91312054740E+03  0.91497004358E+03  0.00000000000E+00 0. -1.
          1    1    1    2  503    0  0.81797313831E+01  0.16477965732E+02 -0.62211296080E+02  0.64874314795E+02  0.00000000000E+00 0. -1.
<mgrwt>
<rscale>  0 0.32723769E+02</rscale>
<asrwt>0</asrwt>
<pdfrwt beam="1">  1        2 0.42775132E+00 0.58209162E+02</pdfrwt>
<pdfrwt beam="2">  1        2 0.18541775E-01 0.18396504E+02</pdfrwt>
<totfact> 0.14536013E+02</totfact>
</mgrwt>
</event>
<event>
13    1  0.2742815E-008  0.1310347E+03  0.7546771E-02  0.1233362E+00
          2   -1    0    0  503    0  0.00000000000E+00  0.00000000000E+00  0.25300121589E+04  0.25300121589E+04  0.00000000000E+00 0. -1.
          2   -1    0    0  502    0 -0.00000000000E+00 -0.00000000000E+00 -0.36380760131E+04  0.36380760131E+04  0.00000000000E+00 0. -1.
         25    2    1    2    0    0  0.10324312127E+03 -0.24435602157E+03 -0.80182628161E+03  0.85376782720E+03  0.12500043805E+03 0.  0.
         24    2    1    2    0    0  0.11630816295E+02 -0.96252609083E+00 -0.13263097288E+02  0.88663380407E+02  0.86885458687E+02 0.  0.
         24    2    1    2    0    0 -0.74191221885E+02 -0.32553816128E+02  0.28184504588E+03  0.30373075204E+03  0.79067385828E+02 0.  0.
        -11    1    4    4    0    0  0.44714408193E+02  0.14823962093E+02  0.55972660355E+01  0.47438987545E+02  0.00000000000E+00 0.  1.
         12    1    4    4    0    0 -0.33083591899E+02 -0.15786488184E+02 -0.18860363324E+02  0.41224392862E+02  0.00000000000E+00 0. -1.
        -13    1    5    5    0    0 -0.90207844743E+02 -0.29570931760E+02  0.25745984177E+03  0.27440383631E+03  0.00000000000E+00 0.  1.
         14    1    5    5    0    0  0.16016622858E+02 -0.29828843686E+01  0.24385204107E+02  0.29326915731E+02  0.00000000000E+00 0. -1.
          5    1    3    3  501    0 -0.63885634107E+01 -0.92277622472E+02 -0.39629700974E+03  0.40697590013E+03  0.47000000000E+01 0.  1.
         -5    1    3    3    0  501  0.10963168468E+03 -0.15207839910E+03 -0.40552927187E+03  0.44679192707E+03  0.47000000000E+01 0.  1.
          1    1    1    2  502    0 -0.67300687729E+02  0.11614612310E+03 -0.27436397387E+04  0.27469216080E+04  0.00000000000E+00 0. -1.
          1    1    1    2  503    0  0.26617972051E+02  0.16172624069E+03  0.21688202175E+04  0.21750046045E+04  0.00000000000E+00 0. -1.
<mgrwt>
<rscale>  0 0.12609897E+03</rscale>
<asrwt>0</asrwt>
<pdfrwt beam="1">  1        2 0.37206061E+00 0.12134916E+03</pdfrwt>
<pdfrwt beam="2">  1        2 0.53501118E+00 0.13103470E+03</pdfrwt>
<totfact> 0.91734241E-01</totfact>
</mgrwt>
</event>
<event>
13    1  0.2742815E-008  0.1520145E+03  0.7546771E-02  0.1213540E+00
          2   -1    0    0  502    0  0.00000000000E+00  0.00000000000E+00  0.17758645167E+04  0.17758645167E+04  0.00000000000E+00 0. -1.
          2   -1    0    0  503    0 -0.00000000000E+00 -0.00000000000E+00 -0.40648116655E+04  0.40648116655E+04  0.00000000000E+00 0. -1.
         25    2    1    2    0    0 -0.12886273054E+03 -0.13906008273E+03 -0.22126683320E+04  0.22242906841E+04  0.12499836035E+03 0.  0.
         24    2    1    2    0    0  0.12159164268E+02  0.70730519223E+02 -0.37805500626E+03  0.39335044737E+03  0.81537323121E+02 0.  0.
         24    2    1    2    0    0 -0.17625009167E+03  0.10640545496E+03  0.47199882512E+03  0.52141815896E+03  0.81901098400E+02 0.  0.
        -11    1    5    5    0    0 -0.10803967976E+03  0.36557246124E+02  0.32950903445E+03  0.34869070598E+03  0.00000000000E+00 0.  1.
         12    1    5    5    0    0 -0.68210411910E+02  0.69848208832E+02  0.14248979066E+03  0.17272745298E+03  0.00000000000E+00 0. -1.
        -13    1    4    4    0    0  0.31787071941E+02  0.77139544966E+02 -0.33964683267E+03  0.34974404682E+03  0.00000000000E+00 0.  1.
         14    1    4    4    0    0 -0.19627907674E+02 -0.64090257434E+01 -0.38408173583E+02  0.43606400547E+02  0.00000000000E+00 0. -1.
          5    1    3    3  501    0 -0.70047917817E+02 -0.14319341995E+03 -0.13071157371E+04  0.13168085307E+04  0.47000000000E+01 0.  1.
         -5    1    3    3    0  501 -0.58814812726E+02  0.41333372214E+01 -0.90555259492E+03  0.90748215345E+03  0.47000000000E+01 0.  1.
          1    1    1    2  502    0  0.14487816214E+03 -0.46070120830E+02  0.12572772825E+04  0.12664352739E+04  0.00000000000E+00 0. -1.
          1    1    1    2  503    0  0.14807549580E+03  0.79942293811E+01 -0.14274999182E+04  0.14351816179E+04  0.00000000000E+00 0. -1.
<mgrwt>
<rscale>  0 0.13984343E+03</rscale>
<asrwt>0</asrwt>
<pdfrwt beam="1">  1        2 0.26115655E+00 0.15201454E+03</pdfrwt>
<pdfrwt beam="2">  1        2 0.59776642E+00 0.12864680E+03</pdfrwt>
<totfact> 0.11166210E+00</totfact>
</mgrwt>
</event>
<event>
13    1  0.2742815E-008  0.8430510E+02  0.7546771E-02  0.1470137E+00
          2   -1    0    0  503    0  0.00000000000E+00  0.00000000000E+00  0.11127788905E+04  0.11127788905E+04  0.00000000000E+00 0. -1.
         -3   -1    0    0    0  501 -0.00000000000E+00 -0.00000000000E+00 -0.29876003356E+03  0.29876003356E+03  0.00000000000E+00 0.  1.
         25    2    1    2    0    0  0.41324960239E+02 -0.47585225959E+01 -0.13896723541E+03  0.19148693550E+03  0.12499983229E+03 0.  0.
         24    2    1    2    0    0 -0.14701444785E+02  0.23080061365E+02  0.18159908544E+03  0.20053992756E+03  0.80555651572E+02 0.  0.
         24    2    1    2    0    0 -0.76728560714E+01  0.86502122275E+02  0.27170833813E+03  0.29697140246E+03  0.82614181539E+02 0.  0.
        -11    1    4    4    0    0  0.11055603572E+02 -0.25372160955E+02  0.85621670596E+02  0.89983572932E+02  0.00000000000E+00 0.  1.
         12    1    4    4    0    0 -0.25757048357E+02  0.48452222320E+02  0.95977414846E+02  0.11055635463E+03  0.00000000000E+00 0. -1.
        -13    1    5    5    0    0 -0.28418613766E+02  0.30898696421E+02  0.19769219331E+03  0.20210034722E+03  0.00000000000E+00 0.  1.
         14    1    5    5    0    0  0.20745757695E+02  0.55603425854E+02  0.74016144815E+02  0.94871055240E+02  0.00000000000E+00 0. -1.
          5    1    3    3  502    0  0.72053902370E+02  0.27361077711E+02 -0.50200117597E+02  0.92100679840E+02  0.47000000000E+01 0.  1.
         -5    1    3    3    0  502 -0.30728942131E+02 -0.32119600307E+02 -0.88767117818E+02  0.99386255660E+02  0.47000000000E+01 0.  1.
          1    1    1    2  503    0 -0.23752912271E+02 -0.80542061711E+02  0.60680725152E+03  0.61258980162E+03  0.00000000000E+00 0. -1.
         -4    1    1    2    0  501  0.48022528882E+01 -0.24281599333E+02 -0.10712858274E+03  0.10995085692E+03  0.00000000000E+00 0.  1.
<mgrwt>
<rscale>  0 0.45680558E+02</rscale>
<asrwt>0</asrwt>
<pdfrwt beam="1">  1        2 0.16364395E+00 0.84305101E+02</pdfrwt>
<pdfrwt beam="2">  1       -3 0.43935299E-01 0.24751923E+02</pdfrwt>
<totfact> 0.70560060E+01</totfact>
</mgrwt>
</event>
<event>
13    1  0.2742815E-008  0.2722621E+03  0.7546771E-02  0.1410733E+00
          2   -1    0    0  503    0  0.00000000000E+00  0.00000000000E+00  0.17883410019E+04  0.17883410019E+04  0.00000000000E+00 0. -1.
          2   -1    0    0  502    0 -0.00000000000E+00 -0.00000000000E+00 -0.31085459159E+03  0.31085459159E+03  0.00000000000E+00 0. -1.
         25    2    1    2    0    0  0.11406329965E+03 -0.31041457014E+02 -0.11929051334E+02  0.17245957668E+03  0.12500397971E+03 0.  0.
         24    2    1    2    0    0  0.61049405985E+02  0.33004506914E+02  0.10397180553E+03  0.14814289338E+03  0.79497503515E+02 0.  0.
         24    2    1    2    0    0  0.11472921072E+03  0.14754708081E+03  0.26719947738E+03  0.33622175305E+03  0.81954704943E+02 0.  0.
        -11    1    4    4    0    0  0.71488852755E+02  0.46948569492E+02  0.97156756688E+02  0.12943824634E+03  0.00000000000E+00 0.  1.
         12    1    4    4    0    0 -0.10439446770E+02 -0.13944062577E+02  0.68150488414E+01  0.18704647036E+02  0.00000000000E+00 0. -1.
        -13    1    5    5    0    0 -0.90651660108E+01  0.64673000363E+01  0.19859824883E+01  0.11311380597E+02  0.00000000000E+00 0.  1.
         14    1    5    5    0    0  0.12379437673E+03  0.14107978078E+03  0.26521349490E+03  0.32491037246E+03  0.00000000000E+00 0. -1.
          5    1    3    3  501    0  0.57450325646E+02 -0.74757418014E+02 -0.29037795015E+02  0.98764847007E+02  0.47000000000E+01 0. -1.
         -5    1    3    3    0  501  0.56612974001E+02  0.43715961000E+02  0.17108743680E+02  0.73694729674E+02  0.47000000000E+01 0. -1.
          1    1    1    2  502    0  0.11582338125E+01  0.11889899025E+02 -0.14018329617E+03  0.14069139181E+03  0.00000000000E+00 0. -1.
          1    1    1    2  503    0 -0.29100015017E+03 -0.16140002974E+03  0.12584274749E+04  0.13016799786E+04  0.00000000000E+00 0. -1.
<mgrwt>
<rscale>  0 0.57030624E+02</rscale>
<asrwt>0</asrwt>
<pdfrwt beam="1">  1        2 0.26299132E+00 0.27226211E+03</pdfrwt>
<pdfrwt beam="2">  1        2 0.45713911E-01 0.11946179E+02</pdfrwt>
<totfact> 0.17443798E+02</totfact>
</mgrwt>
</event>
<event>
13    1  0.2742815E-008  0.1134925E+03  0.7546771E-02  0.1275988E+00
          2   -1    0    0  503    0  0.00000000000E+00  0.00000000000E+00  0.23232700733E+04  0.23232700733E+04  0.00000000000E+00 0. -1.
         -3   -1    0    0    0  501 -0.00000000000E+00 -0.00000000000E+00 -0.90280747040E+03  0.90280747040E+03  0.00000000000E+00 0.  1.
         25    2    1    2    0    0 -0.92293487789E+01  0.39561163417E+02 -0.61944200448E+02  0.14529648739E+03  0.12499487489E+03 0.  0.
         24    2    1    2    0    0  0.37108892296E+02 -0.13847393261E+03  0.62591999729E+03  0.64741575032E+03  0.82578513276E+02 0.  0.
         24    2    1    2    0    0 -0.78798460281E+02 -0.33794367447E+02  0.24635846409E+03  0.27291942342E+03  0.80257474667E+02 0.  0.
        -11    1    4    4    0    0  0.52811771022E+02 -0.13272321822E+03  0.59840165635E+03  0.61521466021E+03  0.00000000000E+00 0.  1.
         12    1    4    4    0    0 -0.15702878726E+02 -0.57507143885E+01  0.27518340943E+02  0.32201090114E+02  0.00000000000E+00 0. -1.
        -11    1    5    5    0    0 -0.45781074214E+02 -0.56748302941E+02  0.12101048600E+03  0.14127920712E+03  0.00000000000E+00 0.  1.
         12    1    5    5    0    0 -0.33017386067E+02  0.22953935493E+02  0.12534797809E+03  0.13164021630E+03  0.00000000000E+00 0. -1.
          5    1    3    3  502    0  0.21885574684E+01 -0.45339416979E+02 -0.21880964279E+02  0.50609476519E+02  0.47000000000E+01 0.  1.
         -5    1    3    3    0  502 -0.11417906247E+02  0.84900580396E+02 -0.40063236169E+02  0.94687010867E+02  0.47000000000E+01 0.  1.
          1    1    1    2  503    0  0.13425918199E+03  0.94191367444E+02  0.13776877006E+04  0.13874152018E+04  0.00000000000E+00 0. -1.
         -4    1    1    2    0  501 -0.83340265224E+02  0.38515769192E+02 -0.76755935870E+03  0.77303068077E+03  0.00000000000E+00 0.  1.
<mgrwt>
<rscale>  0 0.10207711E+03</rscale>
<asrwt>0</asrwt>
<pdfrwt beam="1">  1        2 0.34165736E+00 0.11349246E+03</pdfrwt>
<pdfrwt beam="2">  1       -3 0.13276580E+00 0.91809936E+02</pdfrwt>
<totfact> 0.18071839E+00</totfact>
</mgrwt>
</event>
<event>
13    1  0.2742815E-008  0.1649912E+03  0.7546771E-02  0.1238512E+00
          2   -1    0    0  503    0  0.00000000000E+00  0.00000000000E+00  0.16127106078E+04  0.16127106078E+04  0.00000000000E+00 0. -1.
          2   -1    0    0  502    0 -0.00000000000E+00 -0.00000000000E+00 -0.14368103491E+04  0.14368103491E+04  0.00000000000E+00 0. -1.
         25    2    1    2    0    0  0.16068424967E+03 -0.51927487297E+02 -0.31957539653E+03  0.38245206583E+03  0.12500102624E+03 0.  0.
         24    2    1    2    0    0 -0.14680908307E+03  0.61023529436E+02  0.47112165423E+02  0.18432849797E+03  0.80502552866E+02 0.  0.
         24    2    1    2    0    0  0.64866082496E+02 -0.50431127864E+02  0.21593739675E+03  0.24436791685E+03  0.79597814995E+02 0.  0.
        -11    1    4    4    0    0 -0.10805316340E+03  0.70310962795E+01  0.46551252072E+02  0.11786408064E+03  0.00000000000E+00 0.  1.
         12    1    4    4    0    0 -0.38755919665E+02  0.53992433156E+02  0.56091335072E+00  0.66464417330E+02  0.00000000000E+00 0. -1.
        -13    1    5    5    0    0  0.40667295429E+02 -0.96750693023E+00  0.30266032154E+02  0.50703034322E+02  0.00000000000E+00 0.  1.
         14    1    5    5    0    0  0.24198787067E+02 -0.49463620934E+02  0.18567136460E+03  0.19366488252E+03  0.00000000000E+00 0. -1.
          5    1    3    3  501    0  0.48640520359E+02  0.40417974671E+02 -0.11833016201E+03  0.13425211410E+03  0.47000000000E+01 0.  1.
         -5    1    3    3    0  501  0.11204372931E+03 -0.92345461968E+02 -0.20124523452E+03  0.24819995173E+03  0.47000000000E+01 0.  1.
          1    1    1    2  502    0 -0.16475971573E+03  0.10342007721E+02 -0.99446758835E+03  0.10080766366E+04  0.00000000000E+00 0. -1.
          1    1    1    2  503    0  0.86018466631E+02  0.30993078004E+02  0.12268936814E+04  0.12302958396E+04  0.00000000000E+00 0. -1.
<mgrwt>
<rscale>  0 0.12282271E+03</rscale>
<asrwt>0</asrwt>
<pdfrwt beam="1">  1        2 0.23716333E+00 0.91431655E+02</pdfrwt>
<pdfrwt beam="2">  1        2 0.21129564E+00 0.16499119E+03</pdfrwt>
<totfact> 0.36739142E+01</totfact>
</mgrwt>
</event>
<event>
13    1  0.2742815E-008  0.4279997E+02  0.7546771E-02  0.1585044E+00
          2   -1    0    0  503    0  0.00000000000E+00  0.00000000000E+00  0.40875353521E+04  0.40875353521E+04  0.00000000000E+00 0. -1.
          2   -1    0    0  502    0 -0.00000000000E+00 -0.00000000000E+00 -0.13559169973E+04  0.13559169973E+04  0.00000000000E+00 0. -1.
         25    2    1    2    0    0 -0.33974671136E+03 -0.75331897958E+03 -0.33470582498E+03  0.90031824125E+03  0.12501053304E+03 0.  0.
         24    2    1    2    0    0  0.78343815843E+02  0.80946374062E+03  0.18889573837E+04  0.20581715893E+04  0.80876403578E+02 0.  0.
         24    2    1    2    0    0  0.24616214626E+03 -0.94126482941E+02  0.30356357470E+03  0.41125394925E+03  0.86737361307E+02 0.  0.
        -11    1    4    4    0    0  0.66697377039E+02  0.36113261435E+03  0.78802915086E+03  0.86939936039E+03  0.00000000000E+00 0.  1.
         12    1    4    4    0    0  0.11646438804E+02  0.44833112627E+03  0.11009282329E+04  0.11887722289E+04  0.00000000000E+00 0. -1.
        -11    1    5    5    0    0  0.13935704700E+03 -0.98234698194E+02  0.18220369945E+03  0.24953683209E+03  0.00000000000E+00 0.  1.
         12    1    5    5    0    0  0.10680509927E+03  0.41082152528E+01  0.12135987525E+03  0.16171711716E+03  0.00000000000E+00 0. -1.
          5    1    3    3  501    0 -0.12615501976E+03 -0.23057836729E+03 -0.48846547838E+02  0.26737529375E+03  0.47000000000E+01 0. -1.
         -5    1    3    3    0  501 -0.21359169161E+03 -0.52274061229E+03 -0.28585927714E+03  0.63294294750E+03  0.47000000000E+01 0. -1.
          1    1    1    2  502    0  0.22369219896E+02 -0.42237282817E+01 -0.59942578370E+03  0.59985789321E+03  0.00000000000E+00 0. -1.
          1    1    1    2  503    0 -0.71284706424E+01  0.42205450185E+02  0.14732290050E+04  0.14738506764E+04  0.00000000000E+00 0. -1.
<mgrwt>
<rscale>  0 0.31214090E+02</rscale>
<asrwt>0</asrwt>
<pdfrwt beam="1">  1        2 0.60110814E+00 0.42799972E+02</pdfrwt>
<pdfrwt beam="2">  1        2 0.19939956E+00 0.22764487E+02</pdfrwt>
<totfact> 0.25617643E+00</totfact>
</mgrwt>
</event>
<event>
13    1  0.2742815E-008  0.2892946E+02  0.7546771E-02  0.1698569E+00
          2   -1    0    0  502    0  0.00000000000E+00  0.00000000000E+00  0.30864928490E+04  0.30864928490E+04  0.00000000000E+00 0. -1.
          2   -1    0    0  503    0 -0.00000000000E+00 -0.00000000000E+00 -0.23648098650E+04  0.23648098650E+04  0.00000000000E+00 0. -1.
         25    2    1    2    0    0  0.80703825601E+02 -0.29617079603E+02 -0.50945611390E+03  0.53156354285E+03  0.12499595685E+03 0.  0.
         24    2    1    2    0    0  0.95744354167E+02 -0.80935665734E+02 -0.27397650106E+03  0.31219594249E+03  0.81765640894E+02 0.  0.
         24    2    1    2    0    0 -0.15165246134E+03  0.76419619887E+02  0.12956896615E+04  0.13092719721E+04  0.80888631396E+02 0.  0.
        -11    1    5    5    0    0 -0.29659893836E+02  0.40385287145E+02  0.19821595843E+03  0.20445108680E+03  0.00000000000E+00 0.  1.
         12    1    5    5    0    0 -0.12199256750E+03  0.36034332742E+02  0.10974737030E+04  0.11048208853E+04  0.00000000000E+00 0. -1.
        -11    1    4    4    0    0  0.27301054998E+02 -0.71723679101E+02 -0.10860689439E+03  0.13298530466E+03  0.00000000000E+00 0.  1.
         12    1    4    4    0    0  0.68443299169E+02 -0.92119866325E+01 -0.16536960667E+03  0.17921063783E+03  0.00000000000E+00 0. -1.
          5    1    3    3  501    0  0.10652541825E+03  0.57398142769E+00 -0.42407441618E+03  0.43727473589E+03  0.47000000000E+01 0.  1.
         -5    1    3    3    0  501 -0.25821592650E+02 -0.30191061030E+02 -0.85381697714E+02  0.94288806959E+02  0.47000000000E+01 0.  1.
          1    1    1    2  502    0 -0.23721246870E+02  0.16556699487E+02  0.17536791117E+04  0.17539176859E+04  0.00000000000E+00 0. -1.
          1    1    1    2  503    0 -0.10744715595E+01  0.17576425963E+02 -0.15442531743E+04  0.15443535708E+04  0.00000000000E+00 0. -1.
<mgrwt>
<rscale>  0 0.22570463E+02</rscale>
<asrwt>0</asrwt>
<pdfrwt beam="1">  1        2 0.45389601E+00 0.28929464E+02</pdfrwt>
<pdfrwt beam="2">  1        2 0.34776615E+00 0.17609237E+02</pdfrwt>
<totfact> 0.38873405E+00</totfact>
</mgrwt>
</event>
<event>
13    1  0.2742815E-008  0.1677560E+03  0.7546771E-02  0.1428414E+00
          2   -1    0    0  503    0  0.00000000000E+00  0.00000000000E+00  0.10225787855E+04  0.10225787855E+04  0.00000000000E+00 0. -1.
          2   -1    0    0  502    0 -0.00000000000E+00 -0.00000000000E+00 -0.19739468156E+04  0.19739468156E+04  0.00000000000E+00 0. -1.
         25    2    1    2    0    0  0.54550185729E+02  0.23694456842E+02 -0.18262689823E+03  0.22916372966E+03  0.12500512385E+03 0.  0.
         24    2    1    2    0    0 -0.39716217239E+02 -0.75602964854E+01  0.29199878789E+02  0.94449239076E+02  0.80209038431E+02 0.  0.
         24    2    1    2    0    0  0.16263759264E+03  0.16599096901E+02  0.23444658434E+02  0.18340017356E+03  0.79746191728E+02 0.  0.
        -13    1    4    4    0    0  0.15555312501E+02  0.76774734488E+01 -0.14300208284E+02  0.22481265590E+02  0.00000000000E+00 0.  1.
         14    1    4    4    0    0 -0.55271529740E+02 -0.15237769934E+02  0.43500087073E+02  0.71967973486E+02  0.00000000000E+00 0. -1.
        -13    1    5    5    0    0  0.14745841304E+03  0.38726135765E+02  0.30882758293E+02  0.15555526968E+03  0.00000000000E+00 0.  1.
         14    1    5    5    0    0  0.15179179601E+02 -0.22127038864E+02 -0.74380998591E+01  0.27844903875E+02  0.00000000000E+00 0. -1.
          5    1    3    3  501    0 -0.33047745419E+02 -0.14461935831E+02 -0.22916144561E+02  0.42994659515E+02  0.47000000000E+01 0.  1.
         -5    1    3    3    0  501  0.87597931148E+02  0.38156392673E+02 -0.15971075367E+03  0.18616907015E+03  0.47000000000E+01 0.  1.
          1    1    1    2  502    0 -0.10379778913E+02 -0.13364350680E+02 -0.16469241409E+04  0.16470110720E+04  0.00000000000E+00 0. -1.
          1    1    1    2  503    0 -0.16709178221E+03 -0.19368906578E+02  0.82553847176E+03  0.84250138669E+03  0.00000000000E+00 0. -1.
<mgrwt>
<rscale>  0 0.53279685E+02</rscale>
<asrwt>0</asrwt>
<pdfrwt beam="1">  1        2 0.15037924E+00 0.16775597E+03</pdfrwt>
<pdfrwt beam="2">  1        2 0.29028629E+00 0.16921752E+02</pdfrwt>
<totfact> 0.50048884E+01</totfact>
</mgrwt>
</event>
<event>
13    1  0.2742815E-008  0.4450143E+02  0.7546771E-02  0.1498403E+00
          2   -1    0    0  503    0  0.00000000000E+00  0.00000000000E+00  0.11172616477E+04  0.11172616477E+04  0.00000000000E+00 0. -1.
          2   -1    0    0  502    0 -0.00000000000E+00 -0.00000000000E+00 -0.10154765247E+04  0.10154765247E+04  0.00000000000E+00 0. -1.
         25    2    1    2    0    0 -0.81014050708E+02 -0.20676379343E+02 -0.57672129001E+03  0.59600572370E+03  0.12499834899E+03 0.  0.
         24    2    1    2    0    0 -0.61000913125E+02 -0.11755858600E+03 -0.11411089111E+03  0.19216172974E+03  0.79772817209E+02 0.  0.
         24    2    1    2    0    0  0.11408427255E+03  0.10739880049E+03  0.38978953094E+03  0.42503710310E+03  0.64582791752E+02 0.  0.
        -11    1    5    5    0    0  0.59618217290E+02  0.33903690749E+02  0.10083803618E+03  0.12195122640E+03  0.00000000000E+00 0.  1.
         12    1    5    5    0    0  0.54466055257E+02  0.73495109738E+02  0.28895149477E+03  0.30308587671E+03  0.00000000000E+00 0. -1.
        -11    1    4    4    0    0  0.71164042373E+01 -0.49611196104E+02 -0.11345826450E+02  0.51387175112E+02  0.00000000000E+00 0.  1.
         12    1    4    4    0    0 -0.68117317362E+02 -0.67947389891E+02 -0.10276506466E+03  0.14077455463E+03  0.00000000000E+00 0. -1.
          5    1    3    3  501    0  0.21482392256E+01  0.19641117545E+02 -0.35719490135E+03  0.35777182111E+03  0.47000000000E+01 0. -1.
         -5    1    3    3    0  501 -0.83162289934E+02 -0.40317496888E+02 -0.21952638866E+03  0.23823390259E+03  0.47000000000E+01 0. -1.
          1    1    1    2  502    0  0.36218096189E+02 -0.12906357435E+02 -0.25616714169E+03  0.25903653997E+03  0.00000000000E+00 0. -1.
          1    1    1    2  503    0 -0.82874049031E+01  0.43742522287E+02  0.65899491488E+03  0.66049707583E+03  0.00000000000E+00 0. -1.
<mgrwt>
<rscale>  0 0.41364655E+02</rscale>
<asrwt>0</asrwt>
<pdfrwt beam="1">  1        2 0.16430318E+00 0.44501425E+02</pdfrwt>
<pdfrwt beam="2">  1        2 0.14933478E+00 0.38448986E+02</pdfrwt>
<totfact> 0.12426910E+02</totfact>
</mgrwt>
</event>
<event>
13    1  0.2742815E-008  0.1768563E+03  0.7546771E-02  0.1190397E+00
          2   -1    0    0  503    0  0.00000000000E+00  0.00000000000E+00  0.16491014754E+04  0.16491014754E+04  0.00000000000E+00 0. -1.
          2   -1    0    0  502    0 -0.00000000000E+00 -0.00000000000E+00 -0.10523756083E+04  0.10523756083E+04  0.00000000000E+00 0. -1.
         25    2    1    2    0    0 -0.26650230117E+03 -0.77606918151E+02 -0.30563367731E+03  0.43137342332E+03  0.12499910147E+03 0.  0.
         24    2    1    2    0    0  0.20622437314E+02 -0.12283206544E+03  0.66035693194E+02  0.16314519856E+03  0.82113590930E+02 0.  0.
         24    2    1    2    0    0  0.10016663317E+03  0.41689276244E+01  0.18426038375E+03  0.22454187672E+03  0.80102628060E+02 0.  0.
        -11    1    5    5    0    0 -0.86100402802E+01  0.16042750797E+02  0.18792351021E+02  0.26165914921E+02  0.00000000000E+00 0.  1.
         12    1    5    5    0    0  0.10877667345E+03 -0.11873823172E+02  0.16546803273E+03  0.19837596180E+03  0.00000000000E+00 0. -1.
        -11    1    4    4    0    0 -0.27511449682E+02 -0.25289340475E+02  0.31470787093E+01  0.37501129446E+02  0.00000000000E+00 0.  1.
         12    1    4    4    0    0  0.48133886996E+02 -0.97542724967E+02  0.62888614485E+02  0.12564406911E+03  0.00000000000E+00 0. -1.
          5    1    3    3  501    0 -0.18096476000E+03 -0.42428922302E+02 -0.11284625594E+03  0.21749672478E+03  0.47000000000E+01 0. -1.
         -5    1    3    3    0  501 -0.85537541167E+02 -0.35177995849E+02 -0.19278742136E+03  0.21387669854E+03  0.47000000000E+01 0. -1.
          1    1    1    2  502    0 -0.11865470570E+01  0.14202913873E+03 -0.60204345976E+03  0.61857094305E+03  0.00000000000E+00 0. -1.
          1    1    1    2  503    0  0.14689977774E+03  0.54240917237E+02  0.12541069273E+04  0.12638456420E+04  0.00000000000E+00 0. -1.
<mgrwt>
<rscale>  0 0.15850299E+03</rscale>
<asrwt>0</asrwt>
<pdfrwt beam="1">  1        2 0.24251492E+00 0.17685629E+03</pdfrwt>
<pdfrwt beam="2">  1        2 0.15476112E+00 0.14205431E+03</pdfrwt>
<totfact> 0.54156970E+01</totfact>
</mgrwt>
</event>
<event>
13    1  0.2742815E-008  0.5567184E+02  0.7546771E-02  0.1500909E+00
          4   -1    0    0  503    0 -0.00000000000E+00  0.00000000000E+00  0.89856619015E+02  0.89856619015E+02  0.00000000000E+00 0. -1.
          2   -1    0    0  502    0  0.00000000000E+00 -0.00000000000E+00 -0.32709673667E+04  0.32709673667E+04  0.00000000000E+00 0. -1.
         25    2    1    2    0    0 -0.85439786519E+02 -0.75103921597E+02 -0.40140013383E+02  0.17370896274E+03  0.12499210736E+03 0.  0.
         24    2    1    2    0    0  0.19000894177E+02  0.65561019098E+02 -0.45227039886E+03  0.46455651608E+03  0.81270915708E+02 0.  0.
         24    2    1    2    0    0  0.87798533627E+01 -0.22849770030E+02 -0.77567440135E+03  0.78034081874E+03  0.81619964896E+02 0.  0.
        -11    1    5    5    0    0 -0.24927544211E+02 -0.19154633870E+02 -0.12890117308E+03  0.13267929333E+03  0.00000000000E+00 0.  1.
         12    1    5    5    0    0  0.33707397574E+02 -0.36951361607E+01 -0.64677322827E+03  0.64766152541E+03  0.00000000000E+00 0. -1.
        -11    1    4    4    0    0 -0.20220716309E+02 -0.82808196790E+01 -0.11657497373E+03  0.11860511727E+03  0.00000000000E+00 0.  1.
         12    1    4    4    0    0  0.39221610485E+02  0.73841838777E+02 -0.33569542513E+03  0.34595139881E+03  0.00000000000E+00 0. -1.
          5    1    3    3  501    0 -0.95974885887E+01 -0.29965852786E+02 -0.72828788147E+02  0.79474439308E+02  0.47000000000E+01 0. -1.
         -5    1    3    3    0  501 -0.75842297930E+02 -0.45138068810E+02  0.32688774764E+02  0.94234523434E+02  0.47000000000E+01 0. -1.
          1    1    1    2  502    0  0.30851782902E+02  0.46320045879E+02 -0.19111393793E+04  0.19119495564E+04  0.00000000000E+00 0. -1.
          3    1    1    2  503    0  0.26807256078E+02 -0.13927373350E+02 -0.18865547361E+01  0.30268131684E+02  0.00000000000E+00 0. -1.
<mgrwt>
<rscale>  0 0.41009830E+02</rscale>
<asrwt>0</asrwt>
<pdfrwt beam="2">  1        2 0.48102453E+00 0.55671836E+02</pdfrwt>
<pdfrwt beam="1">  1        4 0.13214211E-01 0.30209282E+02</pdfrwt>
<totfact> 0.42525454E+01</totfact>
</mgrwt>
</event>
<event>
13    1  0.2742815E-008  0.5701059E+02  0.7546771E-02  0.1413583E+00
          2   -1    0    0  503    0  0.00000000000E+00  0.00000000000E+00  0.18228577405E+04  0.18228577405E+04  0.00000000000E+00 0. -1.
          2   -1    0    0  502    0 -0.00000000000E+00 -0.00000000000E+00 -0.45205642690E+03  0.45205642690E+03  0.00000000000E+00 0. -1.
         25    2    1    2    0    0 -0.11938147052E+03 -0.33882457450E+02 -0.66429744353E+02  0.18825284383E+03  0.12500506328E+03 0.  0.
         24    2    1    2    0    0  0.74032760502E+02 -0.16372544514E+02  0.89519849664E+02  0.14202173818E+03  0.80046616356E+02 0.  0.
         24    2    1    2    0    0 -0.98888805038E+01  0.20454946993E+00  0.24360183058E+03  0.25679621567E+03  0.80651179303E+02 0.  0.
        -11    1    4    4    0    0 -0.42094507767E+01  0.13688698592E+02 -0.54775033370E+01  0.15333068440E+02  0.00000000000E+00 0.  1.
         12    1    4    4    0    0  0.78242211278E+02 -0.30061243106E+02  0.94997353001E+02  0.12668866974E+03  0.00000000000E+00 0. -1.
        -13    1    5    5    0    0 -0.28452108423E+02 -0.32327276013E+02  0.14732479459E+03  0.15348996824E+03  0.00000000000E+00 0.  1.
         14    1    5    5    0    0  0.18563227919E+02  0.32531825483E+02  0.96277035990E+02  0.10330624743E+03  0.00000000000E+00 0. -1.
          5    1    3    3  501    0  0.20330375411E+02  0.17287915642E+02 -0.71791992989E+01  0.28032607695E+02  0.47000000000E+01 0.  1.
         -5    1    3    3    0  501 -0.13971184594E+03 -0.51170373092E+02 -0.59250545054E+02  0.16022023613E+03  0.47000000000E+01 0.  1.
          1    1    1    2  502    0 -0.12065692388E+00  0.57055639516E+02 -0.28851453189E+03  0.29410201575E+03  0.00000000000E+00 0. -1.
          1    1    1    2  503    0  0.55358247451E+02 -0.70051870221E+01  0.13926239096E+04  0.13937413540E+04  0.00000000000E+00 0. -1.
<mgrwt>
<rscale>  0 0.56401905E+02</rscale>
<asrwt>0</asrwt>
<pdfrwt beam="1">  1        2 0.26806731E+00 0.55799715E+02</pdfrwt>
<pdfrwt beam="2">  1        2 0.66478887E-01 0.57010594E+02</pdfrwt>
<totfact> 0.13614613E+02</totfact>
</mgrwt>
</event>
<event>
13    1  0.2742815E-008  0.1049139E+03  0.7546771E-02  0.1393879E+00
          2   -1    0    0  502    0  0.00000000000E+00  0.00000000000E+00  0.15888625411E+04  0.15888625411E+04  0.00000000000E+00 0. -1.
          2   -1    0    0  503    0 -0.00000000000E+00 -0.00000000000E+00 -0.17023110580E+04  0.17023110580E+04  0.00000000000E+00 0. -1.
         25    2    1    2    0    0 -0.40379580877E+02 -0.18725194606E+03 -0.11254161403E+04  0.11484249864E+04  0.12499863401E+03 0.  0.
         24    2    1    2    0    0 -0.30322085147E+02  0.89487844174E+02 -0.29196820446E+03  0.31771006070E+03  0.82260240428E+02 0.  0.
         24    2    1    2    0    0 -0.65355314573E+02  0.21466948094E+02  0.14350642359E+03  0.17785127625E+03  0.79402996477E+02 0.  0.
        -13    1    5    5    0    0 -0.59159347665E+02 -0.19778491591E+00  0.38801266707E+02  0.70748892804E+02  0.00000000000E+00 0.  1.
         14    1    5    5    0    0 -0.61959669084E+01  0.21664733009E+02  0.10470515688E+03  0.10710238345E+03  0.00000000000E+00 0. -1.
        -13    1    4    4    0    0 -0.35306922973E+02  0.63505897019E+01 -0.48047850941E+02  0.59962528127E+02  0.00000000000E+00 0.  1.
         14    1    4    4    0    0  0.49848378252E+01  0.83137254472E+02 -0.24392035352E+03  0.25774753258E+03  0.00000000000E+00 0. -1.
          5    1    3    3  501    0 -0.45792412181E+02 -0.20146851083E+03 -0.10923277126E+04  0.11117051892E+04  0.47000000000E+01 0.  1.
         -5    1    3    3    0  501  0.54128313043E+01  0.14216564771E+02 -0.33088427693E+02  0.36719797165E+02  0.47000000000E+01 0.  1.
          1    1    1    2  502    0  0.14696646630E+03  0.42608053480E+02  0.13983240487E+04  0.14066715088E+04  0.00000000000E+00 0. -1.
          1    1    1    2  503    0 -0.10909485698E+02  0.33689100312E+02 -0.23789464443E+03  0.24051576706E+03  0.00000000000E+00 0. -1.
<mgrwt>
<rscale>  0 0.60952086E+02</rscale>
<asrwt>0</asrwt>
<pdfrwt beam="1">  1        2 0.23365626E+00 0.10491393E+03</pdfrwt>
<pdfrwt beam="2">  1        2 0.25033986E+00 0.35411472E+02</pdfrwt>
<totfact> 0.31559947E+01</totfact>
</mgrwt>
</event>
<event>
13    1  0.2742815E-008  0.1282359E+03  0.7546771E-02  0.1393318E+00
          2   -1    0    0  503    0  0.00000000000E+00  0.00000000000E+00  0.16318526721E+04  0.16318526721E+04  0.00000000000E+00 0. -1.
          2   -1    0    0  502    0 -0.00000000000E+00 -0.00000000000E+00 -0.20811988047E+04  0.20811988047E+04  0.00000000000E+00 0. -1.
         25    2    1    2    0    0 -0.22592875294E+02  0.11343923656E+03 -0.15887244266E+03  0.23290351133E+03  0.12499877658E+03 0.  0.
         24    2    1    2    0    0  0.19771114230E+03 -0.11170555149E+03  0.90479543070E+03  0.93617917138E+03  0.78796214950E+02 0.  0.
         24    2    1    2    0    0 -0.10298193072E+03  0.97578600050E+02  0.34635223797E+03  0.38300863733E+03  0.81295032296E+02 0.  0.
        -13    1    4    4    0    0  0.14732548162E+03 -0.10662630045E+03  0.59179239650E+03  0.61910597319E+03  0.00000000000E+00 0.  1.
         14    1    4    4    0    0  0.50385660671E+02 -0.50792510322E+01  0.31300303420E+03  0.31707319819E+03  0.00000000000E+00 0. -1.
        -13    1    5    5    0    0 -0.12962813694E+02  0.51406691374E+02  0.18600562683E+03  0.19341348368E+03  0.00000000000E+00 0.  1.
         14    1    5    5    0    0 -0.90019117031E+02  0.46171908676E+02  0.16034661114E+03  0.18959515364E+03  0.00000000000E+00 0. -1.
          5    1    3    3  501    0  0.48255709293E+01  0.22269869912E+01  0.19566337241E+02  0.20812908468E+02  0.47000000000E+01 0.  1.
         -5    1    3    3    0  501 -0.27418446223E+02  0.11121224957E+03 -0.17843877990E+03  0.21209060286E+03  0.47000000000E+01 0.  1.
          1    1    1    2  502    0 -0.96895934025E+02 -0.84020043542E+02 -0.18483801059E+04  0.18528241163E+04  0.00000000000E+00 0. -1.
          1    1    1    2  503    0  0.24759597748E+02 -0.15292241582E+02  0.30675874736E+03  0.30813604044E+03  0.00000000000E+00 0. -1.
<mgrwt>
<rscale>  0 0.61088808E+02</rscale>
<asrwt>0</asrwt>
<pdfrwt beam="1">  1        2 0.23997833E+00 0.29101380E+02</pdfrwt>
<pdfrwt beam="2">  1        2 0.30605865E+00 0.12823593E+03</pdfrwt>
<totfact> 0.19586105E+01</totfact>
</mgrwt>
</event>
<event>
13    1  0.2742815E-008  0.9490402E+02  0.7546771E-02  0.1312444E+00
          4   -1    0    0  503    0 -0.00000000000E+00  0.00000000000E+00  0.68417799374E+03  0.68417799374E+03  0.00000000000E+00 0. -1.
          2   -1    0    0  502    0  0.00000000000E+00 -0.00000000000E+00 -0.20878043653E+04  0.20878043653E+04  0.00000000000E+00 0. -1.
         25    2    1    2    0    0 -0.15021756017E+03  0.56187017175E+02  0.24067684706E+03  0.31507722870E+03  0.12500407615E+03 0.  0.
         24    2    1    2    0    0  0.36070077100E+02  0.41104112659E+02  0.30520216549E+02  0.10275789150E+03  0.81468411718E+02 0.  0.
         24    2    1    2    0    0  0.22698363807E+02  0.22735969973E+02  0.31105578692E+02  0.92115196160E+02  0.80532678384E+02 0.  0.
        -11    1    5    5    0    0 -0.20948781628E+02 -0.17313725682E+02  0.13316186746E+02  0.30264457341E+02  0.00000000000E+00 0.  1.
         12    1    5    5    0    0  0.43647145435E+02  0.40049695655E+02  0.17789391947E+02  0.61850738819E+02  0.00000000000E+00 0. -1.
        -13    1    4    4    0    0 -0.17244244063E+02  0.30862600676E+02  0.33069123301E+02  0.48408996991E+02  0.00000000000E+00 0.  1.
         14    1    4    4    0    0  0.53314321162E+02  0.10241511983E+02 -0.25489067518E+01  0.54348894509E+02  0.00000000000E+00 0. -1.
          5    1    3    3  501    0 -0.61035904815E+02  0.71459754193E+02  0.56326580505E+02  0.10966609238E+03  0.47000000000E+01 0.  1.
         -5    1    3    3    0  501 -0.89181655352E+02 -0.15272737017E+02  0.18435026656E+03  0.20541113633E+03  0.47000000000E+01 0.  1.
          1    1    1    2  502    0  0.18020872555E+02 -0.93101915944E+02 -0.19773220455E+04  0.19795947035E+04  0.00000000000E+00 0. -1.
          3    1    1    2  503    0  0.73428246706E+02 -0.26925183863E+02  0.27139303163E+03  0.28243733917E+03  0.00000000000E+00 0. -1.
<mgrwt>
<rscale>  0 0.86153141E+02</rscale>
<asrwt>0</asrwt>
<pdfrwt beam="2">  1        2 0.30703005E+00 0.94904019E+02</pdfrwt>
<pdfrwt beam="1">  1        4 0.10061441E+00 0.78209161E+02</pdfrwt>
<totfact> 0.35808641E+00</totfact>
</mgrwt>
</event>
<event>
13    1  0.2742815E-008  0.6631151E+02  0.7546771E-02  0.1397807E+00
          2   -1    0    0  503    0  0.00000000000E+00  0.00000000000E+00  0.18171476530E+04  0.18171476530E+04  0.00000000000E+00 0. -1.
          2   -1    0    0  502    0 -0.00000000000E+00 -0.00000000000E+00 -0.12542399112E+04  0.12542399112E+04  0.00000000000E+00 0. -1.
         25    2    1    2    0    0 -0.74705538993E+02  0.60619674237E+02 -0.95723627311E+03  0.97014511267E+03  0.12499837842E+03 0.  0.
         24    2    1    2    0    0  0.10249940773E+03 -0.50277387771E+02  0.28298690802E+03  0.31563783573E+03  0.80695160518E+02 0.  0.
         24    2    1    2    0    0 -0.15249431779E+02 -0.81742838368E+02  0.10140135049E+04  0.10205907530E+04  0.80421764663E+02 0.  0.
        -11    1    4    4    0    0  0.52554068396E+02  0.18517961632E+01  0.53310883477E+02  0.74882638516E+02  0.00000000000E+00 0.  1.
         12    1    4    4    0    0  0.49945339339E+02 -0.52129183934E+02  0.22967602454E+03  0.24075519722E+03  0.00000000000E+00 0. -1.
        -13    1    5    5    0    0  0.65253443620E+01  0.12803430087E+02  0.61873921157E+02  0.63520784476E+02  0.00000000000E+00 0.  1.
         14    1    5    5    0    0 -0.21774776141E+02 -0.94546268455E+02  0.95213958375E+03  0.95706996854E+03  0.00000000000E+00 0. -1.
          5    1    3    3  501    0 -0.34879455895E+02  0.83341278112E+02 -0.82814959790E+03  0.83307634199E+03  0.47000000000E+01 0. -1.
         -5    1    3    3    0  501 -0.39826083098E+02 -0.22721603875E+02 -0.12908667521E+03  0.13706877067E+03  0.47000000000E+01 0. -1.
          1    1    1    2  502    0  0.42293799035E+02  0.34054472200E+02 -0.26595201252E+03  0.27143865877E+03  0.00000000000E+00 0. -1.
          1    1    1    2  503    0 -0.54838235999E+02  0.37346079702E+02  0.48909561454E+03  0.49357520395E+03  0.00000000000E+00 0. -1.
<mgrwt>
<rscale>  0 0.60005867E+02</rscale>
<asrwt>0</asrwt>
<pdfrwt beam="1">  1        2 0.26722760E+00 0.66311505E+02</pdfrwt>
<pdfrwt beam="2">  1        2 0.18444705E+00 0.54299839E+02</pdfrwt>
<totfact> 0.40363536E+01</totfact>
</mgrwt>
</event>
<event>
13    1  0.2742815E-008  0.8004015E+02  0.7546771E-02  0.1338750E+00
          2   -1    0    0  502    0  0.00000000000E+00  0.00000000000E+00  0.51957946048E+04  0.51957946048E+04  0.00000000000E+00 0. -1.
          2   -1    0    0  503    0 -0.00000000000E+00 -0.00000000000E+00 -0.31592597341E+04  0.31592597341E+04  0.00000000000E+00 0. -1.
         25    2    1    2    0    0  0.46314037248E+02  0.67421659995E+02 -0.55813053766E+03  0.57777505763E+03  0.12499459935E+03 0.  0.
         24    2    1    2    0    0  0.40338828195E+03 -0.34958605482E+03 -0.16546218104E+03  0.56868399206E+03  0.10531492646E+03 0.  0.
         24    2    1    2    0    0 -0.45476985719E+03  0.20958092811E+03  0.18005868100E+04  0.18705576573E+04  0.78315392406E+02 0.  0.
        -11    1    5    5    0    0 -0.94084824611E+02  0.20393546566E+02  0.26767344307E+03  0.28445900072E+03  0.00000000000E+00 0.  1.
         12    1    5    5    0    0 -0.36068503258E+03  0.18918738154E+03  0.15329133669E+04  0.15860986566E+04  0.00000000000E+00 0. -1.
        -13    1    4    4    0    0  0.17194623089E+01 -0.24884083943E+02  0.36436663504E+01  0.25208143303E+02  0.00000000000E+00 0.  1.
         14    1    4    4    0    0  0.40166881964E+03 -0.32470197088E+03 -0.16910584739E+03  0.54347584876E+03  0.00000000000E+00 0. -1.
          5    1    3    3  501    0 -0.16733793094E+02  0.80886027434E+02 -0.35925533335E+03  0.36865845142E+03  0.47000000000E+01 0. -1.
         -5    1    3    3    0  501  0.63047830342E+02 -0.13464367439E+02 -0.19887520431E+03  0.20911660621E+03  0.47000000000E+01 0. -1.
          1    1    1    2  502    0  0.69194981354E+02  0.24662461364E+02  0.31476286858E+04  0.31484857513E+04  0.00000000000E+00 0. -1.
          1    1    1    2  503    0 -0.64127443358E+02  0.47921005355E+02 -0.21880879064E+04  0.21895518806E+04  0.00000000000E+00 0. -1.
<mgrwt>
<rscale>  0 0.76678850E+02</rscale>
<asrwt>0</asrwt>
<pdfrwt beam="1">  1        2 0.76408744E+00 0.73458713E+02</pdfrwt>
<pdfrwt beam="2">  1        2 0.46459702E+00 0.80040146E+02</pdfrwt>
<totfact> 0.30541345E-02</totfact>
</mgrwt>
</event>
<event>
13    1  0.2742815E-008  0.2749091E+03  0.7546771E-02  0.1282226E+00
          2   -1    0    0  502    0  0.00000000000E+00  0.00000000000E+00  0.19025875392E+04  0.19025875392E+04  0.00000000000E+00 0. -1.
          2   -1    0    0  503    0 -0.00000000000E+00 -0.00000000000E+00 -0.18703670515E+04  0.18703670515E+04  0.00000000000E+00 0. -1.
         25    2    1    2    0    0 -0.44567533961E+03 -0.54097715597E+03  0.14267617527E+03  0.72612989818E+03  0.12500138566E+03 0.  0.
         24    2    1    2    0    0  0.81293367200E+01  0.33710584154E+03  0.40670369843E+03  0.53385740821E+03  0.76742422885E+02 0.  0.
         24    2    1    2    0    0  0.21673248005E+03  0.87944971156E+02  0.45342249099E+03  0.51344280797E+03  0.57656533573E+02 0.  0.
        -11    1    5    5    0    0  0.79678429866E+02  0.47719745946E+02  0.23254039530E+03  0.25040140133E+03  0.00000000000E+00 0.  1.
         12    1    5    5    0    0  0.13705405019E+03  0.40225225210E+02  0.22088209569E+03  0.26304140665E+03  0.00000000000E+00 0. -1.
        -13    1    4    4    0    0  0.38350813693E+02  0.26004434005E+03  0.30156040835E+03  0.40004065242E+03  0.00000000000E+00 0.  1.
         14    1    4    4    0    0 -0.30221476973E+02  0.77061501487E+02  0.10514329008E+03  0.13381675579E+03  0.00000000000E+00 0. -1.
          5    1    3    3  501    0 -0.25552826048E+03 -0.24679401607E+03  0.23344339091E+02  0.35604638243E+03  0.47000000000E+01 0. -1.
         -5    1    3    3    0  501 -0.19014707913E+03 -0.29418313989E+03  0.11933183618E+03  0.37008351574E+03  0.47000000000E+01 0. -1.
          1    1    1    2  502    0 -0.32095436983E+02  0.15666406163E+02  0.50137074844E+03  0.50264120478E+03  0.00000000000E+00 0. -1.
          1    1    1    2  503    0  0.25290895982E+03  0.10025993711E+03 -0.14719526254E+04  0.14968832715E+04  0.00000000000E+00 0. -1.
<mgrwt>
<rscale>  0 0.99087571E+02</rscale>
<asrwt>0</asrwt>
<pdfrwt beam="1">  1        2 0.27979228E+00 0.35714890E+02</pdfrwt>
<pdfrwt beam="2">  1        2 0.27505398E+00 0.27490906E+03</pdfrwt>
<totfact> 0.17066624E+01</totfact>
</mgrwt>
</event>
<event>
13    1  0.2742815E-008  0.4871708E+02  0.7546771E-02  0.1535035E+00
          2   -1    0    0  503    0  0.00000000000E+00  0.00000000000E+00  0.40360705713E+04  0.40360705713E+04  0.00000000000E+00 0. -1.
         -1   -1    0    0    0  501 -0.00000000000E+00 -0.00000000000E+00 -0.23545983713E+04  0.23545983713E+04  0.00000000000E+00 0.  1.
         25    2    1    2    0    0 -0.32677156074E+02 -0.13348092036E+03 -0.49808939138E+03  0.53160196339E+03  0.12499061183E+03 0.  0.
         24    2    1    2    0    0 -0.56478320043E+02  0.17179996851E+03 -0.31950848565E+03  0.37617456931E+03  0.81954892348E+02 0.  0.
         24    2    1    2    0    0  0.18714509589E+02 -0.13907376979E+02  0.98378032723E+02  0.12998705033E+03  0.81699130514E+02 0.  0.
        -11    1    5    5    0    0 -0.17435715669E+02  0.52202096596E+01 -0.49480972458E+01  0.18861029562E+02  0.00000000000E+00 0.  1.
         12    1    5    5    0    0  0.36150225258E+02 -0.19127586639E+02  0.10332612997E+03  0.11112602077E+03  0.00000000000E+00 0. -1.
        -13    1    4    4    0    0 -0.22749835964E+01  0.44948112281E+02 -0.15541821394E+03  0.16180336700E+03  0.00000000000E+00 0.  1.
         14    1    4    4    0    0 -0.54203336447E+02  0.12685185623E+03 -0.16409027171E+03  0.21437120231E+03  0.00000000000E+00 0. -1.
          5    1    3    3  502    0  0.12355117249E+01 -0.29818962059E+01  0.68711961031E+01  0.89286913987E+01  0.47000000000E+01 0. -1.
         -5    1    3    3    0  502 -0.33912667799E+02 -0.13049902415E+03 -0.50496058749E+03  0.52267327199E+03  0.47000000000E+01 0. -1.
          1    1    1    2  503    0  0.43025198237E+02 -0.22842135346E+02  0.38765179467E+04  0.38768239993E+04  0.00000000000E+00 0. -1.
         -2    1    1    2    0  501  0.27415768291E+02 -0.15695358298E+01 -0.14758259024E+04  0.14760813602E+04  0.00000000000E+00 0.  1.
<mgrwt>
<rscale>  0 0.36575992E+02</rscale>
<asrwt>0</asrwt>
<pdfrwt beam="1">  1        2 0.59353979E+00 0.48717083E+02</pdfrwt>
<pdfrwt beam="2">  1       -1 0.34626447E+00 0.27460659E+02</pdfrwt>
<totfact> 0.26136947E-02</totfact>
</mgrwt>
</event>
<event>
13    1  0.2742815E-008  0.6776013E+02  0.7546771E-02  0.1509633E+00
          2   -1    0    0  502    0  0.00000000000E+00  0.00000000000E+00  0.92203152929E+03  0.92203152929E+03  0.00000000000E+00 0. -1.
          2   -1    0    0  503    0 -0.00000000000E+00 -0.00000000000E+00 -0.14936419057E+04  0.14936419057E+04  0.00000000000E+00 0. -1.
         25    2    1    2    0    0 -0.31144542730E+02  0.44939515338E+02 -0.81832846736E+02  0.15909309172E+03  0.12499781777E+03 0.  0.
         24    2    1    2    0    0 -0.34700424757E+02  0.10719539161E+02  0.31148256530E+02  0.94101831553E+02  0.81030320366E+02 0.  0.
         24    2    1    2    0    0  0.96405733745E+01  0.68597866452E+01  0.76477984289E+02  0.11162248079E+03  0.80440653956E+02 0.  0.
        -13    1    4    4    0    0 -0.66334509643E+01  0.21140618326E+02 -0.23182555735E+02  0.32068041807E+02  0.00000000000E+00 0.  1.
         14    1    4    4    0    0 -0.28066973793E+02 -0.10421079165E+02  0.54330812266E+02  0.62033789746E+02  0.00000000000E+00 0. -1.
        -13    1    5    5    0    0 -0.25129098175E+02 -0.78419681288E+01 -0.11949034350E-01  0.26324288822E+02  0.00000000000E+00 0.  1.
         14    1    5    5    0    0  0.34769671549E+02  0.14701754774E+02  0.76489933323E+02  0.85298191967E+02  0.00000000000E+00 0. -1.
          5    1    3    3  501    0  0.34554314281E+02 -0.82025117198E+01 -0.62874325519E+02  0.72364028657E+02  0.47000000000E+01 0. -1.
         -5    1    3    3    0  501 -0.65698857012E+02  0.53142027058E+02 -0.18958521216E+02  0.86729063059E+02  0.47000000000E+01 0. -1.
          1    1    1    2  502    0  0.55137914805E+02 -0.39157246115E+02  0.72504921069E+03  0.72819629050E+03  0.00000000000E+00 0. -1.
          1    1    1    2  503    0  0.10664793080E+01 -0.23361595029E+02 -0.13224529812E+04  0.13226597404E+04  0.00000000000E+00 0. -1.
<mgrwt>
<rscale>  0 0.39807452E+02</rscale>
<asrwt>0</asrwt>
<pdfrwt beam="1">  1        2 0.13559287E+00 0.67760125E+02</pdfrwt>
<pdfrwt beam="2">  1        2 0.21965322E+00 0.23385925E+02</pdfrwt>
<totfact> 0.94055216E+01</totfact>
</mgrwt>
</event>
<event>
13    1  0.2742815E-008  0.4589593E+02  0.7546771E-02  0.1514590E+00
          2   -1    0    0  502    0  0.00000000000E+00  0.00000000000E+00  0.61765126331E+03  0.61765126331E+03  0.00000000000E+00 0. -1.
          2   -1    0    0  503    0 -0.00000000000E+00 -0.00000000000E+00 -0.59298088197E+03  0.59298088197E+03  0.00000000000E+00 0. -1.
         25    2    1    2    0    0 -0.84545750236E+02 -0.13561885344E+03 -0.17268394083E+03  0.26642894572E+03  0.12499672958E+03 0.  0.
         24    2    1    2    0    0 -0.11647502211E+02  0.71278116177E+02 -0.57844212060E+02  0.12219062757E+03  0.79802020299E+02 0.  0.
         24    2    1    2    0    0  0.13821424753E+03  0.51808761466E+01  0.20364724581E+03  0.26076778631E+03  0.86009406198E+02 0.  0.
        -11    1    4    4    0    0  0.20419966251E+02  0.39350790958E+02  0.51461838272E+01  0.44631188408E+02  0.00000000000E+00 0.  1.
         12    1    4    4    0    0 -0.32067468462E+02  0.31927325220E+02 -0.62990395887E+02  0.77559439163E+02  0.00000000000E+00 0. -1.
        -11    1    5    5    0    0  0.53136455289E+02  0.13462719587E+02  0.20264574004E+02  0.58441258191E+02  0.00000000000E+00 0.  1.
         12    1    5    5    0    0  0.85077792239E+02 -0.82818434402E+01  0.18338267180E+03  0.20232652812E+03  0.00000000000E+00 0. -1.
          5    1    3    3  501    0 -0.20882588493E+02 -0.43944199580E+02  0.12233531747E+02  0.50387741346E+02  0.47000000000E+01 0. -1.
         -5    1    3    3    0  501 -0.63663161743E+02 -0.91674653864E+02 -0.18491747258E+03  0.21604120438E+03  0.47000000000E+01 0. -1.
          1    1    1    2  502    0 -0.44250680510E+01  0.33094550358E+02  0.30342179677E+03  0.30525336566E+03  0.00000000000E+00 0. -1.
          1    1    1    2  503    0 -0.37595927030E+02  0.26065310762E+02 -0.25187050834E+03  0.25599142002E+03  0.00000000000E+00 0. -1.
<mgrwt>
<rscale>  0 0.39146171E+02</rscale>
<asrwt>0</asrwt>
<pdfrwt beam="1">  1        2 0.90831069E-01 0.33389077E+02</pdfrwt>
<pdfrwt beam="2">  1        2 0.87203070E-01 0.45895929E+02</pdfrwt>
<totfact> 0.46676618E+02</totfact>
</mgrwt>
</event>
<event>
13    1  0.2742815E-008  0.8298233E+02  0.7546771E-02  0.1370993E+00
          2   -1    0    0  502    0  0.00000000000E+00  0.00000000000E+00  0.35655319512E+04  0.35655319512E+04  0.00000000000E+00 0. -1.
          2   -1    0    0  503    0 -0.00000000000E+00 -0.00000000000E+00 -0.12336875288E+04  0.12336875288E+04  0.00000000000E+00 0. -1.
         25    2    1    2    0    0  0.78330110502E+02 -0.11984995084E+02 -0.52583078936E+03  0.54626314228E+03  0.12500462096E+03 0.  0.
         24    2    1    2    0    0 -0.75777785447E+02 -0.13041276517E+03  0.20936385814E+03  0.27040591891E+03  0.80847843502E+02 0.  0.
         24    2    1    2    0    0 -0.25740534588E+02  0.17736258013E+03  0.73245899312E+03  0.75818800996E+03  0.78948222880E+02 0.  0.
        -13    1    4    4    0    0 -0.75744941865E+02 -0.90764695976E+02  0.19538531068E+03  0.22836581593E+03  0.00000000000E+00 0.  1.
         14    1    4    4    0    0 -0.32843581743E-01 -0.39648069198E+02  0.13978547459E+02  0.42040102984E+02  0.00000000000E+00 0. -1.
        -13    1    5    5    0    0 -0.20430018683E+02  0.36849544467E+01  0.54608840356E+02  0.58421656924E+02  0.00000000000E+00 0.  1.
         14    1    5    5    0    0 -0.53105159049E+01  0.17367762569E+03  0.67785015276E+03  0.69976635304E+03  0.00000000000E+00 0. -1.
          5    1    3    3  501    0  0.77877728789E+02 -0.41706340115E+02 -0.19574303434E+03  0.21480638943E+03  0.47000000000E+01 0. -1.
         -5    1    3    3    0  501  0.45238171276E+00  0.29721345031E+02 -0.33008775501E+03  0.33145675285E+03  0.47000000000E+01 0. -1.
          1    1    1    2  502    0  0.24294244564E+02  0.48138324436E+02  0.25671837340E+04  0.25677499553E+04  0.00000000000E+00 0. -1.
          1    1    1    2  503    0 -0.11060350320E+01 -0.83103144311E+02 -0.65133137357E+03  0.65661245351E+03  0.00000000000E+00 0. -1.
<mgrwt>
<rscale>  0 0.66891826E+02</rscale>
<asrwt>0</asrwt>
<pdfrwt beam="1">  1        2 0.52434293E+00 0.53921319E+02</pdfrwt>
<pdfrwt beam="2">  1        2 0.18142464E+00 0.82982326E+02</pdfrwt>
<totfact> 0.53906072E+00</totfact>
</mgrwt>
</event>
<event>
13    1  0.2742815E-008  0.2286229E+03  0.7546771E-02  0.1419565E+00
          2   -1    0    0  503    0  0.00000000000E+00  0.00000000000E+00  0.13761904899E+04  0.13761904899E+04  0.00000000000E+00 0. -1.
         -1   -1    0    0    0  501 -0.00000000000E+00 -0.00000000000E+00 -0.36009121216E+03  0.36009121216E+03  0.00000000000E+00 0.  1.
         25    2    1    2    0    0  0.48137298965E+02  0.80636403727E+01 -0.11895412776E+03  0.17932570003E+03  0.12500160132E+03 0.  0.
         24    2    1    2    0    0  0.18013810032E+02  0.35160731620E+02 -0.54277745787E+02  0.10813990275E+03  0.84778478868E+02 0.  0.
         24    2    1    2    0    0 -0.10800869621E+03  0.19868364433E+03  0.37858235584E+03  0.44879278129E+03  0.83362410010E+02 0.  0.
        -13    1    5    5    0    0 -0.57863508112E+02  0.56126433930E+02  0.19504375031E+03  0.21104602980E+03  0.00000000000E+00 0.  1.
         14    1    5    5    0    0 -0.50145188096E+02  0.14255721040E+03  0.18353860552E+03  0.23774675149E+03  0.00000000000E+00 0. -1.
        -13    1    4    4    0    0 -0.73387030921E+01  0.57085755018E+02 -0.22029335163E+02  0.61627360781E+02  0.00000000000E+00 0.  1.
         14    1    4    4    0    0  0.25352513124E+02 -0.21925023398E+02 -0.32248410624E+02  0.46512541969E+02  0.00000000000E+00 0. -1.
          5    1    3    3  502    0  0.87704349362E+02  0.22712499482E+02 -0.70409359360E+02  0.11483674680E+03  0.47000000000E+01 0. -1.
         -5    1    3    3    0  502 -0.39567050397E+02 -0.14648859109E+02 -0.48544768400E+02  0.64488953235E+02  0.47000000000E+01 0. -1.
          1    1    1    2  503    0  0.43812636725E+02 -0.22876683482E+03  0.88984198756E+03  0.91982203425E+03  0.00000000000E+00 0. -1.
         -2    1    1    2    0  501 -0.19550495139E+01 -0.13141181498E+02 -0.79093192130E+02  0.80201283725E+02  0.00000000000E+00 0.  1.
<mgrwt>
<rscale>  0 0.55112992E+02</rscale>
<asrwt>0</asrwt>
<pdfrwt beam="1">  1        2 0.20238095E+00 0.22862293E+03</pdfrwt>
<pdfrwt beam="2">  1       -1 0.52954590E-01 0.13285815E+02</pdfrwt>
<totfact> 0.75003228E+01</totfact>
</mgrwt>
</event>
<event>
13    1  0.2742815E-008  0.4034192E+03  0.7546771E-02  0.1246263E+00
         -3   -1    0    0    0  501 -0.00000000000E+00  0.00000000000E+00  0.11760148971E+04  0.11760148971E+04  0.00000000000E+00 0.  1.
          2   -1    0    0  503    0  0.00000000000E+00 -0.00000000000E+00 -0.43298684218E+04  0.43298684218E+04  0.00000000000E+00 0. -1.
         25    2    1    2    0    0 -0.53577711952E+02  0.77514151550E+02  0.15705350304E+03  0.22174197083E+03  0.12499873560E+03 0.  0.
         24    2    1    2    0    0  0.37237766279E+02  0.20441152613E+02 -0.16178008478E+03  0.18717600606E+03  0.84009341476E+02 0.  0.
         24    2    1    2    0    0  0.25212289259E+03  0.25642738879E+03 -0.41676934660E+03  0.55564709336E+03  0.75670637635E+02 0.  0.
        -11    1    5    5    0    0  0.22519502046E+03  0.18647686368E+03 -0.32517883440E+03  0.43729588641E+03  0.00000000000E+00 0.  1.
         12    1    5    5    0    0  0.26927872130E+02  0.69950525118E+02 -0.91590512194E+02  0.11835120695E+03  0.00000000000E+00 0. -1.
        -13    1    4    4    0    0  0.55512009964E+02  0.37450582933E+02 -0.98090387238E+02  0.11876806591E+03  0.00000000000E+00 0.  1.
         14    1    4    4    0    0 -0.18274243685E+02 -0.17009430320E+02 -0.63689697541E+02  0.68407940145E+02  0.00000000000E+00 0. -1.
          5    1    3    3  502    0 -0.86523338698E+02  0.55319991710E+02  0.65674018754E+02  0.12199080441E+03  0.47000000000E+01 0. -1.
         -5    1    3    3    0  502  0.32945626746E+02  0.22194159840E+02  0.91379484287E+02  0.99751166416E+02  0.47000000000E+01 0. -1.
          1    1    1    2  503    0 -0.20167409880E+03 -0.36003657048E+03 -0.36247955930E+04  0.36482107759E+04  0.00000000000E+00 0. -1.
         -4    1    1    2    0  501 -0.34108848123E+02  0.56538775186E+01  0.89243799674E+03  0.89310747275E+03  0.00000000000E+00 0.  1.
<mgrwt>
<rscale>  0 0.11810132E+03</rscale>
<asrwt>0</asrwt>
<pdfrwt beam="2">  1        2 0.63674536E+00 0.40341919E+03</pdfrwt>
<pdfrwt beam="1">  1       -3 0.17294337E+00 0.34574266E+02</pdfrwt>
<totfact> 0.48819322E-02</totfact>
</mgrwt>
</event>
<event>
13    1  0.2742815E-008  0.7973211E+02  0.7546771E-02  0.1424530E+00
          2   -1    0    0  503    0  0.00000000000E+00  0.00000000000E+00  0.30233838163E+04  0.30233838163E+04  0.00000000000E+00 0. -1.
          2   -1    0    0  502    0 -0.00000000000E+00 -0.00000000000E+00 -0.12214533883E+04  0.12214533883E+04  0.00000000000E+00 0. -1.
         25    2    1    2    0    0 -0.11157085426E+03 -0.37699928744E+02  0.13184272015E+03  0.21650988321E+03  0.12499874609E+03 0.  0.
         24    2    1    2    0    0  0.18699824644E+02 -0.46093969362E+02  0.84033219446E+02  0.12782114137E+03  0.82476207223E+02 0.  0.
         24    2    1    2    0    0  0.37467989529E+02  0.73246274073E+02  0.12555709565E+03  0.16983380733E+03  0.79435954945E+02 0.  0.
        -11    1    5    5    0    0  0.21034198254E+02  0.85911897284E+02  0.77927375150E+02  0.11788115791E+03  0.00000000000E+00 0.  1.
         12    1    5    5    0    0  0.16433791275E+02 -0.12665623211E+02  0.47629720502E+02  0.51952649423E+02  0.00000000000E+00 0. -1.
        -13    1    4    4    0    0 -0.21427218023E+02 -0.35598480884E+02  0.74437700410E+02  0.85248746359E+02  0.00000000000E+00 0.  1.
         14    1    4    4    0    0  0.40127042667E+02 -0.10495488478E+02  0.95955190363E+01  0.42572395013E+02  0.00000000000E+00 0. -1.
          5    1    3    3  501    0 -0.82239614297E+02  0.67481056414E+00  0.14452343586E+03  0.16635180505E+03  0.47000000000E+01 0. -1.
         -5    1    3    3    0  501 -0.29331239960E+02 -0.38374739308E+02 -0.12680715710E+02  0.50158078167E+02  0.47000000000E+01 0. -1.
          1    1    1    2  502    0  0.65346181587E+02  0.45846541423E+02 -0.11335543019E+04  0.11363614672E+04  0.00000000000E+00 0. -1.
          1    1    1    2  503    0 -0.99431415029E+01 -0.35298917390E+02  0.25940516947E+04  0.25943109055E+04  0.00000000000E+00 0. -1.
<mgrwt>
<rscale>  0 0.54073873E+02</rscale>
<asrwt>0</asrwt>
<pdfrwt beam="1">  1        2 0.44461527E+00 0.36672601E+02</pdfrwt>
<pdfrwt beam="2">  1        2 0.17962550E+00 0.79732108E+02</pdfrwt>
<totfact> 0.11650502E+01</totfact>
</mgrwt>
</event>
<event>
13    1  0.2742815E-008  0.3266078E+02  0.7546771E-02  0.1633624E+00
          2   -1    0    0  502    0  0.00000000000E+00  0.00000000000E+00  0.38475606176E+04  0.38475606176E+04  0.00000000000E+00 0. -1.
          2   -1    0    0  503    0 -0.00000000000E+00 -0.00000000000E+00 -0.24167222572E+04  0.24167222572E+04  0.00000000000E+00 0. -1.
         25    2    1    2    0    0 -0.12343276061E+02 -0.27330767427E+03  0.16436920946E+03  0.34277045301E+03  0.12499962065E+03 0.  0.
         24    2    1    2    0    0  0.77848530758E+03  0.49786425801E+03 -0.81883830483E+03  0.12372626830E+04  0.80091096981E+02 0.  0.
         24    2    1    2    0    0 -0.80436696877E+03 -0.19290428022E+03  0.19909532750E+04  0.21585599218E+04  0.10614947647E+03 0.  0.
        -11    1    4    4    0    0  0.75419868775E+03  0.46465065230E+03 -0.79083591869E+03  0.11874920377E+04  0.00000000000E+00 0.  1.
         12    1    4    4    0    0  0.24286619828E+02  0.33213605711E+02 -0.28002386143E+02  0.49770645331E+02  0.00000000000E+00 0. -1.
        -13    1    5    5    0    0 -0.51504766756E+03 -0.17221009346E+03  0.13429200574E+04  0.14485733315E+04  0.00000000000E+00 0.  1.
         14    1    5    5    0    0 -0.28931930121E+03 -0.20694186755E+02  0.64803321751E+03  0.70998659030E+03  0.00000000000E+00 0. -1.
          5    1    3    3  501    0 -0.25867577796E+02 -0.49638515120E+02  0.90999935619E+02  0.10694013300E+03  0.47000000000E+01 0.  1.
         -5    1    3    3    0  501  0.13524301734E+02 -0.22366915915E+03  0.73369273836E+02  0.23583032001E+03  0.47000000000E+01 0.  1.
          1    1    1    2  502    0  0.73111171339E+01 -0.21117378523E+02  0.13097073082E+04  0.13098979462E+04  0.00000000000E+00 0. -1.
          1    1    1    2  503    0  0.30913820119E+02 -0.10534924997E+02 -0.12153531274E+04  0.12157918708E+04  0.00000000000E+00 0. -1.
<mgrwt>
<rscale>  0 0.27016218E+02</rscale>
<asrwt>0</asrwt>
<pdfrwt beam="1">  1        2 0.56581774E+00 0.22347172E+02</pdfrwt>
<pdfrwt beam="2">  1        2 0.35540033E+00 0.32660779E+02</pdfrwt>
<totfact> 0.13496140E+00</totfact>
</mgrwt>
</event>
<event>
13    1  0.2742815E-008  0.1658415E+03  0.7546771E-02  0.1319814E+00
         -1   -1    0    0    0  501 -0.00000000000E+00  0.00000000000E+00  0.56875723560E+03  0.56875723560E+03  0.00000000000E+00 0.  1.
          2   -1    0    0  503    0  0.00000000000E+00 -0.00000000000E+00 -0.39060453050E+04  0.39060453050E+04  0.00000000000E+00 0. -1.
         25    2    1    2    0    0  0.73533573885E+02 -0.14445767228E+03  0.23112124297E+03  0.30873336811E+03  0.12499623220E+03 0.  0.
         24    2    1    2    0    0  0.10002895777E+03 -0.26265802897E+02  0.11480723514E+03  0.16999962930E+03  0.70876568245E+02 0.  0.
         24    2    1    2    0    0 -0.93656786097E+02 -0.70738973316E+02 -0.27581465242E+03  0.30996737866E+03  0.78933246590E+02 0.  0.
        -11    1    4    4    0    0  0.18948415209E+02 -0.38934298558E+02  0.38563243783E+02  0.57983151124E+02  0.00000000000E+00 0.  1.
         12    1    4    4    0    0  0.81080542562E+02  0.12668495661E+02  0.76243991358E+02  0.11201647817E+03  0.00000000000E+00 0. -1.
        -11    1    5    5    0    0 -0.69072705480E+02 -0.84026005972E+02 -0.18148066398E+03  0.21158128396E+03  0.00000000000E+00 0.  1.
         12    1    5    5    0    0 -0.24584080617E+02  0.13287032656E+02 -0.94333988434E+02  0.98386094701E+02  0.00000000000E+00 0. -1.
          5    1    3    3  502    0  0.71750404309E+02 -0.13683689522E+03  0.24643586565E+03  0.29090407747E+03  0.47000000000E+01 0. -1.
         -5    1    3    3    0  502  0.17831695760E+01 -0.76207770531E+01 -0.15314622682E+02  0.17829290634E+02  0.47000000000E+01 0.  1.
          1    1    1    2  503    0 -0.58055535742E+02  0.20572559111E+03 -0.35403060155E+04  0.35467534658E+04  0.00000000000E+00 0. -1.
         -2    1    1    2    0  501 -0.21850209818E+02  0.35736857376E+02  0.13290412034E+03  0.13934869876E+03  0.00000000000E+00 0.  1.
<mgrwt>
<rscale>  0 0.83346692E+02</rscale>
<asrwt>0</asrwt>
<pdfrwt beam="2">  1        2 0.57441844E+00 0.16584153E+03</pdfrwt>
<pdfrwt beam="1">  1       -1 0.83640768E-01 0.41887404E+02</pdfrwt>
<totfact> 0.14052792E+00</totfact>
</mgrwt>
</event>
<event>
13    1  0.2742815E-008  0.6045399E+02  0.7546771E-02  0.1411861E+00
          2   -1    0    0  503    0  0.00000000000E+00  0.00000000000E+00  0.32871132641E+04  0.32871132641E+04  0.00000000000E+00 0. -1.
         -1   -1    0    0    0  501 -0.00000000000E+00 -0.00000000000E+00 -0.11254715548E+04  0.11254715548E+04  0.00000000000E+00 0.  1.
         25    2    1    2    0    0 -0.65323566936E+02 -0.58809508764E+01 -0.16399048200E+03  0.21637872866E+03  0.12500048820E+03 0.  0.
         24    2    1    2    0    0 -0.41750128994E+02  0.48976085286E+02  0.34960671867E+03  0.36452866145E+03  0.80712806171E+02 0.  0.
         24    2    1    2    0    0  0.11380740771E+03 -0.39631579656E+02  0.76215430586E+03  0.77713269346E+03  0.92375587454E+02 0.  0.
        -11    1    5    5    0    0 -0.15541611074E+02 -0.94254729858E+01  0.12162561670E+03  0.12297630606E+03  0.00000000000E+00 0.  1.
         12    1    5    5    0    0  0.12934901878E+03 -0.30206106670E+02  0.64052868916E+03  0.65415638740E+03  0.00000000000E+00 0. -1.
        -13    1    4    4    0    0 -0.15689963120E+02 -0.13598083115E+02  0.18991241243E+03  0.19104399284E+03  0.00000000000E+00 0.  1.
         14    1    4    4    0    0 -0.26060165874E+02  0.62574168401E+02  0.15969430624E+03  0.17348466861E+03  0.00000000000E+00 0. -1.
          5    1    3    3  502    0 -0.37839559579E+01 -0.59140905532E+02 -0.63609745233E+02  0.87064658263E+02  0.47000000000E+01 0.  1.
         -5    1    3    3    0  502 -0.61539610978E+02  0.53259954656E+02 -0.10038073677E+03  0.12931407040E+03  0.47000000000E+01 0.  1.
          1    1    1    2  503    0 -0.44084802985E+02 -0.41529514911E+02  0.21330051706E+04  0.21338648570E+04  0.00000000000E+00 0. -1.
         -2    1    1    2    0  501  0.37351091205E+02  0.38065960157E+02 -0.91913400383E+03  0.92067987831E+03  0.00000000000E+00 0.  1.
<mgrwt>
<rscale>  0 0.56780541E+02</rscale>
<asrwt>0</asrwt>
<pdfrwt beam="1">  1        2 0.48339901E+00 0.60453994E+02</pdfrwt>
<pdfrwt beam="2">  1       -1 0.16551052E+00 0.53330304E+02</pdfrwt>
<totfact> 0.82902795E-01</totfact>
</mgrwt>
</event>
<event>
13    1  0.2742815E-008  0.7631824E+02  0.7546771E-02  0.1457718E+00
         -3   -1    0    0    0  501 -0.00000000000E+00  0.00000000000E+00  0.11729302370E+04  0.11729302370E+04  0.00000000000E+00 0.  1.
          2   -1    0    0  503    0  0.00000000000E+00 -0.00000000000E+00 -0.53533171672E+03  0.53533171672E+03  0.00000000000E+00 0. -1.
         25    2    1    2    0    0 -0.13439185923E+03 -0.12776448395E+03  0.32191313664E+03  0.39196415039E+03  0.12499156957E+03 0.  0.
         24    2    1    2    0    0  0.54989389091E+02  0.47002933693E+02 -0.64300408694E+02  0.12403421297E+03  0.77568258591E+02 0.  0.
         24    2    1    2    0    0  0.55747398214E+02  0.57157149730E+01 -0.42912759369E+02  0.10759370834E+03  0.81206276552E+02 0.  0.
        -11    1    5    5    0    0 -0.14328540837E+02  0.20206526515E+02 -0.12774265572E+01  0.24804084642E+02  0.00000000000E+00 0.  1.
         12    1    5    5    0    0  0.70075939051E+02 -0.14490811542E+02 -0.41635332812E+02  0.82789623694E+02  0.00000000000E+00 0. -1.
        -13    1    4    4    0    0  0.31447805477E+02 -0.21559414596E+01 -0.61914757050E+02  0.69476972397E+02  0.00000000000E+00 0.  1.
         14    1    4    4    0    0  0.23541583614E+02  0.49158875153E+02 -0.23856516446E+01  0.54557240575E+02  0.00000000000E+00 0. -1.
          5    1    3    3  502    0 -0.11619818312E+03 -0.26715689318E+02  0.19553624053E+03  0.22906823694E+03  0.47000000000E+01 0. -1.
         -5    1    3    3    0  502 -0.18193676106E+02 -0.10104879463E+03  0.12637689611E+03  0.16289591345E+03  0.47000000000E+01 0. -1.
          1    1    1    2  503    0 -0.62350510688E+01  0.76098944397E+02 -0.32617847596E+03  0.33499600502E+03  0.00000000000E+00 0. -1.
         -4    1    1    2    0  501  0.29890122990E+02 -0.10531091134E+01  0.74907702763E+03  0.74967387697E+03  0.00000000000E+00 0.  1.
<mgrwt>
<rscale>  0 0.47776323E+02</rscale>
<asrwt>0</asrwt>
<pdfrwt beam="2">  1        2 0.78725252E-01 0.76318242E+02</pdfrwt>
<pdfrwt beam="1">  1       -3 0.17248974E+00 0.29908669E+02</pdfrwt>
<totfact> 0.93624834E+00</totfact>
</mgrwt>
</event>
<event>
13    1  0.2742815E-008  0.2732190E+02  0.7546771E-02  0.1639108E+00
          2   -1    0    0  503    0  0.00000000000E+00  0.00000000000E+00  0.22275214219E+04  0.22275214219E+04  0.00000000000E+00 0. -1.
          2   -1    0    0  502    0 -0.00000000000E+00 -0.00000000000E+00 -0.17761827063E+04  0.17761827063E+04  0.00000000000E+00 0. -1.
         25    2    1    2    0    0 -0.13482954857E+02  0.47082303789E+02 -0.68093890778E+03  0.69404641454E+03  0.12499638396E+03 0.  0.
         24    2    1    2    0    0  0.74243128947E+02 -0.40048994169E+02  0.72371277181E+02  0.13749824989E+03  0.80945678275E+02 0.  0.
         24    2    1    2    0    0 -0.39920760066E+02  0.40736722758E+02  0.68262826582E+02  0.11981077746E+03  0.80259960368E+02 0.  0.
        -11    1    4    4    0    0 -0.17599659848E+02 -0.99421498709E+01  0.13990294657E+02  0.24582976130E+02  0.00000000000E+00 0.  1.
         12    1    4    4    0    0  0.91842788795E+02 -0.30106844299E+02  0.58380982524E+02  0.11291527376E+03  0.00000000000E+00 0. -1.
        -13    1    5    5    0    0 -0.62981935200E+01  0.28202919928E+02 -0.12461944317E+02  0.31470176203E+02  0.00000000000E+00 0.  1.
         14    1    5    5    0    0 -0.33622566546E+02  0.12533802830E+02  0.80724770899E+02  0.88340601262E+02  0.00000000000E+00 0. -1.
          5    1    3    3  501    0  0.54909231354E+02  0.17902869947E+02 -0.35520914868E+03  0.35990438417E+03  0.47000000000E+01 0. -1.
         -5    1    3    3    0  501 -0.68392186211E+02  0.29179433841E+02 -0.32572975910E+03  0.33414203036E+03  0.47000000000E+01 0. -1.
          1    1    1    2  502    0 -0.52257341096E+01 -0.25352661333E+02 -0.10300977038E+04  0.10304228963E+04  0.00000000000E+00 0. -1.
          1    1    1    2  503    0 -0.15613679915E+02 -0.22417371044E+02  0.20217412235E+04  0.20219257900E+04  0.00000000000E+00 0. -1.
<mgrwt>
<rscale>  0 0.26594071E+02</rscale>
<asrwt>0</asrwt>
<pdfrwt beam="1">  1        2 0.32757668E+00 0.27321902E+02</pdfrwt>
<pdfrwt beam="2">  1        2 0.26120334E+00 0.25885628E+02</pdfrwt>
<totfact> 0.17520705E+01</totfact>
</mgrwt>
</event>
<event>
13    1  0.2742815E-008  0.1101855E+03  0.7546771E-02  0.1319914E+00
          2   -1    0    0  502    0  0.00000000000E+00  0.00000000000E+00  0.14325818019E+04  0.14325818019E+04  0.00000000000E+00 0. -1.
          2   -1    0    0  503    0 -0.00000000000E+00 -0.00000000000E+00 -0.25753588024E+04  0.25753588024E+04  0.00000000000E+00 0. -1.
         25    2    1    2    0    0  0.90534425315E+02  0.17876782591E+03 -0.29199443329E+03  0.37555414480E+03  0.12500299537E+03 0.  0.
         24    2    1    2    0    0  0.66491075978E+02 -0.12055048177E+03  0.38639691189E+02  0.16385062070E+03  0.80003239488E+02 0.  0.
         24    2    1    2    0    0 -0.29960530733E+02  0.11718059110E+02  0.98359442501E+02  0.13144391382E+03  0.81043051774E+02 0.  0.
        -13    1    4    4    0    0  0.17597280187E+02 -0.10682873237E+03  0.22673006420E+02  0.11061694061E+03  0.00000000000E+00 0.  1.
         14    1    4    4    0    0  0.48893795791E+02 -0.13721749401E+02  0.15966684769E+02  0.53233680091E+02  0.00000000000E+00 0. -1.
        -13    1    5    5    0    0  0.20137768582E+02  0.25641197749E+02  0.54079790517E+02  0.63147640398E+02  0.00000000000E+00 0.  1.
         14    1    5    5    0    0 -0.50098299315E+02 -0.13923138639E+02  0.44279651983E+02  0.68296273424E+02  0.00000000000E+00 0. -1.
          5    1    3    3  501    0  0.96712134888E+02  0.19333293663E+03 -0.25058620423E+03  0.33097794061E+03  0.47000000000E+01 0.  1.
         -5    1    3    3    0  501 -0.61777095738E+01 -0.14565110715E+02 -0.41408229062E+02  0.44576204188E+02  0.47000000000E+01 0.  1.
          1    1    1    2  502    0 -0.11197957831E+03 -0.87798385405E+01  0.11715096467E+04  0.11768820518E+04  0.00000000000E+00 0. -1.
          1    1    1    2  503    0 -0.15085392253E+02 -0.61155564714E+02 -0.21592913476E+04  0.21602098732E+04  0.00000000000E+00 0. -1.
<mgrwt>
<rscale>  0 0.83309299E+02</rscale>
<asrwt>0</asrwt>
<pdfrwt beam="1">  1        2 0.21067380E+00 0.11018553E+03</pdfrwt>
<pdfrwt beam="2">  1        2 0.37872923E+00 0.62988667E+02</pdfrwt>
<totfact> 0.13661896E+01</totfact>
</mgrwt>
</event>
<event>
13    1  0.2742815E-008  0.1347833E+03  0.7546771E-02  0.1256501E+00
          2   -1    0    0  502    0  0.00000000000E+00  0.00000000000E+00  0.80159695094E+03  0.80159695094E+03  0.00000000000E+00 0. -1.
          2   -1    0    0  503    0 -0.00000000000E+00 -0.00000000000E+00 -0.17882976500E+04  0.17882976500E+04  0.00000000000E+00 0. -1.
         25    2    1    2    0    0  0.61919818540E+02 -0.88368164898E+02 -0.74890726559E+02  0.18132041082E+03  0.12500189582E+03 0.  0.
         24    2    1    2    0    0  0.45266036250E+02  0.63442249291E+02 -0.68022293918E+01  0.11237766536E+03  0.80675500086E+02 0.  0.
         24    2    1    2    0    0  0.44574421333E+02 -0.69010703088E+02  0.10876761799E+03  0.15787108957E+03  0.79646280647E+02 0.  0.
        -13    1    5    5    0    0  0.57409167054E+02 -0.42924001969E+02  0.37493078607E+02  0.80895076181E+02  0.00000000000E+00 0.  1.
         14    1    5    5    0    0 -0.12834745721E+02 -0.26086701119E+02  0.71274539384E+02  0.76976013390E+02  0.00000000000E+00 0. -1.
        -13    1    4    4    0    0 -0.69816704837E+01 -0.14331624665E+02 -0.96595978856E+01  0.18639930783E+02  0.00000000000E+00 0.  1.
         14    1    4    4    0    0  0.52247706734E+02  0.77773873956E+02  0.28573684939E+01  0.93737734577E+02  0.00000000000E+00 0. -1.
          5    1    3    3  501    0  0.16789071083E+02  0.22114475774E+02 -0.52824359433E+02  0.59861723130E+02  0.47000000000E+01 0.  1.
         -5    1    3    3    0  501  0.45130747457E+02 -0.11048264067E+03 -0.22066367126E+02  0.12145868769E+03  0.47000000000E+01 0.  1.
          1    1    1    2  502    0 -0.12927242259E+02  0.92546658489E+02  0.55530599280E+03  0.56311343726E+03  0.00000000000E+00 0. -1.
          1    1    1    2  503    0 -0.13883303386E+03  0.13899602061E+01 -0.15690813539E+04  0.15752119979E+04  0.00000000000E+00 0. -1.
<mgrwt>
<rscale>  0 0.11222675E+03</rscale>
<asrwt>0</asrwt>
<pdfrwt beam="1">  1        2 0.11788191E+00 0.93445158E+02</pdfrwt>
<pdfrwt beam="2">  1        2 0.26298494E+00 0.13478327E+03</pdfrwt>
<totfact> 0.68337029E+01</totfact>
</mgrwt>
</event>
<event>
13    1  0.2742815E-008  0.1196281E+03  0.7546771E-02  0.1340541E+00
          2   -1    0    0  503    0  0.00000000000E+00  0.00000000000E+00  0.11260712685E+04  0.11260712685E+04  0.00000000000E+00 0. -1.
         -1   -1    0    0    0  501 -0.00000000000E+00 -0.00000000000E+00 -0.10135626246E+04  0.10135626246E+04  0.00000000000E+00 0.  1.
         25    2    1    2    0    0 -0.10279115306E+03  0.16981442352E+03 -0.46608880091E+03  0.52179017083E+03  0.12499300965E+03 0.  0.
         24    2    1    2    0    0 -0.87901919408E+02  0.37813063975E+02 -0.35764664696E+02  0.12922324895E+03  0.79138875311E+02 0.  0.
         24    2    1    2    0    0  0.25432801630E+03 -0.60344168523E+02  0.74504018532E+03  0.79363227265E+03  0.80269221349E+02 0.  0.
        -13    1    4    4    0    0 -0.28142642073E+02  0.50544010602E+02  0.11038480528E+01  0.57861246021E+02  0.00000000000E+00 0.  1.
         14    1    4    4    0    0 -0.59759277336E+02 -0.12730946627E+02 -0.36868512749E+02  0.71362002929E+02  0.00000000000E+00 0. -1.
        -13    1    5    5    0    0  0.45950814691E+02 -0.11891121450E+01  0.62761815415E+02  0.77794195366E+02  0.00000000000E+00 0.  1.
         14    1    5    5    0    0  0.20837720161E+03 -0.59155056379E+02  0.68227836990E+03  0.71583807728E+03  0.00000000000E+00 0. -1.
          5    1    3    3  502    0  0.90071237652E+01  0.10267150901E+03 -0.22878295033E+03  0.25097070626E+03  0.47000000000E+01 0. -1.
         -5    1    3    3    0  502 -0.11179827682E+03  0.67142914503E+02 -0.23730585058E+03  0.27081946457E+03  0.47000000000E+01 0. -1.
          1    1    1    2  503    0 -0.65806544896E+02 -0.98939903354E+02  0.26811668373E+03  0.29326807177E+03  0.00000000000E+00 0. -1.
         -2    1    1    2    0  501  0.21716010617E+01 -0.48343415613E+02 -0.39879475954E+03  0.40172012884E+03  0.00000000000E+00 0.  1.
<mgrwt>
<rscale>  0 0.76085891E+02</rscale>
<asrwt>0</asrwt>
<pdfrwt beam="1">  1        2 0.16559872E+00 0.11962810E+03</pdfrwt>
<pdfrwt beam="2">  1       -1 0.14905333E+00 0.48392166E+02</pdfrwt>
<totfact> 0.12288934E+01</totfact>
</mgrwt>
</event>
<event>
13    1  0.2742815E-008  0.1611081E+03  0.7546771E-02  0.1327194E+00
          2   -1    0    0  503    0  0.00000000000E+00  0.00000000000E+00  0.24840384663E+04  0.24840384663E+04  0.00000000000E+00 0. -1.
          2   -1    0    0  502    0 -0.00000000000E+00 -0.00000000000E+00 -0.48269374768E+03  0.48269374768E+03  0.00000000000E+00 0. -1.
         25    2    1    2    0    0  0.23451954223E+02  0.21138245783E+03 -0.19318786450E+02  0.24744882766E+03  0.12500067666E+03 0.  0.
         24    2    1    2    0    0  0.43904472055E+02  0.53515972424E+01  0.47855889663E+02  0.10219467685E+03  0.78723081381E+02 0.  0.
         24    2    1    2    0    0 -0.11113294738E+03 -0.21331152307E+02  0.77595198772E+02  0.15882950567E+03  0.80001543409E+02 0.  0.
        -11    1    4    4    0    0  0.49223771199E+02 -0.27315475699E+02  0.36987081772E+02  0.67358437346E+02  0.00000000000E+00 0.  1.
         12    1    4    4    0    0 -0.53192991442E+01  0.32667072942E+02  0.10868807891E+02  0.34836239506E+02  0.00000000000E+00 0. -1.
        -11    1    5    5    0    0 -0.68278571591E+02  0.22264624318E+02  0.64018394229E+02  0.96208272171E+02  0.00000000000E+00 0.  1.
         12    1    5    5    0    0 -0.42854375784E+02 -0.43595776624E+02  0.13576804544E+02  0.62621233499E+02  0.00000000000E+00 0. -1.
          5    1    3    3  501    0  0.40519604640E+02  0.71913900916E+01  0.14240989997E+01  0.41444812819E+02  0.47000000000E+01 0. -1.
         -5    1    3    3    0  501 -0.17067650417E+02  0.20419106773E+03 -0.20742885450E+02  0.20600401484E+03  0.47000000000E+01 0. -1.
          1    1    1    2  502    0  0.38153935089E+01 -0.40200655657E+02 -0.27710810367E+03  0.28003491043E+03  0.00000000000E+00 0. -1.
          1    1    1    2  503    0  0.39961127588E+02 -0.15520224711E+03  0.21723205203E+04  0.21782242934E+04  0.00000000000E+00 0. -1.
<mgrwt>
<rscale>  0 0.80658276E+02</rscale>
<asrwt>0</asrwt>
<pdfrwt beam="1">  1        2 0.36529977E+00 0.16110815E+03</pdfrwt>
<pdfrwt beam="2">  1        2 0.70984376E-01 0.40381307E+02</pdfrwt>
<totfact> 0.54156297E+01</totfact>
</mgrwt>
</event>
<event>
13    1  0.2742815E-008  0.2513759E+03  0.7546771E-02  0.1266427E+00
          2   -1    0    0  502    0  0.00000000000E+00  0.00000000000E+00  0.29880761475E+04  0.29880761475E+04  0.00000000000E+00 0. -1.
          2   -1    0    0  503    0 -0.00000000000E+00 -0.00000000000E+00 -0.10357726489E+04  0.10357726489E+04  0.00000000000E+00 0. -1.
         25    2    1    2    0    0 -0.38627884035E+02  0.54108501294E+01 -0.53361070584E+03  0.54944397262E+03  0.12500761152E+03 0.  0.
         24    2    1    2    0    0  0.84325703691E+02 -0.19841044445E+03 -0.22894529779E+03  0.32473868835E+03  0.81004552714E+02 0.  0.
         24    2    1    2    0    0 -0.49472761540E+02 -0.21970233949E+02  0.35019366659E+02  0.12685411880E+03  0.10924910115E+03 0.  0.
        -11    1    4    4    0    0  0.94555627177E+02 -0.14628057439E+03 -0.15164517234E+03  0.23094378400E+03  0.00000000000E+00 0.  1.
         12    1    4    4    0    0 -0.10229923486E+02 -0.52129870068E+02 -0.77300125452E+02  0.93794904354E+02  0.00000000000E+00 0. -1.
        -11    1    5    5    0    0 -0.80127968175E+02 -0.78262596371E+00  0.39469001206E+02  0.89324721345E+02  0.00000000000E+00 0.  1.
         12    1    5    5    0    0  0.30655206635E+02 -0.21187607985E+02 -0.44496345472E+01  0.37529397458E+02  0.00000000000E+00 0. -1.
          5    1    3    3  501    0 -0.66900843235E+02  0.45097175777E+02 -0.36683017090E+03  0.37562739832E+03  0.47000000000E+01 0.  1.
         -5    1    3    3    0  501  0.28272959200E+02 -0.39686325647E+02 -0.16678053494E+03  0.17381657430E+03  0.47000000000E+01 0.  1.
          1    1    1    2  502    0 -0.23701075707E+02  0.25118355220E+03  0.28426249096E+04  0.28537994489E+04  0.00000000000E+00 0. -1.
          1    1    1    2  503    0  0.27476017591E+02 -0.36213723928E+02 -0.16278477412E+03  0.16901256766E+03  0.00000000000E+00 0. -1.
<mgrwt>
<rscale>  0 0.10689652E+03</rscale>
<asrwt>0</asrwt>
<pdfrwt beam="1">  1        2 0.43942296E+00 0.25137586E+03</pdfrwt>
<pdfrwt beam="2">  1        2 0.15231951E+00 0.45457291E+02</pdfrwt>
<totfact> 0.11670056E+01</totfact>
</mgrwt>
</event>
<event>
13    1  0.2742815E-008  0.5938153E+02  0.7546771E-02  0.1442969E+00
          2   -1    0    0  503    0  0.00000000000E+00  0.00000000000E+00  0.11007363542E+04  0.11007363542E+04  0.00000000000E+00 0. -1.
          2   -1    0    0  502    0 -0.00000000000E+00 -0.00000000000E+00 -0.32943124265E+04  0.32943124265E+04  0.00000000000E+00 0. -1.
         25    2    1    2    0    0  0.17360443332E+03  0.65436906903E+02 -0.21130458088E+03  0.30772593133E+03  0.12500053945E+03 0.  0.
         24    2    1    2    0    0 -0.52415604650E+02 -0.23774609737E+03 -0.47953445598E+03  0.54398933764E+03  0.81856597564E+02 0.  0.
         24    2    1    2    0    0 -0.13248694625E+03  0.21899626131E+03 -0.13355939112E+03  0.29316310187E+03  0.50934663527E+02 0.  0.
        -11    1    4    4    0    0 -0.77969186555E+01 -0.12901186532E+02 -0.32610211602E+01  0.15422931416E+02  0.00000000000E+00 0.  1.
         12    1    4    4    0    0 -0.44618685994E+02 -0.22484491083E+03 -0.47627343482E+03  0.52856640622E+03  0.00000000000E+00 0. -1.
        -13    1    5    5    0    0 -0.74005052267E+02  0.74585144580E+02 -0.57759866197E+02  0.11989951500E+03  0.00000000000E+00 0.  1.
         14    1    5    5    0    0 -0.58481893987E+02  0.14441111673E+03 -0.75799524918E+02  0.17326358687E+03  0.00000000000E+00 0. -1.
          5    1    3    3  501    0  0.41300449206E+02  0.65216851376E+02 -0.29379163963E+02  0.82729620350E+02  0.47000000000E+01 0.  1.
         -5    1    3    3    0  501  0.13230398411E+03  0.22005552638E+00 -0.18192541692E+03  0.22499631098E+03  0.47000000000E+01 0.  1.
          1    1    1    2  502    0 -0.39676821619E+02 -0.16180830039E+02 -0.23085369227E+04  0.23089345579E+04  0.00000000000E+00 0. -1.
          1    1    1    2  503    0  0.50974939205E+02 -0.30506240802E+02  0.93935927837E+03  0.94123585196E+03  0.00000000000E+00 0. -1.
<mgrwt>
<rscale>  0 0.50442657E+02</rscale>
<asrwt>0</asrwt>
<pdfrwt beam="1">  1        2 0.16187299E+00 0.59381527E+02</pdfrwt>
<pdfrwt beam="2">  1        2 0.48445772E+00 0.42849381E+02</pdfrwt>
<totfact> 0.96019869E+00</totfact>
</mgrwt>
</event>
<event>
13    1  0.2742815E-008  0.8216886E+02  0.7546771E-02  0.1378871E+00
          2   -1    0    0  503    0  0.00000000000E+00  0.00000000000E+00  0.16839538523E+04  0.16839538523E+04  0.00000000000E+00 0. -1.
          2   -1    0    0  502    0 -0.00000000000E+00 -0.00000000000E+00 -0.12764600013E+04  0.12764600013E+04  0.00000000000E+00 0. -1.
         25    2    1    2    0    0  0.47391942466E+02 -0.95575549603E+02 -0.43979522830E+03  0.46949360593E+03  0.12499488505E+03 0.  0.
         24    2    1    2    0    0  0.58041189321E+02  0.39870686694E+02  0.28925454414E+03  0.30842392408E+03  0.80614355593E+02 0.  0.
         24    2    1    2    0    0  0.16877361655E+02 -0.15056828373E+02  0.50256635125E+03  0.50940220184E+03  0.80038193493E+02 0.  0.
        -13    1    4    4    0    0  0.69669962747E+02  0.51277264111E+02  0.26818749582E+03  0.28179388645E+03  0.00000000000E+00 0.  1.
         14    1    4    4    0    0 -0.11628773426E+02 -0.11406577417E+02  0.21067048315E+02  0.26630037635E+02  0.00000000000E+00 0. -1.
        -13    1    5    5    0    0  0.20825066230E+02 -0.11856278321E+02  0.38770944702E+02  0.45578952074E+02  0.00000000000E+00 0.  1.
         14    1    5    5    0    0 -0.39477045745E+01 -0.32005500524E+01  0.46379540654E+03  0.46382324977E+03  0.00000000000E+00 0. -1.
          5    1    3    3  501    0  0.53112857752E+02 -0.15338084911E+01 -0.70885043873E+02  0.88713627318E+02  0.47000000000E+01 0.  1.
         -5    1    3    3    0  501 -0.57209152856E+01 -0.94041741112E+02 -0.36891018442E+03  0.38077997861E+03  0.47000000000E+01 0.  1.
          1    1    1    2  502    0 -0.31438554491E+02  0.40210483194E+02 -0.80534395618E+03  0.80695982144E+03  0.00000000000E+00 0. -1.
          1    1    1    2  503    0 -0.90871938952E+02  0.30551208088E+02  0.86081214013E+03  0.86613430033E+03  0.00000000000E+00 0. -1.
<mgrwt>
<rscale>  0 0.64761462E+02</rscale>
<asrwt>0</asrwt>
<pdfrwt beam="1">  1        2 0.24764027E+00 0.82168863E+02</pdfrwt>
<pdfrwt beam="2">  1        2 0.18771471E+00 0.51041803E+02</pdfrwt>
<totfact> 0.44805476E+01</totfact>
</mgrwt>
</event>
<event>
13    1  0.2742815E-008  0.8000639E+02  0.7546771E-02  0.1354049E+00
          2   -1    0    0  502    0  0.00000000000E+00  0.00000000000E+00  0.48897039828E+03  0.48897039828E+03  0.00000000000E+00 0. -1.
          2   -1    0    0  503    0 -0.00000000000E+00 -0.00000000000E+00 -0.46164667217E+04  0.46164667217E+04  0.00000000000E+00 0. -1.
         25    2    1    2    0    0  0.31810187519E+02  0.16034188415E+03 -0.51667250409E+03  0.55614505005E+03  0.12500172949E+03 0.  0.
         24    2    1    2    0    0 -0.20029427810E+02 -0.26335827165E+02 -0.10835087937E+03  0.13862806296E+03  0.79894136272E+02 0.  0.
         24    2    1    2    0    0  0.30144560190E+01  0.41853013999E+01  0.10433979592E+03  0.13159783435E+03  0.80028702980E+02 0.  0.
        -11    1    5    5    0    0  0.33145600090E+01  0.34777997328E+02  0.92351828568E+02  0.98738825424E+02  0.00000000000E+00 0.  1.
         12    1    5    5    0    0 -0.30010398996E+00 -0.30592695928E+02  0.11987967354E+02  0.32859008930E+02  0.00000000000E+00 0. -1.
        -13    1    4    4    0    0  0.11520989867E+02 -0.43441078229E+02 -0.83970131406E+02  0.95240975707E+02  0.00000000000E+00 0.  1.
         14    1    4    4    0    0 -0.31550417677E+02  0.17105251064E+02 -0.24380747960E+02  0.43387087257E+02  0.00000000000E+00 0. -1.
          5    1    3    3  501    0  0.21897753210E+02  0.13744775285E+03 -0.51165375446E+03  0.53026696184E+03  0.47000000000E+01 0. -1.
         -5    1    3    3    0  501  0.99124343097E+01  0.22894131303E+02 -0.50187496258E+01  0.25878088219E+02  0.47000000000E+01 0. -1.
          1    1    1    2  502    0 -0.25746141505E+02 -0.59084635807E+02  0.33262879281E+03  0.33881524729E+03  0.00000000000E+00 0. -1.
          1    1    1    2  503    0  0.10950925776E+02 -0.79106722576E+02 -0.39394415287E+04  0.39402509253E+04  0.00000000000E+00 0. -1.
<mgrwt>
<rscale>  0 0.71808399E+02</rscale>
<asrwt>0</asrwt>
<pdfrwt beam="1">  1        2 0.71907406E-01 0.64450430E+02</pdfrwt>
<pdfrwt beam="2">  1        2 0.67889221E+00 0.80006389E+02</pdfrwt>
<totfact> 0.28872241E+00</totfact>
</mgrwt>
</event>
<event>
13    1  0.2742815E-008  0.1200074E+03  0.7546771E-02  0.1532363E+00
          2   -1    0    0  503    0  0.00000000000E+00  0.00000000000E+00  0.48476004988E+03  0.48476004988E+03  0.00000000000E+00 0. -1.
          2   -1    0    0  502    0 -0.00000000000E+00 -0.00000000000E+00 -0.11519660388E+04  0.11519660388E+04  0.00000000000E+00 0. -1.
         25    2    1    2    0    0 -0.50644519661E+02 -0.32931716425E+02 -0.25509545547E+03  0.29042800873E+03  0.12500148613E+03 0.  0.
         24    2    1    2    0    0 -0.48572729450E+02 -0.12071271643E+03 -0.27040206974E+02  0.15528168110E+03  0.80314119162E+02 0.  0.
         24    2    1    2    0    0 -0.16464157013E+02  0.10173734856E+03  0.13872404598E+00  0.13078175805E+03  0.80512684942E+02 0.  0.
        -11    1    4    4    0    0  0.14858846230E+02 -0.67032103872E+02 -0.27805482221E+01  0.68715498319E+02  0.00000000000E+00 0.  1.
         12    1    4    4    0    0 -0.63431575681E+02 -0.53680612560E+02 -0.24259658752E+02  0.86566182779E+02  0.00000000000E+00 0. -1.
        -11    1    5    5    0    0  0.19421294877E+02  0.17866722925E+01 -0.13488899074E+02  0.23713483313E+02  0.00000000000E+00 0.  1.
         12    1    5    5    0    0 -0.35885451890E+02  0.99950676266E+02  0.13627623120E+02  0.10706827474E+03  0.00000000000E+00 0. -1.
          5    1    3    3  501    0 -0.61952026471E+02  0.13147853340E+02 -0.52795962864E+02  0.82585854274E+02  0.47000000000E+01 0.  1.
         -5    1    3    3    0  501  0.11307506811E+02 -0.46079569765E+02 -0.20229949260E+03  0.20784215445E+03  0.47000000000E+01 0.  1.
          1    1    1    2  502    0  0.30589643635E+01  0.10924755594E+02 -0.71203610719E+03  0.71212648139E+03  0.00000000000E+00 0. -1.
          1    1    1    2  503    0  0.11262244176E+03  0.40982328704E+02  0.32682705669E+03  0.34810815940E+03  0.00000000000E+00 0. -1.
<mgrwt>
<rscale>  0 0.36898181E+02</rscale>
<asrwt>0</asrwt>
<pdfrwt beam="1">  1        2 0.71288243E-01 0.12000737E+03</pdfrwt>
<pdfrwt beam="2">  1        2 0.16940677E+00 0.11344935E+02</pdfrwt>
<totfact> 0.29453220E+02</totfact>
</mgrwt>
</event>
<event>
13    1  0.2742815E-008  0.2509861E+03  0.7546771E-02  0.1193363E+00
          2   -1    0    0  502    0  0.00000000000E+00  0.00000000000E+00  0.16477035626E+04  0.16477035626E+04  0.00000000000E+00 0. -1.
          4   -1    0    0  503    0 -0.00000000000E+00 -0.00000000000E+00 -0.94049688651E+03  0.94049688651E+03  0.00000000000E+00 0. -1.
         25    2    1    2    0    0 -0.25501688702E+03 -0.24419795368E+03 -0.26319937866E+02  0.37547839744E+03  0.12500013827E+03 0.  0.
         24    2    1    2    0    0  0.15701533094E+03 -0.16978862542E+03  0.11942809167E+03  0.28136714325E+03  0.10687566957E+03 0.  0.
         24    2    1    2    0    0  0.58782922132E+00  0.11102496068E+03  0.12241903271E+03  0.18408176426E+03  0.81072738475E+02 0.  0.
        -13    1    4    4    0    0  0.39628720772E+02 -0.49222941617E+02 -0.16204929112E+02  0.65237513894E+02  0.00000000000E+00 0.  1.
         14    1    4    4    0    0  0.11738661017E+03 -0.12056568380E+03  0.13563302079E+03  0.21612962936E+03  0.00000000000E+00 0. -1.
        -13    1    5    5    0    0  0.39830030183E+02  0.58793575538E+02  0.51949051204E+02  0.87987611344E+02  0.00000000000E+00 0.  1.
         14    1    5    5    0    0 -0.39242200962E+02  0.52231385146E+02  0.70469981504E+02  0.96094152912E+02  0.00000000000E+00 0. -1.
          5    1    3    3  501    0 -0.23239651507E+02 -0.82648587655E+02 -0.34878814074E+02  0.92787348893E+02  0.47000000000E+01 0.  1.
         -5    1    3    3    0  501 -0.23177723551E+03 -0.16154936602E+03  0.85588762075E+01  0.28269104854E+03  0.47000000000E+01 0.  1.
          1    1    1    2  502    0 -0.20386835662E+02  0.94713035274E+02  0.10944627514E+04  0.10987424158E+04  0.00000000000E+00 0. -1.
          3    1    1    2  503    0  0.11780056252E+03  0.20824858314E+03 -0.60278326181E+03  0.64853072836E+03  0.00000000000E+00 0. -1.
<mgrwt>
<rscale>  0 0.15593624E+03</rscale>
<asrwt>0</asrwt>
<pdfrwt beam="1">  1        2 0.24230935E+00 0.96882311E+02</pdfrwt>
<pdfrwt beam="2">  1        4 0.13830836E+00 0.25098608E+03</pdfrwt>
<totfact> 0.27862156E+00</totfact>
</mgrwt>
</event>
<event>
13    1  0.2742815E-008  0.1086993E+03  0.7546771E-02  0.1357159E+00
          2   -1    0    0  503    0  0.00000000000E+00  0.00000000000E+00  0.36893902122E+04  0.36893902122E+04  0.00000000000E+00 0. -1.
         -1   -1    0    0    0  501 -0.00000000000E+00 -0.00000000000E+00 -0.13107694451E+04  0.13107694451E+04  0.00000000000E+00 0.  1.
         25    2    1    2    0    0  0.34154585451E+03 -0.15317283214E+03  0.50880862602E+02  0.39790580897E+03  0.12499873360E+03 0.  0.
         24    2    1    2    0    0 -0.20122851841E+03  0.38022689203E+03  0.97744336162E+03  0.10708053403E+04  0.78505703852E+02 0.  0.
         24    2    1    2    0    0 -0.23652312334E+02 -0.14477191828E+03  0.14994854644E+04  0.15088524973E+04  0.81614095377E+02 0.  0.
        -11    1    5    5    0    0 -0.23747310445E+02 -0.78521847149E+02  0.11640641327E+04  0.11669511216E+04  0.00000000000E+00 0.  1.
         12    1    5    5    0    0  0.94998110779E-01 -0.66250071132E+02  0.33542133168E+03  0.34190137568E+03  0.00000000000E+00 0. -1.
        -11    1    4    4    0    0 -0.28078122471E+02  0.12966956011E+03  0.28870441081E+03  0.31773072342E+03  0.00000000000E+00 0.  1.
         12    1    4    4    0    0 -0.17315039593E+03  0.25055733192E+03  0.68873895081E+03  0.75307461685E+03  0.00000000000E+00 0. -1.
          5    1    3    3  502    0  0.26670662681E+03 -0.62775818757E+02  0.12413235529E+02  0.27431625293E+03  0.47000000000E+01 0. -1.
         -5    1    3    3    0  502  0.74839227691E+02 -0.90397013381E+02  0.38467627073E+02  0.12358955604E+03  0.47000000000E+01 0. -1.
          1    1    1    2  503    0 -0.15084435468E+02 -0.43674442834E+02  0.93341186617E+03  0.93455481864E+03  0.00000000000E+00 0. -1.
         -2    1    1    2    0  501 -0.10158058830E+03 -0.38607698775E+02 -0.10826007876E+04  0.10880411921E+04  0.00000000000E+00 0.  1.
<mgrwt>
<rscale>  0 0.70870027E+02</rscale>
<asrwt>0</asrwt>
<pdfrwt beam="1">  1        2 0.54255738E+00 0.46206029E+02</pdfrwt>
<pdfrwt beam="2">  1       -1 0.19276021E+00 0.10869925E+03</pdfrwt>
<totfact> 0.31748355E-01</totfact>
</mgrwt>
</event>
<event>
13    1  0.2742815E-008  0.1194286E+03  0.7546771E-02  0.1310458E+00
          2   -1    0    0  502    0  0.00000000000E+00  0.00000000000E+00  0.16255962873E+04  0.16255962873E+04  0.00000000000E+00 0. -1.
          2   -1    0    0  503    0 -0.00000000000E+00 -0.00000000000E+00 -0.65337847654E+03  0.65337847654E+03  0.00000000000E+00 0. -1.
         25    2    1    2    0    0 -0.12398040168E+03  0.52763441538E+02 -0.18198812580E+03  0.25865185509E+03  0.12500393371E+03 0.  0.
         24    2    1    2    0    0  0.10660279029E+03  0.91149203666E+01  0.34306811514E+01  0.13484461138E+03  0.82000383988E+02 0.  0.
         24    2    1    2    0    0 -0.12401845684E+03  0.37823519254E+02  0.18069194649E+03  0.23632163670E+03  0.79919585829E+02 0.  0.
        -11    1    5    5    0    0 -0.11686356011E+02  0.36411204760E+02  0.62398623891E+02  0.73184253856E+02  0.00000000000E+00 0.  1.
         12    1    5    5    0    0 -0.11233210083E+03  0.14123144941E+01  0.11829332260E+03  0.16313738284E+03  0.00000000000E+00 0. -1.
        -11    1    4    4    0    0 -0.13814118422E+02  0.32388904860E+01  0.15129051738E+01  0.14269168211E+02  0.00000000000E+00 0.  1.
         12    1    4    4    0    0  0.12041690871E+03  0.58760298806E+01  0.19177759776E+01  0.12057544317E+03  0.00000000000E+00 0. -1.
          5    1    3    3  501    0 -0.10582979338E+03 -0.18110574981E+02 -0.84712841243E+02  0.13684404834E+03  0.47000000000E+01 0. -1.
         -5    1    3    3    0  501 -0.18150608300E+02  0.70874016519E+02 -0.97275284562E+02  0.12180780675E+03  0.47000000000E+01 0. -1.
          1    1    1    2  502    0  0.94906598009E+02 -0.14262800693E+03  0.13010067015E+04  0.13122379540E+04  0.00000000000E+00 0. -1.
          1    1    1    2  503    0  0.46489470227E+02  0.42926125775E+02 -0.33092339258E+03  0.33691870663E+03  0.00000000000E+00 0. -1.
<mgrwt>
<rscale>  0 0.86931173E+02</rscale>
<asrwt>0</asrwt>
<pdfrwt beam="1">  1        2 0.23905828E+00 0.11942856E+03</pdfrwt>
<pdfrwt beam="2">  1        2 0.96085070E-01 0.63276561E+02</pdfrwt>
<totfact> 0.10629344E+02</totfact>
</mgrwt>
</event>
<event>
13    1  0.2742815E-008  0.7473184E+02  0.7546771E-02  0.1425428E+00
          2   -1    0    0  503    0  0.00000000000E+00  0.00000000000E+00  0.20285705661E+04  0.20285705661E+04  0.00000000000E+00 0. -1.
          2   -1    0    0  502    0 -0.00000000000E+00 -0.00000000000E+00 -0.10558063262E+04  0.10558063262E+04  0.00000000000E+00 0. -1.
         25    2    1    2    0    0  0.26954286257E+02  0.11936022522E+02  0.98602703614E+02  0.16191376601E+03  0.12499828912E+03 0.  0.
         24    2    1    2    0    0 -0.45048459240E+03  0.22712725803E+03  0.14114757078E+03  0.53021069763E+03  0.81716508844E+02 0.  0.
         24    2    1    2    0    0  0.49457660877E+03 -0.31554543740E+03  0.10125146366E+04  0.11749589958E+04  0.10567784762E+03 0.  0.
        -13    1    5    5    0    0  0.25877503040E+03 -0.21019551031E+03  0.64069181584E+03  0.72224142210E+03  0.00000000000E+00 0.  1.
         14    1    5    5    0    0  0.23580157838E+03 -0.10534992709E+03  0.37182282080E+03  0.45271757373E+03  0.00000000000E+00 0. -1.
        -13    1    4    4    0    0 -0.34094995058E+03  0.19566503722E+03  0.81056353442E+02  0.40137489710E+03  0.00000000000E+00 0.  1.
         14    1    4    4    0    0 -0.10953464182E+03  0.31462220802E+02  0.60091217335E+02  0.12883580053E+03  0.00000000000E+00 0. -1.
          5    1    3    3  501    0  0.93362029070E+01 -0.54223513307E+02  0.65647446175E+02  0.85784796260E+02  0.47000000000E+01 0.  1.
         -5    1    3    3    0  501  0.17618083350E+02  0.66159535829E+02  0.32955257439E+02  0.76128969748E+02  0.47000000000E+01 0.  1.
          1    1    1    2  502    0 -0.64174332925E+02  0.38235468611E+02 -0.74572263728E+03  0.74945483374E+03  0.00000000000E+00 0. -1.
          1    1    1    2  503    0 -0.68719697013E+01  0.38246688242E+02  0.46622196617E+03  0.46783859916E+03  0.00000000000E+00 0. -1.
<mgrwt>
<rscale>  0 0.53888916E+02</rscale>
<asrwt>0</asrwt>
<pdfrwt beam="1">  1        2 0.29831920E+00 0.38859145E+02</pdfrwt>
<pdfrwt beam="2">  1        2 0.15526564E+00 0.74731837E+02</pdfrwt>
<totfact> 0.42575020E+01</totfact>
</mgrwt>
</event>
<event>
13    1  0.2742815E-008  0.1397878E+03  0.7546771E-02  0.1253202E+00
          2   -1    0    0  502    0  0.00000000000E+00  0.00000000000E+00  0.21254431540E+04  0.21254431540E+04  0.00000000000E+00 0. -1.
          2   -1    0    0  503    0 -0.00000000000E+00 -0.00000000000E+00 -0.34878703006E+04  0.34878703006E+04  0.00000000000E+00 0. -1.
         25    2    1    2    0    0  0.17495564494E+03  0.25269123112E+03 -0.97347601046E+03  0.10284657811E+04  0.12499593566E+03 0.  0.
         24    2    1    2    0    0  0.54738213814E+02 -0.12502922787E+02 -0.68762909681E+02  0.11757694831E+03  0.77093488026E+02 0.  0.
         24    2    1    2    0    0  0.10034965673E+02  0.36737683492E+02 -0.11958058666E+02  0.85885734141E+02  0.76046079698E+02 0.  0.
        -13    1    5    5    0    0  0.43352464382E+02  0.20885829789E+02 -0.56068015263E+01  0.48446777781E+02  0.00000000000E+00 0.  1.
         14    1    5    5    0    0 -0.33317498709E+02  0.15851853704E+02 -0.63512571401E+01  0.37438956360E+02  0.00000000000E+00 0. -1.
        -13    1    4    4    0    0  0.42855500131E+02 -0.36204415009E+02 -0.71545257507E+02  0.90917970882E+02  0.00000000000E+00 0.  1.
         14    1    4    4    0    0  0.11882713684E+02  0.23701492222E+02  0.27823478262E+01  0.26658977427E+02  0.00000000000E+00 0. -1.
          5    1    3    3  501    0  0.10591127223E+03  0.18179620064E+03 -0.81363588801E+03  0.84041210391E+03  0.47000000000E+01 0. -1.
         -5    1    3    3    0  501  0.69044372717E+02  0.70895030480E+02 -0.15984012246E+03  0.18805367717E+03  0.47000000000E+01 0. -1.
          1    1    1    2  502    0 -0.13607770400E+03 -0.22265443805E+03  0.20267480251E+04  0.20434773543E+04  0.00000000000E+00 0. -1.
          1    1    1    2  503    0 -0.10365112043E+03 -0.54271553770E+02 -0.23349781930E+04  0.23379076367E+04  0.00000000000E+00 0. -1.
<mgrwt>
<rscale>  0 0.11407612E+03</rscale>
<asrwt>0</asrwt>
<pdfrwt beam="1">  1        2 0.31256517E+00 0.13978779E+03</pdfrwt>
<pdfrwt beam="2">  1        2 0.51292210E+00 0.93093694E+02</pdfrwt>
<totfact> 0.18739735E+00</totfact>
</mgrwt>
</event>
<event>
13    1  0.2742815E-008  0.1257346E+03  0.7546771E-02  0.1295429E+00
          2   -1    0    0  502    0  0.00000000000E+00  0.00000000000E+00  0.13448324680E+04  0.13448324680E+04  0.00000000000E+00 0. -1.
          2   -1    0    0  503    0 -0.00000000000E+00 -0.00000000000E+00 -0.22351886672E+04  0.22351886672E+04  0.00000000000E+00 0. -1.
         25    2    1    2    0    0 -0.10501568996E+03 -0.36914825648E+02 -0.37816020534E+03  0.41354682119E+03  0.12499933168E+03 0.  0.
         24    2    1    2    0    0 -0.19487500116E+02 -0.77890572299E+02  0.31560130693E+02  0.11758286138E+03  0.79893576256E+02 0.  0.
         24    2    1    2    0    0  0.17909055111E+03  0.13490456421E+03  0.23296937428E+03  0.33341433505E+03  0.81349385496E+02 0.  0.
        -11    1    5    5    0    0  0.12758822139E+03  0.75313962888E+02  0.19785429995E+03  0.24717862215E+03  0.00000000000E+00 0.  1.
         12    1    5    5    0    0  0.51502329723E+02  0.59590601320E+02  0.35115074335E+02  0.86235712893E+02  0.00000000000E+00 0. -1.
        -11    1    4    4    0    0  0.29966883886E+02 -0.22988616097E+02  0.14639623453E+01  0.37797272198E+02  0.00000000000E+00 0.  1.
         12    1    4    4    0    0 -0.49454384001E+02 -0.54901956202E+02  0.30096168347E+02  0.79785589181E+02  0.00000000000E+00 0. -1.
          5    1    3    3  501    0  0.50659269438E+01  0.24940043632E+02 -0.17109672970E+02  0.31024188971E+02  0.47000000000E+01 0. -1.
         -5    1    3    3    0  501 -0.11008161691E+03 -0.61854869280E+02 -0.36105053237E+03  0.38252263222E+03  0.47000000000E+01 0. -1.
          1    1    1    2  502    0 -0.12332431372E+03 -0.26003705162E+02  0.96459312244E+03  0.97279235754E+03  0.00000000000E+00 0. -1.
          1    1    1    2  503    0  0.68736952694E+02  0.59045389009E+01 -0.17413186212E+04  0.17426847600E+04  0.00000000000E+00 0. -1.
<mgrwt>
<rscale>  0 0.93136668E+02</rscale>
<asrwt>0</asrwt>
<pdfrwt beam="1">  1        2 0.19776948E+00 0.12573457E+03</pdfrwt>
<pdfrwt beam="2">  1        2 0.32870422E+00 0.68990088E+02</pdfrwt>
<totfact> 0.21654763E+01</totfact>
</mgrwt>
</event>
<event>
13    1  0.2742815E-008  0.1882928E+03  0.7546771E-02  0.1220675E+00
          2   -1    0    0  503    0  0.00000000000E+00  0.00000000000E+00  0.14656839893E+04  0.14656839893E+04  0.00000000000E+00 0. -1.
          2   -1    0    0  502    0 -0.00000000000E+00 -0.00000000000E+00 -0.97454944466E+03  0.97454944466E+03  0.00000000000E+00 0. -1.
         25    2    1    2    0    0  0.19433719528E+00 -0.24225234654E+03 -0.21291715071E+03  0.34589961322E+03  0.12500636859E+03 0.  0.
         24    2    1    2    0    0  0.37319362220E+02  0.93508242661E+02  0.16646170952E+03  0.21095960366E+03  0.81596123663E+02 0.  0.
         24    2    1    2    0    0 -0.25006610997E+02 -0.24780156588E+02  0.25657525245E+03  0.27149084129E+03  0.81467969048E+02 0.  0.
        -11    1    5    5    0    0  0.57839696868E+01 -0.32238555225E+02  0.36072277934E+02  0.48723587549E+02  0.00000000000E+00 0.  1.
         12    1    5    5    0    0 -0.30790580684E+02  0.74583986364E+01  0.22050297451E+03  0.22276725374E+03  0.00000000000E+00 0. -1.
        -13    1    4    4    0    0  0.21315089957E+02 -0.33251506150E+01  0.52192584428E+01  0.22195277543E+02  0.00000000000E+00 0.  1.
         14    1    4    4    0    0  0.16004272262E+02  0.96833393276E+02  0.16124245108E+03  0.18876432612E+03  0.00000000000E+00 0. -1.
          5    1    3    3  501    0  0.30727194854E+02 -0.23951609266E+03 -0.19105944321E+03  0.30795765941E+03  0.47000000000E+01 0. -1.
         -5    1    3    3    0  501 -0.30532857659E+02 -0.27362538797E+01 -0.21857707497E+02  0.37941953813E+02  0.47000000000E+01 0. -1.
          1    1    1    2  502    0 -0.13432594980E+03  0.13317938391E+03 -0.64748923551E+03  0.67455357029E+03  0.00000000000E+00 0. -1.
          1    1    1    2  503    0  0.12181886139E+03  0.40344876563E+02  0.92850396888E+03  0.93732980550E+03  0.00000000000E+00 0. -1.
<mgrwt>
<rscale>  0 0.13467792E+03</rscale>
<asrwt>0</asrwt>
<pdfrwt beam="1">  1        2 0.21554176E+00 0.96329444E+02</pdfrwt>
<pdfrwt beam="2">  1        2 0.14331609E+00 0.18829280E+03</pdfrwt>
<totfact> 0.76791094E+01</totfact>
</mgrwt>
</event>
<event>
13    1  0.2742815E-008  0.7223899E+02  0.7546771E-02  0.1523046E+00
          2   -1    0    0  502    0  0.00000000000E+00  0.00000000000E+00  0.15818706427E+04  0.15818706427E+04  0.00000000000E+00 0. -1.
          2   -1    0    0  503    0 -0.00000000000E+00 -0.00000000000E+00 -0.24687088911E+04  0.24687088911E+04  0.00000000000E+00 0. -1.
         25    2    1    2    0    0 -0.77372025931E+02  0.40443175189E+03 -0.74782917589E+03  0.86280194503E+03  0.12500899049E+03 0.  0.
         24    2    1    2    0    0  0.91924331395E+02 -0.13482233768E+03 -0.44176735425E+02  0.18704213219E+03  0.80037677511E+02 0.  0.
         24    2    1    2    0    0  0.23746476447E+02 -0.23228254885E+03  0.86747520892E+03  0.90197757235E+03  0.80815996519E+02 0.  0.
        -11    1    5    5    0    0 -0.24210463662E+02 -0.63059005906E+02  0.17695985973E+03  0.18941324328E+03  0.00000000000E+00 0.  1.
         12    1    5    5    0    0  0.47956940110E+02 -0.16922354294E+03  0.69051534919E+03  0.71256432907E+03  0.00000000000E+00 0. -1.
        -11    1    4    4    0    0  0.26091542918E+02 -0.10343141658E+03 -0.12063854964E+02  0.10735158659E+03  0.00000000000E+00 0.  1.
         12    1    4    4    0    0  0.65832788477E+02 -0.31390921104E+02 -0.32112880461E+02  0.79690545600E+02  0.00000000000E+00 0. -1.
          5    1    3    3  501    0 -0.80485519150E+02  0.34883821934E+03 -0.71046921988E+03  0.79558445464E+03  0.47000000000E+01 0.  1.
         -5    1    3    3    0  501  0.31134932191E+01  0.55593532549E+02 -0.37359956004E+02  0.67217490387E+02  0.47000000000E+01 0.  1.
          1    1    1    2  502    0  0.18802977957E+02  0.69470810631E+01  0.56719524617E+03  0.56754934692E+03  0.00000000000E+00 0. -1.
          1    1    1    2  503    0 -0.57101759869E+02 -0.44273946423E+02 -0.15295027922E+04  0.15312085373E+04  0.00000000000E+00 0. -1.
<mgrwt>
<rscale>  0 0.38053277E+02</rscale>
<asrwt>0</asrwt>
<pdfrwt beam="1">  1        2 0.23262804E+00 0.20045297E+02</pdfrwt>
<pdfrwt beam="2">  1        2 0.36304542E+00 0.72238987E+02</pdfrwt>
<totfact> 0.14826111E+01</totfact>
</mgrwt>
</event>
<event>
13    1  0.2742815E-008  0.1412084E+03  0.7546771E-02  0.1276491E+00
         -1   -1    0    0    0  501 -0.00000000000E+00  0.00000000000E+00  0.81188793544E+03  0.81188793544E+03  0.00000000000E+00 0.  1.
          2   -1    0    0  503    0  0.00000000000E+00 -0.00000000000E+00 -0.90493543567E+03  0.90493543567E+03  0.00000000000E+00 0. -1.
         25    2    1    2    0    0 -0.23475989296E+02  0.61784274352E+02  0.19653093803E+03  0.24215536707E+03  0.12508554500E+03 0.  0.
         24    2    1    2    0    0 -0.12430464012E+03 -0.16177001417E+03  0.17502740562E+03  0.27987249426E+03  0.77928424124E+02 0.  0.
         24    2    1    2    0    0  0.21156118269E+02 -0.43465467767E+02  0.25211728133E+02  0.95491441146E+02  0.78397422588E+02 0.  0.
        -11    1    5    5    0    0 -0.20149590791E+02  0.68297587713E+01  0.21584767982E+02  0.30307652875E+02  0.00000000000E+00 0.  1.
         12    1    5    5    0    0  0.41305709060E+02 -0.50295226538E+02  0.36269601510E+01  0.65183788272E+02  0.00000000000E+00 0. -1.
        -13    1    4    4    0    0 -0.12389156717E+02 -0.10068122585E+02  0.52893289824E+02  0.55249962940E+02  0.00000000000E+00 0.  1.
         14    1    4    4    0    0 -0.11191548340E+03 -0.15170189159E+03  0.12213411580E+03  0.22462253132E+03  0.00000000000E+00 0. -1.
          5    1    3    3  502    0 -0.13878314979E+01  0.60866846845E+02  0.20106146218E+02  0.64288772246E+02  0.47000000000E+01 0. -1.
         -5    1    3    3    0  502 -0.22088157798E+02  0.91742750629E+00  0.17642479181E+03  0.17786659482E+03  0.47000000000E+01 0. -1.
          1    1    1    2  503    0  0.12194838893E+03  0.70165142492E+02 -0.78378024826E+03  0.79630775102E+03  0.00000000000E+00 0. -1.
         -2    1    1    2    0  501  0.46761222172E+01  0.73286065098E+02  0.29396267625E+03  0.30299631761E+03  0.00000000000E+00 0.  1.
<mgrwt>
<rscale>  0 0.10183150E+03</rscale>
<asrwt>0</asrwt>
<pdfrwt beam="2">  1        2 0.13307874E+00 0.14120842E+03</pdfrwt>
<pdfrwt beam="1">  1       -1 0.11939529E+00 0.73435097E+02</pdfrwt>
<totfact> 0.27249223E+01</totfact>
</mgrwt>
</event>
<event>
13    1  0.2742815E-008  0.1159800E+03  0.7546771E-02  0.1282050E+00
          2   -1    0    0  503    0  0.00000000000E+00  0.00000000000E+00  0.15469021623E+04  0.15469021623E+04  0.00000000000E+00 0. -1.
          2   -1    0    0  502    0 -0.00000000000E+00 -0.00000000000E+00 -0.21584026905E+04  0.21584026905E+04  0.00000000000E+00 0. -1.
         25    2    1    2    0    0 -0.32254385215E+02  0.52217339859E+02 -0.90908556358E+03  0.91968981776E+03  0.12500321214E+03 0.  0.
         24    2    1    2    0    0 -0.64755529255E+00  0.33790499112E+02 -0.96881472778E+02  0.13120891679E+03  0.81777398591E+02 0.  0.
         24    2    1    2    0    0  0.43708018718E+02 -0.12473777674E+03 -0.80335356965E+02  0.17631148754E+03  0.84628997468E+02 0.  0.
        -13    1    4    4    0    0 -0.39334159690E+02  0.43389685241E+01 -0.48798313367E+02  0.62827367873E+02  0.00000000000E+00 0.  1.
         14    1    4    4    0    0  0.38686604398E+02  0.29451530588E+02 -0.48083159412E+02  0.68381548921E+02  0.00000000000E+00 0. -1.
        -13    1    5    5    0    0  0.13101144880E+02  0.11353585790E+02 -0.67737409165E+01  0.18612562248E+02  0.00000000000E+00 0.  1.
         14    1    5    5    0    0  0.30606873838E+02 -0.13609136253E+03 -0.73561616048E+02  0.15769892529E+03  0.00000000000E+00 0. -1.
          5    1    3    3  501    0  0.43620392084E+00  0.55316682380E+02 -0.15106235621E+03  0.16094114169E+03  0.47000000000E+01 0.  1.
         -5    1    3    3    0  501 -0.32690589136E+02 -0.30993425212E+01 -0.75802320736E+03  0.75874867607E+03  0.47000000000E+01 0.  1.
          1    1    1    2  502    0  0.75094512954E+02 -0.39387362729E+02 -0.99756209922E+03  0.10011596736E+04  0.00000000000E+00 0. -1.
          1    1    1    2  503    0 -0.85900591164E+02  0.78117300502E+02  0.14723639643E+04  0.14769349571E+04  0.00000000000E+00 0. -1.
<mgrwt>
<rscale>  0 0.99170413E+02</rscale>
<asrwt>0</asrwt>
<pdfrwt beam="1">  1        2 0.22748561E+00 0.11598002E+03</pdfrwt>
<pdfrwt beam="2">  1        2 0.31741216E+00 0.84797112E+02</pdfrwt>
<totfact> 0.18297379E+01</totfact>
</mgrwt>
</event>
<event>
13    1  0.2742815E-008  0.1311973E+03  0.7546771E-02  0.1274821E+00
          2   -1    0    0  503    0  0.00000000000E+00  0.00000000000E+00  0.73160482146E+03  0.73160482146E+03  0.00000000000E+00 0. -1.
         -3   -1    0    0    0  501 -0.00000000000E+00 -0.00000000000E+00 -0.10929927422E+04  0.10929927422E+04  0.00000000000E+00 0.  1.
         25    2    1    2    0    0 -0.11535160613E+03  0.61845266354E+01 -0.19929210756E+03  0.26210824261E+03  0.12505656841E+03 0.  0.
         24    2    1    2    0    0 -0.12447836343E+02 -0.60045037991E+01 -0.36222101978E+02  0.90045853655E+02  0.81272457778E+02 0.  0.
         24    2    1    2    0    0 -0.54456259104E+02  0.54930641457E+01  0.17544849406E+03  0.20154847513E+03  0.82728204669E+02 0.  0.
        -13    1    5    5    0    0 -0.35279073386E+01 -0.31093295581E+02  0.91922984248E+02  0.97103420091E+02  0.00000000000E+00 0.  1.
         14    1    5    5    0    0 -0.50928351766E+02  0.36586359727E+02  0.83525509813E+02  0.10444505503E+03  0.00000000000E+00 0. -1.
        -13    1    4    4    0    0 -0.15542652613E+02 -0.42786029719E+02 -0.20544414091E+02  0.49942880771E+02  0.00000000000E+00 0.  1.
         14    1    4    4    0    0  0.30948162698E+01  0.36781525919E+02 -0.15677687886E+02  0.40102972884E+02  0.00000000000E+00 0. -1.
          5    1    3    3  502    0 -0.12700309275E+03 -0.17536544192E+02 -0.19709991595E+03  0.23517606770E+03  0.47000000000E+01 0.  1.
         -5    1    3    3    0  502  0.11651486614E+02  0.23721070828E+02 -0.21921916080E+01  0.26932174914E+02  0.47000000000E+01 0.  1.
          1    1    1    2  503    0  0.56425625461E+02 -0.57152150940E+02  0.47551568004E+03  0.48225033077E+03  0.00000000000E+00 0. -1.
         -4    1    1    2    0  501  0.12583007612E+03  0.51479063958E+02 -0.77683788527E+03  0.78864466147E+03  0.00000000000E+00 0.  1.
<mgrwt>
<rscale>  0 0.10264931E+03</rscale>
<asrwt>0</asrwt>
<pdfrwt beam="1">  1        2 0.10758894E+00 0.80313259E+02</pdfrwt>
<pdfrwt beam="2">  1       -3 0.16073423E+00 0.13119728E+03</pdfrwt>
<totfact> 0.77913847E+00</totfact>
</mgrwt>
</event>
<event>
13    1  0.2742815E-008  0.1739534E+03  0.7546771E-02  0.1312893E+00
          2   -1    0    0  502    0  0.00000000000E+00  0.00000000000E+00  0.12428934620E+04  0.12428934620E+04  0.00000000000E+00 0. -1.
          2   -1    0    0  503    0 -0.00000000000E+00 -0.00000000000E+00 -0.29590399126E+04  0.29590399126E+04  0.00000000000E+00 0. -1.
         25    2    1    2    0    0  0.83098619876E+02  0.25279799470E+02 -0.35908315067E+03  0.39001335202E+03  0.12500102710E+03 0.  0.
         24    2    1    2    0    0  0.35712994560E+03 -0.34410293088E+03 -0.60973396780E+03  0.79047126769E+03  0.84384171934E+02 0.  0.
         24    2    1    2    0    0 -0.54022772620E+03  0.23021896087E+03 -0.33789643250E+03  0.68537036625E+03  0.10349769920E+03 0.  0.
        -11    1    4    4    0    0  0.13540936284E+03 -0.78405738721E+02 -0.20693724085E+03  0.25943434055E+03  0.00000000000E+00 0.  1.
         12    1    4    4    0    0  0.22172058276E+03 -0.26569719216E+03 -0.40279672696E+03  0.53103692714E+03  0.00000000000E+00 0. -1.
        -13    1    5    5    0    0 -0.41368290439E+03  0.15632547220E+03 -0.20458152392E+03  0.48726255610E+03  0.00000000000E+00 0.  1.
         14    1    5    5    0    0 -0.12654482181E+03  0.73893488674E+02 -0.13331490858E+03  0.19810781015E+03  0.00000000000E+00 0. -1.
          5    1    3    3  501    0  0.23340579611E+02  0.33610530377E+02 -0.20397090128E+02  0.45962829487E+02  0.47000000000E+01 0.  1.
         -5    1    3    3    0  501  0.59758040265E+02 -0.83307309070E+01 -0.33868606054E+03  0.34405052254E+03  0.47000000000E+01 0.  1.
          1    1    1    2  502    0  0.14010455007E+03  0.10265597708E+03  0.95516025584E+03  0.97082369610E+03  0.00000000000E+00 0. -1.
          1    1    1    2  503    0 -0.40105389340E+02 -0.14051806545E+02 -0.13645931555E+04  0.13652546925E+04  0.00000000000E+00 0. -1.
<mgrwt>
<rscale>  0 0.85978449E+02</rscale>
<asrwt>0</asrwt>
<pdfrwt beam="1">  1        2 0.18277846E+00 0.17395339E+03</pdfrwt>
<pdfrwt beam="2">  1        2 0.43515291E+00 0.42495829E+02</pdfrwt>
<totfact> 0.11373506E+01</totfact>
</mgrwt>
</event>
<event>
13    1  0.2742815E-008  0.1507663E+03  0.7546771E-02  0.1363150E+00
          2   -1    0    0  502    0  0.00000000000E+00  0.00000000000E+00  0.51327979075E+03  0.51327979075E+03  0.00000000000E+00 0. -1.
          2   -1    0    0  503    0 -0.00000000000E+00 -0.00000000000E+00 -0.22677005525E+04  0.22677005525E+04  0.00000000000E+00 0. -1.
         25    2    1    2    0    0  0.92163168241E+02  0.13846311590E+03 -0.12427615774E+04  0.12600615757E+04  0.12503100494E+03 0.  0.
         24    2    1    2    0    0 -0.11820266128E+03  0.32596392893E+02  0.19761297370E+03  0.24710723223E+03  0.83526659730E+02 0.  0.
         24    2    1    2    0    0  0.41738413232E+02 -0.54247717983E+02  0.52568484095E+02  0.11885868331E+03  0.81725338987E+02 0.  0.
        -13    1    4    4    0    0 -0.55035902933E+02 -0.76083642251E+01  0.29124058490E+02  0.62729965732E+02  0.00000000000E+00 0.  1.
         14    1    4    4    0    0 -0.63166758345E+02  0.40204757118E+02  0.16848891521E+03  0.18437726650E+03  0.00000000000E+00 0. -1.
        -13    1    5    5    0    0  0.49919368255E+01  0.42262478571E+01 -0.18583939653E+02  0.19701355721E+02  0.00000000000E+00 0.  1.
         14    1    5    5    0    0  0.36746476407E+02 -0.58473965840E+02  0.71152423748E+02  0.99157327589E+02  0.00000000000E+00 0. -1.
          5    1    3    3  501    0  0.31520536711E+01  0.61160392307E+02 -0.16860062669E+03  0.17944021386E+03  0.47000000000E+01 0. -1.
         -5    1    3    3    0  501  0.89011114570E+02  0.77302723595E+02 -0.10741609507E+04  0.10806213619E+04  0.47000000000E+01 0. -1.
          1    1    1    2  502    0 -0.43484211458E+01  0.31378579586E+02  0.18947117900E+03  0.19210114965E+03  0.00000000000E+00 0. -1.
          1    1    1    2  503    0 -0.11350499050E+02 -0.14819037040E+03 -0.95131182106E+03  0.96285170229E+03  0.00000000000E+00 0. -1.
<mgrwt>
<rscale>  0 0.69108912E+02</rscale>
<asrwt>0</asrwt>
<pdfrwt beam="1">  1        2 0.75482323E-01 0.31678447E+02</pdfrwt>
<pdfrwt beam="2">  1        2 0.33348537E+00 0.15076628E+03</pdfrwt>
<totfact> 0.65881020E+01</totfact>
</mgrwt>
</event>
<event>
13    1  0.2742815E-008  0.2882950E+03  0.7546771E-02  0.1224971E+00
          2   -1    0    0  502    0  0.00000000000E+00  0.00000000000E+00  0.18408290121E+04  0.18408290121E+04  0.00000000000E+00 0. -1.
          2   -1    0    0  503    0 -0.00000000000E+00 -0.00000000000E+00 -0.45837321459E+04  0.45837321459E+04  0.00000000000E+00 0. -1.
         25    2    1    2    0    0  0.13614161277E+03 -0.21870662014E+02 -0.29724977714E+03  0.35070289151E+03  0.12498889359E+03 0.  0.
         24    2    1    2    0    0  0.17157949285E+02  0.37273361685E+02  0.55434629092E+02  0.10551897378E+03  0.79859608127E+02 0.  0.
         24    2    1    2    0    0 -0.52862322143E+02 -0.27449012297E+03 -0.73261576602E+02  0.29836539342E+03  0.74265716701E+02 0.  0.
        -13    1    4    4    0    0 -0.10232070520E+01 -0.24804374228E+02  0.11761581995E+02  0.27470688825E+02  0.00000000000E+00 0.  1.
         14    1    4    4    0    0  0.18181156337E+02  0.62077735913E+02  0.43673047097E+02  0.78048284956E+02  0.00000000000E+00 0. -1.
        -13    1    5    5    0    0 -0.59957814333E+01 -0.18587393863E+03 -0.67891124934E+02  0.19797544116E+03  0.00000000000E+00 0.  1.
         14    1    5    5    0    0 -0.46866540710E+02 -0.88616184337E+02 -0.53704516679E+01  0.10038995226E+03  0.00000000000E+00 0. -1.
          5    1    3    3  501    0  0.59841738688E+02  0.38080664863E+02 -0.55572627221E+02  0.90230691130E+02  0.47000000000E+01 0. -1.
         -5    1    3    3    0  501  0.76299874079E+02 -0.59951326876E+02 -0.24167714992E+03  0.26047220038E+03  0.47000000000E+01 0. -1.
          1    1    1    2  502    0 -0.46759211864E+02  0.28623716536E+03  0.16078752158E+04  0.16338239955E+04  0.00000000000E+00 0. -1.
          1    1    1    2  503    0 -0.53678028045E+02 -0.27149742062E+02 -0.40357016250E+04  0.40361499037E+04  0.00000000000E+00 0. -1.
<mgrwt>
<rscale>  0 0.13168882E+03</rscale>
<asrwt>0</asrwt>
<pdfrwt beam="1">  1        2 0.27071016E+00 0.28829503E+03</pdfrwt>
<pdfrwt beam="2">  1        2 0.67407824E+00 0.60153464E+02</pdfrwt>
<totfact> 0.48110178E-01</totfact>
</mgrwt>
</event>
<event>
13    1  0.2742815E-008  0.7066760E+02  0.7546771E-02  0.1475007E+00
          2   -1    0    0  503    0  0.00000000000E+00  0.00000000000E+00  0.40375095490E+04  0.40375095490E+04  0.00000000000E+00 0. -1.
          2   -1    0    0  502    0 -0.00000000000E+00 -0.00000000000E+00 -0.14247724183E+04  0.14247724183E+04  0.00000000000E+00 0. -1.
         25    2    1    2    0    0  0.15786570741E+03  0.80581723973E+02  0.61200663797E+01  0.21694305000E+03  0.12494733256E+03 0.  0.
         24    2    1    2    0    0 -0.81555517736E+02  0.12288925847E+03  0.10067355776E+03  0.19519978386E+03  0.78833483146E+02 0.  0.
         24    2    1    2    0    0 -0.96822536476E+02 -0.10669489154E+03  0.25891211698E+04  0.25943789349E+04  0.80592943197E+02 0.  0.
        -13    1    4    4    0    0 -0.63722828300E+02  0.13227521882E+03  0.91954407360E+02  0.17324244686E+03  0.00000000000E+00 0.  1.
         14    1    4    4    0    0 -0.17832689436E+02 -0.93859603533E+01  0.87191504047E+01  0.21957336999E+02  0.00000000000E+00 0. -1.
        -13    1    5    5    0    0 -0.14156997867E+02 -0.25522579282E+01  0.57628082902E+02  0.59396384975E+02  0.00000000000E+00 0.  1.
         14    1    5    5    0    0 -0.82665538609E+02 -0.10414263361E+03  0.25314930869E+04  0.25349825499E+04  0.00000000000E+00 0. -1.
          5    1    3    3  501    0  0.11891546794E+03  0.93345758737E+02 -0.38601576035E+02  0.15609769653E+03  0.47000000000E+01 0. -1.
         -5    1    3    3    0  501  0.38950239473E+02 -0.12764034763E+02  0.44721642415E+02  0.60845353469E+02  0.47000000000E+01 0. -1.
          1    1    1    2  502    0  0.17761072637E+02 -0.68389196045E+02 -0.12683140481E+04  0.12702807023E+04  0.00000000000E+00 0. -1.
          1    1    1    2  503    0  0.27512741665E+01 -0.28386894861E+02  0.11851363849E+04  0.11854794963E+04  0.00000000000E+00 0. -1.
<mgrwt>
<rscale>  0 0.44893583E+02</rscale>
<asrwt>0</asrwt>
<pdfrwt beam="1">  1        2 0.59375140E+00 0.28519911E+02</pdfrwt>
<pdfrwt beam="2">  1        2 0.20952536E+00 0.70667604E+02</pdfrwt>
<totfact> 0.25914798E+00</totfact>
</mgrwt>
</event>
<event>
13    1  0.2742815E-008  0.1809122E+03  0.7546771E-02  0.1308766E+00
          2   -1    0    0  502    0  0.00000000000E+00  0.00000000000E+00  0.12045965130E+04  0.12045965130E+04  0.00000000000E+00 0. -1.
          2   -1    0    0  503    0 -0.00000000000E+00 -0.00000000000E+00 -0.25776027378E+04  0.25776027378E+04  0.00000000000E+00 0. -1.
         25    2    1    2    0    0  0.48524797606E+02 -0.11469797586E+03 -0.14712821505E+04  0.14818253099E+04  0.12499920438E+03 0.  0.
         24    2    1    2    0    0 -0.77224853271E+02 -0.12154300271E+02 -0.17039771486E+03  0.20408381308E+03  0.80643763275E+02 0.  0.
         24    2    1    2    0    0 -0.12900483344E+03  0.14501227498E+03 -0.13449054782E+03  0.24919269425E+03  0.79614599587E+02 0.  0.
        -13    1    4    4    0    0 -0.67515807200E+02 -0.42338000312E+02 -0.13306393763E+03  0.15510287551E+03  0.00000000000E+00 0.  1.
         14    1    4    4    0    0 -0.97090460712E+01  0.30183700040E+02 -0.37333777222E+02  0.48980937572E+02  0.00000000000E+00 0. -1.
        -13    1    5    5    0    0  0.60088722736E+01  0.13610220023E+02 -0.30648323707E+02  0.34068524786E+02  0.00000000000E+00 0.  1.
         14    1    5    5    0    0 -0.13501370571E+03  0.13140205496E+03 -0.10384222411E+03  0.21512416946E+03  0.00000000000E+00 0. -1.
          5    1    3    3  501    0 -0.10330009108E+02 -0.85057884821E+02 -0.11813095917E+04  0.11844222196E+04  0.47000000000E+01 0.  1.
         -5    1    3    3    0  501  0.58854806714E+02 -0.29640091038E+02 -0.28997255873E+03  0.29740309024E+03  0.47000000000E+01 0.  1.
          1    1    1    2  502    0  0.17175360865E+03 -0.58184661009E+02  0.11171904038E+04  0.11318123321E+04  0.00000000000E+00 0. -1.
          1    1    1    2  503    0 -0.14048719542E+02  0.40024662159E+02 -0.71402621542E+03  0.71528510148E+03  0.00000000000E+00 0. -1.
<mgrwt>
<rscale>  0 0.87601645E+02</rscale>
<asrwt>0</asrwt>
<pdfrwt beam="1">  1        2 0.17714655E+00 0.18091222E+03</pdfrwt>
<pdfrwt beam="2">  1        2 0.37905922E+00 0.42418629E+02</pdfrwt>
<totfact> 0.18381478E+01</totfact>
</mgrwt>
</event>
<event>
13    1  0.2742815E-008  0.1609860E+03  0.7546771E-02  0.1268293E+00
          2   -1    0    0  502    0  0.00000000000E+00  0.00000000000E+00  0.42907353543E+03  0.42907353543E+03  0.00000000000E+00 0. -1.
          2   -1    0    0  503    0 -0.00000000000E+00 -0.00000000000E+00 -0.10931478591E+04  0.10931478591E+04  0.00000000000E+00 0. -1.
         25    2    1    2    0    0  0.18180036934E+03 -0.12682576914E+03 -0.67689339843E+03  0.72315045839E+03  0.12500305047E+03 0.  0.
         24    2    1    2    0    0 -0.52785697046E+02  0.15201688709E+02  0.32278634701E+02  0.95008976117E+02  0.70479600825E+02 0.  0.
         24    2    1    2    0    0  0.82201227485E+01 -0.30611279336E+02  0.48411275715E+01  0.84080725952E+02  0.77727158187E+02 0.  0.
        -11    1    4    4    0    0 -0.10294486938E+02  0.21202304732E+02 -0.17448876900E+02  0.29325372843E+02  0.00000000000E+00 0.  1.
         12    1    4    4    0    0 -0.42491210107E+02 -0.60006160230E+01  0.49727511602E+02  0.65683603275E+02  0.00000000000E+00 0. -1.
        -13    1    5    5    0    0  0.22197159311E+02 -0.48156110924E+02 -0.13937046672E+02  0.54826692137E+02  0.00000000000E+00 0.  1.
         14    1    5    5    0    0 -0.13977036563E+02  0.17544831588E+02  0.18778174244E+02  0.29254033815E+02  0.00000000000E+00 0. -1.
          5    1    3    3  501    0  0.62048871686E+02 -0.82221143003E+02 -0.15753445045E+03  0.18828056701E+03  0.47000000000E+01 0.  1.
         -5    1    3    3    0  501  0.11975149766E+03 -0.44604626137E+02 -0.51935894798E+03  0.53486989139E+03  0.47000000000E+01 0.  1.
          1    1    1    2  502    0 -0.54837249513E+02  0.43032900191E+02  0.28049503815E+03  0.28902667846E+03  0.00000000000E+00 0. -1.
          1    1    1    2  503    0 -0.82397545532E+02  0.99202459577E+02 -0.30479572571E+03  0.33095455566E+03  0.00000000000E+00 0. -1.
<mgrwt>
<rscale>  0 0.10593264E+03</rscale>
<asrwt>0</asrwt>
<pdfrwt beam="1">  1        2 0.63099051E-01 0.69706201E+02</pdfrwt>
<pdfrwt beam="2">  1        2 0.16075703E+00 0.16098603E+03</pdfrwt>
<totfact> 0.30875105E+02</totfact>
</mgrwt>
</event>
<event>
13    1  0.2742815E-008  0.1630643E+03  0.7546771E-02  0.1232666E+00
         -3   -1    0    0    0  501 -0.00000000000E+00  0.00000000000E+00  0.13409170475E+04  0.13409170475E+04  0.00000000000E+00 0.  1.
          2   -1    0    0  503    0  0.00000000000E+00 -0.00000000000E+00 -0.93200920854E+03  0.93200920854E+03  0.00000000000E+00 0. -1.
         25    2    1    2    0    0  0.13501206114E+03  0.86572769595E+02  0.17217999933E+03  0.26645206445E+03  0.12501059710E+03 0.  0.
         24    2    1    2    0    0  0.62136441360E+02 -0.10337063296E+03  0.80955815193E+02  0.16627699494E+03  0.80918291677E+02 0.  0.
         24    2    1    2    0    0 -0.47817423396E+02 -0.74782699617E+02 -0.19840402985E+03  0.23184699593E+03  0.80684027649E+02 0.  0.
        -11    1    5    5    0    0  0.18209520037E+02 -0.16026386076E+02 -0.83080686139E+02  0.86549593182E+02  0.00000000000E+00 0.  1.
         12    1    5    5    0    0 -0.66026943432E+02 -0.58756313541E+02 -0.11532334371E+03  0.14529740275E+03  0.00000000000E+00 0. -1.
        -13    1    4    4    0    0  0.32420152636E+02  0.37247521914E+01  0.28721896679E+02  0.43472835480E+02  0.00000000000E+00 0.  1.
         14    1    4    4    0    0  0.29716288724E+02 -0.10709538515E+03  0.52233918514E+02  0.12280415946E+03  0.00000000000E+00 0. -1.
          5    1    3    3  502    0  0.12244575995E+02  0.75293070494E+02  0.90669522690E+02  0.11858342401E+03  0.47000000000E+01 0.  1.
         -5    1    3    3    0  502  0.12276748515E+03  0.11279699102E+02  0.81510476642E+02  0.14786864043E+03  0.47000000000E+01 0.  1.
          1    1    1    2  503    0  0.17071521117E+02  0.96718171929E+02 -0.61610814225E+03  0.62388707677E+03  0.00000000000E+00 0. -1.
         -4    1    1    2    0  501 -0.16640260022E+03 -0.51376089445E+01  0.97028419658E+03  0.98446312400E+03  0.00000000000E+00 0.  1.
<mgrwt>
<rscale>  0 0.12655070E+03</rscale>
<asrwt>0</asrwt>
<pdfrwt beam="2">  1        2 0.13706018E+00 0.98213246E+02</pdfrwt>
<pdfrwt beam="1">  1       -3 0.19719368E+00 0.16306435E+03</pdfrwt>
<totfact> 0.33359569E+00</totfact>
</mgrwt>
</event>
<event>
13    1  0.2742815E-008  0.6349364E+02  0.7546771E-02  0.1433847E+00
          2   -1    0    0  503    0  0.00000000000E+00  0.00000000000E+00  0.25626905173E+04  0.25626905173E+04  0.00000000000E+00 0. -1.
          2   -1    0    0  502    0 -0.00000000000E+00 -0.00000000000E+00 -0.65918943734E+03  0.65918943734E+03  0.00000000000E+00 0. -1.
         25    2    1    2    0    0  0.18635314862E+02  0.11958334535E+03 -0.38499809891E+03  0.42248872952E+03  0.12500295579E+03 0.  0.
         24    2    1    2    0    0 -0.19374484988E+02 -0.11137906547E+03 -0.48630702098E+02  0.14696273195E+03  0.80327034690E+02 0.  0.
         24    2    1    2    0    0  0.20117741994E+02  0.18245088731E+02  0.37758157500E+03  0.38470383140E+03  0.68495148066E+02 0.  0.
        -13    1    4    4    0    0 -0.12317045477E+02  0.10751318007E+02 -0.57305122948E+01  0.17324526525E+02  0.00000000000E+00 0.  1.
         14    1    4    4    0    0 -0.70574395118E+01 -0.12213038348E+03 -0.42900189803E+02  0.12963820542E+03  0.00000000000E+00 0. -1.
        -13    1    5    5    0    0  0.17018051954E+00 -0.23314793499E+02  0.72439606467E+02  0.76099311051E+02  0.00000000000E+00 0.  1.
         14    1    5    5    0    0  0.19947561474E+02  0.41559882230E+02  0.30514196853E+03  0.30860452034E+03  0.00000000000E+00 0. -1.
          5    1    3    3  501    0  0.18597756572E+02  0.69519701586E+01 -0.22961879969E+03  0.23052351205E+03  0.47000000000E+01 0.  1.
         -5    1    3    3    0  501  0.37558289981E-01  0.11263137519E+03 -0.15537929923E+03  0.19196521747E+03  0.47000000000E+01 0.  1.
          1    1    1    2  502    0  0.41845277548E+02 -0.94899794592E+01 -0.15061376290E+03  0.15660648945E+03  0.00000000000E+00 0. -1.
          1    1    1    2  503    0 -0.61223849416E+02 -0.16959389153E+02  0.21101620688E+04  0.21111181723E+04  0.00000000000E+00 0. -1.
<mgrwt>
<rscale>  0 0.52195573E+02</rscale>
<asrwt>0</asrwt>
<pdfrwt beam="1">  1        2 0.37686625E+00 0.63493636E+02</pdfrwt>
<pdfrwt beam="2">  1        2 0.96939624E-01 0.42907889E+02</pdfrwt>
<totfact> 0.40147607E+01</totfact>
</mgrwt>
</event>
<event>
13    1  0.2742815E-008  0.4807474E+02  0.7546771E-02  0.1550595E+00
          2   -1    0    0  502    0  0.00000000000E+00  0.00000000000E+00  0.23831812820E+04  0.23831812820E+04  0.00000000000E+00 0. -1.
          2   -1    0    0  503    0 -0.00000000000E+00 -0.00000000000E+00 -0.16079063154E+04  0.16079063154E+04  0.00000000000E+00 0. -1.
         25    2    1    2    0    0  0.49226583091E+02 -0.70803649433E+00 -0.29457569690E+03  0.32376560191E+03  0.12500226390E+03 0.  0.
         24    2    1    2    0    0 -0.10913982692E+03 -0.52640814700E+02 -0.59514249336E+02  0.15715302988E+03  0.80452294771E+02 0.  0.
         24    2    1    2    0    0  0.84104455806E+02  0.92800878112E+02  0.15715656588E+03  0.21643095302E+03  0.80365469949E+02 0.  0.
        -11    1    5    5    0    0 -0.88562646195E+01  0.11659370558E+02 -0.22855897005E+01  0.14818848305E+02  0.00000000000E+00 0.  1.
         12    1    5    5    0    0  0.92960720426E+02  0.81141507554E+02  0.15944215558E+03  0.20161210471E+03  0.00000000000E+00 0. -1.
        -13    1    4    4    0    0 -0.65833764770E+02 -0.33271874344E+02 -0.76964650676E+02  0.10660515775E+03  0.00000000000E+00 0.  1.
         14    1    4    4    0    0 -0.43306062152E+02 -0.19368940355E+02  0.17450401340E+02  0.50547872126E+02  0.00000000000E+00 0. -1.
          5    1    3    3  501    0  0.66484742378E+02  0.47440995892E+02 -0.15958347502E+03  0.17933166079E+03  0.47000000000E+01 0.  1.
         -5    1    3    3    0  501 -0.17258159287E+02 -0.48149032386E+02 -0.13499222188E+03  0.14443394112E+03  0.47000000000E+01 0.  1.
          1    1    1    2  502    0  0.18412136283E+02 -0.17142163419E+02  0.21324008402E+04  0.21325492266E+04  0.00000000000E+00 0. -1.
          1    1    1    2  503    0 -0.42603348259E+02 -0.22309863500E+02 -0.11601924932E+04  0.11611887860E+04  0.00000000000E+00 0. -1.
<mgrwt>
<rscale>  0 0.34776467E+02</rscale>
<asrwt>0</asrwt>
<pdfrwt beam="1">  1        2 0.35046784E+00 0.25156719E+02</pdfrwt>
<pdfrwt beam="2">  1        2 0.23645681E+00 0.48074737E+02</pdfrwt>
<totfact> 0.16920663E+01</totfact>
</mgrwt>
</event>
<event>
13    1  0.2742815E-008  0.6756899E+02  0.7546771E-02  0.1377194E+00
          2   -1    0    0  502    0  0.00000000000E+00  0.00000000000E+00  0.30511268732E+04  0.30511268732E+04  0.00000000000E+00 0. -1.
          2   -1    0    0  503    0 -0.00000000000E+00 -0.00000000000E+00 -0.36145251870E+04  0.36145251870E+04  0.00000000000E+00 0. -1.
         25    2    1    2    0    0 -0.76940151035E+02 -0.42339208038E+02 -0.56259676782E+03  0.58296799993E+03  0.12499668160E+03 0.  0.
         24    2    1    2    0    0 -0.40286913415E+02  0.27475388660E+02 -0.86761505865E+02  0.12726395934E+03  0.79313454551E+02 0.  0.
         24    2    1    2    0    0  0.95259395532E+02 -0.30756827523E+02 -0.15689532788E+03  0.20279011430E+03  0.80544097692E+02 0.  0.
        -11    1    5    5    0    0  0.33514250996E+01  0.20934563828E+02 -0.40632887344E+02  0.45831425319E+02  0.00000000000E+00 0.  1.
         12    1    5    5    0    0  0.91907970432E+02 -0.51691391352E+02 -0.11626244053E+03  0.15695868898E+03  0.00000000000E+00 0. -1.
        -13    1    4    4    0    0 -0.51021132274E+02 -0.11647653657E+02 -0.53010401258E+02  0.74491116355E+02  0.00000000000E+00 0.  1.
         14    1    4    4    0    0  0.10734218859E+02  0.39123042317E+02 -0.33751104606E+02  0.52772842986E+02  0.00000000000E+00 0. -1.
          5    1    3    3  501    0 -0.93783423650E+02 -0.70234579630E+02 -0.47844064325E+03  0.49260102095E+03  0.47000000000E+01 0. -1.
         -5    1    3    3    0  501  0.16843272615E+02  0.27895371592E+02 -0.84156124563E+02  0.90366978980E+02  0.47000000000E+01 0. -1.
          1    1    1    2  502    0 -0.40371624271E+02  0.54206470410E+02  0.29970022184E+04  0.29977642513E+04  0.00000000000E+00 0. -1.
          1    1    1    2  503    0  0.62339293188E+02 -0.85858235081E+01 -0.27541469306E+04  0.27548657353E+04  0.00000000000E+00 0. -1.
<mgrwt>
<rscale>  0 0.65207096E+02</rscale>
<asrwt>0</asrwt>
<pdfrwt beam="1">  1        2 0.44869513E+00 0.67568986E+02</pdfrwt>
<pdfrwt beam="2">  1        2 0.53154782E+00 0.62927767E+02</pdfrwt>
<totfact> 0.63967146E-01</totfact>
</mgrwt>
</event>
<event>
13    1  0.2742815E-008  0.6135874E+02  0.7546771E-02  0.1573558E+00
          2   -1    0    0  503    0  0.00000000000E+00  0.00000000000E+00  0.75577836249E+03  0.75577836249E+03  0.00000000000E+00 0. -1.
         -1   -1    0    0    0  501 -0.00000000000E+00 -0.00000000000E+00 -0.70421897287E+03  0.70421897287E+03  0.00000000000E+00 0.  1.
         25    2    1    2    0    0 -0.96476625492E+02  0.34404411068E+02 -0.15614226313E+02  0.16235708008E+03  0.12499845848E+03 0.  0.
         24    2    1    2    0    0  0.57254699389E+02 -0.74861342861E+01 -0.45137724314E+01  0.10231360504E+03  0.84341904334E+02 0.  0.
         24    2    1    2    0    0 -0.47486652742E+01 -0.67197849412E+02  0.37368894944E+03  0.38736531280E+03  0.76618234390E+02 0.  0.
        -13    1    4    4    0    0  0.66846092898E+02  0.13413899085E+02 -0.23889848108E+02  0.72243045804E+02  0.00000000000E+00 0.  1.
         14    1    4    4    0    0 -0.95913935088E+01 -0.20900033371E+02  0.19376075677E+02  0.30070559240E+02  0.00000000000E+00 0. -1.
        -13    1    5    5    0    0  0.29009468572E+02 -0.61115896045E+02  0.25460535510E+03  0.26343991509E+03  0.00000000000E+00 0.  1.
         14    1    5    5    0    0 -0.33758133846E+02 -0.60819533675E+01  0.11908359434E+03  0.12392539771E+03  0.00000000000E+00 0. -1.
          5    1    3    3  502    0 -0.46239535797E+02  0.82657703437E+00  0.53206792442E+02  0.70652888563E+02  0.47000000000E+01 0. -1.
         -5    1    3    3    0  502 -0.50237089695E+02  0.33577834034E+02 -0.68821018755E+02  0.91704191517E+02  0.47000000000E+01 0. -1.
          1    1    1    2  503    0  0.55050806730E+02  0.27324517713E+02  0.24911342015E+03  0.25658276771E+03  0.00000000000E+00 0. -1.
         -2    1    1    2    0  501 -0.11080215353E+02  0.12955054918E+02 -0.55111498122E+03  0.55137856972E+03  0.00000000000E+00 0.  1.
<mgrwt>
<rscale>  0 0.32341774E+02</rscale>
<asrwt>0</asrwt>
<pdfrwt beam="1">  1        2 0.11114388E+00 0.61358737E+02</pdfrwt>
<pdfrwt beam="2">  1       -1 0.10356161E+00 0.17047129E+02</pdfrwt>
<totfact> 0.51277434E+01</totfact>
</mgrwt>
</event>
<event>
13    1  0.2742815E-008  0.8969048E+02  0.7546771E-02  0.1318449E+00
          2   -1    0    0  502    0  0.00000000000E+00  0.00000000000E+00  0.96140873820E+03  0.96140873820E+03  0.00000000000E+00 0. -1.
          2   -1    0    0  503    0 -0.00000000000E+00 -0.00000000000E+00 -0.21876999716E+04  0.21876999716E+04  0.00000000000E+00 0. -1.
         25    2    1    2    0    0 -0.65827442230E+02  0.13635729877E+03 -0.16969030305E+03  0.25951301832E+03  0.12500257058E+03 0.  0.
         24    2    1    2    0    0  0.53713150480E+02  0.16806039737E+02  0.79405163570E+02  0.12375548170E+03  0.76437515285E+02 0.  0.
         24    2    1    2    0    0  0.20336150624E+01  0.31024173290E+01  0.29361092200E+03  0.30431132211E+03  0.79901480967E+02 0.  0.
        -11    1    5    5    0    0  0.30204988946E+02 -0.22134758799E+02  0.19763986941E+03  0.20115617536E+03  0.00000000000E+00 0.  1.
         12    1    5    5    0    0 -0.28171373883E+02  0.25237176127E+02  0.95971052593E+02  0.10315514675E+03  0.00000000000E+00 0. -1.
        -13    1    4    4    0    0  0.32429637167E+02 -0.29572843307E+02  0.37289609466E+02  0.57591226781E+02  0.00000000000E+00 0.  1.
         14    1    4    4    0    0  0.21283513313E+02  0.46378883044E+02  0.42115554104E+02  0.66164254918E+02  0.00000000000E+00 0. -1.
          5    1    3    3  501    0 -0.44733062733E+02 -0.31032790647E+01 -0.81379792132E+02  0.93034605442E+02  0.47000000000E+01 0.  1.
         -5    1    3    3    0  501 -0.21094379497E+02  0.13946057783E+03 -0.88310510923E+02  0.16647841288E+03  0.47000000000E+01 0.  1.
          1    1    1    2  502    0 -0.39391878279E+02 -0.95442532088E+02  0.50999036580E+03  0.52033755411E+03  0.00000000000E+00 0. -1.
          1    1    1    2  503    0  0.49472554967E+02 -0.60823223747E+02 -0.19396073817E+04  0.19411913336E+04  0.00000000000E+00 0. -1.
<mgrwt>
<rscale>  0 0.83856927E+02</rscale>
<asrwt>0</asrwt>
<pdfrwt beam="1">  1        2 0.14138364E+00 0.89690479E+02</pdfrwt>
<pdfrwt beam="2">  1        2 0.32172058E+00 0.78402795E+02</pdfrwt>
<totfact> 0.37015614E+01</totfact>
</mgrwt>
</event>
<event>
13    1  0.2742815E-008  0.6644921E+02  0.7546771E-02  0.1463653E+00
         -3   -1    0    0    0  501 -0.00000000000E+00  0.00000000000E+00  0.29687432468E+03  0.29687432468E+03  0.00000000000E+00 0.  1.
          2   -1    0    0  503    0  0.00000000000E+00 -0.00000000000E+00 -0.14982716087E+04  0.14982716087E+04  0.00000000000E+00 0. -1.
         25    2    1    2    0    0  0.95811014712E+02 -0.11247397537E+03  0.12846985552E+03  0.23229351510E+03  0.12500251078E+03 0.  0.
         24    2    1    2    0    0 -0.16406845330E+02  0.20544255075E+02 -0.13665833322E+03  0.16130904735E+03  0.81571181980E+02 0.  0.
         24    2    1    2    0    0 -0.74634093749E+02  0.84463973571E+01 -0.23368720513E+03  0.25822805403E+03  0.80189952418E+02 0.  0.
        -11    1    5    5    0    0 -0.40505696007E+02 -0.31908792533E+02 -0.75361521496E+02  0.91313971396E+02  0.00000000000E+00 0.  1.
         12    1    5    5    0    0 -0.34128397742E+02  0.40355189890E+02 -0.15832568364E+03  0.16691408264E+03  0.00000000000E+00 0. -1.
        -13    1    4    4    0    0 -0.18532567884E+02 -0.24092944030E+02 -0.96689843972E+02  0.10135507857E+03  0.00000000000E+00 0.  1.
         14    1    4    4    0    0  0.21257225545E+01  0.44637199105E+02 -0.39968489247E+02  0.59953968784E+02  0.00000000000E+00 0. -1.
          5    1    3    3  502    0  0.26102431578E+02  0.13883308698E+02  0.70703398146E+02  0.76779839177E+02  0.47000000000E+01 0. -1.
         -5    1    3    3    0  502  0.69708583135E+02 -0.12635728407E+03  0.57766457375E+02  0.15551367592E+03  0.47000000000E+01 0. -1.
          1    1    1    2  503    0 -0.28011172504E+02  0.60192877431E+02 -0.10473882131E+04  0.10494902940E+04  0.00000000000E+00 0. -1.
         -4    1    1    2    0  501  0.23241096870E+02  0.23290445509E+02  0.87866611899E+02  0.93825022901E+02  0.00000000000E+00 0.  1.
<mgrwt>
<rscale>  0 0.46758575E+02</rscale>
<asrwt>0</asrwt>
<pdfrwt beam="2">  1        2 0.22033406E+00 0.66449213E+02</pdfrwt>
<pdfrwt beam="1">  1       -3 0.43657989E-01 0.32902788E+02</pdfrwt>
<totfact> 0.47590995E+01</totfact>
</mgrwt>
</event>
<event>
13    1  0.2742815E-008  0.1749387E+03  0.7546771E-02  0.1238472E+00
          2   -1    0    0  503    0  0.00000000000E+00  0.00000000000E+00  0.78726327846E+03  0.78726327846E+03  0.00000000000E+00 0. -1.
         -1   -1    0    0    0  501 -0.00000000000E+00 -0.00000000000E+00 -0.21737618331E+04  0.21737618331E+04  0.00000000000E+00 0.  1.
         25    2    1    2    0    0  0.26991512833E+03 -0.73388774168E+02 -0.69163342617E+03  0.75645699970E+03  0.12502122829E+03 0.  0.
         24    2    1    2    0    0 -0.13355499077E+03  0.16043103781E+03 -0.27531168296E+02  0.22511510306E+03  0.79647918652E+02 0.  0.
         24    2    1    2    0    0 -0.74526125415E+02 -0.15227007113E+03 -0.41434912975E+02  0.19174018081E+03  0.79417422483E+02 0.  0.
        -13    1    4    4    0    0 -0.46338179528E+02  0.70057748060E+01 -0.33609759923E+01  0.46985145761E+02  0.00000000000E+00 0.  1.
         14    1    4    4    0    0 -0.87216811239E+02  0.15342526301E+03 -0.24170192303E+02  0.17812995730E+03  0.00000000000E+00 0. -1.
        -13    1    5    5    0    0 -0.14457818829E+02 -0.11011149943E+03 -0.87392076196E+01  0.11139993080E+03  0.00000000000E+00 0.  1.
         14    1    5    5    0    0 -0.60068306587E+02 -0.42158571701E+02 -0.32695705355E+02  0.80340250017E+02  0.00000000000E+00 0. -1.
          5    1    3    3  502    0  0.16831561622E+03 -0.87066433692E+02 -0.54852706758E+03  0.58035742815E+03  0.47000000000E+01 0.  1.
         -5    1    3    3    0  502  0.10159951211E+03  0.13677659524E+02 -0.14310635859E+03  0.17609957155E+03  0.47000000000E+01 0.  1.
          1    1    1    2  503    0 -0.12343574954E+03  0.12562073099E+03  0.56596348678E+03  0.59273233478E+03  0.00000000000E+00 0. -1.
         -2    1    1    2    0  501  0.61601737400E+02 -0.60392923503E+02 -0.11918625340E+04  0.11949804932E+04  0.00000000000E+00 0.  1.
<mgrwt>
<rscale>  0 0.12284756E+03</rscale>
<asrwt>0</asrwt>
<pdfrwt beam="1">  1        2 0.11577401E+00 0.17493871E+03</pdfrwt>
<pdfrwt beam="2">  1       -1 0.31967086E+00 0.86267487E+02</pdfrwt>
<totfact> 0.15177271E+00</totfact>
</mgrwt>
</event>
<event>
13    1  0.2742815E-008  0.1148374E+03  0.7546771E-02  0.1260301E+00
          2   -1    0    0  502    0  0.00000000000E+00  0.00000000000E+00  0.12702860444E+04  0.12702860444E+04  0.00000000000E+00 0. -1.
          2   -1    0    0  503    0 -0.00000000000E+00 -0.00000000000E+00 -0.36234776093E+04  0.36234776093E+04  0.00000000000E+00 0. -1.
         25    2    1    2    0    0  0.96382962453E+02  0.24726091857E+03 -0.32047720948E+03  0.43446473789E+03  0.12500531737E+03 0.  0.
         24    2    1    2    0    0 -0.26378733274E+03  0.73722573610E+02  0.36483004492E+03  0.46325076436E+03  0.80507976157E+02 0.  0.
         24    2    1    2    0    0  0.24617940655E+03 -0.12264898262E+03  0.80778441325E+02  0.29401058795E+03  0.65345207144E+02 0.  0.
        -11    1    4    4    0    0 -0.20562534840E+03  0.52579760787E+02  0.21968626180E+03  0.30546434943E+03  0.00000000000E+00 0.  1.
         12    1    4    4    0    0 -0.58161984342E+02  0.21142812823E+02  0.14514378312E+03  0.15778641493E+03  0.00000000000E+00 0. -1.
        -11    1    5    5    0    0  0.13985854684E+03 -0.99719033541E+02  0.67013606670E+02  0.18437766203E+03  0.00000000000E+00 0.  1.
         12    1    5    5    0    0  0.10632085970E+03 -0.22929949079E+02  0.13764834655E+02  0.10963292592E+03  0.00000000000E+00 0. -1.
          5    1    3    3  501    0  0.64173083928E+02  0.16399043996E+03 -0.29128753155E+03  0.34041381455E+03  0.47000000000E+01 0.  1.
         -5    1    3    3    0  501  0.32209878525E+02  0.83270478615E+02 -0.29189677924E+02  0.94050923338E+02  0.47000000000E+01 0.  1.
          1    1    1    2  502    0 -0.63111395106E+02 -0.84721322944E+02  0.60622351467E+03  0.61535981384E+03  0.00000000000E+00 0. -1.
          1    1    1    2  503    0 -0.15663641151E+02 -0.11361318662E+03 -0.30845463564E+04  0.30866777497E+04  0.00000000000E+00 0. -1.
<mgrwt>
<rscale>  0 0.11014508E+03</rscale>
<asrwt>0</asrwt>
<pdfrwt beam="1">  1        2 0.18680677E+00 0.10564445E+03</pdfrwt>
<pdfrwt beam="2">  1        2 0.53286434E+00 0.11483744E+03</pdfrwt>
<totfact> 0.40615938E+00</totfact>
</mgrwt>
</event>
<event>
13    1  0.2742815E-008  0.1040070E+03  0.7546771E-02  0.1446362E+00
          2   -1    0    0  503    0  0.00000000000E+00  0.00000000000E+00  0.42257281659E+04  0.42257281659E+04  0.00000000000E+00 0. -1.
          2   -1    0    0  502    0 -0.00000000000E+00 -0.00000000000E+00 -0.26644034082E+04  0.26644034082E+04  0.00000000000E+00 0. -1.
         25    2    1    2    0    0 -0.63078155789E+02 -0.50071402288E+02 -0.20650971432E+03  0.25447037872E+03  0.12499164962E+03 0.  0.
         24    2    1    2    0    0  0.76749399164E+03  0.27599643522E+03 -0.56213160146E+02  0.82154050715E+03  0.80918638435E+02 0.  0.
         24    2    1    2    0    0 -0.76068968204E+03 -0.16856573329E+03  0.52533079978E+02  0.78330452734E+03  0.61180546369E+02 0.  0.
        -11    1    5    5    0    0 -0.35781989851E+03 -0.78475977218E+02  0.55303275274E+02  0.37047538518E+03  0.00000000000E+00 0.  1.
         12    1    5    5    0    0 -0.40286978353E+03 -0.90089756071E+02 -0.27701952964E+01  0.41282914216E+03  0.00000000000E+00 0. -1.
        -13    1    4    4    0    0  0.25805090163E+03  0.70080272872E+02  0.13000915756E+02  0.26771353400E+03  0.00000000000E+00 0.  1.
         14    1    4    4    0    0  0.50944309002E+03  0.20591616235E+03 -0.69214075903E+02  0.55382697315E+03  0.00000000000E+00 0. -1.
          5    1    3    3  501    0  0.10423539063E+02  0.22354173408E+02 -0.11093702110E+03  0.11374300807E+03  0.47000000000E+01 0. -1.
         -5    1    3    3    0  501 -0.73501694852E+02 -0.72425575696E+02 -0.95572693222E+02  0.14072737065E+03  0.47000000000E+01 0. -1.
          1    1    1    2  502    0 -0.18947268225E+02  0.14494880512E+02 -0.16287680305E+04  0.16289427239E+04  0.00000000000E+00 0. -1.
          1    1    1    2  503    0  0.75221114412E+02 -0.71854180155E+02  0.34002825827E+04  0.34018734370E+04  0.00000000000E+00 0. -1.
<mgrwt>
<rscale>  0 0.49811368E+02</rscale>
<asrwt>0</asrwt>
<pdfrwt beam="1">  1        2 0.62143062E+00 0.10400697E+03</pdfrwt>
<pdfrwt beam="2">  1        2 0.39182403E+00 0.23855828E+02</pdfrwt>
<totfact> 0.42722857E-01</totfact>
</mgrwt>
</event>
<event>
13    1  0.2742815E-008  0.1049505E+03  0.7546771E-02  0.1307378E+00
          2   -1    0    0  502    0  0.00000000000E+00  0.00000000000E+00  0.44538062103E+03  0.44538062103E+03  0.00000000000E+00 0. -1.
          2   -1    0    0  503    0 -0.00000000000E+00 -0.00000000000E+00 -0.19246771942E+04  0.19246771942E+04  0.00000000000E+00 0. -1.
         25    2    1    2    0    0 -0.61552001640E+02  0.22826023215E+03 -0.11272376277E+04  0.11585251418E+04  0.12499780926E+03 0.  0.
         24    2    1    2    0    0 -0.10417813041E+03 -0.14386023437E+03  0.71186723649E+02  0.20805259154E+03  0.81666892537E+02 0.  0.
         24    2    1    2    0    0  0.10187083761E+02 -0.22659083805E+02  0.17734881781E+02  0.85104602373E+02  0.79442158574E+02 0.  0.
        -11    1    5    5    0    0  0.44312131901E+02 -0.44129978313E+01  0.88956951241E+01  0.45411154745E+02  0.00000000000E+00 0.  1.
         12    1    5    5    0    0 -0.34125048140E+02 -0.18246085974E+02  0.88391866565E+01  0.39693447629E+02  0.00000000000E+00 0. -1.
        -13    1    4    4    0    0  0.22755599376E+01 -0.40998586152E+02  0.38858437628E+02  0.56533533538E+02  0.00000000000E+00 0.  1.
         14    1    4    4    0    0 -0.10645369034E+03 -0.10286164822E+03  0.32328286021E+02  0.15151905800E+03  0.00000000000E+00 0. -1.
          5    1    3    3  501    0 -0.20853413422E+02  0.18061626908E+03 -0.10023867429E+04  0.10187533430E+04  0.47000000000E+01 0. -1.
         -5    1    3    3    0  501 -0.40698588219E+02  0.47643963073E+02 -0.12485088485E+03  0.13977179883E+03  0.47000000000E+01 0. -1.
          1    1    1    2  502    0  0.12385493810E+03  0.51867753014E+01  0.22039605159E+03  0.25286630437E+03  0.00000000000E+00 0. -1.
          1    1    1    2  503    0  0.31688110190E+02 -0.66927689281E+02 -0.66137660250E+03  0.66550917518E+03  0.00000000000E+00 0. -1.
<mgrwt>
<rscale>  0 0.88156793E+02</rscale>
<asrwt>0</asrwt>
<pdfrwt beam="1">  1        2 0.65497149E-01 0.10495051E+03</pdfrwt>
<pdfrwt beam="2">  1        2 0.28304077E+00 0.74050334E+02</pdfrwt>
<totfact> 0.11982373E+02</totfact>
</mgrwt>
</event>
<event>
13    1  0.2742815E-008  0.6164768E+02  0.7546771E-02  0.1408705E+00
          4   -1    0    0  503    0 -0.00000000000E+00  0.00000000000E+00  0.17638798173E+04  0.17638798173E+04  0.00000000000E+00 0. -1.
          2   -1    0    0  502    0  0.00000000000E+00 -0.00000000000E+00 -0.38113191399E+04  0.38113191399E+04  0.00000000000E+00 0. -1.
         25    2    1    2    0    0  0.45316185317E+02  0.42921486200E+02  0.79595438460E+03  0.80812334942E+03  0.12499661947E+03 0.  0.
         24    2    1    2    0    0 -0.63530728621E+01 -0.52491207294E+02 -0.48502024446E+02  0.10792547779E+03  0.80621175895E+02 0.  0.
         24    2    1    2    0    0 -0.40349206431E+02 -0.25350320567E+01 -0.11259043055E+03  0.15301700761E+03  0.95410244309E+02 0.  0.
        -11    1    4    4    0    0 -0.23815406519E+02 -0.68608450260E+02 -0.37602766253E+02  0.81781789321E+02  0.00000000000E+00 0.  1.
         12    1    4    4    0    0  0.17462333657E+02  0.16117242965E+02 -0.10899258194E+02  0.26143688468E+02  0.00000000000E+00 0. -1.
        -13    1    5    5    0    0 -0.63924409679E+02  0.21258424990E+02 -0.90785679711E+02  0.11304994660E+03  0.00000000000E+00 0.  1.
         14    1    5    5    0    0  0.23575203249E+02 -0.23793457047E+02 -0.21804750837E+02  0.39967061007E+02  0.00000000000E+00 0. -1.
          5    1    3    3  501    0  0.59008447735E+02  0.36414728305E+02  0.19596412113E+03  0.20792319763E+03  0.47000000000E+01 0.  1.
         -5    1    3    3    0  501 -0.13692262418E+02  0.65067578953E+01  0.59999026347E+03  0.60020015179E+03  0.47000000000E+01 0.  1.
          1    1    1    2  502    0  0.37979455636E+02 -0.37823953027E+02 -0.35929665356E+04  0.35933663349E+04  0.00000000000E+00 0. -1.
          3    1    1    2  503    0 -0.36593361660E+02  0.49928706178E+02  0.91066528348E+03  0.91276678749E+03  0.00000000000E+00 0. -1.
<mgrwt>
<rscale>  0 0.57483828E+02</rscale>
<asrwt>0</asrwt>
<pdfrwt beam="2">  1        2 0.56048811E+00 0.53601217E+02</pdfrwt>
<pdfrwt beam="1">  1        4 0.25939409E+00 0.61647677E+02</pdfrwt>
<totfact> 0.39667041E-02</totfact>
</mgrwt>
</event>
<event>
13    1  0.2742815E-008  0.1129143E+03  0.7546771E-02  0.1361181E+00
          2   -1    0    0  502    0  0.00000000000E+00  0.00000000000E+00  0.63038901837E+03  0.63038901837E+03  0.00000000000E+00 0. -1.
          2   -1    0    0  503    0 -0.00000000000E+00 -0.00000000000E+00 -0.93330544712E+03  0.93330544712E+03  0.00000000000E+00 0. -1.
         25    2    1    2    0    0  0.41793746499E+02  0.88139745986E+02 -0.56219735395E+03  0.58412839228E+03  0.12499912723E+03 0.  0.
         24    2    1    2    0    0  0.20202598366E+02 -0.45436037166E+02  0.59481309438E+01  0.95184709547E+02  0.80945476808E+02 0.  0.
         24    2    1    2    0    0  0.32678235506E+02  0.66163587320E+02  0.14737649914E+03  0.18178438042E+03  0.76682730159E+02 0.  0.
        -11    1    5    5    0    0 -0.19009653263E+02  0.39837937919E+02  0.39186716812E+02  0.59025646878E+02  0.00000000000E+00 0.  1.
         12    1    5    5    0    0  0.51687888769E+02  0.26325649401E+02  0.10818978233E+03  0.12275873355E+03  0.00000000000E+00 0. -1.
        -13    1    4    4    0    0  0.32713412290E+02  0.12711355969E+02  0.65571454972E+01  0.35703530236E+02  0.00000000000E+00 0.  1.
         14    1    4    4    0    0 -0.12510813924E+02 -0.58147393136E+02 -0.60901455331E+00  0.59481179311E+02  0.00000000000E+00 0. -1.
          5    1    3    3  501    0  0.53899574292E+02  0.17869727310E+02 -0.89763239642E+02  0.10632036707E+03  0.47000000000E+01 0. -1.
         -5    1    3    3    0  501 -0.12105827793E+02  0.70270018676E+02 -0.47243411431E+03  0.47780802521E+03  0.47000000000E+01 0. -1.
          1    1    1    2  502    0 -0.10584489742E+03 -0.67342275788E+02  0.39290357596E+03  0.41244556540E+03  0.00000000000E+00 0. -1.
          1    1    1    2  503    0  0.11170317046E+02 -0.41525020352E+02 -0.28694728084E+03  0.29015141784E+03  0.00000000000E+00 0. -1.
<mgrwt>
<rscale>  0 0.69681065E+02</rscale>
<asrwt>0</asrwt>
<pdfrwt beam="1">  1        2 0.92704269E-01 0.11291431E+03</pdfrwt>
<pdfrwt beam="2">  1        2 0.13725080E+00 0.43001201E+02</pdfrwt>
<totfact> 0.26601740E+02</totfact>
</mgrwt>
</event>
<event>
13    1  0.2742815E-008  0.1892835E+03  0.7546771E-02  0.1302334E+00
          2   -1    0    0  502    0  0.00000000000E+00  0.00000000000E+00  0.25728425350E+04  0.25728425350E+04  0.00000000000E+00 0. -1.
          2   -1    0    0  503    0 -0.00000000000E+00 -0.00000000000E+00 -0.10375635969E+04  0.10375635969E+04  0.00000000000E+00 0. -1.
         25    2    1    2    0    0 -0.12161082571E+03 -0.10088431161E+03 -0.41921006630E+03  0.46511046570E+03  0.12499531335E+03 0.  0.
         24    2    1    2    0    0  0.19648662913E+03 -0.52488750151E+02 -0.96390077259E+02  0.23892429124E+03  0.80197915385E+02 0.  0.
         24    2    1    2    0    0  0.81010969916E+01 -0.60341853263E+02  0.76221421913E+02  0.12631809760E+03  0.80248299633E+02 0.  0.
        -13    1    4    4    0    0  0.10103398740E+03 -0.59990000019E+02 -0.79055698183E+02  0.14162086756E+03  0.00000000000E+00 0.  1.
         14    1    4    4    0    0  0.95452641734E+02  0.75012498683E+01 -0.17334379077E+02  0.97303423689E+02  0.00000000000E+00 0. -1.
        -13    1    5    5    0    0 -0.25318196609E+02 -0.73262325347E+01  0.53529579487E+02  0.59666578943E+02  0.00000000000E+00 0.  1.
         14    1    5    5    0    0  0.33419293601E+02 -0.53015620728E+02  0.22691842426E+02  0.66651518652E+02  0.00000000000E+00 0. -1.
          5    1    3    3  501    0 -0.31317198728E+02 -0.34522918845E+02 -0.29108860532E+03  0.29483430093E+03  0.47000000000E+01 0.  1.
         -5    1    3    3    0  501 -0.90293626985E+02 -0.66361392764E+02 -0.12812146099E+03  0.17027616477E+03  0.47000000000E+01 0.  1.
          1    1    1    2  502    0 -0.54669244988E+02  0.18135138644E+03  0.23724222693E+04  0.23799715283E+04  0.00000000000E+00 0. -1.
          1    1    1    2  503    0 -0.28307655423E+02  0.32363528584E+02 -0.39776460950E+03  0.40008174903E+03  0.00000000000E+00 0. -1.
<mgrwt>
<rscale>  0 0.90214075E+02</rscale>
<asrwt>0</asrwt>
<pdfrwt beam="1">  1        2 0.37835920E+00 0.18928355E+03</pdfrwt>
<pdfrwt beam="2">  1        2 0.15258288E+00 0.42996760E+02</pdfrwt>
<totfact> 0.20144084E+01</totfact>
</mgrwt>
</event>
<event>
13    1  0.2742815E-008  0.1246391E+03  0.7546771E-02  0.1272191E+00
          2   -1    0    0  502    0  0.00000000000E+00  0.00000000000E+00  0.20742365918E+04  0.20742365918E+04  0.00000000000E+00 0. -1.
          2   -1    0    0  503    0 -0.00000000000E+00 -0.00000000000E+00 -0.21326956115E+04  0.21326956115E+04  0.00000000000E+00 0. -1.
         25    2    1    2    0    0 -0.81570952603E+02  0.85780255200E+02 -0.13893593551E+03  0.22122383940E+03  0.12499888180E+03 0.  0.
         24    2    1    2    0    0  0.15048536244E+03 -0.63833880956E+01  0.20571236877E+03  0.26819606271E+03  0.83216329138E+02 0.  0.
         24    2    1    2    0    0 -0.94145990921E+02 -0.31163226540E+02  0.13301931280E+03  0.18388072253E+03  0.79267699877E+02 0.  0.
        -11    1    4    4    0    0  0.12429449167E+02  0.26093923550E+02  0.23229414142E+02  0.37080854011E+02  0.00000000000E+00 0.  1.
         12    1    4    4    0    0  0.13805591327E+03 -0.32477311646E+02  0.18248295463E+03  0.23111520870E+03  0.00000000000E+00 0. -1.
        -11    1    5    5    0    0 -0.10599506677E+03 -0.21240478407E+02  0.12819440634E+03  0.16768994579E+03  0.00000000000E+00 0.  1.
         12    1    5    5    0    0  0.11849075848E+02 -0.99227481332E+01  0.48249064634E+01  0.16190776737E+02  0.00000000000E+00 0. -1.
          5    1    3    3  501    0 -0.10691971522E+03  0.30752769142E+02 -0.91925408539E+02  0.14439504510E+03  0.47000000000E+01 0.  1.
         -5    1    3    3    0  501  0.25348762620E+02  0.55027486058E+02 -0.47010526973E+02  0.76828794306E+02  0.47000000000E+01 0.  1.
          1    1    1    2  502    0  0.42733537372E+02  0.75441715816E+02  0.16344808444E+04  0.16367789217E+04  0.00000000000E+00 0. -1.
          1    1    1    2  503    0 -0.17501956286E+02 -0.12367535638E+03 -0.18927356102E+04  0.18968526570E+04  0.00000000000E+00 0. -1.
<mgrwt>
<rscale>  0 0.10395541E+03</rscale>
<asrwt>0</asrwt>
<pdfrwt beam="1">  1        2 0.30503479E+00 0.86704139E+02</pdfrwt>
<pdfrwt beam="2">  1        2 0.31363171E+00 0.12463912E+03</pdfrwt>
<totfact> 0.10302285E+01</totfact>
</mgrwt>
</event>
<event>
13    1  0.2742815E-008  0.1231816E+03  0.7546771E-02  0.1507899E+00
          2   -1    0    0  502    0  0.00000000000E+00  0.00000000000E+00  0.40667536051E+03  0.40667536051E+03  0.00000000000E+00 0. -1.
          2   -1    0    0  503    0 -0.00000000000E+00 -0.00000000000E+00 -0.11772499048E+04  0.11772499048E+04  0.00000000000E+00 0. -1.
         25    2    1    2    0    0 -0.89914649827E+01  0.80926838697E+02 -0.61287802667E+03  0.63077511901E+03  0.12501110162E+03 0.  0.
         24    2    1    2    0    0 -0.37751419324E+02  0.11433269662E+03 -0.13489019135E+03  0.19837820445E+03  0.81617480360E+02 0.  0.
         24    2    1    2    0    0  0.17498343001E+03 -0.17260740683E+03  0.21719581479E+03  0.34038165634E+03  0.90956760845E+02 0.  0.
        -11    1    5    5    0    0  0.91087881038E+02 -0.10565452354E+03  0.17791495811E+03  0.22608319870E+03  0.00000000000E+00 0.  1.
         12    1    5    5    0    0  0.83895548969E+02 -0.66952883292E+02  0.39280856680E+02  0.11429845764E+03  0.00000000000E+00 0. -1.
        -13    1    4    4    0    0 -0.32194035568E+02  0.83084929007E+02 -0.14027894751E+03  0.16618587325E+03  0.00000000000E+00 0.  1.
         14    1    4    4    0    0 -0.55573837568E+01  0.31247767613E+02  0.53887561577E+01  0.32192331198E+02  0.00000000000E+00 0. -1.
          5    1    3    3  501    0  0.43109535433E+02  0.29997066397E+02 -0.10315965046E+03  0.11585447562E+03  0.47000000000E+01 0.  1.
         -5    1    3    3    0  501 -0.52101000415E+02  0.50929772300E+02 -0.50971837621E+03  0.51492064339E+03  0.47000000000E+01 0.  1.
          1    1    1    2  502    0 -0.11872797149E+03 -0.31536995438E+02  0.43702499412E+02  0.13038719933E+03  0.00000000000E+00 0. -1.
          1    1    1    2  503    0 -0.95125742099E+01  0.88848669557E+01 -0.28370464046E+03  0.28400308616E+03  0.00000000000E+00 0. -1.
<mgrwt>
<rscale>  0 0.40042434E+02</rscale>
<asrwt>0</asrwt>
<pdfrwt beam="1">  1        2 0.59805201E-01 0.12318161E+03</pdfrwt>
<pdfrwt beam="2">  1        2 0.17312498E+00 0.13016525E+02</pdfrwt>
<totfact> 0.34259171E+02</totfact>
</mgrwt>
</event>
<event>
13    1  0.2742815E-008  0.4622501E+02  0.7546771E-02  0.1541836E+00
          2   -1    0    0  503    0  0.00000000000E+00  0.00000000000E+00  0.10782226816E+04  0.10782226816E+04  0.00000000000E+00 0. -1.
         -3   -1    0    0    0  501 -0.00000000000E+00 -0.00000000000E+00 -0.10340461277E+04  0.10340461277E+04  0.00000000000E+00 0.  1.
         25    2    1    2    0    0  0.10674677528E+03 -0.20495250871E+02 -0.19118899539E+03  0.25296687037E+03  0.12499630476E+03 0.  0.
         24    2    1    2    0    0 -0.95888255688E+02 -0.97157923816E+02  0.11116658278E+03  0.19434979518E+03  0.82338411582E+02 0.  0.
         24    2    1    2    0    0 -0.61168611076E+02  0.11241169145E+03  0.15007960994E+03  0.21243612144E+03  0.78912793743E+02 0.  0.
        -11    1    5    5    0    0 -0.37972044169E+01  0.73567729555E+02  0.11001827977E+03  0.13240336657E+03  0.00000000000E+00 0.  1.
         12    1    5    5    0    0 -0.57371406660E+02  0.38843961897E+02  0.40061330161E+02  0.80032754871E+02  0.00000000000E+00 0. -1.
        -13    1    4    4    0    0  0.80643043526E+01 -0.12130868145E+02 -0.63547030293E+01  0.15892552257E+02  0.00000000000E+00 0.  1.
         14    1    4    4    0    0 -0.10395256004E+03 -0.85027055671E+02  0.11752128580E+03  0.17845724292E+03  0.00000000000E+00 0. -1.
          5    1    3    3  502    0 -0.20633289943E+02 -0.29430022103E+02 -0.57992907839E+02  0.68389518309E+02  0.47000000000E+01 0. -1.
         -5    1    3    3    0  502  0.12738006523E+03  0.89347712319E+01 -0.13319608755E+03  0.18457735206E+03  0.47000000000E+01 0. -1.
          1    1    1    2  503    0  0.90781528001E+01  0.26154605872E+02  0.71232563469E+03  0.71286344141E+03  0.00000000000E+00 0. -1.
         -4    1    1    2    0  501  0.41231938680E+02 -0.20913122637E+02 -0.73820627810E+03  0.73965258094E+03  0.00000000000E+00 0.  1.
<mgrwt>
<rscale>  0 0.35773644E+02</rscale>
<asrwt>0</asrwt>
<pdfrwt beam="1">  1        2 0.15856216E+00 0.27685308E+02</pdfrwt>
<pdfrwt beam="2">  1       -3 0.15206561E+00 0.46225009E+02</pdfrwt>
<totfact> 0.58888569E+00</totfact>
</mgrwt>
</event>
<event>
13    1  0.2742815E-008  0.1006048E+03  0.7546771E-02  0.1300690E+00
          2   -1    0    0  503    0  0.00000000000E+00  0.00000000000E+00  0.91306615664E+02  0.91306615664E+02  0.00000000000E+00 0. -1.
          2   -1    0    0  502    0 -0.00000000000E+00 -0.00000000000E+00 -0.16570546506E+04  0.16570546506E+04  0.00000000000E+00 0. -1.
         25    2    1    2    0    0  0.55859877220E+01  0.77604512410E+02 -0.20571934956E+03  0.25297994775E+03  0.12499895828E+03 0.  0.
         24    2    1    2    0    0 -0.25010183669E+02 -0.54021920739E+02 -0.16689543489E+03  0.19399961765E+03  0.78980302948E+02 0.  0.
         24    2    1    2    0    0 -0.58739573559E+02  0.50945077674E+02 -0.18362522103E+03  0.21543238124E+03  0.81530059766E+02 0.  0.
        -11    1    5    5    0    0  0.17733698615E+02  0.26933130440E+02 -0.46227690890E+02  0.56363791452E+02  0.00000000000E+00 0.  1.
         12    1    5    5    0    0 -0.76473272174E+02  0.24011947234E+02 -0.13739753014E+03  0.15906858979E+03  0.00000000000E+00 0. -1.
        -13    1    4    4    0    0  0.16378792276E+02  0.12466752069E+02 -0.35027597507E+02  0.40627790128E+02  0.00000000000E+00 0.  1.
         14    1    4    4    0    0 -0.41388975944E+02 -0.66488672808E+02 -0.13186783739E+03  0.15337182753E+03  0.00000000000E+00 0. -1.
          5    1    3    3  501    0 -0.48985490094E+02  0.11088426260E+02 -0.33934096421E+02  0.60795923684E+02  0.47000000000E+01 0.  1.
         -5    1    3    3    0  501  0.54571477816E+02  0.66516086151E+02 -0.17178525314E+03  0.19218402406E+03  0.47000000000E+01 0.  1.
          1    1    1    2  502    0 -0.41597346673E+02 -0.70815521675E+02 -0.94746940256E+03  0.95102231633E+03  0.00000000000E+00 0. -1.
          1    1    1    2  503    0  0.11976111618E+03 -0.37121476701E+01 -0.62038626848E+02  0.13492700326E+03  0.00000000000E+00 0. -1.
<mgrwt>
<rscale>  0 0.90898682E+02</rscale>
<asrwt>0</asrwt>
<pdfrwt beam="1">  1        2 0.13427444E-01 0.10060475E+03</pdfrwt>
<pdfrwt beam="2">  1        2 0.24368449E+00 0.82129029E+02</pdfrwt>
<totfact> 0.89451126E+02</totfact>
</mgrwt>
</event>
<event>
13    1  0.2742815E-008  0.1137448E+03  0.7546771E-02  0.1476788E+00
          2   -1    0    0  503    0  0.00000000000E+00  0.00000000000E+00  0.33712865113E+04  0.33712865113E+04  0.00000000000E+00 0. -1.
          2   -1    0    0  502    0 -0.00000000000E+00 -0.00000000000E+00 -0.36216806864E+04  0.36216806864E+04  0.00000000000E+00 0. -1.
         25    2    1    2    0    0  0.24992031626E+03 -0.52714294708E+03 -0.78392413617E+03  0.98514003708E+03  0.12499596098E+03 0.  0.
         24    2    1    2    0    0 -0.78051359355E+03  0.33791255914E+03  0.47842079832E+03  0.97921198544E+03  0.81137444084E+02 0.  0.
         24    2    1    2    0    0  0.50414540893E+03  0.61256561091E+02  0.57408400158E+03  0.77216341063E+03  0.93535727044E+02 0.  0.
        -13    1    5    5    0    0  0.29177899460E+03  0.66788685898E+02  0.28405007774E+03  0.41265016288E+03  0.00000000000E+00 0.  1.
         14    1    5    5    0    0  0.21236641432E+03 -0.55321248070E+01  0.29003392383E+03  0.35951324776E+03  0.00000000000E+00 0. -1.
        -13    1    4    4    0    0 -0.20327870147E+03  0.10426915299E+03  0.91709813744E+02  0.24618078048E+03  0.00000000000E+00 0.  1.
         14    1    4    4    0    0 -0.57723489207E+03  0.23364340615E+03  0.38671098458E+03  0.73303120497E+03  0.00000000000E+00 0. -1.
          5    1    3    3  501    0  0.20429986451E+02 -0.58380948873E+02 -0.16049866290E+03  0.17206867911E+03  0.47000000000E+01 0.  1.
         -5    1    3    3    0  501  0.22949032981E+03 -0.46876199820E+03 -0.62342547327E+03  0.81307135798E+03  0.47000000000E+01 0.  1.
          1    1    1    2  502    0  0.19036032857E+02  0.11212520485E+03 -0.23863180269E+04  0.23890266130E+04  0.00000000000E+00 0. -1.
          1    1    1    2  503    0  0.74118355029E+01  0.15848621986E+02  0.18673431881E+04  0.18674251515E+04  0.00000000000E+00 0. -1.
<mgrwt>
<rscale>  0 0.44610458E+02</rscale>
<asrwt>0</asrwt>
<pdfrwt beam="1">  1        2 0.49577743E+00 0.17496117E+02</pdfrwt>
<pdfrwt beam="2">  1        2 0.53260010E+00 0.11374483E+03</pdfrwt>
<totfact> 0.49806756E-01</totfact>
</mgrwt>
</event>
<event>
13    1  0.2742815E-008  0.1032706E+03  0.7546771E-02  0.1325091E+00
          2   -1    0    0  503    0  0.00000000000E+00  0.00000000000E+00  0.43591032718E+04  0.43591032718E+04  0.00000000000E+00 0. -1.
          2   -1    0    0  502    0 -0.00000000000E+00 -0.00000000000E+00 -0.46243205081E+04  0.46243205081E+04  0.00000000000E+00 0. -1.
         25    2    1    2    0    0 -0.16091977127E+02 -0.58193582688E+02 -0.26794265175E+04  0.26830201068E+04  0.12499994462E+03 0.  0.
         24    2    1    2    0    0 -0.11863563103E+02 -0.19383837833E+02  0.81573072970E+03  0.82012417533E+03  0.81673510268E+02 0.  0.
         24    2    1    2    0    0  0.17520006323E+03 -0.43808017962E+02  0.19542914360E+04  0.19642581338E+04  0.80254562354E+02 0.  0.
        -11    1    4    4    0    0 -0.27719869124E+02 -0.33322695478E+02  0.23215920934E+03  0.23617089503E+03  0.00000000000E+00 0.  1.
         12    1    4    4    0    0  0.15856306021E+02  0.13938857645E+02  0.58357152036E+03  0.58395328030E+03  0.00000000000E+00 0. -1.
        -13    1    5    5    0    0  0.14978372470E+03 -0.31349802166E+02  0.12401430864E+04  0.12495490583E+04  0.00000000000E+00 0.  1.
         14    1    5    5    0    0  0.25416338528E+02 -0.12458215795E+02  0.71414834960E+03  0.71470907552E+03  0.00000000000E+00 0. -1.
          5    1    3    3  501    0  0.53690702184E+00 -0.91040346810E+02 -0.13494385142E+04  0.13525143351E+04  0.47000000000E+01 0.  1.
         -5    1    3    3    0  501 -0.16628884149E+02  0.32846764123E+02 -0.13299880032E+04  0.13305057717E+04  0.47000000000E+01 0.  1.
          1    1    1    2  502    0 -0.48910529810E+02  0.41555830530E+02 -0.19328454575E+04  0.19339107243E+04  0.00000000000E+00 0. -1.
          1    1    1    2  503    0 -0.98333993187E+02  0.79829607952E+02  0.15770325729E+04  0.15821106398E+04  0.00000000000E+00 0. -1.
<mgrwt>
<rscale>  0 0.81412211E+02</rscale>
<asrwt>0</asrwt>
<pdfrwt beam="1">  1        2 0.64104460E+00 0.10327055E+03</pdfrwt>
<pdfrwt beam="2">  1        2 0.68004713E+00 0.64180425E+02</pdfrwt>
<totfact> 0.18009972E-02</totfact>
</mgrwt>
</event>
<event>
13    1  0.2742815E-008  0.1408157E+03  0.7546771E-02  0.1301229E+00
          2   -1    0    0  503    0  0.00000000000E+00  0.00000000000E+00  0.19490417365E+04  0.19490417365E+04  0.00000000000E+00 0. -1.
          2   -1    0    0  502    0 -0.00000000000E+00 -0.00000000000E+00 -0.13857247332E+04  0.13857247332E+04  0.00000000000E+00 0. -1.
         25    2    1    2    0    0 -0.13553674833E+03  0.59811696001E+02 -0.21135843190E+03  0.28678395023E+03  0.12499999299E+03 0.  0.
         24    2    1    2    0    0  0.56543917673E+02 -0.14376894900E+02  0.51643919311E+02  0.11227261133E+03  0.80833997300E+02 0.  0.
         24    2    1    2    0    0  0.18221181563E+02  0.13217973737E+03  0.10314382722E+03  0.18734937775E+03  0.81594398225E+02 0.  0.
        -11    1    4    4    0    0  0.56955886523E+02 -0.41729945713E+02  0.46203199475E+02  0.84380667339E+02  0.00000000000E+00 0.  1.
         12    1    4    4    0    0 -0.41196884987E+00  0.27353050813E+02  0.54407198358E+01  0.27891943988E+02  0.00000000000E+00 0. -1.
        -11    1    5    5    0    0  0.40785627634E+02  0.12592582159E+03  0.93330828642E+02  0.16196117911E+03  0.00000000000E+00 0.  1.
         12    1    5    5    0    0 -0.22564446071E+02  0.62539157801E+01  0.98129985805E+01  0.25388198641E+02  0.00000000000E+00 0. -1.
          5    1    3    3  501    0 -0.10229700451E+03  0.49717365870E+02 -0.22255958269E+03  0.24998270230E+03  0.47000000000E+01 0.  1.
         -5    1    3    3    0  501 -0.33239743823E+02  0.10094330131E+02  0.11201150793E+02  0.36801247931E+02  0.47000000000E+01 0.  1.
          1    1    1    2  502    0  0.45281526703E+02 -0.36858308701E+02 -0.10604552960E+04  0.10620613854E+04  0.00000000000E+00 0. -1.
          1    1    1    2  503    0  0.15490122397E+02 -0.14075622977E+03  0.16803429846E+04  0.16862991449E+04  0.00000000000E+00 0. -1.
<mgrwt>
<rscale>  0 0.90673565E+02</rscale>
<asrwt>0</asrwt>
<pdfrwt beam="1">  1        2 0.28662378E+00 0.14081566E+03</pdfrwt>
<pdfrwt beam="2">  1        2 0.20378305E+00 0.58386228E+02</pdfrwt>
<totfact> 0.27722276E+01</totfact>
</mgrwt>
</event>
<event>
13    1  0.2742815E-008  0.8120940E+02  0.7546771E-02  0.1440964E+00
          2   -1    0    0  503    0  0.00000000000E+00  0.00000000000E+00  0.10967854472E+04  0.10967854472E+04  0.00000000000E+00 0. -1.
          2   -1    0    0  502    0 -0.00000000000E+00 -0.00000000000E+00 -0.35259636773E+04  0.35259636773E+04  0.00000000000E+00 0. -1.
         25    2    1    2    0    0 -0.92390097821E+02 -0.27427162342E+02 -0.21998942373E+03  0.27075751345E+03  0.12500442044E+03 0.  0.
         24    2    1    2    0    0 -0.46644181923E+01  0.78798628071E+02  0.16801549523E+03  0.21203940198E+03  0.10247204873E+03 0.  0.
         24    2    1    2    0    0  0.15256068319E+02 -0.12114240996E+03  0.14615013888E+03  0.20591411609E+03  0.78310465462E+02 0.  0.
        -13    1    4    4    0    0  0.32938880598E+02  0.84422758409E+02  0.10786391302E+03  0.14087865603E+03  0.00000000000E+00 0.  1.
         14    1    4    4    0    0 -0.37603298791E+02 -0.56241303375E+01  0.60151582213E+02  0.71160745954E+02  0.00000000000E+00 0. -1.
        -13    1    5    5    0    0 -0.32261447910E+01  0.82615784263E+01  0.29197505452E+02  0.30514849056E+02  0.00000000000E+00 0.  1.
         14    1    5    5    0    0  0.18482213110E+02 -0.12940398839E+03  0.11695263343E+03  0.17539926704E+03  0.00000000000E+00 0. -1.
          5    1    3    3  501    0 -0.43999215840E+02  0.35570027891E+02 -0.28783231924E+02  0.63653140682E+02  0.47000000000E+01 0. -1.
         -5    1    3    3    0  501 -0.48390881981E+02 -0.62997190233E+02 -0.19120619181E+03  0.20710437277E+03  0.47000000000E+01 0. -1.
          1    1    1    2  502    0  0.31119735425E+02  0.65599048306E+01 -0.32262911130E+04  0.32264478635E+04  0.00000000000E+00 0. -1.
          1    1    1    2  503    0  0.50678712269E+02  0.63211039401E+02  0.70293667246E+03  0.70759022949E+03  0.00000000000E+00 0. -1.
<mgrwt>
<rscale>  0 0.50820792E+02</rscale>
<asrwt>0</asrwt>
<pdfrwt beam="1">  1        2 0.16129197E+00 0.81209397E+02</pdfrwt>
<pdfrwt beam="2">  1        2 0.51852409E+00 0.31803621E+02</pdfrwt>
<totfact> 0.75020402E+00</totfact>
</mgrwt>
</event>
<event>
13    1  0.2742815E-008  0.2054343E+03  0.7546771E-02  0.1374750E+00
          2   -1    0    0  502    0  0.00000000000E+00  0.00000000000E+00  0.20213769353E+04  0.20213769353E+04  0.00000000000E+00 0. -1.
          2   -1    0    0  503    0 -0.00000000000E+00 -0.00000000000E+00 -0.22582071974E+04  0.22582071974E+04  0.00000000000E+00 0. -1.
         25    2    1    2    0    0  0.11719365820E+02  0.58224666494E+02 -0.13145086222E+03  0.19087319855E+03  0.12500317365E+03 0.  0.
         24    2    1    2    0    0  0.91336207565E+02  0.74838818342E+02  0.26881563801E+03  0.30454998234E+03  0.80905456935E+02 0.  0.
         24    2    1    2    0    0  0.82447483737E+01  0.52259483480E+02  0.10650951727E+04  0.10695776197E+04  0.82277141305E+02 0.  0.
        -11    1    5    5    0    0  0.19943225480E+02 -0.13219096614E+02  0.50158896346E+03  0.50215930244E+03  0.00000000000E+00 0.  1.
         12    1    5    5    0    0 -0.11698477106E+02  0.65478580094E+02  0.56350620928E+03  0.56741831722E+03  0.00000000000E+00 0. -1.
        -11    1    4    4    0    0 -0.82066652968E+01 -0.86261314889E+01  0.36352198292E+02  0.38252343986E+02  0.00000000000E+00 0.  1.
         12    1    4    4    0    0  0.99542872862E+02  0.83464949831E+02  0.23246343972E+03  0.26629763836E+03  0.00000000000E+00 0. -1.
          5    1    3    3  501    0  0.17769374891E+02  0.39349775521E+02  0.12731816876E+02  0.45258642032E+02  0.47000000000E+01 0.  1.
         -5    1    3    3    0  501 -0.60500090711E+01  0.18874890973E+02 -0.14418267910E+03  0.14561455652E+03  0.47000000000E+01 0.  1.
          1    1    1    2  502    0 -0.21082089772E+02  0.12094394201E+01  0.63230195674E+03  0.63265447264E+03  0.00000000000E+00 0. -1.
          1    1    1    2  503    0 -0.90218231987E+02 -0.18653240774E+03 -0.20715921674E+04  0.20819288596E+04  0.00000000000E+00 0. -1.
<mgrwt>
<rscale>  0 0.65864292E+02</rscale>
<asrwt>0</asrwt>
<pdfrwt beam="1">  1        2 0.29726131E+00 0.21116753E+02</pdfrwt>
<pdfrwt beam="2">  1        2 0.33208929E+00 0.20543428E+03</pdfrwt>
<totfact> 0.10575500E+01</totfact>
</mgrwt>
</event>
<event>
13    1  0.2742815E-008  0.1209834E+03  0.7546771E-02  0.1473212E+00
          2   -1    0    0  503    0  0.00000000000E+00  0.00000000000E+00  0.13081457350E+04  0.13081457350E+04  0.00000000000E+00 0. -1.
          2   -1    0    0  502    0 -0.00000000000E+00 -0.00000000000E+00 -0.10296835434E+04  0.10296835434E+04  0.00000000000E+00 0. -1.
         25    2    1    2    0    0  0.83314279216E+02 -0.75974454059E+02 -0.52294779295E+03  0.54937473110E+03  0.12499925692E+03 0.  0.
         24    2    1    2    0    0  0.14770936677E+03 -0.94833775198E+02 -0.20960210538E+03  0.28471259610E+03  0.79477782093E+02 0.  0.
         24    2    1    2    0    0 -0.14855595024E+03  0.62805641183E+02  0.73036533707E+02  0.19426093016E+03  0.79934690926E+02 0.  0.
        -11    1    4    4    0    0  0.24804251268E+02 -0.59996760871E+02 -0.72469344281E+02  0.97296803938E+02  0.00000000000E+00 0.  1.
         12    1    4    4    0    0  0.12290511551E+03 -0.34837014328E+02 -0.13713276110E+03  0.18741579216E+03  0.00000000000E+00 0. -1.
        -13    1    5    5    0    0 -0.86411960616E+02 -0.18559759964E+01  0.15783597843E+02  0.87861217527E+02  0.00000000000E+00 0.  1.
         14    1    5    5    0    0 -0.62143989622E+02  0.64661617180E+02  0.57252935864E+02  0.10639971263E+03  0.00000000000E+00 0. -1.
          5    1    3    3  501    0 -0.29397576466E+01 -0.60341840989E+02 -0.96218476642E+02  0.11370956510E+03  0.47000000000E+01 0. -1.
         -5    1    3    3    0  501  0.86254036862E+02 -0.15632613071E+02 -0.42672931630E+03  0.43566516599E+03  0.47000000000E+01 0. -1.
          1    1    1    2  502    0 -0.15062481969E+02  0.76041024322E+01 -0.18210829433E+03  0.18288830361E+03  0.00000000000E+00 0. -1.
          1    1    1    2  503    0 -0.67405213783E+02  0.10039848564E+03  0.11200838505E+04  0.11265927174E+04  0.00000000000E+00 0. -1.
<mgrwt>
<rscale>  0 0.45181442E+02</rscale>
<asrwt>0</asrwt>
<pdfrwt beam="1">  1        2 0.19237437E+00 0.12098342E+03</pdfrwt>
<pdfrwt beam="2">  1        2 0.15142405E+00 0.16873077E+02</pdfrwt>
<totfact> 0.95416822E+01</totfact>
</mgrwt>
</event>
<event>
13    1  0.2742815E-008  0.6004135E+02  0.7546771E-02  0.1463747E+00
          2   -1    0    0  503    0  0.00000000000E+00  0.00000000000E+00  0.50413467654E+03  0.50413467654E+03  0.00000000000E+00 0. -1.
          2   -1    0    0  502    0 -0.00000000000E+00 -0.00000000000E+00 -0.12490204786E+04  0.12490204786E+04  0.00000000000E+00 0. -1.
         25    2    1    2    0    0 -0.34224721198E+02  0.42376864881E+02 -0.55727859820E+03  0.57371762600E+03  0.12500139259E+03 0.  0.
         24    2    1    2    0    0 -0.43243729654E+01 -0.27838562118E+02 -0.52726359521E+02  0.10079076220E+03  0.81148154721E+02 0.  0.
         24    2    1    2    0    0 -0.53957793322E+02 -0.29058502058E+02  0.70922103077E+02  0.11408914559E+03  0.65042666259E+02 0.  0.
        -11    1    4    4    0    0  0.22344989001E+02  0.17110551970E+02 -0.36447611876E+02  0.46048864630E+02  0.00000000000E+00 0.  1.
         12    1    4    4    0    0 -0.26669361967E+02 -0.44949114088E+02 -0.16278747645E+02  0.54741897573E+02  0.00000000000E+00 0. -1.
        -13    1    5    5    0    0 -0.50999384150E+02 -0.47359063346E+02  0.47698979212E+02  0.84374229967E+02  0.00000000000E+00 0.  1.
         14    1    5    5    0    0 -0.29584091714E+01  0.18300561288E+02  0.23223123865E+02  0.29714915621E+02  0.00000000000E+00 0. -1.
          5    1    3    3  501    0 -0.31718676234E+02  0.86069237893E+02 -0.35327329245E+03  0.36501794106E+03  0.47000000000E+01 0.  1.
         -5    1    3    3    0  501 -0.25060449635E+01 -0.43692373012E+02 -0.20400530575E+03  0.20869968494E+03  0.47000000000E+01 0.  1.
          1    1    1    2  502    0  0.59638267024E+02 -0.10952449313E+01 -0.58278187208E+03  0.58582645287E+03  0.00000000000E+00 0. -1.
          1    1    1    2  503    0  0.32868620461E+02  0.15615444226E+02  0.37697892468E+03  0.37873116846E+03  0.00000000000E+00 0. -1.
<mgrwt>
<rscale>  0 0.46742577E+02</rscale>
<asrwt>0</asrwt>
<pdfrwt beam="1">  1        2 0.74137454E-01 0.36389398E+02</pdfrwt>
<pdfrwt beam="2">  1        2 0.18367948E+00 0.60041347E+02</pdfrwt>
<totfact> 0.22925711E+02</totfact>
</mgrwt>
</event>
<event>
13    1  0.2742815E-008  0.4030827E+02  0.7546771E-02  0.1535221E+00
          2   -1    0    0  502    0  0.00000000000E+00  0.00000000000E+00  0.19832856646E+04  0.19832856646E+04  0.00000000000E+00 0. -1.
          2   -1    0    0  503    0 -0.00000000000E+00 -0.00000000000E+00 -0.27191986351E+04  0.27191986351E+04  0.00000000000E+00 0. -1.
         25    2    1    2    0    0 -0.22652638518E+02 -0.27067464409E+02 -0.51270849411E+02  0.13963855576E+03  0.12499774636E+03 0.  0.
         24    2    1    2    0    0 -0.17768720546E+03  0.10822528212E+03  0.21799628270E+02  0.22421925583E+03  0.80706853616E+02 0.  0.
         24    2    1    2    0    0  0.13284850586E+03 -0.72702158110E+02  0.22943716541E+03  0.28627367787E+03  0.79855347142E+02 0.  0.
        -11    1    4    4    0    0 -0.12203897085E+03  0.44525409170E+02 -0.17265633862E+02  0.13105008425E+03  0.00000000000E+00 0.  1.
         12    1    4    4    0    0 -0.55648234602E+02  0.63699872949E+02  0.39065262133E+02  0.93169171583E+02  0.00000000000E+00 0. -1.
        -13    1    5    5    0    0  0.65569702264E+02 -0.35718976556E+02  0.18022815801E+03  0.19508311070E+03  0.00000000000E+00 0.  1.
         14    1    5    5    0    0  0.67278803599E+02 -0.36983181554E+02  0.49209007400E+02  0.91190567170E+02  0.00000000000E+00 0. -1.
          5    1    3    3  501    0 -0.71703474120E+02 -0.30637459596E+02 -0.18265167365E+02  0.80223116807E+02  0.47000000000E+01 0. -1.
         -5    1    3    3    0  501  0.49050835602E+02  0.35699951862E+01 -0.33005682046E+02  0.59415438955E+02  0.47000000000E+01 0. -1.
          1    1    1    2  502    0  0.35855449883E+02 -0.18355937367E+02  0.15578664553E+04  0.15583871297E+04  0.00000000000E+00 0. -1.
          1    1    1    2  503    0  0.31635888228E+02  0.99002777676E+01 -0.24937453700E+04  0.24939656805E+04  0.00000000000E+00 0. -1.
<mgrwt>
<rscale>  0 0.36553684E+02</rscale>
<asrwt>0</asrwt>
<pdfrwt beam="1">  1        2 0.29165966E+00 0.40308265E+02</pdfrwt>
<pdfrwt beam="2">  1        2 0.39988215E+00 0.33148830E+02</pdfrwt>
<totfact> 0.76868377E+00</totfact>
</mgrwt>
</event>
<event>
13    1  0.2742815E-008  0.6746140E+02  0.7546771E-02  0.1392492E+00
          2   -1    0    0  502    0  0.00000000000E+00  0.00000000000E+00  0.37105710762E+04  0.37105710762E+04  0.00000000000E+00 0. -1.
          4   -1    0    0  503    0 -0.00000000000E+00 -0.00000000000E+00 -0.18764681784E+04  0.18764681784E+04  0.00000000000E+00 0. -1.
         25    2    1    2    0    0  0.10148193389E+03  0.16398176583E+02 -0.26152166510E+03  0.30754822942E+03  0.12499939599E+03 0.  0.
         24    2    1    2    0    0 -0.58723179044E+01 -0.13955947412E+02  0.42532801057E+02  0.94802351156E+02  0.83361825994E+02 0.  0.
         24    2    1    2    0    0 -0.13095161351E+03 -0.84238457294E+01  0.34004450126E+03  0.37268203670E+03  0.77732563220E+02 0.  0.
        -11    1    5    5    0    0 -0.82529142075E+02 -0.33524846314E+02  0.26736243446E+03  0.28181136594E+03  0.00000000000E+00 0.  1.
         12    1    5    5    0    0 -0.48422471440E+02  0.25101000585E+02  0.72682066797E+02  0.90870670761E+02  0.00000000000E+00 0. -1.
        -13    1    4    4    0    0 -0.42696011632E+02 -0.20082357069E+02  0.27067367783E+02  0.54395706388E+02  0.00000000000E+00 0.  1.
         14    1    4    4    0    0  0.36823693728E+02  0.61264096569E+01  0.15465433275E+02  0.40406644768E+02  0.00000000000E+00 0. -1.
          5    1    3    3  501    0  0.66275346339E+02  0.56473415861E+02 -0.80159115092E+02  0.11844510105E+03  0.47000000000E+01 0. -1.
         -5    1    3    3    0  501  0.35206587550E+02 -0.40075239278E+02 -0.18136255001E+03  0.18910312836E+03  0.47000000000E+01 0. -1.
          1    1    1    2  502    0  0.68656131422E+01 -0.55260425534E+02  0.32615531997E+04  0.32620285293E+04  0.00000000000E+00 0. -1.
          3    1    1    2  503    0  0.28476384387E+02  0.61242042093E+02 -0.15485059390E+04  0.15499781080E+04  0.00000000000E+00 0. -1.
<mgrwt>
<rscale>  0 0.61291169E+02</rscale>
<asrwt>0</asrwt>
<pdfrwt beam="1">  1        2 0.54567222E+00 0.55685288E+02</pdfrwt>
<pdfrwt beam="2">  1        4 0.27595120E+00 0.67461398E+02</pdfrwt>
<totfact> 0.36565867E-02</totfact>
</mgrwt>
</event>
<event>
13    1  0.2742815E-008  0.1185484E+03  0.7546771E-02  0.1347533E+00
         -3   -1    0    0    0  501 -0.00000000000E+00  0.00000000000E+00  0.17380271032E+03  0.17380271032E+03  0.00000000000E+00 0.  1.
          2   -1    0    0  503    0  0.00000000000E+00 -0.00000000000E+00 -0.22942830402E+04  0.22942830402E+04  0.00000000000E+00 0. -1.
         25    2    1    2    0    0 -0.60627191118E+02 -0.67125827788E+02 -0.37594516638E+02  0.15881552658E+03  0.12500996257E+03 0.  0.
         24    2    1    2    0    0 -0.51475049174E+02 -0.36124303436E+02 -0.66749994263E+02  0.12129874182E+03  0.79392550321E+02 0.  0.
         24    2    1    2    0    0  0.46213080543E+02  0.14131889190E+03 -0.73044936063E+03  0.74975968173E+03  0.80477536549E+02 0.  0.
        -11    1    5    5    0    0 -0.75857568433E+01  0.24050317787E+02 -0.39472443883E+02  0.46840530725E+02  0.00000000000E+00 0.  1.
         12    1    5    5    0    0  0.53798837386E+02  0.11726857411E+03 -0.69097691674E+03  0.70291915101E+03  0.00000000000E+00 0. -1.
        -13    1    4    4    0    0 -0.23439138518E+02 -0.57450349509E+02 -0.58153485704E+02  0.85039777591E+02  0.00000000000E+00 0.  1.
         14    1    4    4    0    0 -0.28035910656E+02  0.21326046073E+02 -0.85965085588E+01  0.36258964227E+02  0.00000000000E+00 0. -1.
          5    1    3    3  502    0  0.14351786644E+02 -0.61691668257E+02  0.17046737233E+02  0.65761059621E+02  0.47000000000E+01 0.  1.
         -5    1    3    3    0  502 -0.74978977762E+02 -0.54341595316E+01 -0.54641253872E+02  0.93054466957E+02  0.47000000000E+01 0.  1.
          1    1    1    2  503    0  0.10976264730E+03 -0.51826313731E+02 -0.13520435219E+04  0.13574813040E+04  0.00000000000E+00 0. -1.
         -4    1    1    2    0  501 -0.43873487551E+02  0.13757553058E+02  0.66357063523E+02  0.80730496440E+02  0.00000000000E+00 0.  1.
<mgrwt>
<rscale>  0 0.73829849E+02</rscale>
<asrwt>0</asrwt>
<pdfrwt beam="2">  1        2 0.33739453E+00 0.11854841E+03</pdfrwt>
<pdfrwt beam="1">  1       -3 0.25559225E-01 0.45979921E+02</pdfrwt>
<totfact> 0.50974119E+01</totfact>
</mgrwt>
</event>
<event>
13    1  0.2742815E-008  0.7787260E+02  0.7546771E-02  0.1403584E+00
          2   -1    0    0  502    0  0.00000000000E+00  0.00000000000E+00  0.28586953112E+04  0.28586953112E+04  0.00000000000E+00 0. -1.
          2   -1    0    0  503    0 -0.00000000000E+00 -0.00000000000E+00 -0.14865494267E+04  0.14865494267E+04  0.00000000000E+00 0. -1.
         25    2    1    2    0    0 -0.15013992946E+03  0.16194322365E+03 -0.20838575879E+02  0.25461106807E+03  0.12499977453E+03 0.  0.
         24    2    1    2    0    0  0.15618028765E+03  0.88158102694E+02  0.17841858124E+03  0.27437163739E+03  0.10621898113E+03 0.  0.
         24    2    1    2    0    0 -0.55374453959E+02 -0.21359757632E+03  0.46468787076E+03  0.52041589430E+03  0.78788521017E+02 0.  0.
        -11    1    4    4    0    0  0.66163510846E+02  0.94208755991E+02  0.12310161158E+03  0.16854348592E+03  0.00000000000E+00 0.  1.
         12    1    4    4    0    0  0.90016776799E+02 -0.60506532969E+01  0.55316969664E+02  0.10582815147E+03  0.00000000000E+00 0. -1.
        -13    1    5    5    0    0 -0.29659462591E+02 -0.44681248293E+02  0.18547135656E+03  0.19306921498E+03  0.00000000000E+00 0.  1.
         14    1    5    5    0    0 -0.25714991368E+02 -0.16891632803E+03  0.27921651420E+03  0.32734667931E+03  0.00000000000E+00 0. -1.
          5    1    3    3  501    0  0.94632524727E+01  0.66649669963E+02 -0.11286231172E+02  0.68419300402E+02  0.47000000000E+01 0.  1.
         -5    1    3    3    0  501 -0.15960318193E+03  0.95293553689E+02 -0.95523447068E+01  0.18619176766E+03  0.47000000000E+01 0.  1.
          1    1    1    2  502    0  0.77917189770E+02 -0.28248003526E+01  0.20217272022E+04  0.20232300779E+04  0.00000000000E+00 0. -1.
          1    1    1    2  503    0 -0.28583094000E+02 -0.33678949675E+02 -0.12718491938E+04  0.12726160602E+04  0.00000000000E+00 0. -1.
<mgrwt>
<rscale>  0 0.58650456E+02</rscale>
<asrwt>0</asrwt>
<pdfrwt beam="1">  1        2 0.42039637E+00 0.77872599E+02</pdfrwt>
<pdfrwt beam="2">  1        2 0.21861021E+00 0.44173124E+02</pdfrwt>
<totfact> 0.96382570E+00</totfact>
</mgrwt>
</event>
<event>
13    1  0.2742815E-008  0.1242992E+03  0.7546771E-02  0.1364602E+00
          2   -1    0    0  503    0  0.00000000000E+00  0.00000000000E+00  0.17321207206E+04  0.17321207206E+04  0.00000000000E+00 0. -1.
          2   -1    0    0  502    0 -0.00000000000E+00 -0.00000000000E+00 -0.21338648136E+03  0.21338648136E+03  0.00000000000E+00 0. -1.
         25    2    1    2    0    0 -0.93376681513E+02 -0.79164330594E+02 -0.47560625007E+01  0.17504446056E+03  0.12502698570E+03 0.  0.
         24    2    1    2    0    0  0.21830835016E+02 -0.36772246312E+02  0.60256036923E+02  0.10830779858E+03  0.79189682356E+02 0.  0.
         24    2    1    2    0    0  0.32596273142E+02  0.31573952746E+02  0.18101416800E+03  0.20292833769E+03  0.79714175069E+02 0.  0.
        -11    1    4    4    0    0  0.50836672628E+02 -0.17242575282E+02  0.45438253145E+02  0.70329997406E+02  0.00000000000E+00 0.  1.
         12    1    4    4    0    0 -0.29005837611E+02 -0.19529671030E+02  0.14817783778E+02  0.37977801176E+02  0.00000000000E+00 0. -1.
        -13    1    5    5    0    0 -0.22244868577E+02 -0.68070384602E+01  0.64337206918E+02  0.68413786218E+02  0.00000000000E+00 0.  1.
         14    1    5    5    0    0  0.54841141719E+02  0.38380991207E+02  0.11667696108E+03  0.13451455147E+03  0.00000000000E+00 0. -1.
          5    1    3    3  501    0  0.32645731891E+01 -0.17983686433E+01  0.42152661359E+02  0.42577322926E+02  0.47000000000E+01 0.  1.
         -5    1    3    3    0  501 -0.96641254702E+02 -0.77365961950E+02 -0.46908723860E+02  0.13246713763E+03  0.47000000000E+01 0.  1.
          1    1    1    2  502    0  0.49343758150E+02  0.12087220820E+03 -0.39934527392E+02  0.13652715357E+03  0.00000000000E+00 0. -1.
          1    1    1    2  503    0 -0.10394184795E+02 -0.36509584042E+02  0.13221546242E+04  0.13226994516E+04  0.00000000000E+00 0. -1.
<mgrwt>
<rscale>  0 0.68690927E+02</rscale>
<asrwt>0</asrwt>
<pdfrwt beam="1">  1        2 0.25472363E+00 0.37960358E+02</pdfrwt>
<pdfrwt beam="2">  1        2 0.31380366E-01 0.12429923E+03</pdfrwt>
<totfact> 0.34431589E+02</totfact>
</mgrwt>
</event>
<event>
13    1  0.2742815E-008  0.7633082E+02  0.7546771E-02  0.1391055E+00
          2   -1    0    0  503    0  0.00000000000E+00  0.00000000000E+00  0.33294144125E+04  0.33294144125E+04  0.00000000000E+00 0. -1.
          2   -1    0    0  502    0 -0.00000000000E+00 -0.00000000000E+00 -0.67512458984E+03  0.67512458984E+03  0.00000000000E+00 0. -1.
         25    2    1    2    0    0  0.60206308494E+01 -0.14434601975E+03  0.85524255875E+02  0.20932836265E+03  0.12502777153E+03 0.  0.
         24    2    1    2    0    0 -0.28780534628E+02 -0.16973318111E+02  0.63071645372E+02  0.10721328528E+03  0.80001521169E+02 0.  0.
         24    2    1    2    0    0  0.10814746452E+03  0.79866779724E+02  0.14643316519E+04  0.14726357064E+04  0.79461692103E+02 0.  0.
        -11    1    4    4    0    0 -0.44507245707E+02  0.45304477720E+01  0.66712991906E+02  0.80324611213E+02  0.00000000000E+00 0.  1.
         12    1    4    4    0    0  0.15726711079E+02 -0.21503765883E+02 -0.36413465331E+01  0.26888674067E+02  0.00000000000E+00 0. -1.
        -13    1    5    5    0    0  0.83291430230E+02  0.28454235106E+02  0.60022826609E+03  0.60664740770E+03  0.00000000000E+00 0.  1.
         14    1    5    5    0    0  0.24856034289E+02  0.51412544618E+02  0.86410338577E+03  0.86598829870E+03  0.00000000000E+00 0. -1.
          5    1    3    3  501    0 -0.36864379480E+02 -0.12351271160E+03  0.23745419972E+02  0.13114994232E+03  0.47000000000E+01 0. -1.
         -5    1    3    3    0  501  0.42885010330E+02 -0.20833308149E+02  0.61778835903E+02  0.78178420327E+02  0.47000000000E+01 0. -1.
          1    1    1    2  502    0 -0.17990338163E+02  0.46420762674E+02 -0.58505612077E+03  0.58717050669E+03  0.00000000000E+00 0. -1.
          1    1    1    2  503    0 -0.67397222577E+02  0.35031795466E+02  0.16264183903E+04  0.16281911413E+04  0.00000000000E+00 0. -1.
<mgrwt>
<rscale>  0 0.61645151E+02</rscale>
<asrwt>0</asrwt>
<pdfrwt beam="1">  1        2 0.48961976E+00 0.76330818E+02</pdfrwt>
<pdfrwt beam="2">  1        2 0.99283029E-01 0.49784932E+02</pdfrwt>
<totfact> 0.15054357E+01</totfact>
</mgrwt>
</event>
<event>
13    1  0.2742815E-008  0.3031781E+03  0.7546771E-02  0.1265649E+00
          2   -1    0    0  502    0  0.00000000000E+00  0.00000000000E+00  0.28868216937E+04  0.28868216937E+04  0.00000000000E+00 0. -1.
          2   -1    0    0  503    0 -0.00000000000E+00 -0.00000000000E+00 -0.24896123511E+04  0.24896123511E+04  0.00000000000E+00 0. -1.
         25    2    1    2    0    0 -0.13061801101E+03  0.11959877747E+03  0.14336188534E+01  0.21677556905E+03  0.12499863880E+03 0.  0.
         24    2    1    2    0    0  0.43036986962E+03  0.39071601829E+02  0.69441260570E+02  0.44696676190E+03  0.90622198311E+02 0.  0.
         24    2    1    2    0    0 -0.76639138392E+02 -0.36577774929E+03  0.19856045936E+02  0.38278568433E+03  0.80397127812E+02 0.  0.
        -11    1    5    5    0    0 -0.33677001489E+02 -0.18086547674E+03  0.49814203697E+02  0.19059883524E+03  0.00000000000E+00 0.  1.
         12    1    5    5    0    0 -0.42962136903E+02 -0.18491227255E+03 -0.29958157760E+02  0.19218684909E+03  0.00000000000E+00 0. -1.
        -13    1    4    4    0    0  0.28574675811E+03  0.42693883388E+02  0.85766873314E+02  0.30138004912E+03  0.00000000000E+00 0.  1.
         14    1    4    4    0    0  0.14462311151E+03 -0.36222815593E+01 -0.16325612744E+02  0.14558671278E+03  0.00000000000E+00 0. -1.
          5    1    3    3  501    0 -0.19862197433E+02 -0.22892917889E+02  0.17865500943E+02  0.35494488308E+02  0.47000000000E+01 0.  1.
         -5    1    3    3    0  501 -0.11075581357E+03  0.14249169536E+03 -0.16431882089E+02  0.18128108074E+03  0.47000000000E+01 0.  1.
          1    1    1    2  502    0 -0.24241699959E+03  0.17440290603E+03  0.23083937212E+04  0.23276305436E+04  0.00000000000E+00 0. -1.
          1    1    1    2  503    0  0.19304279374E+02  0.32704463962E+02 -0.20019153040E+04  0.20022754859E+04  0.00000000000E+00 0. -1.
<mgrwt>
<rscale>  0 0.10730207E+03</rscale>
<asrwt>0</asrwt>
<pdfrwt beam="1">  1        2 0.42453260E+00 0.30317814E+03</pdfrwt>
<pdfrwt beam="2">  1        2 0.36611946E+00 0.37976798E+02</pdfrwt>
<totfact> 0.26774307E+00</totfact>
</mgrwt>
</event>
<event>
13    1  0.2742815E-008  0.9914297E+02  0.7546771E-02  0.1564884E+00
          2   -1    0    0  502    0  0.00000000000E+00  0.00000000000E+00  0.22568876545E+04  0.22568876545E+04  0.00000000000E+00 0. -1.
          2   -1    0    0  503    0 -0.00000000000E+00 -0.00000000000E+00 -0.21062503941E+04  0.21062503941E+04  0.00000000000E+00 0. -1.
         25    2    1    2    0    0  0.46767674146E+02 -0.17301864568E+02 -0.91830356580E+03  0.92811313262E+03  0.12500391237E+03 0.  0.
         24    2    1    2    0    0 -0.65825827364E+02 -0.10297729698E+03 -0.17440299632E+03  0.22725074159E+03  0.79304042708E+02 0.  0.
         24    2    1    2    0    0  0.63629646054E+02  0.40210983660E+02  0.43634524819E+02  0.11855970224E+03  0.80540525050E+02 0.  0.
        -11    1    4    4    0    0  0.53286732780E+01  0.70754480924E+01 -0.34229943876E+02  0.35357400673E+02  0.00000000000E+00 0.  1.
         12    1    4    4    0    0 -0.71154500641E+02 -0.11005274507E+03 -0.14017305244E+03  0.19189334092E+03  0.00000000000E+00 0. -1.
        -11    1    5    5    0    0  0.11751718514E+02  0.52642469601E+02  0.35560399365E+02  0.64605529924E+02  0.00000000000E+00 0.  1.
         12    1    5    5    0    0  0.51877927539E+02 -0.12431485941E+02  0.80741254537E+01  0.53954172316E+02  0.00000000000E+00 0. -1.
          5    1    3    3  501    0  0.70480920120E+02 -0.54221913591E+02 -0.67381540923E+03  0.67967409229E+03  0.47000000000E+01 0. -1.
         -5    1    3    3    0  501 -0.23713245974E+02  0.36920049024E+02 -0.24448815658E+03  0.24843904033E+03  0.47000000000E+01 0. -1.
          1    1    1    2  502    0 -0.40578161256E+02  0.90466990740E+02  0.21432829172E+04  0.21455751039E+04  0.00000000000E+00 0. -1.
          1    1    1    2  503    0 -0.39933315796E+01 -0.10398812852E+02 -0.94357361940E+03  0.94363936821E+03  0.00000000000E+00 0. -1.
<mgrwt>
<rscale>  0 0.33232129E+02</rscale>
<asrwt>0</asrwt>
<pdfrwt beam="1">  1        2 0.33189524E+00 0.99142970E+02</pdfrwt>
<pdfrwt beam="2">  1        2 0.30974270E+00 0.11139210E+02</pdfrwt>
<totfact> 0.11536863E+01</totfact>
</mgrwt>
</event>
<event>
13    1  0.2742815E-008  0.2419012E+03  0.7546771E-02  0.1246463E+00
          2   -1    0    0  503    0  0.00000000000E+00  0.00000000000E+00  0.32212201124E+04  0.32212201124E+04  0.00000000000E+00 0. -1.
          2   -1    0    0  502    0 -0.00000000000E+00 -0.00000000000E+00 -0.14401795906E+04  0.14401795906E+04  0.00000000000E+00 0. -1.
         25    2    1    2    0    0  0.11880767778E+03 -0.46431930637E+02 -0.70641099102E+02  0.19205998345E+03  0.12500273548E+03 0.  0.
         24    2    1    2    0    0  0.19115217585E+03 -0.38776839656E+01  0.21412422121E+03  0.29859360990E+03  0.82187413874E+02 0.  0.
         24    2    1    2    0    0 -0.17061624858E+03 -0.85186646378E+02  0.12644884769E+03  0.24244680229E+03  0.80152803165E+02 0.  0.
        -11    1    5    5    0    0 -0.16529129520E+03 -0.73781730537E+02  0.86605451103E+02  0.20066255304E+03  0.00000000000E+00 0.  1.
         12    1    5    5    0    0 -0.53249533822E+01 -0.11404915840E+02  0.39843396586E+02  0.41784249249E+02  0.00000000000E+00 0. -1.
        -13    1    4    4    0    0  0.18130903526E+03 -0.23843158417E+02  0.17250265957E+03  0.25139337706E+03  0.00000000000E+00 0.  1.
         14    1    4    4    0    0  0.98431405851E+01  0.19965474451E+02  0.41621561640E+02  0.47200232838E+02  0.00000000000E+00 0. -1.
          5    1    3    3  501    0  0.13839599731E+03 -0.58584960098E+02 -0.44314430323E+02  0.15675301705E+03  0.47000000000E+01 0. -1.
         -5    1    3    3    0  501 -0.19588319530E+02  0.12153029461E+02 -0.26326668779E+02  0.35306966396E+02  0.47000000000E+01 0. -1.
          1    1    1    2  502    0 -0.19495822346E+03  0.15027061614E+03 -0.11957532815E+04  0.12208258997E+04  0.00000000000E+00 0. -1.
          1    1    1    2  503    0  0.55614618417E+02 -0.14774355156E+02  0.27068618336E+04  0.27074734077E+04  0.00000000000E+00 0. -1.
<mgrwt>
<rscale>  0 0.11798249E+03</rscale>
<asrwt>0</asrwt>
<pdfrwt beam="1">  1        2 0.47370884E+00 0.57543613E+02</pdfrwt>
<pdfrwt beam="2">  1        2 0.21179112E+00 0.24190118E+03</pdfrwt>
<totfact> 0.60523894E+00</totfact>
</mgrwt>
</event>
<event>
13    1  0.2742815E-008  0.7776973E+02  0.7546771E-02  0.1382429E+00
          2   -1    0    0  502    0  0.00000000000E+00  0.00000000000E+00  0.19113314201E+04  0.19113314201E+04  0.00000000000E+00 0. -1.
          2   -1    0    0  503    0 -0.00000000000E+00 -0.00000000000E+00 -0.20493333328E+04  0.20493333328E+04  0.00000000000E+00 0. -1.
         25    2    1    2    0    0 -0.36836598725E+02  0.45559548521E+01 -0.17456598449E+03  0.21788780142E+03  0.12499647731E+03 0.  0.
         24    2    1    2    0    0  0.16876952159E+03  0.72104030857E+02 -0.49000369597E+02  0.20613460274E+03  0.80051830343E+02 0.  0.
         24    2    1    2    0    0 -0.10010344470E+03  0.34010866804E+02  0.44724011209E+03  0.46501773216E+03  0.70995314368E+02 0.  0.
        -11    1    4    4    0    0 -0.51800572382E+00  0.21334456736E+02  0.38065986005E+01  0.21677582132E+02  0.00000000000E+00 0.  1.
         12    1    4    4    0    0  0.16928752731E+03  0.50769574121E+02 -0.52806968197E+02  0.18445702061E+03  0.00000000000E+00 0. -1.
        -11    1    5    5    0    0 -0.34662342501E+02 -0.10190224078E+02  0.61929631566E+02  0.71697963154E+02  0.00000000000E+00 0.  1.
         12    1    5    5    0    0 -0.65441102196E+02  0.44201090882E+02  0.38531048053E+03  0.39331976901E+03  0.00000000000E+00 0. -1.
          5    1    3    3  501    0 -0.53302879167E+02 -0.19137088215E+02 -0.19486342624E+02  0.60076889248E+02  0.47000000000E+01 0.  1.
         -5    1    3    3    0  501  0.16466280442E+02  0.23693043068E+02 -0.15507964186E+03  0.15781091217E+03  0.47000000000E+01 0.  1.
          1    1    1    2  502    0 -0.48202586288E+02 -0.60906932427E+02  0.13534610456E+04  0.13556879971E+04  0.00000000000E+00 0. -1.
          1    1    1    2  503    0  0.16373108121E+02 -0.49763920086E+02 -0.17151367163E+04  0.17159366195E+04  0.00000000000E+00 0. -1.
<mgrwt>
<rscale>  0 0.63829602E+02</rscale>
<asrwt>0</asrwt>
<pdfrwt beam="1">  1        2 0.28107815E+00 0.77769726E+02</pdfrwt>
<pdfrwt beam="2">  1        2 0.30137255E+00 0.52388228E+02</pdfrwt>
<totfact> 0.15043085E+01</totfact>
</mgrwt>
</event>
<event>
13    1  0.2742815E-008  0.1904677E+03  0.7546771E-02  0.1350012E+00
          2   -1    0    0  502    0  0.00000000000E+00  0.00000000000E+00  0.12839980887E+04  0.12839980887E+04  0.00000000000E+00 0. -1.
          2   -1    0    0  503    0 -0.00000000000E+00 -0.00000000000E+00 -0.10014073075E+04  0.10014073075E+04  0.00000000000E+00 0. -1.
         25    2    1    2    0    0 -0.13872170730E+03 -0.16517558059E+03 -0.10012504989E+03  0.26865619180E+03  0.12499775710E+03 0.  0.
         24    2    1    2    0    0  0.27338558037E+03  0.25808209021E+03  0.32642429103E+02  0.38813252047E+03  0.90748467914E+02 0.  0.
         24    2    1    2    0    0 -0.91992515462E+02 -0.26701611051E+03 -0.30069279829E+01  0.29393573797E+03  0.81418365678E+02 0.  0.
        -11    1    4    4    0    0  0.16737257808E+03  0.18815355000E+03  0.58495727600E+02  0.25852869941E+03  0.00000000000E+00 0.  1.
         12    1    4    4    0    0  0.10601300230E+03  0.69928540204E+02 -0.25853298497E+02  0.12960382106E+03  0.00000000000E+00 0. -1.
        -13    1    5    5    0    0  0.11454472325E+02 -0.41046233321E+02  0.13937411396E+02  0.44835807593E+02  0.00000000000E+00 0.  1.
         14    1    5    5    0    0 -0.10344698779E+03 -0.22596987719E+03 -0.16944339379E+02  0.24909993038E+03  0.00000000000E+00 0. -1.
          5    1    3    3  501    0 -0.74068296085E+02 -0.16409692046E+03 -0.50604629770E+02  0.18707439789E+03  0.47000000000E+01 0.  1.
         -5    1    3    3    0  501 -0.64653411216E+02 -0.10786601241E+01 -0.49520420121E+02  0.81581793916E+02  0.47000000000E+01 0.  1.
          1    1    1    2  502    0 -0.70515709053E+02  0.17722644504E+03  0.83268847439E+03  0.85425509856E+03  0.00000000000E+00 0. -1.
          1    1    1    2  503    0  0.27844351443E+02 -0.31168441542E+01 -0.47960814443E+03  0.48042584738E+03  0.00000000000E+00 0. -1.
<mgrwt>
<rscale>  0 0.73051851E+02</rscale>
<asrwt>0</asrwt>
<pdfrwt beam="1">  1        2 0.18882325E+00 0.19046771E+03</pdfrwt>
<pdfrwt beam="2">  1        2 0.14726578E+00 0.28018255E+02</pdfrwt>
<totfact> 0.96142000E+01</totfact>
</mgrwt>
</event>
<event>
13    1  0.2742815E-008  0.1035590E+03  0.7546771E-02  0.1442502E+00
          2   -1    0    0  503    0  0.00000000000E+00  0.00000000000E+00  0.44100908032E+04  0.44100908032E+04  0.00000000000E+00 0. -1.
          2   -1    0    0  502    0 -0.00000000000E+00 -0.00000000000E+00 -0.77065188632E+03  0.77065188632E+03  0.00000000000E+00 0. -1.
         25    2    1    2    0    0 -0.11301022783E+03 -0.94270952381E+02 -0.28861022186E+03  0.34724347997E+03  0.12499540056E+03 0.  0.
         24    2    1    2    0    0  0.31261907907E+02  0.87634304360E+02  0.41044365868E+02  0.12897577396E+03  0.79328633627E+02 0.  0.
         24    2    1    2    0    0 -0.38525918075E+02  0.22015105343E+02  0.15519874920E+04  0.15548060683E+04  0.82388248761E+02 0.  0.
        -13    1    5    5    0    0  0.15449201170E+01 -0.10303495176E+02  0.26858154676E+02  0.28808145786E+02  0.00000000000E+00 0.  1.
         14    1    5    5    0    0 -0.40070838192E+02  0.32318600519E+02  0.15251293373E+04  0.15259979225E+04  0.00000000000E+00 0. -1.
        -13    1    4    4    0    0 -0.19616276354E+02  0.22232328785E+02 -0.10427100897E+02  0.31429272570E+02  0.00000000000E+00 0.  1.
         14    1    4    4    0    0  0.50878184262E+02  0.65401975575E+02  0.51471466765E+02  0.97546501392E+02  0.00000000000E+00 0. -1.
          5    1    3    3  501    0 -0.13433921015E+03 -0.55721038008E+02 -0.19158158369E+03  0.24057732784E+03  0.47000000000E+01 0. -1.
         -5    1    3    3    0  501  0.21328982323E+02 -0.38549914372E+02 -0.97028638172E+02  0.10666615213E+03  0.47000000000E+01 0. -1.
          1    1    1    2  502    0  0.10068486312E+03 -0.30350383953E+02 -0.40050665528E+03  0.41408232079E+03  0.00000000000E+00 0. -1.
          1    1    1    2  503    0  0.19589374876E+02  0.14971926630E+02  0.27355239361E+04  0.27356350465E+04  0.00000000000E+00 0. -1.
<mgrwt>
<rscale>  0 0.50530360E+02</rscale>
<asrwt>0</asrwt>
<pdfrwt beam="1">  1        2 0.64854275E+00 0.24655673E+02</pdfrwt>
<pdfrwt beam="2">  1        2 0.11333116E+00 0.10355902E+03</pdfrwt>
<totfact> 0.34065348E+00</totfact>
</mgrwt>
</event>
<event>
13    1  0.2742815E-008  0.8218240E+02  0.7546771E-02  0.1344218E+00
          2   -1    0    0  502    0  0.00000000000E+00  0.00000000000E+00  0.23025527206E+04  0.23025527206E+04  0.00000000000E+00 0. -1.
          2   -1    0    0  503    0 -0.00000000000E+00 -0.00000000000E+00 -0.13007052502E+04  0.13007052502E+04  0.00000000000E+00 0. -1.
         25    2    1    2    0    0 -0.31678220471E+02  0.31866798196E+02 -0.12006923195E+03  0.17907334893E+03  0.12502656261E+03 0.  0.
         24    2    1    2    0    0 -0.39599233089E+02  0.43116138019E+02 -0.46517371850E+02  0.11125148915E+03  0.82376740257E+02 0.  0.
         24    2    1    2    0    0 -0.69466535464E+02 -0.88897269104E+02  0.20785068033E+03  0.24974574428E+03  0.80266477872E+02 0.  0.
        -11    1    4    4    0    0 -0.63455278284E+02  0.17043407330E+02 -0.31175479738E+02  0.72725240546E+02  0.00000000000E+00 0.  1.
         12    1    4    4    0    0  0.23856045195E+02  0.26072730688E+02 -0.15341892112E+02  0.38526248604E+02  0.00000000000E+00 0. -1.
        -13    1    5    5    0    0 -0.64181522801E+02 -0.33643369381E+02  0.68373304167E+02  0.99629578414E+02  0.00000000000E+00 0.  1.
         14    1    5    5    0    0 -0.52850126627E+01 -0.55253899723E+02  0.13947737616E+03  0.15011616587E+03  0.00000000000E+00 0. -1.
          5    1    3    3  501    0  0.12043096412E+02  0.66824821780E+02 -0.96650468570E+02  0.11821165785E+03  0.47000000000E+01 0. -1.
         -5    1    3    3    0  501 -0.43721316883E+02 -0.34958023584E+02 -0.23418763377E+02  0.60861691079E+02  0.47000000000E+01 0. -1.
          1    1    1    2  502    0  0.80131154472E+02 -0.17438141079E+02  0.20099409679E+04  0.20116132295E+04  0.00000000000E+00 0. -1.
          1    1    1    2  503    0  0.60612834552E+02  0.31352473968E+02 -0.10493575741E+04  0.10515741589E+04  0.00000000000E+00 0. -1.
<mgrwt>
<rscale>  0 0.74888215E+02</rscale>
<asrwt>0</asrwt>
<pdfrwt beam="1">  1        2 0.33861069E+00 0.82182398E+02</pdfrwt>
<pdfrwt beam="2">  1        2 0.19128018E+00 0.68241434E+02</pdfrwt>
<totfact> 0.21596246E+01</totfact>
</mgrwt>
</event>
<event>
13    1  0.2742815E-008  0.1038083E+03  0.7546771E-02  0.1433819E+00
          2   -1    0    0  502    0  0.00000000000E+00  0.00000000000E+00  0.10348749496E+04  0.10348749496E+04  0.00000000000E+00 0. -1.
          2   -1    0    0  503    0 -0.00000000000E+00 -0.00000000000E+00 -0.15913375753E+04  0.15913375753E+04  0.00000000000E+00 0. -1.
         25    2    1    2    0    0  0.81626833001E+02  0.72914881220E+02 -0.10281029559E+04  0.10414413661E+04  0.12499964547E+03 0.  0.
         24    2    1    2    0    0 -0.86467290164E+02  0.45659469507E+02 -0.99459966215E+02  0.16056276105E+03  0.79540781568E+02 0.  0.
         24    2    1    2    0    0 -0.35160386558E+02  0.16286919716E+02  0.30423151240E+02  0.89238308648E+02  0.74406928859E+02 0.  0.
        -13    1    4    4    0    0 -0.56789728518E+02  0.42112512518E+02 -0.10835308861E+03  0.12937901216E+03  0.00000000000E+00 0.  1.
         14    1    4    4    0    0 -0.29677561646E+02  0.35469569890E+01  0.88931223926E+01  0.31183748893E+02  0.00000000000E+00 0. -1.
        -13    1    5    5    0    0  0.18793169090E+02  0.91918352311E+01 -0.82388290902E+01  0.22484468954E+02  0.00000000000E+00 0.  1.
         14    1    5    5    0    0 -0.53953555648E+02  0.70950844848E+01  0.38661980330E+02  0.66753839694E+02  0.00000000000E+00 0. -1.
          5    1    3    3  501    0 -0.32812063009E+01  0.69502434452E+02 -0.28178248314E+03  0.29028402042E+03  0.47000000000E+01 0. -1.
         -5    1    3    3    0  501  0.84908039301E+02  0.34124467675E+01 -0.74632047274E+03  0.75115734568E+03  0.47000000000E+01 0. -1.
          1    1    1    2  502    0  0.65192453704E+02 -0.14223942883E+03  0.93085323281E+03  0.94391199387E+03  0.00000000000E+00 0. -1.
          1    1    1    2  503    0 -0.25191609982E+02  0.73781583863E+01 -0.39017608769E+03  0.39105809523E+03  0.00000000000E+00 0. -1.
<mgrwt>
<rscale>  0 0.52201062E+02</rscale>
<asrwt>0</asrwt>
<pdfrwt beam="1">  1        2 0.15218749E+00 0.10380826E+03</pdfrwt>
<pdfrwt beam="2">  1        2 0.23402023E+00 0.26249846E+02</pdfrwt>
<totfact> 0.70866884E+01</totfact>
</mgrwt>
</event>
<event>
13    1  0.2742815E-008  0.6130730E+02  0.7546771E-02  0.1469315E+00
          2   -1    0    0  502    0  0.00000000000E+00  0.00000000000E+00  0.32429646530E+04  0.32429646530E+04  0.00000000000E+00 0. -1.
          2   -1    0    0  503    0 -0.00000000000E+00 -0.00000000000E+00 -0.10574016958E+04  0.10574016958E+04  0.00000000000E+00 0. -1.
         25    2    1    2    0    0  0.52803341847E+02 -0.44158322680E+01  0.24202850859E+02  0.13791692556E+03  0.12501043109E+03 0.  0.
         24    2    1    2    0    0  0.28845705716E+02 -0.73075764861E+02  0.34246768000E+03  0.36061265469E+03  0.81149446891E+02 0.  0.
         24    2    1    2    0    0 -0.97046447179E+01  0.15781113746E+02  0.61346840943E+03  0.61968777130E+03  0.85593345770E+02 0.  0.
        -11    1    5    5    0    0 -0.32934198053E+02 -0.20661063501E+02  0.40024853430E+03  0.40213235403E+03  0.00000000000E+00 0.  1.
         12    1    5    5    0    0  0.23229553335E+02  0.36442177247E+02  0.21321987513E+03  0.21755541727E+03  0.00000000000E+00 0. -1.
        -11    1    4    4    0    0 -0.45696985473E+01 -0.78348980013E+02  0.25611892647E+03  0.26787375629E+03  0.00000000000E+00 0.  1.
         12    1    4    4    0    0  0.33415404263E+02  0.52732151518E+01  0.86348753526E+02  0.92738898396E+02  0.00000000000E+00 0. -1.
          5    1    3    3  501    0  0.57478888469E+02 -0.55466061209E+02  0.31363848214E+02  0.85942350099E+02  0.47000000000E+01 0. -1.
         -5    1    3    3    0  501 -0.46755466217E+01  0.51050228941E+02 -0.71609973554E+01  0.51974575460E+02  0.47000000000E+01 0. -1.
          1    1    1    2  502    0 -0.43017852875E+02  0.43393801377E+02  0.21930643401E+04  0.21939153943E+04  0.00000000000E+00 0. -1.
          1    1    1    2  503    0 -0.28926549970E+02  0.18316682007E+02 -0.98764032316E+03  0.98823360299E+03  0.00000000000E+00 0. -1.
<mgrwt>
<rscale>  0 0.45815328E+02</rscale>
<asrwt>0</asrwt>
<pdfrwt beam="1">  1        2 0.47690657E+00 0.61307300E+02</pdfrwt>
<pdfrwt beam="2">  1        2 0.15550025E+00 0.34238080E+02</pdfrwt>
<totfact> 0.10425269E+01</totfact>
</mgrwt>
</event>
<event>
13    1  0.2742815E-008  0.7733735E+02  0.7546771E-02  0.1398015E+00
          2   -1    0    0  503    0  0.00000000000E+00  0.00000000000E+00  0.18341560200E+04  0.18341560200E+04  0.00000000000E+00 0. -1.
          2   -1    0    0  502    0 -0.00000000000E+00 -0.00000000000E+00 -0.82024046166E+03  0.82024046166E+03  0.00000000000E+00 0. -1.
         25    2    1    2    0    0  0.11438627678E+03  0.20387312690E+02  0.23124016793E+02  0.17221794202E+03  0.12499774625E+03 0.  0.
         24    2    1    2    0    0 -0.82575903991E+01  0.61420465434E+02  0.11021329512E+03  0.14932896722E+03  0.79445003979E+02 0.  0.
         24    2    1    2    0    0 -0.77715552369E+02 -0.10046157740E+03  0.28885254482E+03  0.32513464249E+03  0.78386908858E+02 0.  0.
        -11    1    4    4    0    0  0.11119788447E+02 -0.16812244633E+02  0.22603434275E+02  0.30285582473E+02  0.00000000000E+00 0.  1.
         12    1    4    4    0    0 -0.19377378846E+02  0.78232710067E+02  0.87609860841E+02  0.11904338475E+03  0.00000000000E+00 0. -1.
        -13    1    5    5    0    0 -0.78734820846E+02 -0.10218078162E+03  0.29321510682E+03  0.32033604701E+03  0.00000000000E+00 0.  1.
         14    1    5    5    0    0  0.10192684770E+01  0.17192042199E+01 -0.43625619968E+01  0.47985954772E+01  0.00000000000E+00 0. -1.
          5    1    3    3  501    0 -0.41910349230E+01  0.22725561892E+02 -0.33293044151E+02  0.40798685345E+02  0.47000000000E+01 0. -1.
         -5    1    3    3    0  501  0.11857731170E+03 -0.23382492022E+01  0.56417060944E+02  0.13141925668E+03  0.47000000000E+01 0. -1.
          1    1    1    2  502    0  0.20924286658E+02 -0.41505725573E+02 -0.70606540328E+03  0.70759374272E+03  0.00000000000E+00 0. -1.
          1    1    1    2  503    0 -0.49337420671E+02  0.60159524848E+02  0.12977911049E+04  0.13001211872E+04  0.00000000000E+00 0. -1.
<mgrwt>
<rscale>  0 0.59956432E+02</rscale>
<asrwt>0</asrwt>
<pdfrwt beam="1">  1        2 0.26972883E+00 0.77337352E+02</pdfrwt>
<pdfrwt beam="2">  1        2 0.12062360E+00 0.46481728E+02</pdfrwt>
<totfact> 0.68260029E+01</totfact>
</mgrwt>
</event>
<event>
13    1  0.2742815E-008  0.1289052E+03  0.7546771E-02  0.1246066E+00
          2   -1    0    0  502    0  0.00000000000E+00  0.00000000000E+00  0.76863008514E+03  0.76863008514E+03  0.00000000000E+00 0. -1.
          2   -1    0    0  503    0 -0.00000000000E+00 -0.00000000000E+00 -0.98722236927E+03  0.98722236927E+03  0.00000000000E+00 0. -1.
         25    2    1    2    0    0 -0.11313186491E+03  0.90416750049E+01 -0.14854636049E+03  0.22488074457E+03  0.12499902927E+03 0.  0.
         24    2    1    2    0    0  0.98445766746E+02 -0.42489124449E+02 -0.31490434108E+02  0.13796560965E+03  0.80907152464E+02 0.  0.
         24    2    1    2    0    0  0.28235137388E+02  0.54277165283E+02  0.17944062764E+03  0.20634491051E+03  0.81461951818E+02 0.  0.
        -11    1    5    5    0    0  0.30119911776E+02  0.27010124263E+02  0.21034953095E+02  0.45598521356E+02  0.00000000000E+00 0.  1.
         12    1    5    5    0    0 -0.18847743883E+01  0.27267041020E+02  0.15840567454E+03  0.16074638916E+03  0.00000000000E+00 0. -1.
        -11    1    4    4    0    0  0.45982697969E+01  0.25806677504E+01 -0.33425490889E+02  0.33838844134E+02  0.00000000000E+00 0.  1.
         12    1    4    4    0    0  0.93847496950E+02 -0.45069792199E+02  0.19350567814E+01  0.10412676552E+03  0.00000000000E+00 0. -1.
          5    1    3    3  501    0 -0.11338847520E+03 -0.32578926008E+02 -0.73911803205E+02  0.13929600633E+03  0.47000000000E+01 0. -1.
         -5    1    3    3    0  501  0.25661028523E+00  0.41620601013E+02 -0.74634557288E+02  0.85584738237E+02  0.47000000000E+01 0. -1.
          1    1    1    2  502    0 -0.13213990028E+03 -0.83695414405E+02  0.46499926499E+03  0.49060186718E+03  0.00000000000E+00 0. -1.
          1    1    1    2  503    0  0.11859086106E+03  0.62865698566E+02 -0.68299538216E+03  0.69605932250E+03  0.00000000000E+00 0. -1.
<mgrwt>
<rscale>  0 0.11821802E+03</rscale>
<asrwt>0</asrwt>
<pdfrwt beam="1">  1        2 0.11303384E+00 0.10841687E+03</pdfrwt>
<pdfrwt beam="2">  1        2 0.14517976E+00 0.12890521E+03</pdfrwt>
<totfact> 0.18719362E+02</totfact>
</mgrwt>
</event>
<event>
13    1  0.2742815E-008  0.1114211E+03  0.7546771E-02  0.1388388E+00
          2   -1    0    0  503    0  0.00000000000E+00  0.00000000000E+00  0.24039622431E+04  0.24039622431E+04  0.00000000000E+00 0. -1.
         -1   -1    0    0    0  501 -0.00000000000E+00 -0.00000000000E+00 -0.14953865051E+04  0.14953865051E+04  0.00000000000E+00 0.  1.
         25    2    1    2    0    0  0.96516070602E+02  0.32534030573E+02 -0.27138416222E+03  0.31567347086E+03  0.12500624652E+03 0.  0.
         24    2    1    2    0    0  0.13144549701E+03 -0.58627362717E+02  0.21762583903E+02  0.16503296368E+03  0.77763633524E+02 0.  0.
         24    2    1    2    0    0 -0.16554122722E+03 -0.19319724852E+02  0.23873435441E+03  0.30201081488E+03  0.80245190814E+02 0.  0.
        -13    1    5    5    0    0 -0.15556226975E+03 -0.22177199944E+02  0.16614222328E+03  0.22868031468E+03  0.00000000000E+00 0.  1.
         14    1    5    5    0    0 -0.99789574667E+01  0.28574750922E+01  0.72592131135E+02  0.73330500195E+02  0.00000000000E+00 0. -1.
        -13    1    4    4    0    0  0.58988024200E+02 -0.67964397380E+02  0.53278088941E+01  0.90150606531E+02  0.00000000000E+00 0.  1.
         14    1    4    4    0    0  0.72457472814E+02  0.93370346625E+01  0.16434775008E+02  0.74882357151E+02  0.00000000000E+00 0. -1.
          5    1    3    3  502    0  0.52489989971E+02  0.21712279386E+02 -0.26328000318E+03  0.26937904929E+03  0.47000000000E+01 0.  1.
         -5    1    3    3    0  502  0.44026080631E+02  0.10821751187E+02 -0.81041590455E+01  0.46294421568E+02  0.47000000000E+01 0.  1.
          1    1    1    2  503    0 -0.85946744830E+02  0.71116774626E+02  0.20162286830E+04  0.20193123930E+04  0.00000000000E+00 0. -1.
         -2    1    1    2    0  501  0.23526404435E+02 -0.25703717629E+02 -0.10967657211E+04  0.10973191057E+04  0.00000000000E+00 0.  1.
<mgrwt>
<rscale>  0 0.62309429E+02</rscale>
<asrwt>0</asrwt>
<pdfrwt beam="1">  1        2 0.35352386E+00 0.11142106E+03</pdfrwt>
<pdfrwt beam="2">  1       -1 0.21990978E+00 0.34844983E+02</pdfrwt>
<totfact> 0.99798610E-01</totfact>
</mgrwt>
</event>
<event>
13    1  0.2742815E-008  0.1396848E+03  0.7546771E-02  0.1443953E+00
          2   -1    0    0  503    0  0.00000000000E+00  0.00000000000E+00  0.10864304313E+04  0.10864304313E+04  0.00000000000E+00 0. -1.
          2   -1    0    0  502    0 -0.00000000000E+00 -0.00000000000E+00 -0.12059251866E+04  0.12059251866E+04  0.00000000000E+00 0. -1.
         25    2    1    2    0    0  0.11208909176E+02 -0.15708347435E+03 -0.31527155280E+03  0.37390096342E+03  0.12491965772E+03 0.  0.
         24    2    1    2    0    0 -0.34271490683E+01  0.11105087457E+03 -0.14561018664E+02  0.13328562691E+03  0.72173353687E+02 0.  0.
         24    2    1    2    0    0 -0.12661473114E+03  0.91112256035E+02  0.13571152237E+03  0.22268359677E+03  0.82689985030E+02 0.  0.
        -13    1    4    4    0    0 -0.31927413561E+02  0.22263860922E+02 -0.84928269096E+01  0.39839268928E+02  0.00000000000E+00 0.  1.
         14    1    4    4    0    0  0.28500264492E+02  0.88787013650E+02 -0.60681917544E+01  0.93446357982E+02  0.00000000000E+00 0. -1.
        -13    1    5    5    0    0 -0.10478953543E+03  0.10679316638E+03  0.11295183914E+03  0.18746665060E+03  0.00000000000E+00 0.  1.
         14    1    5    5    0    0 -0.21825195705E+02 -0.15680910343E+02  0.22759683227E+02  0.35216946167E+02  0.00000000000E+00 0. -1.
          5    1    3    3  501    0 -0.27279026290E+02 -0.54241788428E+01 -0.12184852056E+03  0.12507085574E+03  0.47000000000E+01 0. -1.
         -5    1    3    3    0  501  0.38487935467E+02 -0.15165929551E+03 -0.19342303224E+03  0.24883010768E+03  0.47000000000E+01 0. -1.
          1    1    1    2  502    0  0.13574911311E+03 -0.38689396669E+02 -0.73713221141E+03  0.75052554135E+03  0.00000000000E+00 0. -1.
          1    1    1    2  503    0 -0.16916142085E+02 -0.63902595845E+01  0.81175850517E+03  0.81195988940E+03  0.00000000000E+00 0. -1.
<mgrwt>
<rscale>  0 0.50258388E+02</rscale>
<asrwt>0</asrwt>
<pdfrwt beam="1">  1        2 0.15976918E+00 0.18082900E+02</pdfrwt>
<pdfrwt beam="2">  1        2 0.17734194E+00 0.13968476E+03</pdfrwt>
<totfact> 0.99842356E+01</totfact>
</mgrwt>
</event>
<event>
13    1  0.2742815E-008  0.8537020E+02  0.7546771E-02  0.1329268E+00
         -3   -1    0    0    0  501 -0.00000000000E+00  0.00000000000E+00  0.22811118689E+04  0.22811118689E+04  0.00000000000E+00 0.  1.
          2   -1    0    0  503    0  0.00000000000E+00 -0.00000000000E+00 -0.13133776127E+04  0.13133776127E+04  0.00000000000E+00 0. -1.
         25    2    1    2    0    0 -0.11917125867E+03 -0.88457314893E+02  0.11552410029E+04  0.11714194524E+04  0.12496108649E+03 0.  0.
         24    2    1    2    0    0  0.48536347830E+03  0.24784860786E+03  0.13292278582E+03  0.56661661050E+03  0.79870381410E+02 0.  0.
         24    2    1    2    0    0 -0.46583837900E+03 -0.17120538903E+03  0.31464327953E+02  0.50372489113E+03  0.80200258264E+02 0.  0.
        -11    1    5    5    0    0 -0.11804152120E+03 -0.81869895973E+02  0.87870345639E+01  0.14392252280E+03  0.00000000000E+00 0.  1.
         12    1    5    5    0    0 -0.34779685780E+03 -0.89335493052E+02  0.22677293389E+02  0.35980236833E+03  0.00000000000E+00 0. -1.
        -13    1    4    4    0    0  0.15920604447E+03  0.11319368477E+03  0.73890844126E+02  0.20885217670E+03  0.00000000000E+00 0.  1.
         14    1    4    4    0    0  0.32615743383E+03  0.13465492308E+03  0.59031941697E+02  0.35776443380E+03  0.00000000000E+00 0. -1.
          5    1    3    3  502    0 -0.51632131068E+02 -0.49797125807E+01  0.12266461194E+03  0.13326429198E+03  0.47000000000E+01 0.  1.
         -5    1    3    3    0  502 -0.67539127604E+02 -0.83477602312E+02  0.10325763910E+04  0.10381551604E+04  0.47000000000E+01 0.  1.
          1    1    1    2  503    0  0.48673690965E+02 -0.56829336999E+02 -0.84699780719E+03  0.85029641133E+03  0.00000000000E+00 0. -1.
         -4    1    1    2    0  501  0.50972468415E+02  0.68643433062E+02  0.49510394671E+03  0.50243211630E+03  0.00000000000E+00 0.  1.
<mgrwt>
<rscale>  0 0.79923589E+02</rscale>
<asrwt>0</asrwt>
<pdfrwt beam="2">  1        2 0.19314377E+00 0.74824473E+02</pdfrwt>
<pdfrwt beam="1">  1       -3 0.33545763E+00 0.85370199E+02</pdfrwt>
<totfact> 0.39387058E-01</totfact>
</mgrwt>
</event>
<event>
13    1  0.2742815E-008  0.7079303E+02  0.7546771E-02  0.1412877E+00
          2   -1    0    0  503    0  0.00000000000E+00  0.00000000000E+00  0.39083295180E+04  0.39083295180E+04  0.00000000000E+00 0. -1.
          2   -1    0    0  502    0 -0.00000000000E+00 -0.00000000000E+00 -0.24162748982E+04  0.24162748982E+04  0.00000000000E+00 0. -1.
         25    2    1    2    0    0  0.75553104984E+02 -0.52706768536E+02 -0.98550518218E+03  0.99766296665E+03  0.12499862316E+03 0.  0.
         24    2    1    2    0    0 -0.20933638242E+02  0.16873696156E+02 -0.17337266228E+03  0.19330969019E+03  0.81164139011E+02 0.  0.
         24    2    1    2    0    0 -0.10550430486E+03 -0.67206475694E+02  0.19855256019E+03  0.24815832742E+03  0.80694284748E+02 0.  0.
        -13    1    5    5    0    0 -0.31040228393E+02 -0.33881752754E+02  0.14105663606E+03  0.14835243012E+03  0.00000000000E+00 0.  1.
         14    1    5    5    0    0 -0.74464076469E+02 -0.33324722940E+02  0.57495924137E+02  0.99805897300E+02  0.00000000000E+00 0. -1.
        -13    1    4    4    0    0 -0.40373162416E-02  0.46146163272E+02 -0.12326235330E+03  0.13161715747E+03  0.00000000000E+00 0.  1.
         14    1    4    4    0    0 -0.20929600925E+02 -0.29272467117E+02 -0.50110308984E+02  0.61692532713E+02  0.00000000000E+00 0. -1.
          5    1    3    3  501    0  0.76022286295E+02 -0.40686059955E+02 -0.30376837131E+03  0.31580382660E+03  0.47000000000E+01 0. -1.
         -5    1    3    3    0  501 -0.46918131080E+00 -0.12020708581E+02 -0.68173681087E+03  0.68185914005E+03  0.47000000000E+01 0. -1.
          1    1    1    2  502    0  0.26511642441E+02  0.36587692579E+02 -0.12157857003E+04  0.12166250020E+04  0.00000000000E+00 0. -1.
          1    1    1    2  503    0  0.24373195680E+02  0.66451855495E+02  0.36681656043E+04  0.36688484300E+04  0.00000000000E+00 0. -1.
<mgrwt>
<rscale>  0 0.56556692E+02</rscale>
<asrwt>0</asrwt>
<pdfrwt beam="1">  1        2 0.57475434E+00 0.70793029E+02</pdfrwt>
<pdfrwt beam="2">  1        2 0.35533454E+00 0.45183254E+02</pdfrwt>
<totfact> 0.90687048E-01</totfact>
</mgrwt>
</event>
<event>
13    1  0.2742815E-008  0.1159771E+03  0.7546771E-02  0.1388140E+00
          2   -1    0    0  503    0  0.00000000000E+00  0.00000000000E+00  0.12473047363E+04  0.12473047363E+04  0.00000000000E+00 0. -1.
          2   -1    0    0  502    0 -0.00000000000E+00 -0.00000000000E+00 -0.12147152916E+04  0.12147152916E+04  0.00000000000E+00 0. -1.
         25    2    1    2    0    0  0.55050581085E+02  0.90331593733E+02 -0.58197379812E+03  0.60457365130E+03  0.12500173935E+03 0.  0.
         24    2    1    2    0    0  0.96834264288E+02 -0.18735883669E+03 -0.19595043304E+03  0.29884581866E+03  0.80200016795E+02 0.  0.
         24    2    1    2    0    0 -0.75657510393E+02  0.41814707483E+02  0.10282863112E+03  0.15696358005E+03  0.81186879759E+02 0.  0.
        -11    1    5    5    0    0 -0.79881621728E+02  0.59111815864E+02  0.77594813350E+02  0.12608027333E+03  0.00000000000E+00 0.  1.
         12    1    5    5    0    0  0.42241113347E+01 -0.17297108382E+02  0.25233817769E+02  0.30883306723E+02  0.00000000000E+00 0. -1.
        -11    1    4    4    0    0  0.70118182833E+02 -0.18611560276E+03 -0.17198030871E+03  0.26293117681E+03  0.00000000000E+00 0.  1.
         12    1    4    4    0    0  0.26716081454E+02 -0.12432339367E+01 -0.23970124330E+02  0.35914641851E+02  0.00000000000E+00 0. -1.
          5    1    3    3  501    0  0.52184630871E+02  0.82668531920E+02 -0.58614287048E+03  0.59425825740E+03  0.47000000000E+01 0. -1.
         -5    1    3    3    0  501  0.28659502140E+01  0.76630618125E+01  0.41690723605E+01  0.10315393900E+02  0.47000000000E+01 0. -1.
          1    1    1    2  502    0 -0.13986074200E+01 -0.33513955268E+02 -0.34296189548E+03  0.34459832132E+03  0.00000000000E+00 0. -1.
          1    1    1    2  503    0 -0.74828727559E+02  0.88726490747E+02  0.10506469402E+04  0.10570386566E+04  0.00000000000E+00 0. -1.
<mgrwt>
<rscale>  0 0.62371746E+02</rscale>
<asrwt>0</asrwt>
<pdfrwt beam="1">  1        2 0.18342717E+00 0.11597711E+03</pdfrwt>
<pdfrwt beam="2">  1        2 0.17863460E+00 0.33543126E+02</pdfrwt>
<totfact> 0.79656866E+01</totfact>
</mgrwt>
</event>
<event>
13    1  0.2742815E-008  0.1282177E+03  0.7546771E-02  0.1250007E+00
          2   -1    0    0  503    0  0.00000000000E+00  0.00000000000E+00  0.72226562953E+03  0.72226562953E+03  0.00000000000E+00 0. -1.
          2   -1    0    0  502    0 -0.00000000000E+00 -0.00000000000E+00 -0.14948535110E+04  0.14948535110E+04  0.00000000000E+00 0. -1.
         25    2    1    2    0    0 -0.10867070650E+03  0.20881764232E+03 -0.29403915331E+03  0.39686311071E+03  0.12500869877E+03 0.  0.
         24    2    1    2    0    0  0.16621205829E+02 -0.33936755560E+03 -0.78140078429E+02  0.35770791825E+03  0.80015502494E+02 0.  0.
         24    2    1    2    0    0  0.75620537341E+02 -0.34568178817E+02 -0.23181063975E+01  0.11579861205E+03  0.80563765314E+02 0.  0.
        -11    1    4    4    0    0 -0.14423180821E+02 -0.41017005230E+02  0.10873074975E+02  0.44817927467E+02  0.00000000000E+00 0.  1.
         12    1    4    4    0    0  0.31044386650E+02 -0.29835055037E+03 -0.89013153404E+02  0.31288999078E+03  0.00000000000E+00 0. -1.
        -13    1    5    5    0    0  0.42057504681E+02 -0.50414652672E+02  0.24426426965E+02  0.70050847520E+02  0.00000000000E+00 0.  1.
         14    1    5    5    0    0  0.33563032660E+02  0.15846473855E+02 -0.26744533362E+02  0.45747764533E+02  0.00000000000E+00 0. -1.
          5    1    3    3  501    0 -0.85693229843E+02  0.17336642658E+03 -0.14465773741E+03  0.24155164768E+03  0.47000000000E+01 0.  1.
         -5    1    3    3    0  501 -0.22977476655E+02  0.35451215744E+02 -0.14938141591E+03  0.15531146303E+03  0.47000000000E+01 0.  1.
          1    1    1    2  502    0  0.89895910409E+02  0.90413273329E+02 -0.86188640020E+03  0.87126574680E+03  0.00000000000E+00 0. -1.
          1    1    1    2  503    0 -0.73466947081E+02  0.74704818772E+02  0.46379585687E+03  0.47548375273E+03  0.00000000000E+00 0. -1.
<mgrwt>
<rscale>  0 0.11590625E+03</rscale>
<asrwt>0</asrwt>
<pdfrwt beam="1">  1        2 0.10621553E+00 0.10477692E+03</pdfrwt>
<pdfrwt beam="2">  1        2 0.21983140E+00 0.12821774E+03</pdfrwt>
<totfact> 0.10802062E+02</totfact>
</mgrwt>
</event>
<event>
13    1  0.2742815E-008  0.1397249E+03  0.7546771E-02  0.1417089E+00
          2   -1    0    0  503    0  0.00000000000E+00  0.00000000000E+00  0.53837860994E+04  0.53837860994E+04  0.00000000000E+00 0. -1.
          2   -1    0    0  502    0 -0.00000000000E+00 -0.00000000000E+00 -0.24926719977E+04  0.24926719977E+04  0.00000000000E+00 0. -1.
         25    2    1    2    0    0 -0.14780371325E+03  0.16180088468E+03 -0.18909081219E+04  0.19076651831E+04  0.12500984503E+03 0.  0.
         24    2    1    2    0    0  0.45794583592E+02 -0.10376182213E+02 -0.33893504100E+02  0.98309294790E+02  0.79442676052E+02 0.  0.
         24    2    1    2    0    0 -0.48591153441E+01 -0.56798111749E+02  0.28171103429E+03  0.29822807205E+03  0.79556518366E+02 0.  0.
        -11    1    5    5    0    0  0.74775196130E+01  0.14727702155E+02  0.11797705604E+03  0.11912768050E+03  0.00000000000E+00 0.  1.
         12    1    5    5    0    0 -0.12336634957E+02 -0.71525813904E+02  0.16373397825E+03  0.17910039154E+03  0.00000000000E+00 0. -1.
        -11    1    4    4    0    0 -0.91086782117E+01  0.59391559306E+01 -0.39301821293E+02  0.40778361283E+02  0.00000000000E+00 0.  1.
         12    1    4    4    0    0  0.54903261803E+02 -0.16315338144E+02  0.54083171934E+01  0.57530933508E+02  0.00000000000E+00 0. -1.
          5    1    3    3  501    0 -0.25981049010E+02  0.11430831013E+03 -0.72378262098E+03  0.73322900727E+03  0.47000000000E+01 0.  1.
         -5    1    3    3    0  501 -0.12182266424E+03  0.47492574545E+02 -0.11671255009E+04  0.11744361758E+04  0.47000000000E+01 0.  1.
          1    1    1    2  502    0  0.26765874998E+01  0.21995464695E+02 -0.51757838451E+03  0.51805245748E+03  0.00000000000E+00 0. -1.
          1    1    1    2  503    0  0.10419165750E+03 -0.11662205541E+03  0.50517830779E+04  0.50542030897E+04  0.00000000000E+00 0. -1.
<mgrwt>
<rscale>  0 0.55641580E+02</rscale>
<asrwt>0</asrwt>
<pdfrwt beam="1">  1        2 0.79173325E+00 0.13972490E+03</pdfrwt>
<pdfrwt beam="2">  1        2 0.36656941E+00 0.22157721E+02</pdfrwt>
<totfact> 0.40787507E-02</totfact>
</mgrwt>
</event>
<event>
13    1  0.2742815E-008  0.4455167E+02  0.7546771E-02  0.1495003E+00
          2   -1    0    0  503    0  0.00000000000E+00  0.00000000000E+00  0.30770848398E+03  0.30770848398E+03  0.00000000000E+00 0. -1.
          2   -1    0    0  502    0 -0.00000000000E+00 -0.00000000000E+00 -0.76555679251E+03  0.76555679251E+03  0.00000000000E+00 0. -1.
         25    2    1    2    0    0  0.41552767941E+02  0.20956827021E+03 -0.35693653073E+03  0.43437235451E+03  0.12502065026E+03 0.  0.
         24    2    1    2    0    0 -0.79794777716E+02 -0.15909082530E+03 -0.26726514079E+02  0.19747298773E+03  0.81266088138E+02 0.  0.
         24    2    1    2    0    0 -0.18128747909E+02  0.91037250429E+01 -0.19285917326E+02  0.85558458071E+02  0.80850317439E+02 0.  0.
        -11    1    5    5    0    0  0.14986746685E+01 -0.17149873933E+02  0.25065739504E+02  0.30408148555E+02  0.00000000000E+00 0.  1.
         12    1    5    5    0    0 -0.19627422578E+02  0.26253598976E+02 -0.44351656830E+02  0.55150309516E+02  0.00000000000E+00 0. -1.
        -13    1    4    4    0    0  0.48170535523E+01 -0.29288739450E+02 -0.30396680074E+02  0.42485202401E+02  0.00000000000E+00 0.  1.
         14    1    4    4    0    0 -0.84611831269E+02 -0.12980208585E+03  0.36701659950E+01  0.15498778532E+03  0.00000000000E+00 0. -1.
          5    1    3    3  501    0  0.37586637202E+02  0.35868312248E+02 -0.17562235707E+03  0.18320642299E+03  0.47000000000E+01 0.  1.
         -5    1    3    3    0  501  0.39661307392E+01  0.17369995797E+03 -0.18131417366E+03  0.25116593153E+03  0.47000000000E+01 0.  1.
          1    1    1    2  502    0  0.24513000160E+02 -0.36538759120E+02 -0.20038391384E+03  0.20515769793E+03  0.00000000000E+00 0. -1.
          1    1    1    2  503    0  0.31857757524E+02 -0.23042410837E+02  0.14548456744E+03  0.15070377824E+03  0.00000000000E+00 0. -1.
<mgrwt>
<rscale>  0 0.41852864E+02</rscale>
<asrwt>0</asrwt>
<pdfrwt beam="1">  1        2 0.45251248E-01 0.39317546E+02</pdfrwt>
<pdfrwt beam="2">  1        2 0.11258188E+00 0.44551667E+02</pdfrwt>
<totfact> 0.71829442E+02</totfact>
</mgrwt>
</event>
<event>
13    1  0.2742815E-008  0.1006068E+03  0.7546771E-02  0.1377233E+00
          2   -1    0    0  502    0  0.00000000000E+00  0.00000000000E+00  0.25686709344E+03  0.25686709344E+03  0.00000000000E+00 0. -1.
          4   -1    0    0  503    0 -0.00000000000E+00 -0.00000000000E+00 -0.55739689000E+03  0.55739689000E+03  0.00000000000E+00 0. -1.
         25    2    1    2    0    0  0.54956029255E+02  0.37478795814E+02 -0.10287994823E+03  0.17502580826E+03  0.12499969809E+03 0.  0.
         24    2    1    2    0    0 -0.86856355493E+02  0.61484496446E+01 -0.20905464643E+02  0.12194910188E+03  0.82781127521E+02 0.  0.
         24    2    1    2    0    0  0.44659156364E+02  0.54599313871E+02  0.51592550441E+01  0.10686172019E+03  0.80107952208E+02 0.  0.
        -11    1    4    4    0    0  0.96482596744E+01  0.11747054305E+02  0.12491886494E+02  0.19675604889E+02  0.00000000000E+00 0.  1.
         12    1    4    4    0    0 -0.96504615168E+02 -0.55986046601E+01 -0.33397351137E+02  0.10227349699E+03  0.00000000000E+00 0. -1.
        -13    1    5    5    0    0  0.62594776272E+02  0.29194687815E+02 -0.13809222545E+02  0.70435292577E+02  0.00000000000E+00 0.  1.
         14    1    5    5    0    0 -0.17935619908E+02  0.25404626056E+02  0.18968477589E+02  0.36426427612E+02  0.00000000000E+00 0. -1.
          5    1    3    3  501    0  0.25083225075E+02  0.75383472289E+02 -0.98067651989E+02  0.12629802232E+03  0.47000000000E+01 0.  1.
         -5    1    3    3    0  501  0.29872804180E+02 -0.37904676475E+02 -0.48122962426E+01  0.48727785948E+02  0.47000000000E+01 0.  1.
          1    1    1    2  502    0  0.29475244279E+02 -0.97075451831E+02  0.89783260712E+02  0.13547496919E+03  0.00000000000E+00 0. -1.
          3    1    1    2  503    0 -0.42234074404E+02 -0.11511074984E+01 -0.27168689945E+03  0.27495238391E+03  0.00000000000E+00 0. -1.
<mgrwt>
<rscale>  0 0.65196720E+02</rscale>
<asrwt>0</asrwt>
<pdfrwt beam="1">  1        2 0.37774572E-01 0.10060678E+03</pdfrwt>
<pdfrwt beam="2">  1        4 0.81970131E-01 0.42249758E+02</pdfrwt>
<totfact> 0.86439044E+01</totfact>
</mgrwt>
</event>
<event>
13    1  0.2742815E-008  0.2526196E+03  0.7546771E-02  0.1376193E+00
          2   -1    0    0  503    0  0.00000000000E+00  0.00000000000E+00  0.12322859292E+04  0.12322859292E+04  0.00000000000E+00 0. -1.
         -1   -1    0    0    0  501 -0.00000000000E+00 -0.00000000000E+00 -0.76335982043E+03  0.76335982043E+03  0.00000000000E+00 0.  1.
         25    2    1    2    0    0  0.33620479930E+03  0.18348601288E+03  0.47033109474E+03  0.61930373914E+03  0.12499999454E+03 0.  0.
         24    2    1    2    0    0 -0.71819660556E+01 -0.89526273193E+02  0.12552972810E+03  0.17393955946E+03  0.80191791853E+02 0.  0.
         24    2    1    2    0    0 -0.94309569082E+02 -0.89194082954E+02  0.26075995388E+03  0.30204719185E+03  0.79917916014E+02 0.  0.
        -11    1    4    4    0    0 -0.41552538358E+02 -0.54654232010E+02  0.91139852244E+02  0.11410596473E+03  0.00000000000E+00 0.  1.
         12    1    4    4    0    0  0.34370572303E+02 -0.34872041183E+02  0.34389875854E+02  0.59833594727E+02  0.00000000000E+00 0. -1.
        -13    1    5    5    0    0 -0.17278135421E+02  0.66495034798E+01  0.88422013393E+02  0.90339372993E+02  0.00000000000E+00 0.  1.
         14    1    5    5    0    0 -0.77031433662E+02 -0.95843586434E+02  0.17233794049E+03  0.21170781885E+03  0.00000000000E+00 0. -1.
          5    1    3    3  502    0  0.33494163181E+03  0.14653187973E+03  0.42635662495E+03  0.56165785860E+03  0.47000000000E+01 0. -1.
         -5    1    3    3    0  502  0.12631674953E+01  0.36954133152E+02  0.43974469795E+02  0.57645880537E+02  0.47000000000E+01 0. -1.
          1    1    1    2  503    0  0.14189725178E+02 -0.93080279204E+01  0.23195169134E+03  0.23257165520E+03  0.00000000000E+00 0. -1.
         -2    1    1    2    0  501 -0.24890298934E+03  0.45423711866E+01 -0.61964635926E+03  0.66778360401E+03  0.00000000000E+00 0.  1.
<mgrwt>
<rscale>  0 0.65475230E+02</rscale>
<asrwt>0</asrwt>
<pdfrwt beam="1">  1        2 0.18121852E+00 0.16970200E+02</pdfrwt>
<pdfrwt beam="2">  1       -1 0.11225880E+00 0.25261964E+03</pdfrwt>
<totfact> 0.22128417E+01</totfact>
</mgrwt>
</event>
<event>
13    1  0.2742815E-008  0.1288476E+03  0.7546771E-02  0.1314254E+00
          2   -1    0    0  502    0  0.00000000000E+00  0.00000000000E+00  0.15264689735E+04  0.15264689735E+04  0.00000000000E+00 0. -1.
          2   -1    0    0  503    0 -0.00000000000E+00 -0.00000000000E+00 -0.32829083918E+04  0.32829083918E+04  0.00000000000E+00 0. -1.
         25    2    1    2    0    0  0.27315127674E+03  0.19992521578E+03 -0.79164578038E+03  0.87000561747E+03  0.12500008379E+03 0.  0.
         24    2    1    2    0    0  0.45466785956E+02 -0.51590298026E+03 -0.43931100578E+03  0.68397899881E+03  0.81301890195E+02 0.  0.
         24    2    1    2    0    0 -0.38644174621E+03  0.48355721802E+03 -0.35512637572E+03  0.71888184902E+03  0.86669278327E+02 0.  0.
        -11    1    4    4    0    0  0.27337323183E+02 -0.10801906317E+03 -0.13333979259E+03  0.17376693452E+03  0.00000000000E+00 0.  1.
         12    1    4    4    0    0  0.18129462773E+02 -0.40788391709E+03 -0.30597121320E+03  0.51021206429E+03  0.00000000000E+00 0. -1.
        -11    1    5    5    0    0 -0.21509294896E+03  0.26456353633E+03 -0.14578330714E+03  0.37082558445E+03  0.00000000000E+00 0.  1.
         12    1    5    5    0    0 -0.17134879726E+03  0.21899368169E+03 -0.20934306858E+03  0.34805626456E+03  0.00000000000E+00 0. -1.
          5    1    3    3  501    0  0.29919661376E+02  0.85912398775E+02 -0.23087870858E+03  0.24819990829E+03  0.47000000000E+01 0. -1.
         -5    1    3    3    0  501  0.24323161536E+03  0.11401281701E+03 -0.56076707181E+03  0.62180570919E+03  0.47000000000E+01 0. -1.
          1    1    1    2  502    0  0.36993964231E+02 -0.42932831221E+02  0.11793498962E+04  0.11807107856E+04  0.00000000000E+00 0. -1.
          1    1    1    2  503    0  0.30829719288E+02 -0.12464662232E+03 -0.13497061526E+04  0.13558001144E+04  0.00000000000E+00 0. -1.
<mgrwt>
<rscale>  0 0.85452467E+02</rscale>
<asrwt>0</asrwt>
<pdfrwt beam="1">  1        2 0.22448073E+00 0.56672581E+02</pdfrwt>
<pdfrwt beam="2">  1        2 0.48278064E+00 0.12884757E+03</pdfrwt>
<totfact> 0.49234622E+00</totfact>
</mgrwt>
</event>
<event>
13    1  0.2742815E-008  0.7608305E+02  0.7546771E-02  0.1463061E+00
          2   -1    0    0  502    0  0.00000000000E+00  0.00000000000E+00  0.31205016145E+04  0.31205016145E+04  0.00000000000E+00 0. -1.
          2   -1    0    0  503    0 -0.00000000000E+00 -0.00000000000E+00 -0.98246718770E+03  0.98246718770E+03  0.00000000000E+00 0. -1.
         25    2    1    2    0    0 -0.38730443205E+02  0.18540733040E+03  0.66071818574E+02  0.23636106729E+03  0.12500057409E+03 0.  0.
         24    2    1    2    0    0 -0.56342790166E+02 -0.90945533431E+02  0.48026282408E+03  0.49853437674E+03  0.80240541772E+02 0.  0.
         24    2    1    2    0    0  0.81132972628E+02  0.91706608327E+01  0.75752276218E+03  0.76615480877E+03  0.80534436847E+02 0.  0.
        -11    1    5    5    0    0  0.20641913827E+02 -0.10051122886E+02  0.51348337097E+03  0.51399638709E+03  0.00000000000E+00 0.  1.
         12    1    5    5    0    0  0.60491058802E+02  0.19221783718E+02  0.24403939121E+03  0.25215842168E+03  0.00000000000E+00 0. -1.
        -11    1    4    4    0    0 -0.18322116163E+02 -0.89219837834E+02  0.27263108164E+03  0.28744318757E+03  0.00000000000E+00 0.  1.
         12    1    4    4    0    0 -0.38020674003E+02 -0.17256955972E+01  0.20763174245E+03  0.21109118918E+03  0.00000000000E+00 0. -1.
          5    1    3    3  501    0  0.36061469876E+02  0.51561874873E+02 -0.12019486553E+02  0.64230947424E+02  0.47000000000E+01 0.  1.
         -5    1    3    3    0  501 -0.74791913081E+02  0.13384545553E+03  0.78091305127E+02  0.17213011987E+03  0.47000000000E+01 0.  1.
          1    1    1    2  502    0  0.12463606903E+02 -0.74810528631E+02  0.17169748787E+04  0.17186490889E+04  0.00000000000E+00 0. -1.
          1    1    1    2  503    0  0.14766538400E+01 -0.28821929175E+02 -0.88279785670E+03  0.88326946053E+03  0.00000000000E+00 0. -1.
<mgrwt>
<rscale>  0 0.46858685E+02</rscale>
<asrwt>0</asrwt>
<pdfrwt beam="1">  1        2 0.45889729E+00 0.76083049E+02</pdfrwt>
<pdfrwt beam="2">  1        2 0.14448047E+00 0.28859732E+02</pdfrwt>
<totfact> 0.12952934E+01</totfact>
</mgrwt>
</event>
<event>
13    1  0.2742815E-008  0.1753676E+03  0.7546771E-02  0.1182109E+00
          2   -1    0    0  503    0  0.00000000000E+00  0.00000000000E+00  0.17383093029E+04  0.17383093029E+04  0.00000000000E+00 0. -1.
          2   -1    0    0  502    0 -0.00000000000E+00 -0.00000000000E+00 -0.17136908372E+04  0.17136908372E+04  0.00000000000E+00 0. -1.
         25    2    1    2    0    0  0.11649703711E+03 -0.11341577731E+02 -0.23612976768E+03  0.29169054341E+03  0.12500365950E+03 0.  0.
         24    2    1    2    0    0  0.88468733838E+02  0.32856148767E+01  0.85027906877E+01  0.11808344386E+03  0.77678118750E+02 0.  0.
         24    2    1    2    0    0 -0.43721667622E+02 -0.26601419474E+02  0.37489284402E+03  0.38715525046E+03  0.82008071096E+02 0.  0.
        -13    1    4    4    0    0  0.99265403930E+02 -0.34031036612E+01 -0.51237432318E+01  0.99455790563E+02  0.00000000000E+00 0.  1.
         14    1    4    4    0    0 -0.10796670091E+02  0.66887185379E+01  0.13626533919E+02  0.18627653298E+02  0.00000000000E+00 0. -1.
        -13    1    5    5    0    0 -0.43354837932E+02 -0.53790682675E+02  0.28397392069E+03  0.29225719349E+03  0.00000000000E+00 0.  1.
         14    1    5    5    0    0 -0.36682968964E+00  0.27189263201E+02  0.90918923331E+02  0.94898056972E+02  0.00000000000E+00 0. -1.
          5    1    3    3  501    0  0.18667035172E+02 -0.86972640660E+01 -0.17486167236E+03  0.17613289036E+03  0.47000000000E+01 0.  1.
         -5    1    3    3    0  501  0.97830001940E+02 -0.26443136651E+01 -0.61268095314E+02  0.11555765305E+03  0.47000000000E+01 0.  1.
          1    1    1    2  502    0  0.12614267228E+03 -0.80117857343E+02 -0.13658151218E+04  0.13739657171E+04  0.00000000000E+00 0. -1.
          1    1    1    2  503    0 -0.28738677561E+03  0.11477523967E+03  0.12431677205E+04  0.12811051853E+04  0.00000000000E+00 0. -1.
<mgrwt>
<rscale>  0 0.16597706E+03</rscale>
<asrwt>0</asrwt>
<pdfrwt beam="1">  1        2 0.25563372E+00 0.17536756E+03</pdfrwt>
<pdfrwt beam="2">  1        2 0.25201336E+00 0.15708940E+03</pdfrwt>
<totfact> 0.21988685E+01</totfact>
</mgrwt>
</event>
<event>
13    1  0.2742815E-008  0.1593877E+03  0.7546771E-02  0.1333831E+00
          2   -1    0    0  503    0  0.00000000000E+00  0.00000000000E+00  0.81256195547E+03  0.81256195547E+03  0.00000000000E+00 0. -1.
          2   -1    0    0  502    0 -0.00000000000E+00 -0.00000000000E+00 -0.24387191332E+04  0.24387191332E+04  0.00000000000E+00 0. -1.
         25    2    1    2    0    0 -0.63529276605E+00  0.29056830600E+02 -0.10447018289E+04  0.10525568467E+04  0.12501720401E+03 0.  0.
         24    2    1    2    0    0  0.13406508968E+03 -0.18328052584E+03 -0.74921170791E+03  0.78501901817E+03  0.58064414210E+02 0.  0.
         24    2    1    2    0    0  0.73515346765E+02 -0.43063666514E+02  0.58858362006E+02  0.13117521012E+03  0.80521074183E+02 0.  0.
        -11    1    5    5    0    0  0.66185726463E+02 -0.45658932034E+02  0.92226974801E+01  0.80934211621E+02  0.00000000000E+00 0.  1.
         12    1    5    5    0    0  0.73296203015E+01  0.25952655200E+01  0.49635664526E+02  0.50240998496E+02  0.00000000000E+00 0. -1.
        -13    1    4    4    0    0  0.91190835597E+02 -0.10915735994E+03 -0.55177369978E+03  0.56981164739E+03  0.00000000000E+00 0.  1.
         14    1    4    4    0    0  0.42874254082E+02 -0.74123165906E+02 -0.19743800813E+03  0.21520737079E+03  0.00000000000E+00 0. -1.
          5    1    3    3  501    0 -0.62524076624E+02  0.17504504669E+02 -0.55309944390E+03  0.55691718656E+03  0.47000000000E+01 0. -1.
         -5    1    3    3    0  501  0.61888783858E+02  0.11552325931E+02 -0.49160238500E+03  0.49563966018E+03  0.47000000000E+01 0. -1.
          1    1    1    2  502    0  0.32610516270E+02  0.20472144946E+02 -0.55426153959E+03  0.55559734409E+03  0.00000000000E+00 0. -1.
          1    1    1    2  503    0 -0.23955565995E+03  0.17681521681E+03  0.66315953663E+03  0.72693266960E+03  0.00000000000E+00 0. -1.
<mgrwt>
<rscale>  0 0.78339365E+02</rscale>
<asrwt>0</asrwt>
<pdfrwt beam="1">  1        2 0.11949441E+00 0.15938768E+03</pdfrwt>
<pdfrwt beam="2">  1        2 0.35863516E+00 0.38503954E+02</pdfrwt>
<totfact> 0.37281929E+01</totfact>
</mgrwt>
</event>
<event>
13    1  0.2742815E-008  0.3110592E+03  0.7546771E-02  0.1266385E+00
          2   -1    0    0  503    0  0.00000000000E+00  0.00000000000E+00  0.13022507337E+04  0.13022507337E+04  0.00000000000E+00 0. -1.
          2   -1    0    0  502    0 -0.00000000000E+00 -0.00000000000E+00 -0.10001304997E+04  0.10001304997E+04  0.00000000000E+00 0. -1.
         25    2    1    2    0    0 -0.29021300307E+02  0.11190906978E+03 -0.35225496798E+03  0.39125746565E+03  0.12503186070E+03 0.  0.
         24    2    1    2    0    0  0.30447610493E+02  0.46294166749E+01 -0.16537346980E+02  0.88696441303E+02  0.81517399193E+02 0.  0.
         24    2    1    2    0    0  0.19565109539E+03  0.10017179463E+03 -0.33246071647E+02  0.23090031516E+03  0.62417262787E+02 0.  0.
        -11    1    5    5    0    0  0.14817423844E+03  0.10343426203E+03 -0.30230116581E+02  0.18321602399E+03  0.00000000000E+00 0.  1.
         12    1    5    5    0    0  0.47476856952E+02 -0.32624673942E+01 -0.30159550666E+01  0.47684291171E+02  0.00000000000E+00 0. -1.
        -13    1    4    4    0    0  0.53317956693E+02  0.14684788346E+02 -0.27082951330E+02  0.61578679488E+02  0.00000000000E+00 0.  1.
         14    1    4    4    0    0 -0.22870346200E+02 -0.10055371671E+02  0.10545604350E+02  0.27117761815E+02  0.00000000000E+00 0. -1.
          5    1    3    3  501    0  0.18289241542E+02  0.48304700468E+02 -0.31195815856E+02  0.60523626547E+02  0.47000000000E+01 0.  1.
         -5    1    3    3    0  501 -0.47310541850E+02  0.63604369317E+02 -0.32105915213E+03  0.33073383911E+03  0.47000000000E+01 0.  1.
          1    1    1    2  502    0  0.25032794163E+02  0.26906307755E+02 -0.41919275566E+03  0.42080061381E+03  0.00000000000E+00 0. -1.
          1    1    1    2  503    0 -0.22211019974E+03 -0.24361658885E+03  0.11233513763E+04  0.11707263975E+04  0.00000000000E+00 0. -1.
<mgrwt>
<rscale>  0 0.10691839E+03</rscale>
<asrwt>0</asrwt>
<pdfrwt beam="1">  1        2 0.19150746E+00 0.31105919E+03</pdfrwt>
<pdfrwt beam="2">  1        2 0.14707801E+00 0.36750377E+02</pdfrwt>
<totfact> 0.90115789E+01</totfact>
</mgrwt>
</event>
<event>
13    1  0.2742815E-008  0.6927525E+02  0.7546771E-02  0.1570578E+00
          2   -1    0    0  503    0  0.00000000000E+00  0.00000000000E+00  0.25588176855E+04  0.25588176855E+04  0.00000000000E+00 0. -1.
         -1   -1    0    0    0  501 -0.00000000000E+00 -0.00000000000E+00 -0.24168735698E+04  0.24168735698E+04  0.00000000000E+00 0.  1.
         25    2    1    2    0    0  0.25503854071E+03  0.18843100991E+02 -0.17472348519E+03  0.33399583249E+03  0.12500080055E+03 0.  0.
         24    2    1    2    0    0 -0.23416541771E+03 -0.69387379216E+03  0.19552367905E+03  0.76224629468E+03  0.80595424078E+02 0.  0.
         24    2    1    2    0    0 -0.67803649960E+02  0.64561356138E+03  0.14225812070E+03  0.66961849264E+03  0.82081344978E+02 0.  0.
        -11    1    5    5    0    0 -0.51353394757E+02  0.15202237565E+03  0.33661348239E+02  0.16395444556E+03  0.00000000000E+00 0.  1.
         12    1    5    5    0    0 -0.16450255203E+02  0.49359118572E+03  0.10859677247E+03  0.50566404708E+03  0.00000000000E+00 0. -1.
        -13    1    4    4    0    0 -0.12859013107E+03 -0.28158714741E+03  0.10714545462E+03  0.32757730666E+03  0.00000000000E+00 0.  1.
         14    1    4    4    0    0 -0.10557528664E+03 -0.41228664476E+03  0.88378224436E+02  0.43466898802E+03  0.00000000000E+00 0. -1.
          5    1    3    3  502    0  0.17515021936E+03  0.18852948250E+02 -0.18237363629E+03  0.25360454691E+03  0.47000000000E+01 0.  1.
         -5    1    3    3    0  502  0.79888321351E+02 -0.98472588223E-02  0.76501510932E+01  0.80391285578E+02  0.47000000000E+01 0.  1.
          1    1    1    2  503    0  0.62284157163E+02  0.30357729351E+02  0.15935687701E+04  0.15950743973E+04  0.00000000000E+00 0. -1.
         -2    1    1    2    0  501 -0.15353630205E+02 -0.94059955370E+00 -0.16146829689E+04  0.16147562382E+04  0.00000000000E+00 0.  1.
<mgrwt>
<rscale>  0 0.32643844E+02</rscale>
<asrwt>0</asrwt>
<pdfrwt beam="1">  1        2 0.37629672E+00 0.69275246E+02</pdfrwt>
<pdfrwt beam="2">  1       -1 0.35542258E+00 0.15382415E+02</pdfrwt>
<totfact> 0.15980060E-01</totfact>
</mgrwt>
</event>
<event>
13    1  0.2742815E-008  0.1075973E+03  0.7546771E-02  0.1350192E+00
          2   -1    0    0  502    0  0.00000000000E+00  0.00000000000E+00  0.19246510256E+04  0.19246510256E+04  0.00000000000E+00 0. -1.
          2   -1    0    0  503    0 -0.00000000000E+00 -0.00000000000E+00 -0.29159810167E+04  0.29159810167E+04  0.00000000000E+00 0. -1.
         25    2    1    2    0    0  0.13860302871E+03  0.33241713829E+03 -0.72656942626E+03  0.82051179357E+03  0.12499807527E+03 0.  0.
         24    2    1    2    0    0 -0.14241611517E+03 -0.29976033181E+03 -0.30784465699E+03  0.45862517860E+03  0.73689315555E+02 0.  0.
         24    2    1    2    0    0 -0.59047674576E+02 -0.51725041017E+02  0.25937569648E+03  0.28245452755E+03  0.79641072739E+02 0.  0.
        -13    1    4    4    0    0 -0.29639696546E+02 -0.85198044610E+02 -0.44091202180E+02  0.10040544072E+03  0.00000000000E+00 0.  1.
         14    1    4    4    0    0 -0.11277641862E+03 -0.21456228720E+03 -0.26375345481E+03  0.35821973788E+03  0.00000000000E+00 0. -1.
        -13    1    5    5    0    0 -0.64617913367E+02 -0.84176276031E+01  0.18582418973E+03  0.19691866512E+03  0.00000000000E+00 0.  1.
         14    1    5    5    0    0  0.55702387907E+01 -0.43307413414E+02  0.73551506748E+02  0.85535862431E+02  0.00000000000E+00 0. -1.
          5    1    3    3  501    0  0.10472190978E+03  0.11844725749E+03 -0.23465219174E+03  0.28298440290E+03  0.47000000000E+01 0. -1.
         -5    1    3    3    0  501  0.33881118933E+02  0.21396988080E+03 -0.49191723451E+03  0.53752739067E+03  0.47000000000E+01 0. -1.
          1    1    1    2  502    0  0.10765070678E+03 -0.20566903051E+01  0.15291302783E+04  0.15329162771E+04  0.00000000000E+00 0. -1.
          1    1    1    2  503    0 -0.44789945751E+02  0.21124924843E+02 -0.17454218827E+04  0.17461242654E+04  0.00000000000E+00 0. -1.
<mgrwt>
<rscale>  0 0.72995908E+02</rscale>
<asrwt>0</asrwt>
<pdfrwt beam="1">  1        2 0.28303692E+00 0.10759726E+03</pdfrwt>
<pdfrwt beam="2">  1        2 0.42882073E+00 0.49521729E+02</pdfrwt>
<totfact> 0.55138060E+00</totfact>
</mgrwt>
</event>
<event>
13    1  0.2742815E-008  0.1017917E+03  0.7546771E-02  0.1337716E+00
          2   -1    0    0  503    0  0.00000000000E+00  0.00000000000E+00  0.17389865974E+04  0.17389865974E+04  0.00000000000E+00 0. -1.
          2   -1    0    0  502    0 -0.00000000000E+00 -0.00000000000E+00 -0.33033388277E+04  0.33033388277E+04  0.00000000000E+00 0. -1.
         25    2    1    2    0    0 -0.83158259359E+02  0.10041691444E+03 -0.17301669394E+04  0.17395696181E+04  0.12500386005E+03 0.  0.
         24    2    1    2    0    0  0.30759258157E+03 -0.34230925517E+02 -0.24582677986E+03  0.40314945008E+03  0.79458925904E+02 0.  0.
         24    2    1    2    0    0 -0.74179460617E+02 -0.55505559367E+02  0.18911503769E+03  0.22629358679E+03  0.82830130042E+02 0.  0.
        -11    1    4    4    0    0  0.26771254299E+03 -0.56615702479E+02 -0.21503911455E+03  0.34801891361E+03  0.00000000000E+00 0.  1.
         12    1    4    4    0    0  0.39880038583E+02  0.22384776962E+02 -0.30787665310E+02  0.55130536477E+02  0.00000000000E+00 0. -1.
        -11    1    5    5    0    0 -0.10286563748E+00  0.19040451848E+02  0.33055592643E+02  0.38147366788E+02  0.00000000000E+00 0.  1.
         12    1    5    5    0    0 -0.74076594979E+02 -0.74546011215E+02  0.15605944505E+03  0.18814622000E+03  0.00000000000E+00 0. -1.
          5    1    3    3  501    0  0.15459210893E+02  0.15512120652E+02 -0.55524511444E+02  0.59872150953E+02  0.47000000000E+01 0. -1.
         -5    1    3    3    0  501 -0.98617470252E+02  0.84904793785E+02 -0.16746424280E+04  0.16796974671E+04  0.47000000000E+01 0. -1.
          1    1    1    2  502    0 -0.53927613001E+02  0.22105584094E+02 -0.12229105646E+04  0.12242986128E+04  0.00000000000E+00 0. -1.
          1    1    1    2  503    0 -0.96327248597E+02 -0.32786013647E+02  0.14454370159E+04  0.14490141574E+04  0.00000000000E+00 0. -1.
<mgrwt>
<rscale>  0 0.77023831E+02</rscale>
<asrwt>0</asrwt>
<pdfrwt beam="1">  1        2 0.25573333E+00 0.10179171E+03</pdfrwt>
<pdfrwt beam="2">  1        2 0.48578511E+00 0.58282453E+02</pdfrwt>
<totfact> 0.41304666E+00</totfact>
</mgrwt>
</event>
<event>
13    1  0.2742815E-008  0.9371793E+02  0.7546771E-02  0.1305317E+00
         -1   -1    0    0    0  501 -0.00000000000E+00  0.00000000000E+00  0.16105912981E+04  0.16105912981E+04  0.00000000000E+00 0.  1.
          2   -1    0    0  503    0  0.00000000000E+00 -0.00000000000E+00 -0.27162778535E+04  0.27162778535E+04  0.00000000000E+00 0. -1.
         25    2    1    2    0    0 -0.23688627082E+03 -0.12402600432E+03 -0.17492842192E+03  0.34310652964E+03  0.12499833133E+03 0.  0.
         24    2    1    2    0    0  0.57314952701E+03 -0.85950016415E+02 -0.69720405958E+02  0.58917634747E+03  0.79875201273E+02 0.  0.
         24    2    1    2    0    0 -0.26712584782E+03  0.37384234089E+03 -0.57457750153E+03  0.73869073853E+03  0.66410748398E+02 0.  0.
        -13    1    5    5    0    0 -0.57655581772E+02  0.40159772723E+02 -0.87435596214E+02  0.11216932263E+03  0.00000000000E+00 0.  1.
         14    1    5    5    0    0 -0.20947026604E+03  0.33368256817E+03 -0.48714190532E+03  0.62652141589E+03  0.00000000000E+00 0. -1.
        -13    1    4    4    0    0  0.23319054742E+03 -0.51289700051E+02  0.73269403992E+01  0.23887684859E+03  0.00000000000E+00 0.  1.
         14    1    4    4    0    0  0.33995897959E+03 -0.34660316364E+02 -0.77047346357E+02  0.35029949888E+03  0.00000000000E+00 0. -1.
          5    1    3    3  502    0 -0.16721601085E+03 -0.11943575274E+03 -0.17962292294E+03  0.27296992099E+03  0.47000000000E+01 0.  1.
         -5    1    3    3    0  502 -0.69670259968E+02 -0.45902515779E+01  0.46945010208E+01  0.70136608653E+02  0.47000000000E+01 0.  1.
          1    1    1    2  503    0 -0.37039491004E+02 -0.75949241013E+02 -0.14681126300E+04  0.14705423848E+04  0.00000000000E+00 0. -1.
         -2    1    1    2    0  501 -0.32097917369E+02 -0.87917079142E+02  0.11816524040E+04  0.11853531511E+04  0.00000000000E+00 0.  1.
<mgrwt>
<rscale>  0 0.88989569E+02</rscale>
<asrwt>0</asrwt>
<pdfrwt beam="2">  1        2 0.39945262E+00 0.84499770E+02</pdfrwt>
<pdfrwt beam="1">  1       -1 0.23685166E+00 0.93717929E+02</pdfrwt>
<totfact> 0.51375108E-01</totfact>
</mgrwt>
</event>
<event>
13    1  0.2742815E-008  0.5633560E+02  0.7546771E-02  0.1439835E+00
          2   -1    0    0  503    0  0.00000000000E+00  0.00000000000E+00  0.17803747250E+04  0.17803747250E+04  0.00000000000E+00 0. -1.
          2   -1    0    0  502    0 -0.00000000000E+00 -0.00000000000E+00 -0.38940410582E+03  0.38940410582E+03  0.00000000000E+00 0. -1.
         25    2    1    2    0    0 -0.90239992200E+02 -0.38269284956E+02  0.25755602872E+02  0.16091869676E+03  0.12499472599E+03 0.  0.
         24    2    1    2    0    0  0.75839221961E+02  0.64069743179E+02  0.61306565513E+03  0.62623018012E+03  0.80363059997E+02 0.  0.
         24    2    1    2    0    0  0.24438905162E+02 -0.28398536324E+02  0.64174257067E+03  0.64781245540E+03  0.80148071736E+02 0.  0.
        -13    1    5    5    0    0 -0.56343872658E+01  0.17902577878E+02  0.48475730749E+02  0.51982161230E+02  0.00000000000E+00 0.  1.
         14    1    5    5    0    0  0.30073292428E+02 -0.46301114201E+02  0.59326683992E+03  0.59583029417E+03  0.00000000000E+00 0. -1.
        -13    1    4    4    0    0  0.28145807019E+02 -0.17498996403E+02  0.17019501226E+03  0.17339187849E+03  0.00000000000E+00 0.  1.
         14    1    4    4    0    0  0.47693414942E+02  0.81568739583E+02  0.44287064286E+03  0.45283830162E+03  0.00000000000E+00 0. -1.
          5    1    3    3  501    0  0.24661117973E+02  0.15510029704E+02  0.16062827655E+02  0.33598157588E+02  0.47000000000E+01 0. -1.
         -5    1    3    3    0  501 -0.11490111017E+03 -0.53779314660E+02  0.96927752174E+01  0.12732053917E+03  0.47000000000E+01 0. -1.
          1    1    1    2  502    0 -0.51469082046E+02  0.23117864447E+02 -0.30837350551E+03  0.31349277657E+03  0.00000000000E+00 0. -1.
          1    1    1    2  503    0  0.41430947123E+02 -0.20519786347E+02  0.41878029600E+03  0.42132472196E+03  0.00000000000E+00 0. -1.
<mgrwt>
<rscale>  0 0.51035492E+02</rscale>
<asrwt>0</asrwt>
<pdfrwt beam="1">  1        2 0.26181981E+00 0.46234024E+02</pdfrwt>
<pdfrwt beam="2">  1        2 0.57265310E-01 0.56335598E+02</pdfrwt>
<totfact> 0.16942895E+02</totfact>
</mgrwt>
</event>
<event>
13    1  0.2742815E-008  0.9084113E+02  0.7546771E-02  0.1369962E+00
          2   -1    0    0  503    0  0.00000000000E+00  0.00000000000E+00  0.18363606388E+04  0.18363606388E+04  0.00000000000E+00 0. -1.
          2   -1    0    0  502    0 -0.00000000000E+00 -0.00000000000E+00 -0.23693705126E+04  0.23693705126E+04  0.00000000000E+00 0. -1.
         25    2    1    2    0    0 -0.57425139808E+02  0.17523716304E+03 -0.64301789792E+03  0.68051649241E+03  0.12499987764E+03 0.  0.
         24    2    1    2    0    0 -0.52093760602E+02  0.12642629231E+03  0.26994776414E+03  0.31276352446E+03  0.79068701700E+02 0.  0.
         24    2    1    2    0    0  0.24378368103E+02 -0.26936075357E+03  0.11307156621E+04  0.11653841091E+04  0.80328655720E+02 0.  0.
        -11    1    4    4    0    0 -0.40144164088E+02  0.24997584656E+02  0.13819158377E+03  0.14605939536E+03  0.00000000000E+00 0.  1.
         12    1    4    4    0    0 -0.11949596513E+02  0.10142870765E+03  0.13175618038E+03  0.16670412910E+03  0.00000000000E+00 0. -1.
        -13    1    5    5    0    0 -0.13994486718E+02 -0.15030382585E+02  0.42735073130E+02  0.47413548006E+02  0.00000000000E+00 0.  1.
         14    1    5    5    0    0  0.38372854821E+02 -0.25433037098E+03  0.10879805890E+04  0.11179705611E+04  0.00000000000E+00 0. -1.
          5    1    3    3  501    0  0.34103846974E+02  0.18035190212E+02 -0.15120159584E+03  0.15611647271E+03  0.47000000000E+01 0. -1.
         -5    1    3    3    0  501 -0.91528986783E+02  0.15720197283E+03 -0.49181630207E+03  0.52440001971E+03  0.47000000000E+01 0. -1.
          1    1    1    2  502    0  0.55341729795E+02 -0.72051809522E+02 -0.16659867856E+04  0.16684622082E+04  0.00000000000E+00 0. -1.
          1    1    1    2  503    0  0.29798802512E+02  0.39749107745E+02  0.37533138345E+03  0.37860481719E+03  0.00000000000E+00 0. -1.
<mgrwt>
<rscale>  0 0.67177805E+02</rscale>
<asrwt>0</asrwt>
<pdfrwt beam="1">  1        2 0.27005304E+00 0.49678569E+02</pdfrwt>
<pdfrwt beam="2">  1        2 0.34843684E+00 0.90841133E+02</pdfrwt>
<totfact> 0.11251583E+01</totfact>
</mgrwt>
</event>
<event>
13    1  0.2742815E-008  0.5206997E+02  0.7546771E-02  0.1536295E+00
          2   -1    0    0  503    0  0.00000000000E+00  0.00000000000E+00  0.36231203061E+04  0.36231203061E+04  0.00000000000E+00 0. -1.
          2   -1    0    0  502    0 -0.00000000000E+00 -0.00000000000E+00 -0.11515977019E+04  0.11515977019E+04  0.00000000000E+00 0. -1.
         25    2    1    2    0    0 -0.24947637068E+02 -0.11294665243E+03 -0.23742454692E+03  0.29219102490E+03  0.12500339462E+03 0.  0.
         24    2    1    2    0    0  0.16011411447E+02 -0.12922142829E+02  0.41066612211E+03  0.41914865648E+03  0.81336248433E+02 0.  0.
         24    2    1    2    0    0 -0.68588810000E+02  0.12447187057E+03  0.27244232280E+04  0.27292876626E+04  0.79571027802E+02 0.  0.
        -11    1    5    5    0    0  0.82707991127E+01 -0.67513254997E+01  0.15390667249E+03  0.15427653856E+03  0.00000000000E+00 0.  1.
         12    1    5    5    0    0 -0.76859609113E+02  0.13122319607E+03  0.25705165556E+04  0.25750111241E+04  0.00000000000E+00 0. -1.
        -11    1    4    4    0    0 -0.29581428979E+02  0.90550218150E+01  0.11065511576E+03  0.11489825501E+03  0.00000000000E+00 0.  1.
         12    1    4    4    0    0  0.45592840427E+02 -0.21977164644E+02  0.30001100635E+03  0.30425040147E+03  0.00000000000E+00 0. -1.
          5    1    3    3  501    0 -0.24011218646E+02  0.23293745111E+02 -0.53005427583E+02  0.62855409754E+02  0.47000000000E+01 0.  1.
         -5    1    3    3    0  501 -0.93641842229E+00 -0.13624039754E+03 -0.18441911933E+03  0.22933561515E+03  0.47000000000E+01 0.  1.
          1    1    1    2  502    0  0.52043780496E+02  0.14428487047E+01 -0.87898798251E+03  0.88052854030E+03  0.00000000000E+00 0. -1.
          1    1    1    2  503    0  0.25481255125E+02 -0.45924016860E-01  0.45284578346E+03  0.45356212371E+03  0.00000000000E+00 0. -1.
<mgrwt>
<rscale>  0 0.36425407E+02</rscale>
<asrwt>0</asrwt>
<pdfrwt beam="1">  1        2 0.53281181E+00 0.25481297E+02</pdfrwt>
<pdfrwt beam="2">  1        2 0.16935260E+00 0.52069966E+02</pdfrwt>
<totfact> 0.66556733E+00</totfact>
</mgrwt>
</event>
<event>
13    1  0.2742815E-008  0.1440839E+03  0.7546771E-02  0.1216775E+00
          2   -1    0    0  502    0  0.00000000000E+00  0.00000000000E+00  0.13628837170E+04  0.13628837170E+04  0.00000000000E+00 0. -1.
          2   -1    0    0  503    0 -0.00000000000E+00 -0.00000000000E+00 -0.68858506129E+03  0.68858506129E+03  0.00000000000E+00 0. -1.
         25    2    1    2    0    0 -0.31293527043E+03 -0.49080931915E+02 -0.82712762248E+02  0.35043389792E+03  0.12500037766E+03 0.  0.
         24    2    1    2    0    0  0.10784768477E+03 -0.13790884509E+03  0.32126661005E+03  0.37464765813E+03  0.80614268875E+02 0.  0.
         24    2    1    2    0    0  0.65694091433E+02  0.10600855134E+03  0.36155486311E+03  0.39074193926E+03  0.80023855516E+02 0.  0.
        -11    1    5    5    0    0  0.77197518127E+02  0.57241619241E+02  0.26633517947E+03  0.28314393443E+03  0.00000000000E+00 0.  1.
         12    1    5    5    0    0 -0.11503426694E+02  0.48766932095E+02  0.95219683635E+02  0.10759800483E+03  0.00000000000E+00 0. -1.
        -13    1    4    4    0    0  0.95835397490E+02 -0.59632994767E+02  0.17319827308E+03  0.20673209541E+03  0.00000000000E+00 0.  1.
         14    1    4    4    0    0  0.12012287282E+02 -0.78275850318E+02  0.14806833698E+03  0.16791556272E+03  0.00000000000E+00 0. -1.
          5    1    3    3  501    0 -0.44679106384E+02  0.28465799189E+02  0.13804322318E+02  0.54947007065E+02  0.47000000000E+01 0.  1.
         -5    1    3    3    0  501 -0.26825616404E+03 -0.77546731104E+02 -0.96517084566E+02  0.29548689085E+03  0.47000000000E+01 0.  1.
          1    1    1    2  502    0  0.13680148461E+03 -0.50151316892E+02  0.48394891758E+03  0.50540711867E+03  0.00000000000E+00 0. -1.
          1    1    1    2  503    0  0.25920096154E+01  0.13113254256E+03 -0.40975897280E+03  0.43023816430E+03  0.00000000000E+00 0. -1.
<mgrwt>
<rscale>  0 0.13746919E+03</rscale>
<asrwt>0</asrwt>
<pdfrwt beam="1">  1        2 0.20042408E+00 0.14408389E+03</pdfrwt>
<pdfrwt beam="2">  1        2 0.10126251E+00 0.13115816E+03</pdfrwt>
<totfact> 0.13135981E+02</totfact>
</mgrwt>
</event>
<event>
13    1  0.2742815E-008  0.2272764E+03  0.7546771E-02  0.1329265E+00
          2   -1    0    0  502    0  0.00000000000E+00  0.00000000000E+00  0.28617672540E+04  0.28617672540E+04  0.00000000000E+00 0. -1.
          2   -1    0    0  503    0 -0.00000000000E+00 -0.00000000000E+00 -0.84180037822E+03  0.84180037822E+03  0.00000000000E+00 0. -1.
         25    2    1    2    0    0  0.95368960639E+02 -0.23261080192E+03  0.44202457103E+03  0.52365331729E+03  0.12499620592E+03 0.  0.
         24    2    1    2    0    0 -0.37481237765E+02  0.31838051570E+02  0.98782240973E+02  0.13588272954E+03  0.79294894813E+02 0.  0.
         24    2    1    2    0    0  0.38413914698E+02  0.27311098627E+02  0.30284087157E+03  0.31719967598E+03  0.81740540736E+02 0.  0.
        -13    1    5    5    0    0  0.56546108182E+02 -0.51752899304E+01  0.16900081750E+03  0.17828494690E+03  0.00000000000E+00 0.  1.
         14    1    5    5    0    0 -0.18132193484E+02  0.32486388557E+02  0.13384005407E+03  0.13891472908E+03  0.00000000000E+00 0. -1.
        -13    1    4    4    0    0  0.18716539757E+02  0.15121677010E+02  0.62405153927E+02  0.66883310420E+02  0.00000000000E+00 0.  1.
         14    1    4    4    0    0 -0.56197777523E+02  0.16716374560E+02  0.36377087046E+02  0.68999419120E+02  0.00000000000E+00 0. -1.
          5    1    3    3  501    0  0.98068414543E+02 -0.24519376402E+03  0.39898447746E+03  0.47848521304E+03  0.47000000000E+01 0.  1.
         -5    1    3    3    0  501 -0.26994539043E+01  0.12582962109E+02  0.43040093572E+02  0.45168104249E+02  0.47000000000E+01 0.  1.
          1    1    1    2  502    0  0.13311490678E+02 -0.24754579154E+02  0.19349268742E+04  0.19351310017E+04  0.00000000000E+00 0. -1.
          1    1    1    2  503    0 -0.10961312825E+03  0.19821623087E+03 -0.75860768204E+03  0.79170090774E+03  0.00000000000E+00 0. -1.
<mgrwt>
<rscale>  0 0.79924855E+02</rscale>
<asrwt>0</asrwt>
<pdfrwt beam="1">  1        2 0.42084812E+00 0.28106671E+02</pdfrwt>
<pdfrwt beam="2">  1        2 0.12379417E+00 0.22727638E+03</pdfrwt>
<totfact> 0.23197495E+01</totfact>
</mgrwt>
</event>
<event>
13    1  0.2742815E-008  0.1670454E+03  0.7546771E-02  0.1467761E+00
          2   -1    0    0  502    0  0.00000000000E+00  0.00000000000E+00  0.23730558741E+04  0.23730558741E+04  0.00000000000E+00 0. -1.
          2   -1    0    0  503    0 -0.00000000000E+00 -0.00000000000E+00 -0.61470410936E+03  0.61470410936E+03  0.00000000000E+00 0. -1.
         25    2    1    2    0    0  0.88845592186E+02 -0.93084001168E+02 -0.23316490973E+03  0.29419280286E+03  0.12500143841E+03 0.  0.
         24    2    1    2    0    0 -0.49035812796E+02 -0.18088706006E+03 -0.49068847377E+02  0.20963219460E+03  0.80082868304E+02 0.  0.
         24    2    1    2    0    0 -0.19512436787E+03  0.19720668752E+03  0.14750087683E+04  0.15029276154E+04  0.78591055212E+02 0.  0.
        -11    1    5    5    0    0 -0.15411474649E+03  0.16455859928E+03  0.10035515847E+04  0.10285653460E+04  0.00000000000E+00 0.  1.
         12    1    5    5    0    0 -0.41009621377E+02  0.32648088243E+02  0.47145718361E+03  0.47436226946E+03  0.00000000000E+00 0. -1.
        -13    1    4    4    0    0  0.73529236832E+00 -0.13814547496E+03 -0.35563704001E+02  0.14265163844E+03  0.00000000000E+00 0.  1.
         14    1    4    4    0    0 -0.49771105165E+02 -0.42741585103E+02 -0.13505143376E+02  0.66980556164E+02  0.00000000000E+00 0. -1.
          5    1    3    3  501    0 -0.36620447738E+01 -0.28553128189E+02 -0.15295057779E+03  0.15570697141E+03  0.47000000000E+01 0. -1.
         -5    1    3    3    0  501  0.92507636960E+02 -0.64530872979E+02 -0.80214331938E+02  0.13848583145E+03  0.47000000000E+01 0. -1.
          1    1    1    2  502    0  0.14453437752E+03  0.83490955445E+02  0.76407931034E+03  0.78209853498E+03  0.00000000000E+00 0. -1.
          1    1    1    2  503    0  0.10780210966E+02 -0.67265817408E+01 -0.19850255679E+03  0.19890883566E+03  0.00000000000E+00 0. -1.
<mgrwt>
<rscale>  0 0.46071611E+02</rscale>
<asrwt>0</asrwt>
<pdfrwt beam="1">  1        2 0.34897880E+00 0.16704540E+03</pdfrwt>
<pdfrwt beam="2">  1        2 0.90397664E-01 0.12706685E+02</pdfrwt>
<totfact> 0.48536270E+01</totfact>
</mgrwt>
</event>
<event>
13    1  0.2742815E-008  0.7742770E+02  0.7546771E-02  0.1399844E+00
          2   -1    0    0  503    0  0.00000000000E+00  0.00000000000E+00  0.20155811316E+04  0.20155811316E+04  0.00000000000E+00 0. -1.
          2   -1    0    0  502    0 -0.00000000000E+00 -0.00000000000E+00 -0.15071606178E+04  0.15071606178E+04  0.00000000000E+00 0. -1.
         25    2    1    2    0    0 -0.24034214750E+02 -0.35034953090E+02 -0.34588172256E+03  0.37022040534E+03  0.12499556436E+03 0.  0.
         24    2    1    2    0    0 -0.90454696144E+02 -0.52579161511E+02 -0.42731254645E+03  0.44927229331E+03  0.91120584436E+02 0.  0.
         24    2    1    2    0    0  0.19541020422E+02  0.62142573917E+02  0.10290472873E+03  0.14646489895E+03  0.81357436398E+02 0.  0.
        -11    1    4    4    0    0 -0.32873828380E+02 -0.50789597531E+02 -0.33529088004E+03  0.34070551220E+03  0.00000000000E+00 0.  1.
         12    1    4    4    0    0 -0.57580867764E+02 -0.17895639799E+01 -0.92021666411E+02  0.10856678111E+03  0.00000000000E+00 0. -1.
        -13    1    5    5    0    0  0.46886756063E+02  0.60674398075E+02  0.79313995977E+02  0.11031980980E+03  0.00000000000E+00 0.  1.
         14    1    5    5    0    0 -0.27345735641E+02  0.14681758420E+01  0.23590732754E+02  0.36145089154E+02  0.00000000000E+00 0. -1.
          5    1    3    3  501    0 -0.13969569680E+02 -0.69124241388E+02 -0.31521246719E+03  0.32303916032E+03  0.47000000000E+01 0. -1.
         -5    1    3    3    0  501 -0.10064645070E+02  0.34089288298E+02 -0.30669255373E+02  0.47181245026E+02  0.47000000000E+01 0. -1.
          1    1    1    2  502    0  0.37420196910E+02 -0.26336432198E+02 -0.68747388734E+03  0.68899508312E+03  0.00000000000E+00 0. -1.
          1    1    1    2  503    0  0.57527693562E+02  0.51807972881E+02  0.18661839415E+04  0.18677890686E+04  0.00000000000E+00 0. -1.
<mgrwt>
<rscale>  0 0.59523171E+02</rscale>
<asrwt>0</asrwt>
<pdfrwt beam="1">  1        2 0.29640899E+00 0.77427699E+02</pdfrwt>
<pdfrwt beam="2">  1        2 0.22164127E+00 0.45758920E+02</pdfrwt>
<totfact> 0.24383627E+01</totfact>
</mgrwt>
</event>
<event>
13    1  0.2742815E-008  0.2639550E+02  0.7546771E-02  0.1659960E+00
          2   -1    0    0  503    0  0.00000000000E+00  0.00000000000E+00  0.55534503268E+03  0.55534503268E+03  0.00000000000E+00 0. -1.
         -1   -1    0    0    0  501 -0.00000000000E+00 -0.00000000000E+00 -0.41821392176E+03  0.41821392176E+03  0.00000000000E+00 0.  1.
         25    2    1    2    0    0 -0.87167480084E+02  0.73969991141E+01 -0.16763444195E+03  0.22667077115E+03  0.12500178874E+03 0.  0.
         24    2    1    2    0    0  0.25602807557E+02  0.47202401392E+02  0.22853997505E+03  0.24807276160E+03  0.80162362739E+02 0.  0.
         24    2    1    2    0    0  0.49901856562E+02 -0.50017522189E+02  0.16576283455E+03  0.19701337016E+03  0.79655526412E+02 0.  0.
        -11    1    4    4    0    0 -0.23761256833E+02  0.20707860049E+02  0.13837832743E+03  0.14192242351E+03  0.00000000000E+00 0.  1.
         12    1    4    4    0    0  0.49364064389E+02  0.26494541344E+02  0.90161647625E+02  0.10615033809E+03  0.00000000000E+00 0. -1.
        -11    1    5    5    0    0 -0.93426282375E+01 -0.45960646379E+02  0.79043830222E+02  0.91910787256E+02  0.00000000000E+00 0.  1.
         12    1    5    5    0    0  0.59244484800E+02 -0.40568758096E+01  0.86719004330E+02  0.10510258290E+03  0.00000000000E+00 0. -1.
          5    1    3    3  502    0  0.65308451405E+01 -0.29103193909E+02  0.10710356838E+01  0.30213986023E+02  0.47000000000E+01 0. -1.
         -5    1    3    3    0  502 -0.93698325224E+02  0.36500193023E+02 -0.16870547763E+03  0.19645678513E+03  0.47000000000E+01 0. -1.
          1    1    1    2  503    0  0.19653153173E+02  0.17853888309E+02  0.10372925168E+03  0.10707364480E+03  0.00000000000E+00 0. -1.
         -2    1    1    2    0  501 -0.79903372081E+01 -0.22435766627E+02 -0.19326650841E+03  0.19472840673E+03  0.00000000000E+00 0.  1.
<mgrwt>
<rscale>  0 0.25072677E+02</rscale>
<asrwt>0</asrwt>
<pdfrwt beam="1">  1        2 0.81668387E-01 0.26395495E+02</pdfrwt>
<pdfrwt beam="2">  1       -1 0.61502047E-01 0.23816152E+02</pdfrwt>
<totfact> 0.19909065E+02</totfact>
</mgrwt>
</event>
<event>
13    1  0.2742815E-008  0.9442387E+02  0.7546771E-02  0.1414915E+00
          2   -1    0    0  502    0  0.00000000000E+00  0.00000000000E+00  0.10195253760E+04  0.10195253760E+04  0.00000000000E+00 0. -1.
          2   -1    0    0  503    0 -0.00000000000E+00 -0.00000000000E+00 -0.84366067764E+03  0.84366067764E+03  0.00000000000E+00 0. -1.
         25    2    1    2    0    0 -0.17459180447E+03  0.27828453708E+03 -0.35480579183E+03  0.49943712009E+03  0.12500282094E+03 0.  0.
         24    2    1    2    0    0  0.45631255649E+02 -0.12725823230E+03  0.84747526769E+01  0.15702611754E+03  0.79426135357E+02 0.  0.
         24    2    1    2    0    0  0.18173418015E+03 -0.40724098379E+02  0.39748750645E+03  0.44620175251E+03  0.80086963568E+02 0.  0.
        -13    1    4    4    0    0  0.16594577876E+02 -0.18357933910E+02  0.33428680634E+02  0.41591711209E+02  0.00000000000E+00 0.  1.
         14    1    4    4    0    0  0.29036677773E+02 -0.10890029839E+03 -0.24953927957E+02  0.11543440633E+03  0.00000000000E+00 0. -1.
        -13    1    5    5    0    0  0.85237501306E+01  0.28573236498E+01 -0.14502979586E+01  0.91061506081E+01  0.00000000000E+00 0.  1.
         14    1    5    5    0    0  0.17321043002E+03 -0.43581422029E+02  0.39893780441E+03  0.43709560190E+03  0.00000000000E+00 0. -1.
          5    1    3    3  501    0 -0.48499714034E+01 -0.35057257847E+01 -0.51185913431E+02  0.51748430601E+02  0.47000000000E+01 0.  1.
         -5    1    3    3    0  501 -0.16974183307E+03  0.28179026286E+03 -0.30361987840E+03  0.44768868949E+03  0.47000000000E+01 0.  1.
          1    1    1    2  502    0 -0.54233760295E+02 -0.76989984552E+02  0.43670690419E+03  0.44674565319E+03  0.00000000000E+00 0. -1.
          1    1    1    2  503    0  0.14601289683E+01 -0.33312221849E+02 -0.31199867311E+03  0.31377541032E+03  0.00000000000E+00 0. -1.
<mgrwt>
<rscale>  0 0.56111399E+02</rscale>
<asrwt>0</asrwt>
<pdfrwt beam="1">  1        2 0.14993020E+00 0.94423872E+02</pdfrwt>
<pdfrwt beam="2">  1        2 0.12406775E+00 0.33344206E+02</pdfrwt>
<totfact> 0.17005875E+02</totfact>
</mgrwt>
</event>
<event>
13    1  0.2742815E-008  0.1066596E+03  0.7546771E-02  0.1299154E+00
          2   -1    0    0  503    0  0.00000000000E+00  0.00000000000E+00  0.24194302298E+04  0.24194302298E+04  0.00000000000E+00 0. -1.
         -1   -1    0    0    0  501 -0.00000000000E+00 -0.00000000000E+00 -0.61446174834E+03  0.61446174834E+03  0.00000000000E+00 0.  1.
         25    2    1    2    0    0  0.12574649767E+03  0.18423982458E+03 -0.84432921280E+02  0.26927651595E+03  0.12499771682E+03 0.  0.
         24    2    1    2    0    0  0.22917485717E+02 -0.13371642636E+03  0.13013316867E+03  0.20470052945E+03  0.81008464603E+02 0.  0.
         24    2    1    2    0    0  0.42951216447E+02  0.42551486336E+02  0.11316893315E+03  0.15310317823E+03  0.83534063533E+02 0.  0.
        -11    1    4    4    0    0  0.55113002952E+01 -0.66386779285E+02  0.11595333699E+03  0.13372641943E+03  0.00000000000E+00 0.  1.
         12    1    4    4    0    0  0.17406185422E+02 -0.67329647079E+02  0.14179831686E+02  0.70974110021E+02  0.00000000000E+00 0. -1.
        -13    1    5    5    0    0 -0.11317211035E+02  0.46803706274E+02  0.45410904070E+02  0.66187735987E+02  0.00000000000E+00 0.  1.
         14    1    5    5    0    0  0.54268427482E+02 -0.42522199374E+01  0.67758029075E+02  0.86915442240E+02  0.00000000000E+00 0. -1.
          5    1    3    3  502    0  0.12654029922E+03  0.20086148314E+03 -0.84359008171E+02  0.25198475151E+03  0.47000000000E+01 0. -1.
         -5    1    3    3    0  502 -0.79380154607E+00 -0.16621658564E+02 -0.73913109422E-01  0.17291764440E+02  0.47000000000E+01 0. -1.
          1    1    1    2  503    0 -0.89309652479E+02 -0.68312619767E+02  0.20175776821E+04  0.20207084232E+04  0.00000000000E+00 0. -1.
         -2    1    1    2    0  501 -0.10230554735E+03 -0.24762264781E+02 -0.37147838120E+03  0.38610333134E+03  0.00000000000E+00 0.  1.
<mgrwt>
<rscale>  0 0.91544463E+02</rscale>
<asrwt>0</asrwt>
<pdfrwt beam="1">  1        2 0.35579856E+00 0.78571385E+02</pdfrwt>
<pdfrwt beam="2">  1       -1 0.90362023E-01 0.10665955E+03</pdfrwt>
<totfact> 0.88875883E+00</totfact>
</mgrwt>
</event>
<event>
13    1  0.2742815E-008  0.5085476E+02  0.7546771E-02  0.1460169E+00
         -1   -1    0    0    0  501 -0.00000000000E+00  0.00000000000E+00  0.18828248175E+04  0.18828248175E+04  0.00000000000E+00 0.  1.
          2   -1    0    0  503    0  0.00000000000E+00 -0.00000000000E+00 -0.33604215534E+04  0.33604215534E+04  0.00000000000E+00 0. -1.
         25    2    1    2    0    0 -0.78092518352E+02  0.33236150437E+03  0.28817778205E+02  0.36471442993E+03  0.12499416005E+03 0.  0.
         24    2    1    2    0    0  0.94237489377E+03 -0.12370440350E+04 -0.47622758934E+03  0.16300988892E+04  0.10991490729E+03 0.  0.
         24    2    1    2    0    0 -0.90192020626E+03  0.84299821117E+03 -0.79838779822E+03  0.14723458816E+04  0.79204015516E+02 0.  0.
        -13    1    4    4    0    0  0.71071633201E+03 -0.96129709701E+03 -0.32036512809E+03  0.12376767060E+04  0.00000000000E+00 0.  1.
         14    1    4    4    0    0  0.23165856176E+03 -0.27574693802E+03 -0.15586246125E+03  0.39242218323E+03  0.00000000000E+00 0. -1.
        -13    1    5    5    0    0 -0.34634414262E+03  0.27200101814E+03 -0.28042593446E+03  0.52208957441E+03  0.00000000000E+00 0.  1.
         14    1    5    5    0    0 -0.55557606365E+03  0.57099719303E+03 -0.51796186377E+03  0.95025630714E+03  0.00000000000E+00 0. -1.
          5    1    3    3  502    0  0.30050129914E+02  0.10096308576E+03  0.28580783340E+02  0.10924974220E+03  0.47000000000E+01 0.  1.
         -5    1    3    3    0  502 -0.10814264827E+03  0.23139841861E+03  0.23699486482E+00  0.25546468773E+03  0.47000000000E+01 0.  1.
          1    1    1    2  503    0 -0.50375275743E+01  0.50600670284E+02 -0.10026688792E+04  0.10039575120E+04  0.00000000000E+00 0. -1.
         -2    1    1    2    0  501  0.42675358423E+02  0.11083649195E+02  0.77086975265E+03  0.77212965818E+03  0.00000000000E+00 0.  1.
<mgrwt>
<rscale>  0 0.47352370E+02</rscale>
<asrwt>0</asrwt>
<pdfrwt beam="2">  1        2 0.49417963E+00 0.50854756E+02</pdfrwt>
<pdfrwt beam="1">  1       -1 0.27688601E+00 0.44091195E+02</pdfrwt>
<totfact> 0.15921712E-01</totfact>
</mgrwt>
</event>
<event>
13    1  0.2742815E-008  0.1076171E+03  0.7546771E-02  0.1296499E+00
          2   -1    0    0  503    0  0.00000000000E+00  0.00000000000E+00  0.80908167522E+03  0.80908167522E+03  0.00000000000E+00 0. -1.
         -1   -1    0    0    0  501 -0.00000000000E+00 -0.00000000000E+00 -0.15743219005E+04  0.15743219005E+04  0.00000000000E+00 0.  1.
         25    2    1    2    0    0  0.26423739897E+02  0.12880108586E+02 -0.13725114009E+03  0.18795479549E+03  0.12500007386E+03 0.  0.
         24    2    1    2    0    0 -0.10405363843E+03 -0.59529484724E+01  0.79505309438E+02  0.14536776118E+03  0.62833864237E+02 0.  0.
         24    2    1    2    0    0  0.10434234287E+03 -0.20808617161E+02  0.15971269890E+03  0.20918314183E+03  0.83241321296E+02 0.  0.
        -11    1    5    5    0    0  0.40881627717E+02 -0.50291333698E+02  0.69802291315E+02  0.95251696062E+02  0.00000000000E+00 0.  1.
         12    1    5    5    0    0  0.63460715153E+02  0.29482716536E+02  0.89910407583E+02  0.11393144576E+03  0.00000000000E+00 0. -1.
        -11    1    4    4    0    0 -0.73369674432E+02  0.25560250765E+02  0.52051532249E+02  0.93518968958E+02  0.00000000000E+00 0.  1.
         12    1    4    4    0    0 -0.30683964002E+02 -0.31513199237E+02  0.27453777189E+02  0.51848792223E+02  0.00000000000E+00 0. -1.
          5    1    3    3  502    0 -0.75098348376E+01  0.36202544445E+02  0.69528646207E+01  0.37913772827E+02  0.47000000000E+01 0. -1.
         -5    1    3    3    0  502  0.33933574734E+02 -0.23322435859E+02 -0.14420400471E+03  0.15004102267E+03  0.47000000000E+01 0. -1.
          1    1    1    2  503    0 -0.10084316620E+03  0.43444596881E+02  0.47945766233E+03  0.49187033569E+03  0.00000000000E+00 0. -1.
         -2    1    1    2    0  501  0.74130721866E+02 -0.29563139833E+02 -0.13466647558E+04  0.13490275415E+04  0.00000000000E+00 0.  1.
<mgrwt>
<rscale>  0 0.92675377E+02</rscale>
<asrwt>0</asrwt>
<pdfrwt beam="1">  1        2 0.11898260E+00 0.10761713E+03</pdfrwt>
<pdfrwt beam="2">  1       -1 0.23151793E+00 0.79808165E+02</pdfrwt>
<totfact> 0.51793147E+00</totfact>
</mgrwt>
</event>
<event>
13    1  0.2742815E-008  0.8350231E+02  0.7546771E-02  0.1362377E+00
         -3   -1    0    0    0  501 -0.00000000000E+00  0.00000000000E+00  0.31950868303E+03  0.31950868303E+03  0.00000000000E+00 0.  1.
          2   -1    0    0  503    0  0.00000000000E+00 -0.00000000000E+00 -0.41685588435E+04  0.41685588435E+04  0.00000000000E+00 0. -1.
         25    2    1    2    0    0 -0.97102985381E+02  0.59779548301E+02  0.78847988424E+02  0.18666857869E+03  0.12500227528E+03 0.  0.
         24    2    1    2    0    0 -0.78778538625E+02 -0.67816689200E+02 -0.12344921936E+04  0.12414547223E+04  0.80210286124E+02 0.  0.
         24    2    1    2    0    0  0.43103581781E+02  0.40739456550E+02 -0.11416110063E+04  0.11460387600E+04  0.81311299982E+02 0.  0.
        -11    1    5    5    0    0 -0.10724292440E+02 -0.15911609583E+02 -0.36553328507E+03  0.36603657230E+03  0.00000000000E+00 0.  1.
         12    1    5    5    0    0  0.53827874221E+02  0.56651066134E+02 -0.77607772126E+03  0.78000218768E+03  0.00000000000E+00 0. -1.
        -11    1    4    4    0    0 -0.45176643096E+02 -0.67053771911E+02 -0.10945802656E+04  0.10975623423E+04  0.00000000000E+00 0.  1.
         12    1    4    4    0    0 -0.33601895529E+02 -0.76291728876E+00 -0.13991192802E+03  0.14389238002E+03  0.00000000000E+00 0. -1.
          5    1    3    3  502    0  0.29255549455E+02  0.21821403211E+02  0.12123271818E+02  0.38744348383E+02  0.47000000000E+01 0. -1.
         -5    1    3    3    0  502 -0.12635853484E+03  0.37958145090E+02  0.66724716606E+02  0.14792423030E+03  0.47000000000E+01 0. -1.
          1    1    1    2  503    0  0.75269101957E+02 -0.35302632752E+02 -0.17272489928E+04  0.17292486220E+04  0.00000000000E+00 0. -1.
         -4    1    1    2    0  501  0.57508840268E+02  0.26003171000E+01  0.17545404386E+03  0.18465684353E+03  0.00000000000E+00 0.  1.
<mgrwt>
<rscale>  0 0.69332731E+02</rscale>
<asrwt>0</asrwt>
<pdfrwt beam="2">  1        2 0.61302334E+00 0.83502313E+02</pdfrwt>
<pdfrwt beam="1">  1       -3 0.46986573E-01 0.57567598E+02</pdfrwt>
<totfact> 0.15390414E+00</totfact>
</mgrwt>
</event>
<event>
13    1  0.4665564E-008  0.3332867E+02  0.7546771E-02  0.1652149E+00
          2   -1    0    0  502    0  0.00000000000E+00  0.00000000000E+00  0.30737080315E+04  0.30737080315E+04  0.00000000000E+00 0. -1.
          2   -1    0    0  503    0 -0.00000000000E+00 -0.00000000000E+00 -0.93748874160E+03  0.93748874160E+03  0.00000000000E+00 0. -1.
         25    2    1    2    0    0  0.14804731285E+03 -0.44414980492E+03  0.18506310913E+02  0.48492856984E+03  0.12500471290E+03 0.  0.
         24    2    1    2    0    0 -0.61608589998E+03  0.26782426884E+03  0.69044490112E+03  0.96662943783E+03  0.79791186608E+02 0.  0.
         24    2    1    2    0    0  0.43349015093E+03  0.21008489307E+03  0.68806208196E+03  0.84165194525E+03  0.53844173903E+02 0.  0.
        -11    1    4    4    0    0 -0.45638921239E+03  0.16937535084E+03  0.53152523741E+03  0.72076223587E+03  0.00000000000E+00 0.  1.
         12    1    4    4    0    0 -0.15969668760E+03  0.98448918006E+02  0.15891966370E+03  0.24586720196E+03  0.00000000000E+00 0. -1.
        -11    1    5    5    0    0  0.18133444371E+03  0.62235186012E+02  0.29474948566E+03  0.35161435999E+03  0.00000000000E+00 0.  1.
         12    1    5    5    0    0  0.25215570721E+03  0.14784970706E+03  0.39331259629E+03  0.49003758525E+03  0.00000000000E+00 0. -1.
          5    1    3    3  501    0 -0.61662229816E+01 -0.10773525854E+03 -0.28861792431E+02  0.11180340469E+03  0.47000000000E+01 0.  1.
         -5    1    3    3    0  501  0.15421353583E+03 -0.33641454638E+03  0.47368103344E+02  0.37312516514E+03  0.47000000000E+01 0.  1.
          1    1    1    2  502    0  0.15284411505E+02 -0.29610237221E+02  0.12281719671E+04  0.12286239295E+04  0.00000000000E+00 0. -1.
          1    1    1    2  503    0  0.19264024705E+02 -0.41491197732E+01 -0.48896597116E+03  0.48936289070E+03  0.00000000000E+00 0. -1.
<mgrwt>
<rscale>  0 0.25627475E+02</rscale>
<asrwt>0</asrwt>
<pdfrwt beam="1">  1        2 0.45201588E+00 0.33328669E+02</pdfrwt>
<pdfrwt beam="2">  1        2 0.13786599E+00 0.19705782E+02</pdfrwt>
<totfact> 0.17074009E+01</totfact>
</mgrwt>
</event>
<event>
13    1  0.2742815E-008  0.2631301E+03  0.7546771E-02  0.1175494E+00
          2   -1    0    0  503    0  0.00000000000E+00  0.00000000000E+00  0.12705154562E+04  0.12705154562E+04  0.00000000000E+00 0. -1.
          2   -1    0    0  502    0 -0.00000000000E+00 -0.00000000000E+00 -0.25392640919E+04  0.25392640919E+04  0.00000000000E+00 0. -1.
         25    2    1    2    0    0  0.97026416559E+02  0.16013481547E+03 -0.38538241331E+03  0.44632022215E+03  0.12499940630E+03 0.  0.
         24    2    1    2    0    0 -0.10804169708E+03 -0.68412644876E+02 -0.16211398330E+03  0.22165039014E+03  0.80589413569E+02 0.  0.
         24    2    1    2    0    0 -0.17098779166E+03 -0.18786372844E+02  0.75190205488E+02  0.20355438443E+03  0.78683338271E+02 0.  0.
        -11    1    4    4    0    0 -0.11672976502E+03 -0.60039973775E+02 -0.12002792567E+03  0.17786888270E+03  0.00000000000E+00 0.  1.
         12    1    4    4    0    0  0.86880679482E+01 -0.83726711007E+01 -0.42086057634E+02  0.43781507434E+02  0.00000000000E+00 0. -1.
        -13    1    5    5    0    0 -0.12188933482E+03 -0.42713414726E+02  0.74145304606E+02  0.14892606197E+03  0.00000000000E+00 0.  1.
         14    1    5    5    0    0 -0.49098456836E+02  0.23927041882E+02  0.10449008819E+01  0.54628322460E+02  0.00000000000E+00 0. -1.
          5    1    3    3  501    0  0.82764254266E+02  0.22961589086E+02 -0.12683922188E+03  0.15325610776E+03  0.47000000000E+01 0. -1.
         -5    1    3    3    0  501  0.14262162293E+02  0.13717322638E+03 -0.25854319143E+03  0.29306411439E+03  0.47000000000E+01 0. -1.
          1    1    1    2  502    0 -0.10816805743E+03 -0.31967087195E+02 -0.18455465405E+04  0.18489900639E+04  0.00000000000E+00 0. -1.
          1    1    1    2  503    0  0.29017112960E+03 -0.40968710553E+02  0.10491040959E+04  0.10892644875E+04  0.00000000000E+00 0. -1.
<mgrwt>
<rscale>  0 0.17227650E+03</rscale>
<asrwt>0</asrwt>
<pdfrwt beam="1">  1        2 0.18684051E+00 0.26313011E+03</pdfrwt>
<pdfrwt beam="2">  1        2 0.37342119E+00 0.11279283E+03</pdfrwt>
<totfact> 0.15100477E+01</totfact>
</mgrwt>
</event>
<event>
13    1  0.2742815E-008  0.1593713E+03  0.7546771E-02  0.1296422E+00
          2   -1    0    0  502    0  0.00000000000E+00  0.00000000000E+00  0.31855295389E+04  0.31855295389E+04  0.00000000000E+00 0. -1.
          2   -1    0    0  503    0 -0.00000000000E+00 -0.00000000000E+00 -0.56775110182E+03  0.56775110182E+03  0.00000000000E+00 0. -1.
         25    2    1    2    0    0  0.11000073805E+02  0.13058655576E+03 -0.91658282158E+02  0.20297873458E+03  0.12500110333E+03 0.  0.
         24    2    1    2    0    0  0.22445743215E+02  0.35656025295E+02  0.47920792755E+03  0.48742324779E+03  0.78524016225E+02 0.  0.
         24    2    1    2    0    0 -0.52010122341E+02 -0.47047969987E+02  0.52211060517E+03  0.53288517282E+03  0.80302920650E+02 0.  0.
        -11    1    5    5    0    0 -0.22794147643E+02  0.21297962587E+02  0.12173448715E+03  0.12566806173E+03  0.00000000000E+00 0.  1.
         12    1    5    5    0    0 -0.29215974698E+02 -0.68345932574E+02  0.40037611802E+03  0.40721711109E+03  0.00000000000E+00 0. -1.
        -13    1    4    4    0    0 -0.64346926397E+01 -0.14780749153E+02  0.26634440847E+02  0.31133089376E+02  0.00000000000E+00 0.  1.
         14    1    4    4    0    0  0.28880435855E+02  0.50436774448E+02  0.45257348671E+03  0.45629015841E+03  0.00000000000E+00 0. -1.
          5    1    3    3  501    0  0.47073612480E+02  0.10018528932E+03 -0.10611657687E+03  0.15341393377E+03  0.47000000000E+01 0.  1.
         -5    1    3    3    0  501 -0.36073538675E+02  0.30401266432E+02  0.14458294709E+02  0.49564800808E+02  0.47000000000E+01 0.  1.
          1    1    1    2  502    0  0.22633521316E+02  0.48950704553E+02  0.21014851148E+04  0.21021769991E+04  0.00000000000E+00 0. -1.
          1    1    1    2  503    0 -0.40692159946E+01 -0.16814531562E+03 -0.39336692837E+03  0.42781648638E+03  0.00000000000E+00 0. -1.
<mgrwt>
<rscale>  0 0.92708688E+02</rscale>
<asrwt>0</asrwt>
<pdfrwt beam="1">  1        2 0.46846022E+00 0.53930027E+02</pdfrwt>
<pdfrwt beam="2">  1        2 0.83492810E-01 0.15937134E+03</pdfrwt>
<totfact> 0.22718169E+01</totfact>
</mgrwt>
</event>
<event>
13    1  0.2742815E-008  0.4912439E+02  0.7546771E-02  0.1469998E+00
          2   -1    0    0  503    0  0.00000000000E+00  0.00000000000E+00  0.23847874008E+04  0.23847874008E+04  0.00000000000E+00 0. -1.
          2   -1    0    0  502    0 -0.00000000000E+00 -0.00000000000E+00 -0.25069994848E+04  0.25069994848E+04  0.00000000000E+00 0. -1.
         25    2    1    2    0    0  0.37986260726E+03  0.16883875478E+03 -0.72790686420E+03  0.84751191636E+03  0.12500367957E+03 0.  0.
         24    2    1    2    0    0 -0.27753615901E+03  0.37546985642E+03 -0.47566991331E+03  0.67113015803E+03  0.78421234049E+02 0.  0.
         24    2    1    2    0    0 -0.14688146920E+03 -0.61076110844E+03  0.14864525113E+04  0.16157073753E+04  0.79786945909E+02 0.  0.
        -11    1    5    5    0    0 -0.11128459843E+03 -0.55834945372E+03  0.13565210030E+04  0.14711517957E+04  0.00000000000E+00 0.  1.
         12    1    5    5    0    0 -0.35596870773E+02 -0.52411654724E+02  0.12993150825E+03  0.14455557961E+03  0.00000000000E+00 0. -1.
        -13    1    4    4    0    0 -0.18796004456E+03  0.21718276139E+03 -0.33451533000E+03  0.44090569989E+03  0.00000000000E+00 0.  1.
         14    1    4    4    0    0 -0.89576114453E+02  0.15828709503E+03 -0.14115458331E+03  0.23022445814E+03  0.00000000000E+00 0. -1.
          5    1    3    3  501    0  0.79861989617E+02  0.11384536641E+01 -0.75049111809E+02  0.10969818889E+03  0.47000000000E+01 0.  1.
         -5    1    3    3    0  501  0.30000061765E+03  0.16770030111E+03 -0.65285775239E+03  0.73781372747E+03  0.47000000000E+01 0.  1.
          1    1    1    2  502    0  0.16889701241E+01  0.42487061200E+02 -0.10799519767E+04  0.10807887282E+04  0.00000000000E+00 0. -1.
          1    1    1    2  503    0  0.42866050826E+02  0.23965436049E+02  0.67486415899E+03  0.67664870762E+03  0.00000000000E+00 0. -1.
<mgrwt>
<rscale>  0 0.45703384E+02</rscale>
<asrwt>0</asrwt>
<pdfrwt beam="1">  1        2 0.35070403E+00 0.49124387E+02</pdfrwt>
<pdfrwt beam="2">  1        2 0.36867639E+00 0.42520618E+02</pdfrwt>
<totfact> 0.59311546E+00</totfact>
</mgrwt>
</event>
<event>
13    1  0.2742815E-008  0.1504541E+03  0.7546771E-02  0.1275432E+00
          2   -1    0    0  502    0  0.00000000000E+00  0.00000000000E+00  0.96339678106E+03  0.96339678106E+03  0.00000000000E+00 0. -1.
          2   -1    0    0  503    0 -0.00000000000E+00 -0.00000000000E+00 -0.18456531956E+04  0.18456531956E+04  0.00000000000E+00 0. -1.
         25    2    1    2    0    0 -0.27210440677E+02  0.56278915465E+02 -0.49348375990E+03  0.51289207294E+03  0.12499733113E+03 0.  0.
         24    2    1    2    0    0  0.10525127464E+03  0.95966087719E+02 -0.74313828730E+02  0.17978158392E+03  0.80694187970E+02 0.  0.
         24    2    1    2    0    0 -0.12368043742E+03 -0.39226138346E+02  0.30450283858E+03  0.34184541853E+03  0.85444548943E+02 0.  0.
        -11    1    5    5    0    0 -0.60434768430E+01 -0.13797173888E+02  0.70857032441E+00  0.15079379681E+02  0.00000000000E+00 0.  1.
         12    1    5    5    0    0 -0.11763696057E+03 -0.25428964457E+02  0.30379426825E+03  0.32676603885E+03  0.00000000000E+00 0. -1.
        -13    1    4    4    0    0 -0.76285405079E+01  0.20799393005E+02 -0.29623042725E+02  0.36990999445E+02  0.00000000000E+00 0.  1.
         14    1    4    4    0    0  0.11287981515E+03  0.75166694713E+02 -0.44690786005E+02  0.14279058448E+03  0.00000000000E+00 0. -1.
          5    1    3    3  501    0 -0.71363162485E+02  0.18240788197E+02 -0.35465884315E+03  0.36225738411E+03  0.47000000000E+01 0.  1.
         -5    1    3    3    0  501  0.44152721808E+02  0.38038127268E+02 -0.13882491675E+03  0.15063468883E+03  0.47000000000E+01 0.  1.
          1    1    1    2  502    0 -0.13018848200E+02 -0.15052707978E+03  0.56686867291E+03  0.58665832005E+03  0.00000000000E+00 0. -1.
          1    1    1    2  503    0  0.58658451654E+02  0.37508214945E+02 -0.11858303374E+04  0.11878725813E+04  0.00000000000E+00 0. -1.
<mgrwt>
<rscale>  0 0.10234946E+03</rscale>
<asrwt>0</asrwt>
<pdfrwt beam="1">  1        2 0.14167600E+00 0.15045413E+03</pdfrwt>
<pdfrwt beam="2">  1        2 0.27141959E+00 0.69625284E+02</pdfrwt>
<totfact> 0.53114719E+01</totfact>
</mgrwt>
</event>
<event>
13    1  0.2742815E-008  0.7017784E+02  0.7546771E-02  0.1512435E+00
          2   -1    0    0  502    0  0.00000000000E+00  0.00000000000E+00  0.19365297966E+04  0.19365297966E+04  0.00000000000E+00 0. -1.
          2   -1    0    0  503    0 -0.00000000000E+00 -0.00000000000E+00 -0.35783626811E+04  0.35783626811E+04  0.00000000000E+00 0. -1.
         25    2    1    2    0    0 -0.10951340638E+03 -0.13554679335E+03 -0.77238508413E+03  0.80160478531E+03  0.12500157714E+03 0.  0.
         24    2    1    2    0    0 -0.27249602829E+02  0.36919598981E+03 -0.73532584671E+03  0.82720724497E+03  0.80743455107E+02 0.  0.
         24    2    1    2    0    0  0.18967496188E+03 -0.30921360578E+03  0.10965558175E+04  0.11584995827E+04  0.89983204027E+02 0.  0.
        -11    1    5    5    0    0  0.10071639747E+03 -0.11725465375E+03  0.58126130499E+03  0.60146251024E+03  0.00000000000E+00 0.  1.
         12    1    5    5    0    0  0.88958564408E+02 -0.19195895203E+03  0.51529451250E+03  0.55703707243E+03  0.00000000000E+00 0. -1.
        -13    1    4    4    0    0 -0.25705350803E+02  0.15560825226E+03 -0.39601570069E+03  0.42626649930E+03  0.00000000000E+00 0.  1.
         14    1    4    4    0    0 -0.15442520256E+01  0.21358773755E+03 -0.33931014602E+03  0.40094074567E+03  0.00000000000E+00 0. -1.
          5    1    3    3  501    0 -0.65249461778E+02 -0.12997894649E+03 -0.38414405497E+03  0.41078067598E+03  0.47000000000E+01 0.  1.
         -5    1    3    3    0  501 -0.44263944601E+02 -0.55678468605E+01 -0.38824102916E+03  0.39082410933E+03  0.47000000000E+01 0.  1.
          1    1    1    2  502    0 -0.11378311710E+02  0.19011188881E+02  0.74766548631E+03  0.74799369697E+03  0.00000000000E+00 0. -1.
          1    1    1    2  503    0 -0.41533640959E+02  0.56553220436E+02 -0.19783432576E+04  0.19795871678E+04  0.00000000000E+00 0. -1.
<mgrwt>
<rscale>  0 0.39431776E+02</rscale>
<asrwt>0</asrwt>
<pdfrwt beam="1">  1        2 0.28478380E+00 0.22156066E+02</pdfrwt>
<pdfrwt beam="2">  1        2 0.52622980E+00 0.70177844E+02</pdfrwt>
<totfact> 0.26393398E+00</totfact>
</mgrwt>
</event>
<event>
13    1  0.2742815E-008  0.2036094E+03  0.7546771E-02  0.1314996E+00
          2   -1    0    0  503    0  0.00000000000E+00  0.00000000000E+00  0.10184166958E+04  0.10184166958E+04  0.00000000000E+00 0. -1.
          2   -1    0    0  502    0 -0.00000000000E+00 -0.00000000000E+00 -0.29496345025E+04  0.29496345025E+04  0.00000000000E+00 0. -1.
         25    2    1    2    0    0 -0.15328121601E+03  0.13336375830E+02 -0.53372283675E+03  0.56935075429E+03  0.12500889906E+03 0.  0.
         24    2    1    2    0    0  0.64477716097E+02 -0.57563804504E+02 -0.42857410221E+03  0.44471002281E+03  0.81365077474E+02 0.  0.
         24    2    1    2    0    0  0.15208442363E+03 -0.12237120321E+03  0.13424682957E+03  0.25034809411E+03  0.80917079079E+02 0.  0.
        -11    1    4    4    0    0  0.97794528913E+01 -0.52769124611E+02 -0.30211737461E+03  0.30684707307E+03  0.00000000000E+00 0.  1.
         12    1    4    4    0    0  0.54698263206E+02 -0.47946798931E+01 -0.12645672761E+03  0.13786294974E+03  0.00000000000E+00 0. -1.
        -11    1    5    5    0    0  0.75396181229E+02 -0.17528965798E+02  0.74267025084E+02  0.10727273559E+03  0.00000000000E+00 0.  1.
         12    1    5    5    0    0  0.76688242404E+02 -0.10484223742E+03  0.59979804484E+02  0.14307535852E+03  0.00000000000E+00 0. -1.
          5    1    3    3  501    0 -0.59509845159E+02  0.50995759906E+02 -0.11971691827E+03  0.14316500871E+03  0.47000000000E+01 0.  1.
         -5    1    3    3    0  501 -0.93771370847E+02 -0.37659384076E+02 -0.41400591848E+03  0.42618574558E+03  0.47000000000E+01 0.  1.
          1    1    1    2  502    0  0.97145225179E+00 -0.35611186856E+02 -0.18891704347E+04  0.18895062931E+04  0.00000000000E+00 0. -1.
          1    1    1    2  503    0 -0.64252375976E+02  0.20220981874E+03  0.78600273744E+03  0.81413603401E+03  0.00000000000E+00 0. -1.
<mgrwt>
<rscale>  0 0.85167312E+02</rscale>
<asrwt>0</asrwt>
<pdfrwt beam="1">  1        2 0.14976716E+00 0.20360943E+03</pdfrwt>
<pdfrwt beam="2">  1        2 0.43376977E+00 0.35624435E+02</pdfrwt>
<totfact> 0.15705363E+01</totfact>
</mgrwt>
</event>
<event>
13    1  0.2742815E-008  0.9818148E+02  0.7546771E-02  0.1356539E+00
          2   -1    0    0  502    0  0.00000000000E+00  0.00000000000E+00  0.11915423089E+04  0.11915423089E+04  0.00000000000E+00 0. -1.
          2   -1    0    0  503    0 -0.00000000000E+00 -0.00000000000E+00 -0.11588976933E+04  0.11588976933E+04  0.00000000000E+00 0. -1.
         25    2    1    2    0    0 -0.21944091316E+03  0.52924630685E+02 -0.16917228919E+03  0.30854564742E+03  0.12500328878E+03 0.  0.
         24    2    1    2    0    0  0.47516189679E+02 -0.11594996662E+03  0.69774183601E+02  0.17539412240E+03  0.10095780523E+03 0.  0.
         24    2    1    2    0    0  0.76258982919E+02  0.12901219567E+03  0.21462788160E+03  0.27378270214E+03  0.80201379817E+02 0.  0.
        -11    1    5    5    0    0  0.72180602845E+02  0.13679233236E+03  0.17660542064E+03  0.23475871916E+03  0.00000000000E+00 0.  1.
         12    1    5    5    0    0  0.40783800740E+01 -0.77801366876E+01  0.38022460954E+02  0.39023982984E+02  0.00000000000E+00 0. -1.
        -13    1    4    4    0    0  0.53559259742E+02 -0.11007176429E+03  0.91016672671E+02  0.15253990397E+03  0.00000000000E+00 0.  1.
         14    1    4    4    0    0 -0.60430700638E+01 -0.58782023265E+01 -0.21242489070E+02  0.22854218435E+02  0.00000000000E+00 0. -1.
          5    1    3    3  501    0 -0.16776775605E+02 -0.33355571998E+02 -0.27526254134E+02  0.46624446910E+02  0.47000000000E+01 0.  1.
         -5    1    3    3    0  501 -0.20266413756E+03  0.86280202682E+02 -0.14164603506E+03  0.26192120051E+03  0.47000000000E+01 0.  1.
          1    1    1    2  502    0  0.97028942343E+02 -0.14580436802E+02  0.75108302803E+03  0.75746479772E+03  0.00000000000E+00 0. -1.
          1    1    1    2  503    0 -0.13632017793E+01 -0.51406422942E+02 -0.83366818850E+03  0.83525273250E+03  0.00000000000E+00 0. -1.
<mgrwt>
<rscale>  0 0.71055843E+02</rscale>
<asrwt>0</asrwt>
<pdfrwt beam="1">  1        2 0.17522681E+00 0.98181476E+02</pdfrwt>
<pdfrwt beam="2">  1        2 0.17042613E+00 0.51424495E+02</pdfrwt>
<totfact> 0.89467276E+01</totfact>
</mgrwt>
</event>
<event>
13    1  0.2742815E-008  0.5249157E+02  0.7546771E-02  0.1572024E+00
         -1   -1    0    0    0  501  0.00000000000E+00  0.00000000000E+00  0.15788909651E+04  0.15788909651E+04  0.00000000000E+00 0.  1.
         -3   -1    0    0    0  502 -0.00000000000E+00 -0.00000000000E+00 -0.70470919815E+03  0.70470919815E+03  0.00000000000E+00 0.  1.
         25    2    1    2    0    0  0.66772706274E+02 -0.31552000164E+02 -0.24917641004E+03  0.28840224256E+03  0.12503138476E+03 0.  0.
         24    2    1    2    0    0  0.22741247393E+02  0.33384147928E+02  0.55727544301E+02  0.10496325933E+03  0.79246835577E+02 0.  0.
         24    2    1    2    0    0 -0.12618069308E+03 -0.30709590037E+02  0.27360643216E+03  0.31329209614E+03  0.80167397106E+02 0.  0.
        -11    1    5    5    0    0 -0.10045076827E+03 -0.52723025350E+02  0.17071937815E+03  0.20497604817E+03  0.00000000000E+00 0.  1.
         12    1    5    5    0    0 -0.25729924810E+02  0.22013435312E+02  0.10288705401E+03  0.10831604797E+03  0.00000000000E+00 0. -1.
        -13    1    4    4    0    0  0.29105339084E+02  0.52970494707E+02  0.58582630850E+02  0.84171959166E+02  0.00000000000E+00 0.  1.
         14    1    4    4    0    0 -0.63640916907E+01 -0.19586346779E+02 -0.28550865491E+01  0.20791300161E+02  0.00000000000E+00 0. -1.
          5    1    3    3  503    0 -0.27007802383E+02  0.54507992203E+01 -0.12647103538E+03  0.12952276013E+03  0.47000000000E+01 0.  1.
         -5    1    3    3    0  503  0.93780508657E+02 -0.37002799384E+02 -0.12270537466E+03  0.15887948242E+03  0.47000000000E+01 0.  1.
         -2    1    1    2    0  501  0.25737870697E+02  0.45768416133E+02  0.11846429388E+04  0.11858060880E+04  0.00000000000E+00 0.  1.
         -4    1    1    2    0  502  0.10928868719E+02 -0.16890973860E+02 -0.39061873824E+03  0.39113647725E+03  0.00000000000E+00 0.  1.
<mgrwt>
<rscale>  0 0.32496769E+02</rscale>
<asrwt>0</asrwt>
<pdfrwt beam="1">  1       -1 0.23218985E+00 0.52491567E+02</pdfrwt>
<pdfrwt beam="2">  1       -3 0.10363371E+00 0.20118279E+02</pdfrwt>
<totfact> 0.43239992E-01</totfact>
</mgrwt>
</event>
<event>
13    1  0.2742815E-008  0.5411285E+02  0.7546771E-02  0.1439186E+00
          2   -1    0    0  502    0  0.00000000000E+00  0.00000000000E+00  0.34362583104E+03  0.34362583104E+03  0.00000000000E+00 0. -1.
          2   -1    0    0  503    0 -0.00000000000E+00 -0.00000000000E+00 -0.21427189887E+04  0.21427189887E+04  0.00000000000E+00 0. -1.
         25    2    1    2    0    0 -0.12179356242E+03  0.11331712921E+03 -0.57984929823E+03  0.61605537174E+03  0.12499827506E+03 0.  0.
         24    2    1    2    0    0  0.29731339049E+02 -0.72593071039E+02  0.54962943699E+02  0.12551298096E+03  0.81110275092E+02 0.  0.
         24    2    1    2    0    0  0.50829741077E+01 -0.25826882813E+02  0.12828811995E+03  0.15392195948E+03  0.80878077299E+02 0.  0.
        -11    1    5    5    0    0 -0.32174417662E+02  0.94921122487E+01  0.55518895318E+02  0.64866332439E+02  0.00000000000E+00 0.  1.
         12    1    5    5    0    0  0.37257391770E+02 -0.35318995061E+02  0.72769224637E+02  0.89055627042E+02  0.00000000000E+00 0. -1.
        -11    1    4    4    0    0 -0.13369820017E+02 -0.66651658253E+02  0.42820257278E+02  0.80341583682E+02  0.00000000000E+00 0.  1.
         12    1    4    4    0    0  0.43101159066E+02 -0.59414127861E+01  0.12142686421E+02  0.45171397280E+02  0.00000000000E+00 0. -1.
          5    1    3    3  501    0 -0.10480612176E+03  0.14069116514E+03 -0.49260218127E+03  0.52293147362E+03  0.47000000000E+01 0.  1.
         -5    1    3    3    0  501 -0.16987440663E+02 -0.27374035928E+02 -0.87247116963E+02  0.93123898123E+02  0.47000000000E+01 0.  1.
          1    1    1    2  502    0  0.50950416286E+02  0.17372360215E+02  0.86062730385E+02  0.10151126726E+03  0.00000000000E+00 0. -1.
          1    1    1    2  503    0  0.36028832982E+02 -0.32269535574E+02 -0.14885576535E+04  0.14893432403E+04  0.00000000000E+00 0. -1.
<mgrwt>
<rscale>  0 0.51159503E+02</rscale>
<asrwt>0</asrwt>
<pdfrwt beam="1">  1        2 0.50533211E-01 0.54112851E+02</pdfrwt>
<pdfrwt beam="2">  1        2 0.31510573E+00 0.48367342E+02</pdfrwt>
<totfact> 0.13014662E+02</totfact>
</mgrwt>
</event>
<event>
13    1  0.2742815E-008  0.1065689E+03  0.7546771E-02  0.1283821E+00
          2   -1    0    0  503    0  0.00000000000E+00  0.00000000000E+00  0.16924783616E+04  0.16924783616E+04  0.00000000000E+00 0. -1.
          2   -1    0    0  502    0 -0.00000000000E+00 -0.00000000000E+00 -0.23106399218E+04  0.23106399218E+04  0.00000000000E+00 0. -1.
         25    2    1    2    0    0 -0.20193243504E+03  0.16861266709E+02 -0.62463107932E+03  0.66846540292E+03  0.12498399506E+03 0.  0.
         24    2    1    2    0    0  0.12439279555E+03 -0.72647357228E+01  0.24455386665E+03  0.28597200593E+03  0.80293527223E+02 0.  0.
         24    2    1    2    0    0 -0.33892111243E+02  0.29581766118E+02  0.22703248415E+03  0.24408169097E+03  0.77513656317E+02 0.  0.
        -11    1    4    4    0    0  0.41039042983E+01  0.89324958173E+01  0.84660270599E+02  0.85229061534E+02  0.00000000000E+00 0.  1.
         12    1    4    4    0    0  0.12028889125E+03 -0.16197231540E+02  0.15989359605E+03  0.20074294439E+03  0.00000000000E+00 0. -1.
        -13    1    5    5    0    0 -0.41421873943E+02 -0.10774153072E+02  0.15865971495E+03  0.16433124828E+03  0.00000000000E+00 0.  1.
         14    1    5    5    0    0  0.75297626994E+01  0.40355919190E+02  0.68372769201E+02  0.79750442683E+02  0.00000000000E+00 0. -1.
          5    1    3    3  501    0 -0.42149350011E+02  0.44281801120E+02 -0.83781413671E+02  0.10382129306E+03  0.47000000000E+01 0.  1.
         -5    1    3    3    0  501 -0.15978308503E+03 -0.27420534411E+02 -0.54084966565E+03  0.56464410986E+03  0.47000000000E+01 0.  1.
          1    1    1    2  502    0 -0.20649760996E+02 -0.88389211343E+02 -0.16293441517E+04  0.16318705310E+04  0.00000000000E+00 0. -1.
          1    1    1    2  503    0  0.13208151174E+03  0.49210914239E+02  0.11642273200E+04  0.11727286525E+04  0.00000000000E+00 0. -1.
<mgrwt>
<rscale>  0 0.98342445E+02</rscale>
<asrwt>0</asrwt>
<pdfrwt beam="1">  1        2 0.24889388E+00 0.10656891E+03</pdfrwt>
<pdfrwt beam="2">  1        2 0.33979999E+00 0.90751013E+02</pdfrwt>
<totfact> 0.13088609E+01</totfact>
</mgrwt>
</event>
<event>
13    1  0.2742815E-008  0.1502918E+03  0.7546771E-02  0.1227087E+00
          2   -1    0    0  503    0  0.00000000000E+00  0.00000000000E+00  0.15113182226E+04  0.15113182226E+04  0.00000000000E+00 0. -1.
          2   -1    0    0  502    0 -0.00000000000E+00 -0.00000000000E+00 -0.14807165144E+04  0.14807165144E+04  0.00000000000E+00 0. -1.
         25    2    1    2    0    0  0.32459520683E+03 -0.16190378470E+02 -0.25800228937E+02  0.34916219239E+03  0.12499763251E+03 0.  0.
         24    2    1    2    0    0 -0.50902499257E+02 -0.20792122817E+02  0.79184029533E+02  0.12447373264E+03  0.78741493398E+02 0.  0.
         24    2    1    2    0    0  0.42984434851E+02 -0.20422998102E+02  0.62475214303E+02  0.11075269664E+03  0.78091273013E+02 0.  0.
        -11    1    4    4    0    0 -0.47452260108E+00 -0.41337492309E+02  0.38616521781E+02  0.56570745059E+02  0.00000000000E+00 0.  1.
         12    1    4    4    0    0 -0.50427976656E+02  0.20545369493E+02  0.40567507752E+02  0.67902987581E+02  0.00000000000E+00 0. -1.
        -13    1    5    5    0    0  0.35501289945E+02  0.24062133283E+02  0.45573625661E+02  0.62580214140E+02  0.00000000000E+00 0.  1.
         14    1    5    5    0    0  0.74831449062E+01 -0.44485131385E+02  0.16901588642E+02  0.48172482504E+02  0.00000000000E+00 0. -1.
          5    1    3    3  501    0  0.26493253952E+03  0.87962727313E+01 -0.65539870362E+02  0.27310106100E+03  0.47000000000E+01 0. -1.
         -5    1    3    3    0  501  0.59662667305E+02 -0.24986651201E+02  0.39739641425E+02  0.76061131393E+02  0.47000000000E+01 0. -1.
          1    1    1    2  502    0 -0.14420085970E+03  0.56700399113E+02 -0.12351797575E+04  0.12448605771E+04  0.00000000000E+00 0. -1.
          1    1    1    2  503    0 -0.17247628272E+03  0.70510027526E+00  0.11499224507E+04  0.11627855382E+04  0.00000000000E+00 0. -1.
<mgrwt>
<rscale>  0 0.13024869E+03</rscale>
<asrwt>0</asrwt>
<pdfrwt beam="1">  1        2 0.22225268E+00 0.11287858E+03</pdfrwt>
<pdfrwt beam="2">  1        2 0.21775243E+00 0.15029178E+03</pdfrwt>
<totfact> 0.38742875E+01</totfact>
</mgrwt>
</event>
<event>
13    1  0.2742815E-008  0.1016353E+03  0.7546771E-02  0.1311466E+00
          2   -1    0    0  502    0  0.00000000000E+00  0.00000000000E+00  0.25399551064E+04  0.25399551064E+04  0.00000000000E+00 0. -1.
          2   -1    0    0  503    0 -0.00000000000E+00 -0.00000000000E+00 -0.12239230427E+04  0.12239230427E+04  0.00000000000E+00 0. -1.
         25    2    1    2    0    0 -0.22948411860E+02 -0.43309070576E+02 -0.25206564702E+03  0.28559663949E+03  0.12500417946E+03 0.  0.
         24    2    1    2    0    0  0.16341516835E+01 -0.11024111826E+03  0.24419830736E+03  0.28067491763E+03  0.83605152109E+02 0.  0.
         24    2    1    2    0    0  0.32359543342E+02  0.21198891443E+02  0.12199662584E+03  0.15107612424E+03  0.80276307556E+02 0.  0.
        -13    1    5    5    0    0  0.58278210755E+02  0.12632996362E+02  0.67108014850E+02  0.89774317614E+02  0.00000000000E+00 0.  1.
         14    1    5    5    0    0 -0.25918667413E+02  0.85658950812E+01  0.54888610993E+02  0.61301806627E+02  0.00000000000E+00 0. -1.
        -13    1    4    4    0    0 -0.88134331182E+01 -0.10008416441E+03  0.24625213150E+03  0.26595982561E+03  0.00000000000E+00 0.  1.
         14    1    4    4    0    0  0.10447584802E+02 -0.10156953847E+02 -0.20538241333E+01  0.14715092022E+02  0.00000000000E+00 0. -1.
          5    1    3    3  501    0  0.21366161698E+02  0.49082573556E+01  0.26299291847E+01  0.22574551679E+02  0.47000000000E+01 0. -1.
         -5    1    3    3    0  501 -0.44314573558E+02 -0.48217327931E+02 -0.25469557620E+03  0.26302208782E+03  0.47000000000E+01 0. -1.
          1    1    1    2  502    0 -0.65381319007E+02  0.33967873368E+02  0.21201504101E+04  0.21214302475E+04  0.00000000000E+00 0. -1.
          1    1    1    2  503    0  0.54336035841E+02  0.98383424025E+02 -0.91824763254E+03  0.92510022029E+03  0.00000000000E+00 0. -1.
<mgrwt>
<rscale>  0 0.86535234E+02</rscale>
<asrwt>0</asrwt>
<pdfrwt beam="1">  1        2 0.37352281E+00 0.73678581E+02</pdfrwt>
<pdfrwt beam="2">  1        2 0.17998868E+00 0.10163533E+03</pdfrwt>
<totfact> 0.17908109E+01</totfact>
</mgrwt>
</event>
<event>
13    1  0.2742815E-008  0.6821961E+02  0.7546771E-02  0.1505894E+00
          2   -1    0    0  502    0  0.00000000000E+00  0.00000000000E+00  0.85719885260E+03  0.85719885260E+03  0.00000000000E+00 0. -1.
          2   -1    0    0  503    0 -0.00000000000E+00 -0.00000000000E+00 -0.42199453954E+03  0.42199453954E+03  0.00000000000E+00 0. -1.
         25    2    1    2    0    0 -0.43810299603E+02  0.17226085580E+02 -0.12981240780E+02  0.13418503816E+03  0.12498412490E+03 0.  0.
         24    2    1    2    0    0  0.78014396893E+02 -0.20049698127E+02  0.79712304913E+02  0.13783114299E+03  0.78454674209E+02 0.  0.
         24    2    1    2    0    0  0.23404715582E+02 -0.32880134206E+02  0.35216217976E+03  0.36344481706E+03  0.80281070357E+02 0.  0.
        -13    1    4    4    0    0 -0.10623134630E+02 -0.54016226512E+01 -0.62786075608E+01  0.13470316609E+02  0.00000000000E+00 0.  1.
         14    1    4    4    0    0  0.88637531523E+02 -0.14648075476E+02  0.85990912474E+02  0.12436082638E+03  0.00000000000E+00 0. -1.
        -13    1    5    5    0    0  0.69805311586E+01 -0.17259263680E+02  0.11193053955E+02  0.21723131792E+02  0.00000000000E+00 0.  1.
         14    1    5    5    0    0  0.16424184423E+02 -0.15620870526E+02  0.34096912580E+03  0.34172168527E+03  0.00000000000E+00 0. -1.
          5    1    3    3  501    0  0.54236689121E+01 -0.15282344139E+02  0.46987494113E+02  0.49928757544E+02  0.47000000000E+01 0.  1.
         -5    1    3    3    0  501 -0.49233968515E+02  0.32508429720E+02 -0.59968734893E+02  0.84256280616E+02  0.47000000000E+01 0.  1.
          1    1    1    2  502    0 -0.66960782012E+02  0.13789313814E+02  0.32601864174E+03  0.33310966102E+03  0.00000000000E+00 0. -1.
          1    1    1    2  503    0  0.93519691400E+01  0.21914432938E+02 -0.30970757257E+03  0.31062273292E+03  0.00000000000E+00 0. -1.
<mgrwt>
<rscale>  0 0.40316672E+02</rscale>
<asrwt>0</asrwt>
<pdfrwt beam="1">  1        2 0.12605866E+00 0.68219613E+02</pdfrwt>
<pdfrwt beam="2">  1        2 0.62058020E-01 0.23826492E+02</pdfrwt>
<totfact> 0.44936209E+02</totfact>
</mgrwt>
</event>
<event>
13    1  0.2742815E-008  0.8516409E+02  0.7546771E-02  0.1319797E+00
          2   -1    0    0  503    0  0.00000000000E+00  0.00000000000E+00  0.19333675915E+04  0.19333675915E+04  0.00000000000E+00 0. -1.
          2   -1    0    0  502    0 -0.00000000000E+00 -0.00000000000E+00 -0.59853948589E+03  0.59853948589E+03  0.00000000000E+00 0. -1.
         25    2    1    2    0    0  0.15554775014E+02 -0.33657549748E+02 -0.10681717226E+02  0.13082102398E+03  0.12500103820E+03 0.  0.
         24    2    1    2    0    0 -0.61491435839E+01 -0.23071227722E+01 -0.73056961171E+01  0.81243905841E+02  0.80647779004E+02 0.  0.
         24    2    1    2    0    0  0.24303908494E+02 -0.43159817229E+02  0.10031339746E+03  0.13747057783E+03  0.79886996862E+02 0.  0.
        -13    1    5    5    0    0  0.51424415482E+02 -0.14360811801E+02  0.67569594872E+02  0.86118253433E+02  0.00000000000E+00 0.  1.
         14    1    5    5    0    0 -0.27120506989E+02 -0.28799005428E+02  0.32743802585E+02  0.51352324394E+02  0.00000000000E+00 0. -1.
        -13    1    4    4    0    0  0.17047514591E+02 -0.66058770976E+01  0.31155542471E+02  0.36123720636E+02  0.00000000000E+00 0.  1.
         14    1    4    4    0    0 -0.23196658175E+02  0.42987543253E+01 -0.38461238588E+02  0.45120185205E+02  0.00000000000E+00 0. -1.
          5    1    3    3  501    0  0.30060785563E+02 -0.74852820173E+02 -0.25066067129E+02  0.84599014403E+02  0.47000000000E+01 0.  1.
         -5    1    3    3    0  501 -0.14506010548E+02  0.41195270425E+02  0.14384349903E+02  0.46222009579E+02  0.47000000000E+01 0.  1.
          1    1    1    2  502    0  0.37203386231E+02  0.11943298655E+03 -0.45552952262E+03  0.47239334902E+03  0.00000000000E+00 0. -1.
          1    1    1    2  503    0 -0.70912926155E+02 -0.40308496798E+02  0.17080316441E+04  0.17099782207E+04  0.00000000000E+00 0. -1.
<mgrwt>
<rscale>  0 0.83352721E+02</rscale>
<asrwt>0</asrwt>
<pdfrwt beam="1">  1        2 0.28431876E+00 0.81579876E+02</pdfrwt>
<pdfrwt beam="2">  1        2 0.88020513E-01 0.85164092E+02</pdfrwt>
<totfact> 0.85602736E+01</totfact>
</mgrwt>
</event>
<event>
13    1  0.2742815E-008  0.8056018E+02  0.7546771E-02  0.1328643E+00
          2   -1    0    0  502    0  0.00000000000E+00  0.00000000000E+00  0.27081569397E+04  0.27081569397E+04  0.00000000000E+00 0. -1.
          2   -1    0    0  503    0 -0.00000000000E+00 -0.00000000000E+00 -0.11540003701E+04  0.11540003701E+04  0.00000000000E+00 0. -1.
         25    2    1    2    0    0  0.14228280563E+03  0.23903146013E+03  0.74758387345E+02  0.31399433801E+03  0.12499276823E+03 0.  0.
         24    2    1    2    0    0 -0.92872864133E+02 -0.12556549654E+03  0.11138229573E+03  0.20864946918E+03  0.82076320424E+02 0.  0.
         24    2    1    2    0    0 -0.33074036064E+02 -0.33080569135E+02  0.28825191784E+03  0.30232159092E+03  0.78236566149E+02 0.  0.
        -11    1    5    5    0    0 -0.45989378384E+02 -0.42602926337E+02  0.14238588210E+03  0.15557561402E+03  0.00000000000E+00 0.  1.
         12    1    5    5    0    0  0.12915342320E+02  0.95223572018E+01  0.14586603573E+03  0.14674597689E+03  0.00000000000E+00 0. -1.
        -13    1    4    4    0    0 -0.57653317695E+02 -0.12868267597E+03  0.91348921308E+02  0.16801119474E+03  0.00000000000E+00 0.  1.
         14    1    4    4    0    0 -0.35219546438E+02  0.31171794218E+01  0.20033374422E+02  0.40638274441E+02  0.00000000000E+00 0. -1.
          5    1    3    3  501    0  0.43619285103E+02  0.11149418060E+03 -0.27590391145E+02  0.12295086020E+03  0.47000000000E+01 0.  1.
         -5    1    3    3    0  501  0.98663520529E+02  0.12753727954E+03  0.10234877849E+03  0.19104347781E+03  0.47000000000E+01 0.  1.
          1    1    1    2  502    0  0.59205699260E+02 -0.54883038165E+02  0.20560606703E+04  0.20576449991E+04  0.00000000000E+00 0. -1.
          1    1    1    2  503    0 -0.75541604695E+02 -0.25502356289E+02 -0.97629670162E+03  0.97954691251E+03  0.00000000000E+00 0. -1.
<mgrwt>
<rscale>  0 0.80144113E+02</rscale>
<asrwt>0</asrwt>
<pdfrwt beam="1">  1        2 0.39825837E+00 0.80560178E+02</pdfrwt>
<pdfrwt beam="2">  1        2 0.16970594E+00 0.79730196E+02</pdfrwt>
<totfact> 0.16110361E+01</totfact>
</mgrwt>
</event>
<event>
13    1  0.2742815E-008  0.6794409E+02  0.7546771E-02  0.1415260E+00
          2   -1    0    0  502    0  0.00000000000E+00  0.00000000000E+00  0.33180126247E+03  0.33180126247E+03  0.00000000000E+00 0. -1.
          2   -1    0    0  503    0 -0.00000000000E+00 -0.00000000000E+00 -0.15422823857E+04  0.15422823857E+04  0.00000000000E+00 0. -1.
         25    2    1    2    0    0  0.13546329093E+03  0.24746256957E+03 -0.78863593976E+03  0.84685266488E+03  0.12499905599E+03 0.  0.
         24    2    1    2    0    0 -0.48412567676E+02 -0.31247721767E+03 -0.41241698957E+02  0.32875995467E+03  0.79977758069E+02 0.  0.
         24    2    1    2    0    0  0.10803059270E+02  0.69587897476E+01 -0.56576334325E+02  0.94614339934E+02  0.74738617001E+02 0.  0.
        -13    1    5    5    0    0 -0.32163324870E+02  0.43382746797E+01 -0.28749477866E+02  0.43357036009E+02  0.00000000000E+00 0.  1.
         14    1    5    5    0    0  0.42966384140E+02  0.26205150679E+01 -0.27826856459E+02  0.51257303925E+02  0.00000000000E+00 0. -1.
        -13    1    4    4    0    0 -0.22273937373E+02 -0.23599133015E+03  0.20885957805E+01  0.23704935863E+03  0.00000000000E+00 0.  1.
         14    1    4    4    0    0 -0.26138630303E+02 -0.76485887522E+02 -0.43330294737E+02  0.91710596040E+02  0.00000000000E+00 0. -1.
          5    1    3    3  501    0  0.95636080902E+02  0.53366247825E+02 -0.30967624839E+03  0.32850522857E+03  0.47000000000E+01 0. -1.
         -5    1    3    3    0  501  0.39827210025E+02  0.19409632175E+03 -0.47895969137E+03  0.51834743631E+03  0.47000000000E+01 0. -1.
          1    1    1    2  502    0 -0.58780407285E+02  0.33374447712E+02  0.13051019511E+03  0.14697585199E+03  0.00000000000E+00 0. -1.
          1    1    1    2  503    0 -0.39073375235E+02  0.24681410639E+02 -0.45453734530E+03  0.45688083671E+03  0.00000000000E+00 0. -1.
<mgrwt>
<rscale>  0 0.56036514E+02</rscale>
<asrwt>0</asrwt>
<pdfrwt beam="1">  1        2 0.48794303E-01 0.67944092E+02</pdfrwt>
<pdfrwt beam="2">  1        2 0.22680623E+00 0.46215806E+02</pdfrwt>
<totfact> 0.25841737E+02</totfact>
</mgrwt>
</event>
<event>
13    1  0.2742815E-008  0.5614439E+02  0.7546771E-02  0.1669317E+00
          2   -1    0    0  503    0  0.00000000000E+00  0.00000000000E+00  0.28720621438E+04  0.28720621438E+04  0.00000000000E+00 0. -1.
          2   -1    0    0  502    0 -0.00000000000E+00 -0.00000000000E+00 -0.60582048291E+03  0.60582048291E+03  0.00000000000E+00 0. -1.
         25    2    1    2    0    0  0.95804916374E+02 -0.91387766279E+02 -0.40284738016E+03  0.44208794319E+03  0.12500172794E+03 0.  0.
         24    2    1    2    0    0  0.31342031762E+01  0.22623586035E+02 -0.23491276518E+01  0.84332734287E+02  0.81147038128E+02 0.  0.
         24    2    1    2    0    0 -0.53282252447E+02  0.58467056520E+02  0.90007404956E+03  0.90718462647E+03  0.81198871163E+02 0.  0.
        -11    1    5    5    0    0 -0.22190582616E+02 -0.13850882062E+02  0.10444482874E+03  0.10767075342E+03  0.00000000000E+00 0.  1.
         12    1    5    5    0    0 -0.31091669831E+02  0.72317938582E+02  0.79562922082E+03  0.79951387305E+03  0.00000000000E+00 0. -1.
        -13    1    4    4    0    0 -0.12489982483E+02 -0.12169574231E+02 -0.31717740501E+02  0.36195486761E+02  0.00000000000E+00 0.  1.
         14    1    4    4    0    0  0.15624185659E+02  0.34793160266E+02  0.29368612849E+02  0.48137247527E+02  0.00000000000E+00 0. -1.
          5    1    3    3  501    0  0.28255307223E+02  0.27246888892E+02 -0.50122291240E+02  0.63836427059E+02  0.47000000000E+01 0.  1.
         -5    1    3    3    0  501  0.67549609152E+02 -0.11863465517E+03 -0.35272508892E+03  0.37825151613E+03  0.47000000000E+01 0.  1.
          1    1    1    2  502    0  0.10071188069E+02  0.34034940892E+01 -0.13583569344E+03  0.13625104848E+03  0.00000000000E+00 0. -1.
          1    1    1    2  503    0 -0.55728055172E+02  0.68936296351E+01  0.19071998126E+04  0.19080262743E+04  0.00000000000E+00 0. -1.
<mgrwt>
<rscale>  0 0.24430643E+02</rscale>
<asrwt>0</asrwt>
<pdfrwt beam="1">  1        2 0.42236208E+00 0.56144387E+02</pdfrwt>
<pdfrwt beam="2">  1        2 0.89091248E-01 0.10630739E+02</pdfrwt>
<totfact> 0.32085473E+01</totfact>
</mgrwt>
</event>
<event>
13    1  0.2742815E-008  0.2066751E+03  0.7546771E-02  0.1193787E+00
          2   -1    0    0  502    0  0.00000000000E+00  0.00000000000E+00  0.14734885081E+04  0.14734885081E+04  0.00000000000E+00 0. -1.
          2   -1    0    0  503    0 -0.00000000000E+00 -0.00000000000E+00 -0.11166917920E+04  0.11166917920E+04  0.00000000000E+00 0. -1.
         25    2    1    2    0    0 -0.22044767451E+03  0.64713866969E+02 -0.16444292341E+03  0.30895053014E+03  0.12499557288E+03 0.  0.
         24    2    1    2    0    0  0.50306573533E+02  0.18528599194E+02 -0.12430590935E+02  0.97965171898E+02  0.81046869066E+02 0.  0.
         24    2    1    2    0    0 -0.18639923856E+03  0.54781587845E+02  0.30668045427E+03  0.37199311606E+03  0.81118918004E+02 0.  0.
        -13    1    4    4    0    0  0.15630695774E+02  0.38669404230E+02 -0.32731306551E+02  0.53018675034E+02  0.00000000000E+00 0.  1.
         14    1    4    4    0    0  0.34675877759E+02 -0.20140805035E+02  0.20300715616E+02  0.44946496864E+02  0.00000000000E+00 0. -1.
        -13    1    5    5    0    0 -0.86162139732E+02  0.59778432350E+02  0.11504996509E+03  0.15567231534E+03  0.00000000000E+00 0.  1.
         14    1    5    5    0    0 -0.10023709883E+03 -0.49968445048E+01  0.19163048918E+03  0.21632080071E+03  0.00000000000E+00 0. -1.
          5    1    3    3  501    0 -0.12265054124E+03  0.25152645621E+02 -0.15321075615E+02  0.12622454676E+03  0.47000000000E+01 0.  1.
         -5    1    3    3    0  501 -0.97797133270E+02  0.39561221348E+02 -0.14912184779E+03  0.18272598337E+03  0.47000000000E+01 0.  1.
          1    1    1    2  502    0 -0.83325581758E+02  0.82395758857E+02  0.93873828556E+03  0.94602419759E+03  0.00000000000E+00 0. -1.
          1    1    1    2  503    0  0.43986592130E+03 -0.22041981286E+03 -0.71174850938E+03  0.86524728444E+03  0.00000000000E+00 0. -1.
<mgrwt>
<rscale>  0 0.15557319E+03</rscale>
<asrwt>0</asrwt>
<pdfrwt beam="1">  1        2 0.21668949E+00 0.11710659E+03</pdfrwt>
<pdfrwt beam="2">  1        2 0.16421938E+00 0.20667510E+03</pdfrwt>
<totfact> 0.61732073E+01</totfact>
</mgrwt>
</event>
<event>
13    1  0.2742815E-008  0.6213690E+02  0.7546771E-02  0.1406452E+00
          2   -1    0    0  502    0  0.00000000000E+00  0.00000000000E+00  0.14205587877E+04  0.14205587877E+04  0.00000000000E+00 0. -1.
          2   -1    0    0  503    0 -0.00000000000E+00 -0.00000000000E+00 -0.43778274162E+03  0.43778274162E+03  0.00000000000E+00 0. -1.
         25    2    1    2    0    0  0.27788336708E+02 -0.49558920478E+02  0.24039245414E+02  0.13940909224E+03  0.12501492481E+03 0.  0.
         24    2    1    2    0    0 -0.44993355947E+02 -0.88413395247E+01  0.87959759670E+02  0.12400431576E+03  0.74414915461E+02 0.  0.
         24    2    1    2    0    0 -0.28104378131E+02 -0.48034876817E+02  0.40411151173E+03  0.41587219790E+03  0.80909613844E+02 0.  0.
        -11    1    4    4    0    0  0.29690088307E+01 -0.31369209587E+02  0.18155537324E+02  0.36365723684E+02  0.00000000000E+00 0.  1.
         12    1    4    4    0    0 -0.47962364777E+02  0.22527870062E+02  0.69804222346E+02  0.87638592081E+02  0.00000000000E+00 0. -1.
        -13    1    5    5    0    0 -0.11562453758E+02 -0.54577973917E+02  0.13365505345E+03  0.14483134635E+03  0.00000000000E+00 0.  1.
         14    1    5    5    0    0 -0.16541924373E+02  0.65430971001E+01  0.27045645828E+03  0.27104085155E+03  0.00000000000E+00 0. -1.
          5    1    3    3  501    0 -0.16419306184E+02 -0.70202972187E+02  0.46049602178E+02  0.85677924696E+02  0.47000000000E+01 0. -1.
         -5    1    3    3    0  501  0.44207642892E+02  0.20644051710E+02 -0.22010356764E+02  0.53731167547E+02  0.47000000000E+01 0. -1.
          1    1    1    2  502    0  0.25230214955E+02  0.47885708660E+02  0.81927199406E+03  0.82105797912E+03  0.00000000000E+00 0. -1.
          1    1    1    2  503    0  0.20079182415E+02  0.58549428159E+02 -0.35260646479E+03  0.35799794429E+03  0.00000000000E+00 0. -1.
<mgrwt>
<rscale>  0 0.57993197E+02</rscale>
<asrwt>0</asrwt>
<pdfrwt beam="1">  1        2 0.20890570E+00 0.54125824E+02</pdfrwt>
<pdfrwt beam="2">  1        2 0.64379815E-01 0.62136899E+02</pdfrwt>
<totfact> 0.21895915E+02</totfact>
</mgrwt>
</event>
<event>
13    1  0.2742815E-008  0.8916403E+02  0.7546771E-02  0.1458056E+00
          2   -1    0    0  503    0  0.00000000000E+00  0.00000000000E+00  0.32714842158E+03  0.32714842158E+03  0.00000000000E+00 0. -1.
          2   -1    0    0  502    0 -0.00000000000E+00 -0.00000000000E+00 -0.37913387480E+04  0.37913387480E+04  0.00000000000E+00 0. -1.
         25    2    1    2    0    0  0.13023802177E+03 -0.15804129853E+03 -0.26243957882E+04  0.26353398919E+04  0.12499639312E+03 0.  0.
         24    2    1    2    0    0 -0.16923843792E+01  0.68363466357E+02 -0.87505233958E+02  0.13796634055E+03  0.81860353384E+02 0.  0.
         24    2    1    2    0    0 -0.81102699781E+02 -0.83500269927E+01 -0.18216721519E+03  0.21509969569E+03  0.80222278275E+02 0.  0.
        -13    1    5    5    0    0 -0.35909050587E+02  0.25690501796E+02 -0.31721267949E+02  0.54366355744E+02  0.00000000000E+00 0.  1.
         14    1    5    5    0    0 -0.45193649195E+02 -0.34040528789E+02 -0.15044594724E+03  0.16073333994E+03  0.00000000000E+00 0. -1.
        -13    1    4    4    0    0 -0.61159935026E+01 -0.53308193187E+01 -0.57833565062E+02  0.58399865230E+02  0.00000000000E+00 0.  1.
         14    1    4    4    0    0  0.44236091234E+01  0.73694285676E+02 -0.29671668896E+02  0.79566475315E+02  0.00000000000E+00 0. -1.
          5    1    3    3  501    0  0.10530790907E+03 -0.40492002329E+02 -0.96311721683E+03  0.96971450506E+03  0.47000000000E+01 0.  1.
         -5    1    3    3    0  501  0.24930112700E+02 -0.11754929620E+03 -0.16612785714E+04  0.16656253868E+04  0.47000000000E+01 0.  1.
          1    1    1    2  502    0  0.39621059213E+01  0.25227583759E+02 -0.84281146004E+03  0.84319824860E+03  0.00000000000E+00 0. -1.
          1    1    1    2  503    0 -0.51405043530E+02  0.72800275406E+02  0.27268937093E+03  0.28688299291E+03  0.00000000000E+00 0. -1.
<mgrwt>
<rscale>  0 0.47717563E+02</rscale>
<asrwt>0</asrwt>
<pdfrwt beam="1">  1        2 0.48110063E-01 0.89164025E+02</pdfrwt>
<pdfrwt beam="2">  1        2 0.55754981E+00 0.25536822E+02</pdfrwt>
<totfact> 0.21894139E+01</totfact>
</mgrwt>
</event>
<event>
13    1  0.2742815E-008  0.1067950E+03  0.7546771E-02  0.1393807E+00
          2   -1    0    0  502    0  0.00000000000E+00  0.00000000000E+00  0.31981832409E+03  0.31981832409E+03  0.00000000000E+00 0. -1.
          2   -1    0    0  503    0 -0.00000000000E+00 -0.00000000000E+00 -0.20233872071E+04  0.20233872071E+04  0.00000000000E+00 0. -1.
         25    2    1    2    0    0  0.16397561207E+03 -0.70302839004E+02 -0.79900380030E+03  0.82816931506E+03  0.12500740372E+03 0.  0.
         24    2    1    2    0    0 -0.84630986582E+02 -0.10215617469E+03 -0.61523610913E+02  0.16697853091E+03  0.80612574500E+02 0.  0.
         24    2    1    2    0    0 -0.18814950916E+03  0.13022958028E+03  0.11750710486E+03  0.26937759998E+03  0.79977436182E+02 0.  0.
        -11    1    4    4    0    0 -0.35311346018E+02 -0.70698958666E+02 -0.72749050321E+02  0.10741349187E+03  0.00000000000E+00 0.  1.
         12    1    4    4    0    0 -0.49319640564E+02 -0.31457216027E+02  0.11225439408E+02  0.59565039036E+02  0.00000000000E+00 0. -1.
        -13    1    5    5    0    0  0.17133112623E+01  0.19137854209E+02  0.22973129906E+02  0.29949250356E+02  0.00000000000E+00 0.  1.
         14    1    5    5    0    0 -0.18986282043E+03  0.11109172607E+03  0.94533974954E+02  0.23942834962E+03  0.00000000000E+00 0. -1.
          5    1    3    3  501    0  0.67270114974E+02  0.32884420816E+02 -0.32175400703E+03  0.33038520630E+03  0.47000000000E+01 0.  1.
         -5    1    3    3    0  501  0.96705497092E+02 -0.10318725982E+03 -0.47724979327E+03  0.49778410876E+03  0.47000000000E+01 0.  1.
          1    1    1    2  502    0  0.10629053228E+03  0.75126415923E+01  0.10441734875E+02  0.10706608643E+03  0.00000000000E+00 0. -1.
          1    1    1    2  503    0  0.25143514017E+01  0.34716791823E+02 -0.97099031149E+03  0.97161399877E+03  0.00000000000E+00 0. -1.
<mgrwt>
<rscale>  0 0.60969586E+02</rscale>
<asrwt>0</asrwt>
<pdfrwt beam="1">  1        2 0.47032105E-01 0.10679499E+03</pdfrwt>
<pdfrwt beam="2">  1        2 0.29755695E+00 0.34807723E+02</pdfrwt>
<totfact> 0.16628288E+02</totfact>
</mgrwt>
</event>
<event>
13    1  0.2742815E-008  0.4603951E+02  0.7546771E-02  0.1484861E+00
          2   -1    0    0  503    0  0.00000000000E+00  0.00000000000E+00  0.16817745411E+04  0.16817745411E+04  0.00000000000E+00 0. -1.
          2   -1    0    0  502    0 -0.00000000000E+00 -0.00000000000E+00 -0.33209569353E+04  0.33209569353E+04  0.00000000000E+00 0. -1.
         25    2    1    2    0    0 -0.27781953593E+02  0.20255994766E+02 -0.32739924959E+03  0.35213364878E+03  0.12500278278E+03 0.  0.
         24    2    1    2    0    0  0.86852077098E+02 -0.89795825540E+01  0.97155787199E+02  0.15186781090E+03  0.77463983904E+02 0.  0.
         24    2    1    2    0    0 -0.26327592887E+02 -0.27216596872E+02  0.74142903443E+02  0.11434364803E+03  0.78379936339E+02 0.  0.
        -11    1    5    5    0    0  0.12141063159E+02 -0.43497805434E+02  0.35575998034E+02  0.57490139401E+02  0.00000000000E+00 0.  1.
         12    1    5    5    0    0 -0.38468656045E+02  0.16281208562E+02  0.38566905408E+02  0.56853508625E+02  0.00000000000E+00 0. -1.
        -11    1    4    4    0    0  0.85374844489E+02  0.19937664442E+02  0.75675522291E+02  0.11581519421E+03  0.00000000000E+00 0.  1.
         12    1    4    4    0    0  0.14772326093E+01 -0.28917246996E+02  0.21480264908E+02  0.36052616694E+02  0.00000000000E+00 0. -1.
          5    1    3    3  501    0  0.36788524263E+02 -0.21032405135E+02 -0.19008468227E+03  0.19480768469E+03  0.47000000000E+01 0.  1.
         -5    1    3    3    0  501 -0.64570477855E+02  0.41288399901E+02 -0.13731456733E+03  0.15732596409E+03  0.47000000000E+01 0.  1.
          1    1    1    2  502    0 -0.27846934700E+02 -0.29863660533E+02 -0.29332262787E+04  0.29335104725E+04  0.00000000000E+00 0. -1.
          1    1    1    2  503    0 -0.48955959181E+01  0.45803845193E+02  0.14501444435E+04  0.14508758962E+04  0.00000000000E+00 0. -1.
<mgrwt>
<rscale>  0 0.43357889E+02</rscale>
<asrwt>0</asrwt>
<pdfrwt beam="1">  1        2 0.24731979E+00 0.46039509E+02</pdfrwt>
<pdfrwt beam="2">  1        2 0.48837601E+00 0.40832462E+02</pdfrwt>
<totfact> 0.49478507E+00</totfact>
</mgrwt>
</event>
<event>
13    1  0.2742815E-008  0.5038159E+02  0.7546771E-02  0.1449843E+00
          2   -1    0    0  503    0  0.00000000000E+00  0.00000000000E+00  0.23898287742E+04  0.23898287742E+04  0.00000000000E+00 0. -1.
          2   -1    0    0  502    0 -0.00000000000E+00 -0.00000000000E+00 -0.11633809752E+04  0.11633809752E+04  0.00000000000E+00 0. -1.
         25    2    1    2    0    0  0.12371141360E+03  0.25725212574E+03 -0.40334762458E+02  0.31422134576E+03  0.12499996405E+03 0.  0.
         24    2    1    2    0    0 -0.37978447516E+03 -0.10350595452E+04  0.17730811800E+03  0.11191668257E+04  0.74240860346E+02 0.  0.
         24    2    1    2    0    0  0.26473663255E+03  0.77152638597E+03  0.94387917018E+03  0.12494170106E+04  0.69256982515E+02 0.  0.
        -11    1    4    4    0    0 -0.21479439475E+03 -0.68101738378E+03  0.10121998220E+03  0.72122589653E+03  0.00000000000E+00 0.  1.
         12    1    4    4    0    0 -0.16499008041E+03 -0.35404216144E+03  0.76088135805E+02  0.39794092918E+03  0.00000000000E+00 0. -1.
        -11    1    5    5    0    0  0.22568148866E+03  0.57629213971E+03  0.73446877384E+03  0.96046298439E+03  0.00000000000E+00 0.  1.
         12    1    5    5    0    0  0.39055143887E+02  0.19523424626E+03  0.20941039633E+03  0.28895402622E+03  0.00000000000E+00 0. -1.
          5    1    3    3  501    0  0.10922705232E+03  0.14868633498E+03  0.25555747048E+02  0.18631522046E+03  0.47000000000E+01 0. -1.
         -5    1    3    3    0  501  0.14484361285E+02  0.10856579077E+03 -0.65890509506E+02  0.12790612530E+03  0.47000000000E+01 0. -1.
          1    1    1    2  502    0 -0.23132055208E+02 -0.42055072188E+02 -0.35955316709E+03  0.36274260991E+03  0.00000000000E+00 0. -1.
          1    1    1    2  503    0  0.14468484216E+02  0.48336105699E+02  0.50514844036E+03  0.50766195736E+03  0.00000000000E+00 0. -1.
<mgrwt>
<rscale>  0 0.49174889E+02</rscale>
<asrwt>0</asrwt>
<pdfrwt beam="1">  1        2 0.35144541E+00 0.50381586E+02</pdfrwt>
<pdfrwt beam="2">  1        2 0.17108544E+00 0.47997094E+02</pdfrwt>
<totfact> 0.25105449E+01</totfact>
</mgrwt>
</event>
<event>
13    1  0.2742815E-008  0.1270648E+03  0.7546771E-02  0.1279320E+00
          2   -1    0    0  502    0  0.00000000000E+00  0.00000000000E+00  0.52390217699E+04  0.52390217699E+04  0.00000000000E+00 0. -1.
          2   -1    0    0  503    0 -0.00000000000E+00 -0.00000000000E+00 -0.97627568752E+02  0.97627568752E+02  0.00000000000E+00 0. -1.
         25    2    1    2    0    0  0.33231483923E+02  0.63655215071E+02  0.10224738766E+03  0.17674139305E+03  0.12500669504E+03 0.  0.
         24    2    1    2    0    0 -0.73289393279E+02 -0.12880984691E+03  0.32452311528E+03  0.36438368941E+03  0.74141141930E+02 0.  0.
         24    2    1    2    0    0  0.44321896668E+02 -0.71054210686E+01  0.16320654738E+04  0.16345420633E+04  0.77943110777E+02 0.  0.
        -11    1    4    4    0    0  0.55157156685E+01 -0.52994892404E+02  0.14126009208E+03  0.15097448577E+03  0.00000000000E+00 0.  1.
         12    1    4    4    0    0 -0.78805108947E+02 -0.75814954511E+02  0.18326302320E+03  0.21340920364E+03  0.00000000000E+00 0. -1.
        -13    1    5    5    0    0 -0.13078847074E+02  0.97660338537E+01  0.10119847468E+03  0.10250640436E+03  0.00000000000E+00 0.  1.
         14    1    5    5    0    0  0.57400743742E+02 -0.16871454922E+02  0.15308669991E+04  0.15320356590E+04  0.00000000000E+00 0. -1.
          5    1    3    3  501    0  0.46256899036E+02  0.81715537625E+02  0.26545708225E+02  0.97692857584E+02  0.47000000000E+01 0. -1.
         -5    1    3    3    0  501 -0.13025415114E+02 -0.18060322554E+02  0.75701679436E+02  0.79048535465E+02  0.47000000000E+01 0. -1.
          1    1    1    2  502    0  0.36794488613E+02 -0.70399246072E+02  0.29788154461E+04  0.29798743850E+04  0.00000000000E+00 0. -1.
          1    1    1    2  503    0 -0.41058475925E+02  0.14265929898E+03  0.10374277833E+03  0.18110780791E+03  0.00000000000E+00 0. -1.
<mgrwt>
<rscale>  0 0.10046574E+03</rscale>
<asrwt>0</asrwt>
<pdfrwt beam="1">  1        2 0.77044419E+00 0.79434805E+02</pdfrwt>
<pdfrwt beam="2">  1        2 0.14356999E-01 0.12706477E+03</pdfrwt>
<totfact> 0.42768092E+00</totfact>
</mgrwt>
</event>
<event>
13    1  0.2742815E-008  0.5913013E+02  0.7546771E-02  0.1461090E+00
          2   -1    0    0  503    0  0.00000000000E+00  0.00000000000E+00  0.38423838686E+03  0.38423838686E+03  0.00000000000E+00 0. -1.
         -1   -1    0    0    0  501 -0.00000000000E+00 -0.00000000000E+00 -0.13771260260E+04  0.13771260260E+04  0.00000000000E+00 0.  1.
         25    2    1    2    0    0  0.13536635044E+03  0.80244578375E+02 -0.21117414307E+03  0.29151177786E+03  0.12498542610E+03 0.  0.
         24    2    1    2    0    0 -0.92430369980E+02 -0.72299164075E+00  0.19332769340E+02  0.12443437059E+03  0.81032466353E+02 0.  0.
         24    2    1    2    0    0  0.18822051598E+02 -0.18093794965E+02 -0.24853064100E+01  0.85436731080E+02  0.81311765613E+02 0.  0.
        -11    1    4    4    0    0 -0.76657216009E+02  0.34695120744E+02  0.13917601672E+02  0.85286457342E+02  0.00000000000E+00 0.  1.
         12    1    4    4    0    0 -0.15773153971E+02 -0.35418112385E+02  0.54151676686E+01  0.39147913252E+02  0.00000000000E+00 0. -1.
        -11    1    5    5    0    0 -0.27637534078E+02 -0.17838197323E+02  0.14527584441E+02  0.35959495037E+02  0.00000000000E+00 0.  1.
         12    1    5    5    0    0  0.46459585676E+02 -0.25559764229E+00 -0.17012890851E+02  0.49477236043E+02  0.00000000000E+00 0. -1.
          5    1    3    3  502    0  0.10584972818E+03 -0.92154917023E+01 -0.10416409342E+03  0.14886684856E+03  0.47000000000E+01 0. -1.
         -5    1    3    3    0  502  0.29516622268E+02  0.89460070078E+02 -0.10701004964E+03  0.14264492929E+03  0.47000000000E+01 0. -1.
          1    1    1    2  503    0 -0.24971552651E+02 -0.53326574714E+02  0.22660154669E+03  0.23412723672E+03  0.00000000000E+00 0. -1.
         -2    1    1    2    0  501 -0.36786479410E+02 -0.81012170557E+01 -0.10251625056E+04  0.10258542966E+04  0.00000000000E+00 0.  1.
<mgrwt>
<rscale>  0 0.47194395E+02</rscale>
<asrwt>0</asrwt>
<pdfrwt beam="1">  1        2 0.56505644E-01 0.59130128E+02</pdfrwt>
<pdfrwt beam="2">  1       -1 0.20251854E+00 0.37667954E+02</pdfrwt>
<totfact> 0.19343331E+01</totfact>
</mgrwt>
</event>
<event>
13    1  0.2742815E-008  0.6363513E+02  0.7546771E-02  0.1404305E+00
          2   -1    0    0  502    0  0.00000000000E+00  0.00000000000E+00  0.11295884405E+04  0.11295884405E+04  0.00000000000E+00 0. -1.
          2   -1    0    0  503    0 -0.00000000000E+00 -0.00000000000E+00 -0.16739281807E+04  0.16739281807E+04  0.00000000000E+00 0. -1.
         25    2    1    2    0    0 -0.12227125875E+03 -0.37813915621E+02 -0.35165796965E+03  0.39454636495E+03  0.12499341400E+03 0.  0.
         24    2    1    2    0    0 -0.79826278241E+01  0.13744251004E+02  0.11743266254E+02  0.10752274710E+03  0.10569110681E+03 0.  0.
         24    2    1    2    0    0  0.24678003759E+02 -0.17610325978E+02  0.40322801224E+02  0.90929283120E+02  0.75651032905E+02 0.  0.
        -11    1    4    4    0    0 -0.19327487990E+02 -0.10500573441E+02 -0.42039962387E+02  0.47446520126E+02  0.00000000000E+00 0.  1.
         12    1    4    4    0    0  0.11344860166E+02  0.24244824445E+02  0.53783228641E+02  0.60076226975E+02  0.00000000000E+00 0. -1.
        -13    1    5    5    0    0 -0.82961005163E+01 -0.13989258520E+02 -0.17734595306E+02  0.24063260552E+02  0.00000000000E+00 0.  1.
         14    1    5    5    0    0  0.32974104275E+02 -0.36210674584E+01  0.58057396530E+02  0.66866022568E+02  0.00000000000E+00 0. -1.
          5    1    3    3  501    0  0.84694469138E+01 -0.77949002620E+01  0.50507047782E+01  0.13419821902E+02  0.47000000000E+01 0.  1.
         -5    1    3    3    0  501 -0.13074070566E+03 -0.30019015359E+02 -0.35670867443E+03  0.38112654304E+03  0.47000000000E+01 0.  1.
          1    1    1    2  502    0  0.42885227897E+02  0.32403180580E+02  0.98133136719E+03  0.98280230012E+03  0.00000000000E+00 0. -1.
          1    1    1    2  503    0  0.62690654917E+02  0.92768100158E+01 -0.12260792052E+04  0.12277159260E+04  0.00000000000E+00 0. -1.
<mgrwt>
<rscale>  0 0.58484320E+02</rscale>
<asrwt>0</asrwt>
<pdfrwt beam="1">  1        2 0.16611595E+00 0.53750431E+02</pdfrwt>
<pdfrwt beam="2">  1        2 0.24616591E+00 0.63635130E+02</pdfrwt>
<totfact> 0.54950939E+01</totfact>
</mgrwt>
</event>
<event>
13    1  0.2742815E-008  0.4933227E+02  0.7546771E-02  0.1533103E+00
          2   -1    0    0  503    0  0.00000000000E+00  0.00000000000E+00  0.15501369920E+04  0.15501369920E+04  0.00000000000E+00 0. -1.
          2   -1    0    0  502    0 -0.00000000000E+00 -0.00000000000E+00 -0.25926976124E+04  0.25926976124E+04  0.00000000000E+00 0. -1.
         25    2    1    2    0    0 -0.13272921377E+03  0.76078221325E+02 -0.81369794740E+03  0.83733553823E+03  0.12498605531E+03 0.  0.
         24    2    1    2    0    0 -0.66913924344E+02  0.52435971081E+00 -0.23546727856E+03  0.25775439749E+03  0.80713951267E+02 0.  0.
         24    2    1    2    0    0  0.14715655577E+03 -0.20569638036E+02  0.85459113361E+03  0.87113013198E+03  0.80396139763E+02 0.  0.
        -11    1    4    4    0    0 -0.28525149276E+02 -0.32023559245E+02 -0.16914759850E+03  0.17449957755E+03  0.00000000000E+00 0.  1.
         12    1    4    4    0    0 -0.38388775068E+02  0.32547918956E+02 -0.66319680061E+02  0.83254819938E+02  0.00000000000E+00 0. -1.
        -11    1    5    5    0    0  0.13247485553E+03 -0.14641776718E+02  0.83665820507E+03  0.84720772015E+03  0.00000000000E+00 0.  1.
         12    1    5    5    0    0  0.14681700241E+02 -0.59278613184E+01  0.17932928536E+02  0.23922411828E+02  0.00000000000E+00 0. -1.
          5    1    3    3  501    0 -0.81311813824E+02  0.97103696103E+01 -0.17667852074E+03  0.19479037974E+03  0.47000000000E+01 0. -1.
         -5    1    3    3    0  501 -0.51417399943E+02  0.66367851714E+02 -0.63701942666E+03  0.64254515849E+03  0.47000000000E+01 0. -1.
          1    1    1    2  502    0  0.33326556980E+02 -0.36356348643E+02 -0.15116143203E+04  0.15124186909E+04  0.00000000000E+00 0. -1.
          1    1    1    2  503    0  0.19160025357E+02 -0.19676594356E+02  0.66362779226E+03  0.66419584582E+03  0.00000000000E+00 0. -1.
<mgrwt>
<rscale>  0 0.36808486E+02</rscale>
<asrwt>0</asrwt>
<pdfrwt beam="1">  1        2 0.22796133E+00 0.27464066E+02</pdfrwt>
<pdfrwt beam="2">  1        2 0.38127905E+00 0.49332266E+02</pdfrwt>
<totfact> 0.13652368E+01</totfact>
</mgrwt>
</event>
<event>
13    1  0.2742815E-008  0.1560990E+03  0.7546771E-02  0.1401955E+00
          2   -1    0    0  503    0  0.00000000000E+00  0.00000000000E+00  0.20295826258E+04  0.20295826258E+04  0.00000000000E+00 0. -1.
          2   -1    0    0  502    0 -0.00000000000E+00 -0.00000000000E+00 -0.11724835105E+04  0.11724835105E+04  0.00000000000E+00 0. -1.
         25    2    1    2    0    0  0.15990810287E+02 -0.18686588506E+03 -0.24240127988E+03  0.33099530961E+03  0.12499979794E+03 0.  0.
         24    2    1    2    0    0 -0.37533273943E+00 -0.40407586625E+02  0.11335087377E+03  0.14475540685E+03  0.80453671745E+02 0.  0.
         24    2    1    2    0    0  0.13951256286E+02 -0.10907152889E+03  0.11305886229E+03  0.17605607115E+03  0.78244475080E+02 0.  0.
        -11    1    4    4    0    0 -0.38930314686E+02 -0.15465173617E+02  0.70167562276E+02  0.81720424573E+02  0.00000000000E+00 0.  1.
         12    1    4    4    0    0  0.38554981946E+02 -0.24942413008E+02  0.43183311495E+02  0.63034982282E+02  0.00000000000E+00 0. -1.
        -13    1    5    5    0    0  0.43879380314E+02 -0.80641552128E+02  0.90946957118E+02  0.12922774066E+03  0.00000000000E+00 0.  1.
         14    1    5    5    0    0 -0.29928124027E+02 -0.28429976760E+02  0.22111905169E+02  0.46828330491E+02  0.00000000000E+00 0. -1.
          5    1    3    3  501    0 -0.53804069251E+02 -0.97554702938E+02 -0.10988893991E+03  0.15655499688E+03  0.47000000000E+01 0.  1.
         -5    1    3    3    0  501  0.69794879538E+02 -0.89311182124E+02 -0.13251233998E+03  0.17444031274E+03  0.47000000000E+01 0.  1.
          1    1    1    2  502    0 -0.48198816609E+01  0.21794899773E+02 -0.82389143993E+03  0.82419375980E+03  0.00000000000E+00 0. -1.
          1    1    1    2  503    0 -0.24746852173E+02  0.31455010080E+03  0.16969820990E+04  0.17260655888E+04  0.00000000000E+00 0. -1.
<mgrwt>
<rscale>  0 0.59028482E+02</rscale>
<asrwt>0</asrwt>
<pdfrwt beam="1">  1        2 0.29846803E+00 0.15609898E+03</pdfrwt>
<pdfrwt beam="2">  1        2 0.17242405E+00 0.22321490E+02</pdfrwt>
<totfact> 0.34117062E+01</totfact>
</mgrwt>
</event>
<event>
13    1  0.2742815E-008  0.1102802E+03  0.7546771E-02  0.1409486E+00
          2   -1    0    0  502    0  0.00000000000E+00  0.00000000000E+00  0.51607400278E+03  0.51607400278E+03  0.00000000000E+00 0. -1.
          2   -1    0    0  503    0 -0.00000000000E+00 -0.00000000000E+00 -0.26347160380E+04  0.26347160380E+04  0.00000000000E+00 0. -1.
         25    2    1    2    0    0 -0.23362511858E+02 -0.14986979628E+03 -0.73513598873E+03  0.76095819596E+03  0.12500276508E+03 0.  0.
         24    2    1    2    0    0  0.42793249295E+02  0.19175559561E+02 -0.10496347038E+03  0.13973596349E+03  0.79434533477E+02 0.  0.
         24    2    1    2    0    0 -0.34803067273E+02 -0.39017477624E+02 -0.16427628545E+02  0.96750931594E+02  0.79732419585E+02 0.  0.
        -11    1    4    4    0    0  0.65854941776E+02  0.18919833358E+02 -0.70891918761E+02  0.98592583881E+02  0.00000000000E+00 0.  1.
         12    1    4    4    0    0 -0.23061692481E+02  0.25572620276E+00 -0.34071551618E+02  0.41143379609E+02  0.00000000000E+00 0. -1.
        -11    1    5    5    0    0  0.22687903171E+02 -0.22485080954E+02 -0.18464891156E+02  0.36895420058E+02  0.00000000000E+00 0.  1.
         12    1    5    5    0    0 -0.57490970445E+02 -0.16532396671E+02  0.20372626118E+01  0.59855511536E+02  0.00000000000E+00 0. -1.
          5    1    3    3  501    0 -0.13944668803E+01  0.14587508514E+01 -0.29404733056E+03  0.29409181406E+03  0.47000000000E+01 0. -1.
         -5    1    3    3    0  501 -0.21968044978E+02 -0.15132854713E+03 -0.44108865817E+03  0.46686638190E+03  0.47000000000E+01 0. -1.
          1    1    1    2  502    0 -0.12481794183E+02  0.15917247336E+03  0.43117846172E+03  0.45978966639E+03  0.00000000000E+00 0. -1.
          1    1    1    2  503    0  0.27854124019E+02  0.10539240984E+02 -0.16932934093E+04  0.16935552834E+04  0.00000000000E+00 0. -1.
<mgrwt>
<rscale>  0 0.57308729E+02</rscale>
<asrwt>0</asrwt>
<pdfrwt beam="1">  1        2 0.75893238E-01 0.11028016E+03</pdfrwt>
<pdfrwt beam="2">  1        2 0.38745823E+00 0.29781334E+02</pdfrwt>
<totfact> 0.53262312E+01</totfact>
</mgrwt>
</event>
<event>
13    1  0.2742815E-008  0.8284749E+02  0.7546771E-02  0.1346488E+00
          2   -1    0    0  502    0  0.00000000000E+00  0.00000000000E+00  0.80051109532E+03  0.80051109532E+03  0.00000000000E+00 0. -1.
          2   -1    0    0  503    0 -0.00000000000E+00 -0.00000000000E+00 -0.12726562861E+04  0.12726562861E+04  0.00000000000E+00 0. -1.
         25    2    1    2    0    0  0.80473422285E+02  0.10270744408E+03 -0.37963087811E+03  0.42044074679E+03  0.12500410868E+03 0.  0.
         24    2    1    2    0    0 -0.11913977413E+03 -0.23277566099E+03 -0.76348952996E+02  0.28570788163E+03  0.86145440262E+02 0.  0.
         24    2    1    2    0    0 -0.87846926260E+01  0.16611065201E+02  0.37540610171E+02  0.87129881053E+02  0.76349331684E+02 0.  0.
        -13    1    5    5    0    0  0.25993270839E+02  0.23997551956E+02  0.37530890397E+02  0.51576160800E+02  0.00000000000E+00 0.  1.
         14    1    5    5    0    0 -0.34777963465E+02 -0.73864867550E+01  0.97197740245E-02  0.35553720253E+02  0.00000000000E+00 0. -1.
        -13    1    4    4    0    0 -0.93836512510E+02 -0.22422392097E+03 -0.85205165054E+02  0.25756858886E+03  0.00000000000E+00 0.  1.
         14    1    4    4    0    0 -0.25303261616E+02 -0.85517400126E+01  0.88562120579E+01  0.28139292772E+02  0.00000000000E+00 0. -1.
          5    1    3    3  501    0  0.73315833883E+02  0.97730645584E+02 -0.16388313165E+03  0.20446579524E+03  0.47000000000E+01 0. -1.
         -5    1    3    3    0  501  0.71575884018E+01  0.49767984915E+01 -0.21574774646E+03  0.21597495155E+03  0.47000000000E+01 0. -1.
          1    1    1    2  502    0  0.64461052143E+02  0.49287427124E+02  0.60874018198E+03  0.61412465093E+03  0.00000000000E+00 0. -1.
          1    1    1    2  503    0 -0.17010007676E+02  0.64169724585E+02 -0.66244615180E+03  0.66576422099E+03  0.00000000000E+00 0. -1.
<mgrwt>
<rscale>  0 0.74161373E+02</rscale>
<asrwt>0</asrwt>
<pdfrwt beam="1">  1        2 0.11772222E+00 0.82847492E+02</pdfrwt>
<pdfrwt beam="2">  1        2 0.18715534E+00 0.66385947E+02</pdfrwt>
<totfact> 0.13069499E+02</totfact>
</mgrwt>
</event>
<event>
13    1  0.2742815E-008  0.5817191E+02  0.7546771E-02  0.1520184E+00
          2   -1    0    0  502    0  0.00000000000E+00  0.00000000000E+00  0.99787585815E+03  0.99787585815E+03  0.00000000000E+00 0. -1.
          2   -1    0    0  503    0 -0.00000000000E+00 -0.00000000000E+00 -0.39019123542E+04  0.39019123542E+04  0.00000000000E+00 0. -1.
         25    2    1    2    0    0 -0.10251324881E+03  0.15770965084E+02 -0.14159753771E+04  0.14252606408E+04  0.12499574425E+03 0.  0.
         24    2    1    2    0    0  0.13898300299E+03  0.10217888351E+02 -0.49696371097E+02  0.18279493822E+03  0.10734793793E+03 0.  0.
         24    2    1    2    0    0 -0.71180322064E+02  0.81336744567E+01  0.49530539351E+03  0.50689114852E+03  0.80488562544E+02 0.  0.
        -11    1    5    5    0    0 -0.83534785202E+02 -0.10314563715E+02  0.35512525531E+03  0.36496355643E+03  0.00000000000E+00 0.  1.
         12    1    5    5    0    0  0.12354463139E+02  0.18448238171E+02  0.14018013820E+03  0.14192759209E+03  0.00000000000E+00 0. -1.
        -13    1    4    4    0    0  0.10636608882E+03  0.47577543420E+02 -0.59666470640E+01  0.11667462606E+03  0.00000000000E+00 0.  1.
         14    1    4    4    0    0  0.32616914170E+02 -0.37359655068E+02 -0.43729724033E+02  0.66120312165E+02  0.00000000000E+00 0. -1.
          5    1    3    3  501    0 -0.64792075009E+01  0.11242382536E+02 -0.91600082639E+03  0.91610478399E+03  0.47000000000E+01 0. -1.
         -5    1    3    3    0  501 -0.96034041309E+02  0.45285825479E+01 -0.49997455076E+03  0.50915585684E+03  0.47000000000E+01 0. -1.
          1    1    1    2  502    0  0.55027250126E+02 -0.18923822567E+02  0.42352798977E+03  0.42750680396E+03  0.00000000000E+00 0. -1.
          1    1    1    2  503    0 -0.20316682240E+02 -0.15198705325E+02 -0.23571981311E+04  0.23573346808E+04  0.00000000000E+00 0. -1.
<mgrwt>
<rscale>  0 0.38418381E+02</rscale>
<asrwt>0</asrwt>
<pdfrwt beam="1">  1        2 0.14674645E+00 0.58171913E+02</pdfrwt>
<pdfrwt beam="2">  1        2 0.57381065E+00 0.25372588E+02</pdfrwt>
<totfact> 0.54811933E+00</totfact>
</mgrwt>
</event>
<event>
13    1  0.2742815E-008  0.1014140E+03  0.7546771E-02  0.1435521E+00
          2   -1    0    0  503    0  0.00000000000E+00  0.00000000000E+00  0.44039252041E+03  0.44039252041E+03  0.00000000000E+00 0. -1.
          2   -1    0    0  502    0 -0.00000000000E+00 -0.00000000000E+00 -0.16199235506E+04  0.16199235506E+04  0.00000000000E+00 0. -1.
         25    2    1    2    0    0 -0.24957794234E+03 -0.16865822165E+03 -0.72636962225E+03  0.79622429085E+03  0.12500219266E+03 0.  0.
         24    2    1    2    0    0  0.74673967136E+02  0.17186481295E+03 -0.58076575134E+02  0.21365109620E+03  0.84617888372E+02 0.  0.
         24    2    1    2    0    0  0.12156951423E+03 -0.11249967176E+03  0.53623330619E+02  0.19214187735E+03  0.81287862011E+02 0.  0.
        -13    1    4    4    0    0  0.10269953017E+02  0.12607907231E+03 -0.38801978969E+02  0.13231401279E+03  0.00000000000E+00 0.  1.
         14    1    4    4    0    0  0.64404014120E+02  0.45785740638E+02 -0.19274596165E+02  0.81337083411E+02  0.00000000000E+00 0. -1.
        -13    1    5    5    0    0  0.12315846654E+03 -0.11400548657E+03  0.32546722698E+02  0.17095188799E+03  0.00000000000E+00 0.  1.
         14    1    5    5    0    0 -0.15889523131E+01  0.15058148119E+01  0.21076607921E+02  0.21189989362E+02  0.00000000000E+00 0. -1.
          5    1    3    3  501    0 -0.94484877220E+02 -0.42771000897E+02 -0.12479437659E+03  0.16233446020E+03  0.47000000000E+01 0. -1.
         -5    1    3    3    0  501 -0.15509306512E+03 -0.12588722075E+03 -0.60157524567E+03  0.63388983065E+03  0.47000000000E+01 0. -1.
          1    1    1    2  502    0 -0.43378218040E+01  0.26170340798E+02 -0.64071748841E+03  0.64126640594E+03  0.00000000000E+00 0. -1.
          1    1    1    2  503    0  0.57672282777E+02  0.83122739659E+02  0.19200932500E+03  0.21703240066E+03  0.00000000000E+00 0. -1.
<mgrwt>
<rscale>  0 0.51867637E+02</rscale>
<asrwt>0</asrwt>
<pdfrwt beam="1">  1        2 0.64763607E-01 0.10141404E+03</pdfrwt>
<pdfrwt beam="2">  1        2 0.23822405E+00 0.26527409E+02</pdfrwt>
<totfact> 0.18614748E+02</totfact>
</mgrwt>
</event>
<event>
13    1  0.2742815E-008  0.6705482E+02  0.7546771E-02  0.1445781E+00
          2   -1    0    0  502    0  0.00000000000E+00  0.00000000000E+00  0.11329045764E+04  0.11329045764E+04  0.00000000000E+00 0. -1.
          2   -1    0    0  503    0 -0.00000000000E+00 -0.00000000000E+00 -0.16723269195E+04  0.16723269195E+04  0.00000000000E+00 0. -1.
         25    2    1    2    0    0 -0.16950053560E+02  0.56066492610E+02  0.53993662916E+02  0.14822677623E+03  0.12500042259E+03 0.  0.
         24    2    1    2    0    0  0.73843881592E+02 -0.76826585537E+02  0.10825642345E+02  0.13262100328E+03  0.78204174338E+02 0.  0.
         24    2    1    2    0    0  0.30937441860E+01  0.69379312085E-01  0.21251902309E+03  0.22663316592E+03  0.78668167985E+02 0.  0.
        -11    1    5    5    0    0  0.36835351528E+02 -0.91853875233E+01  0.67401699368E+02  0.77357634037E+02  0.00000000000E+00 0.  1.
         12    1    5    5    0    0 -0.33741607342E+02  0.92547668354E+01  0.14511732372E+03  0.14927553188E+03  0.00000000000E+00 0. -1.
        -11    1    4    4    0    0  0.64311485194E+02 -0.67740821346E+02 -0.23107328844E+02  0.96222318880E+02  0.00000000000E+00 0.  1.
         12    1    4    4    0    0  0.95323963979E+01 -0.90857641913E+01  0.33932971188E+02  0.36398684395E+02  0.00000000000E+00 0. -1.
          5    1    3    3  501    0  0.36384391960E+02  0.72163512902E+02  0.22340460602E+02  0.83979656779E+02  0.47000000000E+01 0.  1.
         -5    1    3    3    0  501 -0.53334445520E+02 -0.16097020293E+02  0.31653202314E+02  0.64247119453E+02  0.47000000000E+01 0.  1.
          1    1    1    2  502    0  0.51280331022E+01  0.36806236703E+02  0.73930564179E+03  0.74023903420E+03  0.00000000000E+00 0. -1.
          1    1    1    2  503    0 -0.65115605320E+02 -0.16115523088E+02 -0.15560663132E+04  0.15575115163E+04  0.00000000000E+00 0. -1.
<mgrwt>
<rscale>  0 0.49918679E+02</rscale>
<asrwt>0</asrwt>
<pdfrwt beam="1">  1        2 0.16660362E+00 0.37161752E+02</pdfrwt>
<pdfrwt beam="2">  1        2 0.24593043E+00 0.67054819E+02</pdfrwt>
<totfact> 0.55782110E+01</totfact>
</mgrwt>
</event>
<event>
13    1  0.2742815E-008  0.8412788E+02  0.7546771E-02  0.1345898E+00
          2   -1    0    0  502    0  0.00000000000E+00  0.00000000000E+00  0.48516384614E+03  0.48516384614E+03  0.00000000000E+00 0. -1.
          2   -1    0    0  503    0 -0.00000000000E+00 -0.00000000000E+00 -0.27457696771E+04  0.27457696771E+04  0.00000000000E+00 0. -1.
         25    2    1    2    0    0 -0.21347214733E+03 -0.95839474211E+02 -0.69896080622E+03  0.74761426627E+03  0.12500127998E+03 0.  0.
         24    2    1    2    0    0  0.11514204913E+03  0.74359182306E+02 -0.31611636793E+03  0.35392623151E+03  0.80915015960E+02 0.  0.
         24    2    1    2    0    0  0.29179355369E+02  0.15049573486E+02 -0.12248717670E+03  0.15063463411E+03  0.81300431087E+02 0.  0.
        -13    1    5    5    0    0  0.14910192055E+02  0.43623829508E+02 -0.36167393303E+02  0.58595500394E+02  0.00000000000E+00 0.  1.
         14    1    5    5    0    0  0.14269163314E+02 -0.28574256023E+02 -0.86319783400E+02  0.92039133716E+02  0.00000000000E+00 0. -1.
        -13    1    4    4    0    0  0.58720790812E+02  0.43978349791E+02 -0.76925792126E+02  0.10630053630E+03  0.00000000000E+00 0.  1.
         14    1    4    4    0    0  0.56421258316E+02  0.30380832515E+02 -0.23919057580E+03  0.24762569521E+03  0.00000000000E+00 0. -1.
          5    1    3    3  501    0 -0.16205548233E+03 -0.11039641952E+03 -0.41999773108E+03  0.46354021714E+03  0.47000000000E+01 0. -1.
         -5    1    3    3    0  501 -0.51416665005E+02  0.14556945312E+02 -0.27896307514E+03  0.28407404913E+03  0.47000000000E+01 0. -1.
          1    1    1    2  502    0  0.19791690437E+02 -0.62655651002E+02  0.42416486453E+03  0.42922403697E+03  0.00000000000E+00 0. -1.
          1    1    1    2  503    0  0.49359052397E+02  0.69086369422E+02 -0.15472063446E+04  0.15495343544E+04  0.00000000000E+00 0. -1.
<mgrwt>
<rscale>  0 0.74349251E+02</rscale>
<asrwt>0</asrwt>
<pdfrwt beam="1">  1        2 0.71347627E-01 0.65707242E+02</pdfrwt>
<pdfrwt beam="2">  1        2 0.40378965E+00 0.84127883E+02</pdfrwt>
<totfact> 0.43088767E+01</totfact>
</mgrwt>
</event>
<event>
13    1  0.2742815E-008  0.8348698E+02  0.7546771E-02  0.1375118E+00
         -1   -1    0    0    0  501 -0.00000000000E+00  0.00000000000E+00  0.96980831875E+03  0.96980831875E+03  0.00000000000E+00 0.  1.
          2   -1    0    0  503    0  0.00000000000E+00 -0.00000000000E+00 -0.46778447448E+03  0.46778447448E+03  0.00000000000E+00 0. -1.
         25    2    1    2    0    0  0.12465664129E+02 -0.18879040379E+03  0.63954019568E+03  0.67855256283E+03  0.12499883715E+03 0.  0.
         24    2    1    2    0    0  0.36042276627E+02  0.10881451167E+02  0.14098493929E+02  0.91657125643E+02  0.82369954875E+02 0.  0.
         24    2    1    2    0    0 -0.44706947756E+01  0.63487135017E+02 -0.15677029576E+03  0.18663715721E+03  0.78777531021E+02 0.  0.
        -13    1    4    4    0    0 -0.14143082094E+02  0.29196260669E+02 -0.86772031056E+01  0.33581874008E+02  0.00000000000E+00 0.  1.
         14    1    4    4    0    0  0.50185358721E+02 -0.18314809502E+02  0.22775697034E+02  0.58075251635E+02  0.00000000000E+00 0. -1.
        -13    1    5    5    0    0 -0.75228156201E+01 -0.11129803600E+02 -0.73780377462E+02  0.74993395585E+02  0.00000000000E+00 0.  1.
         14    1    5    5    0    0  0.30521208446E+01  0.74616938617E+02 -0.82989918297E+02  0.11164376162E+03  0.00000000000E+00 0. -1.
          5    1    3    3  502    0  0.43064410328E+02 -0.10646921620E+03  0.20339045579E+03  0.23362363951E+03  0.47000000000E+01 0.  1.
         -5    1    3    3    0  502 -0.30598746200E+02 -0.82321187594E+02  0.43614973989E+03  0.44492892332E+03  0.47000000000E+01 0.  1.
          1    1    1    2  503    0 -0.27646867090E+01  0.83112678491E+02 -0.22758902803E+03  0.24230585320E+03  0.00000000000E+00 0. -1.
         -2    1    1    2    0  501 -0.41272559271E+02  0.31309139117E+02  0.23274447845E+03  0.23844009434E+03  0.00000000000E+00 0.  1.
<mgrwt>
<rscale>  0 0.65764621E+02</rscale>
<asrwt>0</asrwt>
<pdfrwt beam="2">  1        2 0.68791835E-01 0.83486984E+02</pdfrwt>
<pdfrwt beam="1">  1       -1 0.14261887E+00 0.51804308E+02</pdfrwt>
<totfact> 0.39352623E+01</totfact>
</mgrwt>
</event>
<event>
13    1  0.2742815E-008  0.1121097E+03  0.7546771E-02  0.1273201E+00
         -1   -1    0    0    0  501 -0.00000000000E+00  0.00000000000E+00  0.22539270086E+03  0.22539270086E+03  0.00000000000E+00 0.  1.
          2   -1    0    0  503    0  0.00000000000E+00 -0.00000000000E+00 -0.14269681927E+04  0.14269681927E+04  0.00000000000E+00 0. -1.
         25    2    1    2    0    0 -0.46433354813E+02 -0.40010983311E+02 -0.96816918589E+01  0.13954273409E+03  0.12498601624E+03 0.  0.
         24    2    1    2    0    0  0.69488110209E+02  0.29213782325E+02 -0.20622362472E+03  0.23369947501E+03  0.80032610175E+02 0.  0.
         24    2    1    2    0    0 -0.74694445601E+01  0.59741128073E+02 -0.74466823237E+02  0.12439009181E+03  0.79390126540E+02 0.  0.
        -11    1    5    5    0    0 -0.34658000010E+02  0.61997818348E+02 -0.62454867893E+02  0.94580743115E+02  0.00000000000E+00 0.  1.
         12    1    5    5    0    0  0.27188555450E+02 -0.22566902745E+01 -0.12011955344E+02  0.29809348696E+02  0.00000000000E+00 0. -1.
        -13    1    4    4    0    0  0.89326553098E+00 -0.19882694965E+02 -0.15743656553E+02  0.25376804449E+02  0.00000000000E+00 0.  1.
         14    1    4    4    0    0  0.68594844678E+02  0.49096477291E+02 -0.19047996817E+03  0.20832267057E+03  0.00000000000E+00 0. -1.
          5    1    3    3  502    0 -0.87037734640E+02 -0.96921716482E+01  0.18904259154E+00  0.87701945130E+02  0.47000000000E+01 0.  1.
         -5    1    3    3    0  502  0.40604379827E+02 -0.30318811663E+02 -0.98707344504E+01  0.51840788963E+02  0.47000000000E+01 0.  1.
          1    1    1    2  503    0  0.55108265795E+02 -0.11309525661E+03 -0.10097320861E+04  0.10175393574E+04  0.00000000000E+00 0. -1.
         -2    1    1    2    0  501 -0.70693576631E+02  0.64151329525E+02  0.98528734056E+02  0.13718923533E+03  0.00000000000E+00 0.  1.
<mgrwt>
<rscale>  0 0.10345148E+03</rscale>
<asrwt>0</asrwt>
<pdfrwt beam="2">  1        2 0.20984826E+00 0.11210974E+03</pdfrwt>
<pdfrwt beam="1">  1       -1 0.33145986E-01 0.95461903E+02</pdfrwt>
<totfact> 0.16860354E+02</totfact>
</mgrwt>
</event>
<event>
13    1  0.2742815E-008  0.6855681E+02  0.7546771E-02  0.1444439E+00
          2   -1    0    0  503    0  0.00000000000E+00  0.00000000000E+00  0.20922074371E+04  0.20922074371E+04  0.00000000000E+00 0. -1.
          2   -1    0    0  502    0 -0.00000000000E+00 -0.00000000000E+00 -0.11482360341E+04  0.11482360341E+04  0.00000000000E+00 0. -1.
         25    2    1    2    0    0  0.43814950773E+02  0.27085018911E+03 -0.95203688603E+01  0.30166163776E+03  0.12501812437E+03 0.  0.
         24    2    1    2    0    0 -0.39010745451E+03 -0.27959566065E+03 -0.26825202841E+03  0.55570868452E+03  0.80594241587E+02 0.  0.
         24    2    1    2    0    0  0.27777654652E+03 -0.63451487332E+02  0.10407026134E+04  0.10808218006E+04  0.62673232394E+02 0.  0.
        -11    1    4    4    0    0 -0.29931762909E+03 -0.18034033129E+03 -0.16674820521E+03  0.38719328779E+03  0.00000000000E+00 0.  1.
         12    1    4    4    0    0 -0.90789825428E+02 -0.99255329359E+02 -0.10150382321E+03  0.16851539672E+03  0.00000000000E+00 0. -1.
        -11    1    5    5    0    0  0.15351197511E+03 -0.61906074142E+02  0.53177363542E+03  0.55693939333E+03  0.00000000000E+00 0.  1.
         12    1    5    5    0    0  0.12426457141E+03 -0.15454131901E+01  0.50892897796E+03  0.52388240724E+03  0.00000000000E+00 0. -1.
          5    1    3    3  501    0  0.32695973476E+02  0.10355697806E+03 -0.62973718453E+02  0.12562186753E+03  0.47000000000E+01 0.  1.
         -5    1    3    3    0  501  0.11118977297E+02  0.16729321105E+03  0.53453349593E+02  0.17603977023E+03  0.47000000000E+01 0.  1.
          1    1    1    2  502    0  0.57561401533E+02  0.37158203981E+02 -0.55805449730E+03  0.56224449222E+03  0.00000000000E+00 0. -1.
          1    1    1    2  503    0  0.10954555690E+02  0.35038754894E+02  0.73909568419E+03  0.74000685606E+03  0.00000000000E+00 0. -1.
<mgrwt>
<rscale>  0 0.50167788E+02</rscale>
<asrwt>0</asrwt>
<pdfrwt beam="1">  1        2 0.30767757E+00 0.36711260E+02</pdfrwt>
<pdfrwt beam="2">  1        2 0.16885824E+00 0.68556812E+02</pdfrwt>
<totfact> 0.35896118E+01</totfact>
</mgrwt>
</event>
<event>
13    1  0.2742815E-008  0.1513805E+03  0.7546771E-02  0.1268625E+00
          2   -1    0    0  502    0  0.00000000000E+00  0.00000000000E+00  0.37306500864E+04  0.37306500864E+04  0.00000000000E+00 0. -1.
          2   -1    0    0  503    0 -0.00000000000E+00 -0.00000000000E+00 -0.15333083866E+04  0.15333083866E+04  0.00000000000E+00 0. -1.
         25    2    1    2    0    0  0.21232855817E+02  0.39393137003E+02 -0.95273036495E+03  0.96193712108E+03  0.12500089281E+03 0.  0.
         24    2    1    2    0    0  0.36421951382E+02  0.11799435905E+03 -0.39909645298E+01  0.14908748798E+03  0.83438144537E+02 0.  0.
         24    2    1    2    0    0  0.23640291425E+02 -0.16493000604E+03  0.23972944889E+03  0.30287924797E+03  0.80652711775E+02 0.  0.
        -11    1    4    4    0    0 -0.85730757923E+01 -0.63595568337E+01  0.11791234727E+02  0.15905181799E+02  0.00000000000E+00 0.  1.
         12    1    4    4    0    0  0.44995027175E+02  0.12435391588E+03 -0.15782199257E+02  0.13318230618E+03  0.00000000000E+00 0. -1.
        -13    1    5    5    0    0 -0.43745510550E+00 -0.17095057970E+02  0.88100863045E+02  0.89745163899E+02  0.00000000000E+00 0.  1.
         14    1    5    5    0    0  0.24077746531E+02 -0.14783494807E+03  0.15162858584E+03  0.21313408407E+03  0.00000000000E+00 0. -1.
          5    1    3    3  501    0  0.19879075772E+02  0.14733211737E+02 -0.31350280133E+02  0.40214117497E+02  0.47000000000E+01 0.  1.
         -5    1    3    3    0  501  0.13537800453E+01  0.24659925266E+02 -0.92138008482E+03  0.92172300358E+03  0.47000000000E+01 0.  1.
          1    1    1    2  502    0 -0.15032020048E+03 -0.18827739801E+02  0.33775681116E+04  0.33809639151E+04  0.00000000000E+00 0. -1.
          1    1    1    2  503    0  0.69025101857E+02  0.26370249788E+02 -0.46323453124E+03  0.46909070092E+03  0.00000000000E+00 0. -1.
<mgrwt>
<rscale>  0 0.10576215E+03</rscale>
<asrwt>0</asrwt>
<pdfrwt beam="1">  1        2 0.54862501E+00 0.15138052E+03</pdfrwt>
<pdfrwt beam="2">  1        2 0.22548653E+00 0.73890830E+02</pdfrwt>
<totfact> 0.25103561E+00</totfact>
</mgrwt>
</event>
<event>
13    1  0.2742815E-008  0.1258407E+03  0.7546771E-02  0.1423517E+00
          2   -1    0    0  503    0  0.00000000000E+00  0.00000000000E+00  0.21427627740E+04  0.21427627740E+04  0.00000000000E+00 0. -1.
         -3   -1    0    0    0  501 -0.00000000000E+00 -0.00000000000E+00 -0.10459548624E+04  0.10459548624E+04  0.00000000000E+00 0.  1.
         25    2    1    2    0    0  0.19637075010E+03 -0.47453383463E+03 -0.58691645983E+03  0.78983558728E+03  0.12500196961E+03 0.  0.
         24    2    1    2    0    0 -0.14227074649E+03  0.31395337920E+03  0.14533241987E+03  0.38233876645E+03  0.79080531405E+02 0.  0.
         24    2    1    2    0    0 -0.99945811333E+02  0.65971779025E+02  0.54104617813E+03  0.56487350775E+03  0.10958864929E+03 0.  0.
        -11    1    5    5    0    0 -0.54669375693E+02  0.69325537452E+02  0.48389894896E+03  0.49188714517E+03  0.00000000000E+00 0.  1.
         12    1    5    5    0    0 -0.45276435639E+02 -0.33537584266E+01  0.57147229173E+02  0.72986362575E+02  0.00000000000E+00 0. -1.
        -13    1    4    4    0    0 -0.33478115185E+02  0.16248627132E+03  0.52405514970E+02  0.17397962686E+03  0.00000000000E+00 0.  1.
         14    1    4    4    0    0 -0.10879263130E+03  0.15146710788E+03  0.92926904900E+02  0.20835913959E+03  0.00000000000E+00 0. -1.
          5    1    3    3  502    0  0.54619792992E+02 -0.36081747054E+02 -0.98290012452E+02  0.11818727006E+03  0.47000000000E+01 0. -1.
         -5    1    3    3    0  502  0.14175095711E+03 -0.43845208758E+03 -0.48862644738E+03  0.67164831722E+03  0.47000000000E+01 0. -1.
          1    1    1    2  503    0  0.65267412529E+02  0.10769001334E+03  0.12206565619E+04  0.12271346365E+04  0.00000000000E+00 0. -1.
         -4    1    1    2    0  501 -0.19421604811E+02 -0.13081336928E+02 -0.22331078844E+03  0.22453513833E+03  0.00000000000E+00 0.  1.
<mgrwt>
<rscale>  0 0.54283667E+02</rscale>
<asrwt>0</asrwt>
<pdfrwt beam="1">  1        2 0.31511217E+00 0.12584074E+03</pdfrwt>
<pdfrwt beam="2">  1       -3 0.15381689E+00 0.23416236E+02</pdfrwt>
<totfact> 0.15162380E+00</totfact>
</mgrwt>
</event>
<event>
13    1  0.2742815E-008  0.3724183E+02  0.7546771E-02  0.1672879E+00
          2   -1    0    0  503    0  0.00000000000E+00  0.00000000000E+00  0.22759435451E+04  0.22759435451E+04  0.00000000000E+00 0. -1.
          2   -1    0    0  502    0 -0.00000000000E+00 -0.00000000000E+00 -0.61510507494E+03  0.61510507494E+03  0.00000000000E+00 0. -1.
         25    2    1    2    0    0 -0.11128954592E+03  0.21262613944E+03  0.19787765571E+03  0.33521222731E+03  0.12496572534E+03 0.  0.
         24    2    1    2    0    0  0.28742134760E+03 -0.42906624884E+03  0.39716282630E+03  0.65643596530E+03  0.80380277430E+02 0.  0.
         24    2    1    2    0    0 -0.13173098017E+03  0.18784028790E+03  0.51455059579E+03  0.56943863273E+03  0.82831249699E+02 0.  0.
        -13    1    5    5    0    0 -0.59032639385E+02  0.66541871292E+02  0.11361939306E+03  0.14429843945E+03  0.00000000000E+00 0.  1.
         14    1    5    5    0    0 -0.72698340784E+02  0.12129841661E+03  0.40093120272E+03  0.42514019328E+03  0.00000000000E+00 0. -1.
        -13    1    4    4    0    0  0.20004680808E+03 -0.24893665080E+03  0.20883959510E+03  0.38157850833E+03  0.00000000000E+00 0.  1.
         14    1    4    4    0    0  0.87374539520E+02 -0.18012959803E+03  0.18832323121E+03  0.27485745698E+03  0.00000000000E+00 0. -1.
          5    1    3    3  501    0 -0.84045716553E+02  0.22347543011E+03  0.16166778105E+03  0.28838084500E+03  0.47000000000E+01 0. -1.
         -5    1    3    3    0  501 -0.27243829365E+02 -0.10849290674E+02  0.36209874652E+02  0.46831382309E+02  0.47000000000E+01 0. -1.
          1    1    1    2  502    0 -0.32192709263E+02  0.18703284094E+02 -0.38840129889E+03  0.39018169146E+03  0.00000000000E+00 0. -1.
          1    1    1    2  503    0 -0.12208112250E+02  0.98965374054E+01  0.93964869124E+03  0.93978010322E+03  0.00000000000E+00 0. -1.
<mgrwt>
<rscale>  0 0.24192497E+02</rscale>
<asrwt>0</asrwt>
<pdfrwt beam="1">  1        2 0.33469758E+00 0.15715580E+02</pdfrwt>
<pdfrwt beam="2">  1        2 0.90456629E-01 0.37241828E+02</pdfrwt>
<totfact> 0.72366985E+01</totfact>
</mgrwt>
</event>
<event>
13    1  0.2742815E-008  0.1098991E+03  0.7546771E-02  0.1384391E+00
          2   -1    0    0  503    0  0.00000000000E+00  0.00000000000E+00  0.36348416053E+03  0.36348416053E+03  0.00000000000E+00 0. -1.
          2   -1    0    0  502    0 -0.00000000000E+00 -0.00000000000E+00 -0.15429970847E+04  0.15429970847E+04  0.00000000000E+00 0. -1.
         25    2    1    2    0    0  0.78450860811E+01  0.36052983458E+02 -0.12675315172E+03  0.18180456832E+03  0.12500070639E+03 0.  0.
         24    2    1    2    0    0  0.73738589157E+02  0.46395805334E+02  0.10387974015E+01  0.11831021832E+03  0.80039230233E+02 0.  0.
         24    2    1    2    0    0  0.33089349670E+02 -0.35796517370E+01  0.52938315327E+02  0.10319551261E+03  0.82092201979E+02 0.  0.
        -11    1    4    4    0    0  0.63832903772E+02 -0.26230168693E+01  0.16466876344E+02  0.65974827306E+02  0.00000000000E+00 0.  1.
         12    1    4    4    0    0  0.99056853848E+01  0.49018822203E+02 -0.15428078943E+02  0.52335391018E+02  0.00000000000E+00 0. -1.
        -13    1    5    5    0    0 -0.15710492562E+02 -0.27169784535E+02  0.70271759712E+01  0.32162057931E+02  0.00000000000E+00 0.  1.
         14    1    5    5    0    0  0.48799842232E+02  0.23590132798E+02  0.45911139355E+02  0.71033454683E+02  0.00000000000E+00 0. -1.
          5    1    3    3  501    0 -0.59089116088E+01 -0.44373495769E+02 -0.66349193220E+02  0.80176229670E+02  0.47000000000E+01 0. -1.
         -5    1    3    3    0  501  0.13753997690E+02  0.80426479227E+02 -0.60403958504E+02  0.10162833865E+03  0.47000000000E+01 0. -1.
          1    1    1    2  502    0 -0.10011712340E+03 -0.45411561963E+02 -0.13009366130E+04  0.13055733298E+04  0.00000000000E+00 0. -1.
          1    1    1    2  503    0 -0.14555901508E+02 -0.33457575092E+02  0.19419972789E+03  0.19759761616E+03  0.00000000000E+00 0. -1.
<mgrwt>
<rscale>  0 0.63323465E+02</rscale>
<asrwt>0</asrwt>
<pdfrwt beam="1">  1        2 0.53453554E-01 0.36486759E+02</pdfrwt>
<pdfrwt beam="2">  1        2 0.22691133E+00 0.10989908E+03</pdfrwt>
<totfact> 0.21805927E+02</totfact>
</mgrwt>
</event>
<event>
13    1  0.2742815E-008  0.7811024E+02  0.7546771E-02  0.1421389E+00
          2   -1    0    0  503    0  0.00000000000E+00  0.00000000000E+00  0.22984231970E+04  0.22984231970E+04  0.00000000000E+00 0. -1.
          2   -1    0    0  502    0 -0.00000000000E+00 -0.00000000000E+00 -0.39203722258E+03  0.39203722258E+03  0.00000000000E+00 0. -1.
         25    2    1    2    0    0  0.48829222450E+02 -0.19172230434E+02 -0.68328261646E+02  0.15180600510E+03  0.12499777781E+03 0.  0.
         24    2    1    2    0    0 -0.23588411458E+02 -0.24241243350E+02  0.25177729183E+03  0.26608594454E+03  0.79157274895E+02 0.  0.
         24    2    1    2    0    0 -0.96328834799E+02 -0.46922842542E+01  0.59765722953E+03  0.61074396628E+03  0.80701712439E+02 0.  0.
        -13    1    5    5    0    0 -0.76614075631E+02 -0.38747727643E+02  0.43532489693E+03  0.44371034343E+03  0.00000000000E+00 0.  1.
         14    1    5    5    0    0 -0.19714759168E+02  0.34055443389E+02  0.16233233260E+03  0.16703362285E+03  0.00000000000E+00 0. -1.
        -13    1    4    4    0    0  0.33800607407E+01  0.27483909722E+02  0.85609369802E+02  0.89976409697E+02  0.00000000000E+00 0.  1.
         14    1    4    4    0    0 -0.26968472198E+02 -0.51725153072E+02  0.16616792203E+03  0.17610953485E+03  0.00000000000E+00 0. -1.
          5    1    3    3  501    0  0.18323492122E+02 -0.39469780668E+02  0.25717439130E+02  0.50765053186E+02  0.47000000000E+01 0.  1.
         -5    1    3    3    0  501  0.30505730328E+02  0.20297550234E+02 -0.94045700776E+02  0.10104095191E+03  0.47000000000E+01 0.  1.
          1    1    1    2  502    0 -0.16891609945E+02  0.34424305478E+02 -0.26547127362E+03  0.26822631566E+03  0.00000000000E+00 0. -1.
          1    1    1    2  503    0  0.87979633752E+02  0.13681452561E+02  0.13907509883E+04  0.13935981880E+04  0.00000000000E+00 0. -1.
<mgrwt>
<rscale>  0 0.54728036E+02</rscale>
<asrwt>0</asrwt>
<pdfrwt beam="1">  1        2 0.33800341E+00 0.78110245E+02</pdfrwt>
<pdfrwt beam="2">  1        2 0.57652534E-01 0.38345264E+02</pdfrwt>
<totfact> 0.90356095E+01</totfact>
</mgrwt>
</event>
<event>
13    1  0.2742815E-008  0.1509301E+03  0.7546771E-02  0.1345923E+00
          2   -1    0    0  503    0  0.00000000000E+00  0.00000000000E+00  0.14441069625E+04  0.14441069625E+04  0.00000000000E+00 0. -1.
          2   -1    0    0  502    0 -0.00000000000E+00 -0.00000000000E+00 -0.23793474128E+04  0.23793474128E+04  0.00000000000E+00 0. -1.
         25    2    1    2    0    0  0.15491921589E+03  0.61064953147E+02 -0.11107724921E+04  0.11301191484E+04  0.12499947389E+03 0.  0.
         24    2    1    2    0    0  0.42324574269E+02  0.37373502560E+02 -0.43401838077E+02  0.10777159480E+03  0.80887878063E+02 0.  0.
         24    2    1    2    0    0 -0.15954428050E+03  0.10754293479E+02  0.18308153810E+03  0.25593555906E+03  0.80088254642E+02 0.  0.
        -11    1    4    4    0    0 -0.18542323548E+01 -0.23407295005E+02 -0.11369442859E+02  0.26088385692E+02  0.00000000000E+00 0.  1.
         12    1    4    4    0    0  0.44178806624E+02  0.60780797565E+02 -0.32032395218E+02  0.81683209112E+02  0.00000000000E+00 0. -1.
        -13    1    5    5    0    0 -0.28580734168E+02  0.35460811313E+02  0.48420152867E+02  0.66474346241E+02  0.00000000000E+00 0.  1.
         14    1    5    5    0    0 -0.13096354633E+03 -0.24706517834E+02  0.13466138523E+03  0.18946121282E+03  0.00000000000E+00 0. -1.
          5    1    3    3  501    0  0.37515713326E+02  0.70580114983E+02 -0.63180937043E+03  0.63686274183E+03  0.47000000000E+01 0. -1.
         -5    1    3    3    0  501  0.11740350256E+03 -0.95151618364E+01 -0.47896312169E+03  0.49325640661E+03  0.47000000000E+01 0. -1.
          1    1    1    2  502    0  0.30642786141E+01  0.36488788652E+02 -0.11417559119E+04  0.11423429362E+04  0.00000000000E+00 0. -1.
          1    1    1    2  503    0 -0.40763788275E+02 -0.14568153784E+03  0.11776082537E+04  0.11872851368E+04  0.00000000000E+00 0. -1.
<mgrwt>
<rscale>  0 0.74341379E+02</rscale>
<asrwt>0</asrwt>
<pdfrwt beam="1">  1        2 0.21236867E+00 0.15093006E+03</pdfrwt>
<pdfrwt beam="2">  1        2 0.34990403E+00 0.36617230E+02</pdfrwt>
<totfact> 0.17661117E+01</totfact>
</mgrwt>
</event>
<event>
13    1  0.6859155E-008  0.9220823E+02  0.7546771E-02  0.1449943E+00
          2   -1    0    0  502    0  0.00000000000E+00  0.00000000000E+00  0.25718671132E+04  0.25718671132E+04  0.00000000000E+00 0. -1.
          2   -1    0    0  503    0 -0.00000000000E+00 -0.00000000000E+00 -0.35217988759E+04  0.35217988759E+04  0.00000000000E+00 0. -1.
         25    2    1    2    0    0  0.24894425068E+03 -0.30809455337E+03  0.87049398157E+02  0.42437888118E+03  0.12499737322E+03 0.  0.
         24    2    1    2    0    0  0.76688555424E+02  0.92013007659E+03  0.70705939153E+03  0.11678888128E+04  0.10728841238E+03 0.  0.
         24    2    1    2    0    0 -0.32835790450E+03 -0.71794719662E+03  0.52898314733E+03  0.95367437437E+03  0.80028442282E+02 0.  0.
        -13    1    4    4    0    0  0.47019053116E+02  0.55619058329E+03  0.36052794661E+03  0.66448412816E+03  0.00000000000E+00 0.  1.
         14    1    4    4    0    0  0.29669502308E+02  0.36393949330E+03  0.34653144491E+03  0.50340468459E+03  0.00000000000E+00 0. -1.
        -13    1    5    5    0    0 -0.11334776254E+03 -0.33328716270E+03  0.25639979536E+03  0.43550993462E+03  0.00000000000E+00 0.  1.
         14    1    5    5    0    0 -0.21501014196E+03 -0.38466003393E+03  0.27258335198E+03  0.51816443975E+03  0.00000000000E+00 0. -1.
          5    1    3    3  501    0  0.60005418931E+02 -0.82715375506E+01  0.17179609478E+02  0.63137133419E+02  0.47000000000E+01 0.  1.
         -5    1    3    3    0  501  0.18893883175E+03 -0.29982301582E+03  0.69869788679E+02  0.36124174776E+03  0.47000000000E+01 0.  1.
          1    1    1    2  502    0  0.21090001072E+02  0.15555052331E+02  0.63635007436E+03  0.63688944483E+03  0.00000000000E+00 0. -1.
          1    1    1    2  503    0 -0.18364902676E+02  0.90356621074E+02 -0.29093737741E+04  0.29108344759E+04  0.00000000000E+00 0. -1.
<mgrwt>
<rscale>  0 0.49156863E+02</rscale>
<asrwt>0</asrwt>
<pdfrwt beam="1">  1        2 0.37821575E+00 0.26205873E+02</pdfrwt>
<pdfrwt beam="2">  1        2 0.51791160E+00 0.92208228E+02</pdfrwt>
<totfact> 0.13640333E+00</totfact>
</mgrwt>
</event>
<event>
13    1  0.2742815E-008  0.9416904E+02  0.7546771E-02  0.1446716E+00
          2   -1    0    0  502    0  0.00000000000E+00  0.00000000000E+00  0.48247422688E+04  0.48247422688E+04  0.00000000000E+00 0. -1.
          4   -1    0    0  503    0 -0.00000000000E+00 -0.00000000000E+00 -0.15282282718E+03  0.15282282718E+03  0.00000000000E+00 0. -1.
         25    2    1    2    0    0  0.30023069494E+01  0.28697179909E+02  0.26918331783E+02  0.13108189829E+03  0.12500130196E+03 0.  0.
         24    2    1    2    0    0 -0.54292105938E+02  0.32776476233E+02  0.68928422765E+03  0.69689516095E+03  0.80797207323E+02 0.  0.
         24    2    1    2    0    0 -0.98211306213E+00  0.11631742133E+01  0.52375484645E+03  0.53141946267E+03  0.89917676863E+02 0.  0.
        -13    1    5    5    0    0 -0.44203810138E+02  0.95496713214E+01  0.29792398925E+03  0.30133681558E+03  0.00000000000E+00 0.  1.
         14    1    5    5    0    0  0.43221697076E+02 -0.83864971082E+01  0.22583085720E+03  0.23008264710E+03  0.00000000000E+00 0. -1.
        -13    1    4    4    0    0  0.19720402165E+02  0.11197543584E+02  0.23750897078E+03  0.23858916665E+03  0.00000000000E+00 0.  1.
         14    1    4    4    0    0 -0.74012508103E+02  0.21578932649E+02  0.45177525687E+03  0.45830599430E+03  0.00000000000E+00 0. -1.
          5    1    3    3  501    0  0.42497967923E+02 -0.32445771892E+02  0.21893976579E+02  0.57967590959E+02  0.47000000000E+01 0.  1.
         -5    1    3    3    0  501 -0.39495660973E+02  0.61142951801E+02  0.50243552039E+01  0.73114307327E+02  0.47000000000E+01 0.  1.
          1    1    1    2  502    0  0.48637098301E+02 -0.88663238246E+02  0.35224707120E+04  0.35239220556E+04  0.00000000000E+00 0. -1.
          3    1    1    2  503    0  0.36348137494E+01  0.26026407891E+02 -0.90508676214E+02  0.94246518497E+02  0.00000000000E+00 0. -1.
<mgrwt>
<rscale>  0 0.49746036E+02</rscale>
<asrwt>0</asrwt>
<pdfrwt beam="1">  1        2 0.70952082E+00 0.94169039E+02</pdfrwt>
<pdfrwt beam="2">  1        4 0.22473948E-01 0.26278999E+02</pdfrwt>
<totfact> 0.12664640E+00</totfact>
</mgrwt>
</event>
<event>
13    1  0.2742815E-008  0.2203248E+03  0.7546771E-02  0.1204823E+00
          2   -1    0    0  502    0  0.00000000000E+00  0.00000000000E+00  0.21774952455E+04  0.21774952455E+04  0.00000000000E+00 0. -1.
          2   -1    0    0  503    0 -0.00000000000E+00 -0.00000000000E+00 -0.78469268679E+03  0.78469268679E+03  0.00000000000E+00 0. -1.
         25    2    1    2    0    0  0.25871300387E+03 -0.58320300246E+03  0.65153414607E+03  0.92042363755E+03  0.12499907445E+03 0.  0.
         24    2    1    2    0    0  0.34347085169E+02 -0.17706969068E+02  0.10123914641E+03  0.13512562355E+03  0.80723666673E+02 0.  0.
         24    2    1    2    0    0 -0.15188232656E+02  0.31245108582E+02  0.40116247824E+03  0.41059935377E+03  0.80334028587E+02 0.  0.
        -11    1    4    4    0    0  0.33508139768E+02 -0.47459242566E+02  0.78548855630E+02  0.97699016660E+02  0.00000000000E+00 0.  1.
         12    1    4    4    0    0  0.83894540175E+00  0.29752273498E+02  0.22690290778E+02  0.37426606890E+02  0.00000000000E+00 0. -1.
        -13    1    5    5    0    0 -0.29111046269E+02 -0.15149775766E+02  0.24241326554E+03  0.24462452867E+03  0.00000000000E+00 0.  1.
         14    1    5    5    0    0  0.13922813613E+02  0.46394884348E+02  0.15874921270E+03  0.16597482510E+03  0.00000000000E+00 0. -1.
          5    1    3    3  501    0  0.18580755390E+03 -0.39343116403E+03  0.35873170423E+03  0.56393532744E+03  0.47000000000E+01 0.  1.
         -5    1    3    3    0  501  0.72905449974E+02 -0.18977183842E+03  0.29280244183E+03  0.35648831010E+03  0.47000000000E+01 0.  1.
          1    1    1    2  502    0 -0.22577544354E+01  0.95078242739E+02  0.74405580751E+03  0.75010933495E+03  0.00000000000E+00 0. -1.
          1    1    1    2  503    0 -0.27561410195E+03  0.47458662020E+03 -0.50518901952E+03  0.74592998245E+03  0.00000000000E+00 0. -1.
<mgrwt>
<rscale>  0 0.14651398E+03</rscale>
<asrwt>0</asrwt>
<pdfrwt beam="1">  1        2 0.32021989E+00 0.97430475E+02</pdfrwt>
<pdfrwt beam="2">  1        2 0.11539598E+00 0.22032476E+03</pdfrwt>
<totfact> 0.45579521E+01</totfact>
</mgrwt>
</event>
<event>
13    1  0.2742815E-008  0.1756462E+03  0.7546771E-02  0.1255916E+00
          2   -1    0    0  503    0  0.00000000000E+00  0.00000000000E+00  0.31796108677E+04  0.31796108677E+04  0.00000000000E+00 0. -1.
          2   -1    0    0  502    0 -0.00000000000E+00 -0.00000000000E+00 -0.22787555567E+03  0.22787555567E+03  0.00000000000E+00 0. -1.
         25    2    1    2    0    0 -0.39738718372E+02  0.13249757034E+03  0.56975850032E+02  0.19496457316E+03  0.12502065996E+03 0.  0.
         24    2    1    2    0    0  0.45960077790E+02 -0.14556133876E+03  0.24768949612E+03  0.30191070989E+03  0.80619837264E+02 0.  0.
         24    2    1    2    0    0  0.17877113054E+03  0.62823261117E+02  0.49056073904E+03  0.53216237210E+03  0.81492774812E+02 0.  0.
        -11    1    5    5    0    0  0.11849625090E+03  0.77546588436E+02  0.29979490195E+03  0.33155967501E+03  0.00000000000E+00 0.  1.
         12    1    5    5    0    0  0.60274879642E+02 -0.14723327320E+02  0.19076583709E+03  0.20060269710E+03  0.00000000000E+00 0. -1.
        -13    1    4    4    0    0  0.47711081027E+01 -0.12519881059E+03  0.19728457007E+03  0.23370645527E+03  0.00000000000E+00 0.  1.
         14    1    4    4    0    0  0.41188969687E+02 -0.20362528169E+02  0.50404926057E+02  0.68204254619E+02  0.00000000000E+00 0. -1.
          5    1    3    3  501    0 -0.14000784937E+02  0.94380782756E+02  0.95282499529E+02  0.13492441902E+03  0.47000000000E+01 0.  1.
         -5    1    3    3    0  501 -0.25737933435E+02  0.38116787588E+02 -0.38306649497E+02  0.60040154140E+02  0.47000000000E+01 0.  1.
          1    1    1    2  502    0 -0.10172505108E+02 -0.71400468286E+02 -0.95437054938E+02  0.11962331791E+03  0.00000000000E+00 0. -1.
          1    1    1    2  503    0 -0.17481998485E+03  0.21640975590E+02  0.22519462818E+04  0.22588254503E+04  0.00000000000E+00 0. -1.
<mgrwt>
<rscale>  0 0.11255161E+03</rscale>
<asrwt>0</asrwt>
<pdfrwt beam="1">  1        2 0.46758981E+00 0.17564624E+03</pdfrwt>
<pdfrwt beam="2">  1        2 0.33511113E-01 0.72121472E+02</pdfrwt>
<totfact> 0.49727651E+01</totfact>
</mgrwt>
</event>
<event>
13    1  0.2742815E-008  0.2620963E+03  0.7546771E-02  0.1223337E+00
          2   -1    0    0  503    0  0.00000000000E+00  0.00000000000E+00  0.11428812833E+04  0.11428812833E+04  0.00000000000E+00 0. -1.
          2   -1    0    0  502    0 -0.00000000000E+00 -0.00000000000E+00 -0.15297018362E+04  0.15297018362E+04  0.00000000000E+00 0. -1.
         25    2    1    2    0    0 -0.46377766026E+02 -0.17991526252E+03 -0.42724305732E+03  0.48236200157E+03  0.12496428154E+03 0.  0.
         24    2    1    2    0    0  0.14435874838E+03 -0.67411532442E+02 -0.52881073068E+02  0.18612307034E+03  0.80384242743E+02 0.  0.
         24    2    1    2    0    0 -0.84761308497E+02 -0.19040476007E+03  0.16021661084E+03  0.27516549252E+03  0.81291043869E+02 0.  0.
        -11    1    4    4    0    0  0.14736895888E+03 -0.43099675446E+02 -0.41145029199E+02  0.15895944607E+03  0.00000000000E+00 0.  1.
         12    1    4    4    0    0 -0.30102104985E+01 -0.24311856996E+02 -0.11736043869E+02  0.27163624270E+02  0.00000000000E+00 0. -1.
        -13    1    5    5    0    0 -0.35618042973E+02 -0.10483314890E+02  0.29198927040E+02  0.47234756447E+02  0.00000000000E+00 0.  1.
         14    1    5    5    0    0 -0.49143265524E+02 -0.17992144518E+03  0.13101768380E+03  0.22793073607E+03  0.00000000000E+00 0. -1.
          5    1    3    3  501    0  0.35105088420E+02 -0.49311381494E+02 -0.66099951262E+02  0.89751173444E+02  0.47000000000E+01 0. -1.
         -5    1    3    3    0  501 -0.81482854446E+02 -0.13060388103E+03 -0.36114310606E+03  0.39261082813E+03  0.47000000000E+01 0. -1.
          1    1    1    2  502    0 -0.44284790674E+02 -0.50681475986E+02 -0.82437767084E+03  0.82712048631E+03  0.00000000000E+00 0. -1.
          1    1    1    2  503    0  0.31065116813E+02  0.48841303102E+03  0.75746463743E+03  0.90181206873E+03  0.00000000000E+00 0. -1.
<mgrwt>
<rscale>  0 0.13281560E+03</rscale>
<asrwt>0</asrwt>
<pdfrwt beam="1">  1        2 0.16807078E+00 0.26209629E+03</pdfrwt>
<pdfrwt beam="2">  1        2 0.22495615E+00 0.67303452E+02</pdfrwt>
<totfact> 0.57734721E+01</totfact>
</mgrwt>
</event>
<event>
13    1  0.2742815E-008  0.1963327E+03  0.7546771E-02  0.1423424E+00
          2   -1    0    0  502    0  0.00000000000E+00  0.00000000000E+00  0.29996159484E+04  0.29996159484E+04  0.00000000000E+00 0. -1.
          2   -1    0    0  503    0 -0.00000000000E+00 -0.00000000000E+00 -0.64597893993E+03  0.64597893993E+03  0.00000000000E+00 0. -1.
         25    2    1    2    0    0 -0.40875011738E+03 -0.10127001574E+03 -0.16025420272E+03  0.46758704433E+03  0.12499583989E+03 0.  0.
         24    2    1    2    0    0  0.40116861601E+03 -0.10416174378E+03  0.83549254999E+03  0.93625617050E+03  0.82109002978E+02 0.  0.
         24    2    1    2    0    0 -0.39467130381E+02  0.14543960350E+02  0.22080280806E+03  0.23866702402E+03  0.80242676595E+02 0.  0.
        -11    1    5    5    0    0  0.23694175418E+02  0.30670226885E+01  0.87636736036E+02  0.90835114796E+02  0.00000000000E+00 0.  1.
         12    1    5    5    0    0 -0.63161305799E+02  0.11476937661E+02  0.13316607202E+03  0.14783190923E+03  0.00000000000E+00 0. -1.
        -13    1    4    4    0    0  0.23390838909E+03 -0.95887937812E+02  0.45429504413E+03  0.51989577631E+03  0.00000000000E+00 0.  1.
         14    1    4    4    0    0  0.16726022692E+03 -0.82738059666E+01  0.38119750586E+03  0.41636039419E+03  0.00000000000E+00 0. -1.
          5    1    3    3  501    0 -0.13960640195E+03  0.13834227986E+02 -0.89243302688E+02  0.16633637727E+03  0.47000000000E+01 0.  1.
         -5    1    3    3    0  501 -0.26914371543E+03 -0.11510424372E+03 -0.71010900035E+02  0.30125066706E+03  0.47000000000E+01 0.  1.
          1    1    1    2  502    0  0.14806894274E+02 -0.25179376019E+01  0.16950633620E+04  0.16951299022E+04  0.00000000000E+00 0. -1.
          1    1    1    2  503    0  0.32241737476E+02  0.19340573677E+03 -0.23746750882E+03  0.30795474732E+03  0.00000000000E+00 0. -1.
<mgrwt>
<rscale>  0 0.54302948E+02</rscale>
<asrwt>0</asrwt>
<pdfrwt beam="1">  1        2 0.44111999E+00 0.15019458E+02</pdfrwt>
<pdfrwt beam="2">  1        2 0.94996904E-01 0.19633266E+03</pdfrwt>
<totfact> 0.31023295E+01</totfact>
</mgrwt>
</event>
<event>
13    1  0.2742815E-008  0.1440968E+03  0.7546771E-02  0.1348743E+00
          2   -1    0    0  502    0  0.00000000000E+00  0.00000000000E+00  0.15759311102E+04  0.15759311102E+04  0.00000000000E+00 0. -1.
          2   -1    0    0  503    0 -0.00000000000E+00 -0.00000000000E+00 -0.44835191142E+04  0.44835191142E+04  0.00000000000E+00 0. -1.
         25    2    1    2    0    0  0.34196709436E+03 -0.63025439975E+02 -0.22517614710E+04  0.22818782104E+04  0.12499898103E+03 0.  0.
         24    2    1    2    0    0 -0.94096010456E+02  0.24059730550E+03 -0.22357504500E+03  0.35102053773E+03  0.80551192206E+02 0.  0.
         24    2    1    2    0    0 -0.13242839356E+03 -0.20102711500E+03  0.42055728596E+03  0.49123739547E+03  0.80601287472E+02 0.  0.
        -11    1    5    5    0    0 -0.74545169298E+01 -0.69843126487E+01  0.74974811697E+02  0.75667515057E+02  0.00000000000E+00 0.  1.
         12    1    5    5    0    0 -0.12497387663E+03 -0.19404280235E+03  0.34558247427E+03  0.41556988041E+03  0.00000000000E+00 0. -1.
        -13    1    4    4    0    0 -0.86412980020E+02  0.24551423397E+03 -0.20890137057E+03  0.33374275246E+03  0.00000000000E+00 0.  1.
         14    1    4    4    0    0 -0.76830304360E+01 -0.49169284747E+01 -0.14673674432E+02  0.17277785264E+02  0.00000000000E+00 0. -1.
          5    1    3    3  501    0  0.54509399955E+02 -0.60556142548E+02 -0.54288071927E+03  0.54898077056E+03  0.47000000000E+01 0.  1.
         -5    1    3    3    0  501  0.28745769440E+03 -0.24692974269E+01 -0.17088807517E+04  0.17328974399E+04  0.47000000000E+01 0.  1.
          1    1    1    2  502    0 -0.13249713411E+03  0.56783459958E+02  0.10360771260E+04  0.10460571987E+04  0.00000000000E+00 0. -1.
          1    1    1    2  503    0  0.17054443777E+02 -0.33328210483E+02 -0.18888859000E+04  0.18892568822E+04  0.00000000000E+00 0. -1.
<mgrwt>
<rscale>  0 0.73448851E+02</rscale>
<asrwt>0</asrwt>
<pdfrwt beam="1">  1        2 0.23175458E+00 0.14409679E+03</pdfrwt>
<pdfrwt beam="2">  1        2 0.65934104E+00 0.37438265E+02</pdfrwt>
<totfact> 0.93903946E-01</totfact>
</mgrwt>
</event>
<event>
13    1  0.2742815E-008  0.6468708E+02  0.7546771E-02  0.1498392E+00
          2   -1    0    0  502    0  0.00000000000E+00  0.00000000000E+00  0.23202107288E+04  0.23202107288E+04  0.00000000000E+00 0. -1.
          4   -1    0    0  503    0 -0.00000000000E+00 -0.00000000000E+00 -0.10159184870E+04  0.10159184870E+04  0.00000000000E+00 0. -1.
         25    2    1    2    0    0 -0.70565071012E+02 -0.12771784307E+03 -0.26904060146E+03  0.33060512253E+03  0.12500250046E+03 0.  0.
         24    2    1    2    0    0 -0.20983360243E+02  0.11605446110E+03  0.14296049577E+03  0.20201393095E+03  0.80392696162E+02 0.  0.
         24    2    1    2    0    0  0.34133096771E+02  0.36726070193E+02  0.35944450185E+03  0.37136376762E+03  0.78719917816E+02 0.  0.
        -13    1    5    5    0    0  0.11807123863E+02  0.40990535881E+02  0.33604690468E+03  0.33874349344E+03  0.00000000000E+00 0.  1.
         14    1    5    5    0    0  0.22325972908E+02 -0.42644656873E+01  0.23397597179E+02  0.32620274181E+02  0.00000000000E+00 0. -1.
        -13    1    4    4    0    0 -0.35760010211E+02  0.16546589705E+02  0.59176042313E+02  0.71094106261E+02  0.00000000000E+00 0.  1.
         14    1    4    4    0    0  0.14776649968E+02  0.99507871397E+02  0.83784453458E+02  0.13091982468E+03  0.00000000000E+00 0. -1.
          5    1    3    3  501    0 -0.21196120491E+02 -0.12091955136E+03 -0.24709288490E+03  0.27594890323E+03  0.47000000000E+01 0.  1.
         -5    1    3    3    0  501 -0.49368950521E+02 -0.67982917127E+01 -0.21947716557E+02  0.54656219297E+02  0.47000000000E+01 0.  1.
          1    1    1    2  502    0  0.13689772548E+02  0.22635146527E+02  0.17498989652E+04  0.17500988967E+04  0.00000000000E+00 0. -1.
          3    1    1    2  503    0  0.43725561936E+02 -0.47697834752E+02 -0.67897111960E+03  0.68204749795E+03  0.00000000000E+00 0. -1.
<mgrwt>
<rscale>  0 0.41366236E+02</rscale>
<asrwt>0</asrwt>
<pdfrwt beam="1">  1        2 0.34120746E+00 0.26452972E+02</pdfrwt>
<pdfrwt beam="2">  1        4 0.14939978E+00 0.64687077E+02</pdfrwt>
<totfact> 0.12694081E+00</totfact>
</mgrwt>
</event>
<event>
13    1  0.2742815E-008  0.2146425E+02  0.7546771E-02  0.1747327E+00
          4   -1    0    0  503    0 -0.00000000000E+00  0.00000000000E+00  0.63207809989E+03  0.63207809989E+03  0.00000000000E+00 0. -1.
          2   -1    0    0  502    0  0.00000000000E+00 -0.00000000000E+00 -0.88272966411E+03  0.88272966411E+03  0.00000000000E+00 0. -1.
         25    2    1    2    0    0 -0.38439811665E+02  0.13525776917E+02  0.21480403048E+03  0.25184882163E+03  0.12500596660E+03 0.  0.
         24    2    1    2    0    0  0.73797657821E+02  0.63145592947E+01  0.12937071951E+03  0.16951076701E+03  0.80691691687E+02 0.  0.
         24    2    1    2    0    0 -0.20862921916E+02 -0.19745042063E+02 -0.27707156132E+01  0.83995870564E+02  0.78882832161E+02 0.  0.
        -11    1    4    4    0    0  0.77245552865E+02  0.23453912979E+02  0.12881329514E+03  0.15201916483E+03  0.00000000000E+00 0.  1.
         12    1    4    4    0    0 -0.34478950438E+01 -0.17139353685E+02  0.55742437396E+00  0.17491602182E+02  0.00000000000E+00 0. -1.
        -13    1    5    5    0    0  0.23714284701E+02  0.14390798643E+02 -0.24705089320E+01  0.27848982007E+02  0.00000000000E+00 0.  1.
         14    1    5    5    0    0 -0.44577206618E+02 -0.34135840705E+02 -0.30020668117E+00  0.56146888556E+02  0.00000000000E+00 0. -1.
          5    1    3    3  501    0 -0.66963066345E+02 -0.34071420685E+02  0.13432887783E+03  0.15398458163E+03  0.47000000000E+01 0.  1.
         -5    1    3    3    0  501  0.28523254679E+02  0.47597197602E+02  0.80475152645E+02  0.97864239997E+02  0.47000000000E+01 0.  1.
          1    1    1    2  502    0 -0.30786269382E+01  0.18190823446E+02 -0.80009064270E+03  0.80030333033E+03  0.00000000000E+00 0. -1.
          3    1    1    2  503    0 -0.11416297302E+02 -0.18286117595E+02  0.20803504411E+03  0.20914897446E+03  0.00000000000E+00 0. -1.
<mgrwt>
<rscale>  0 0.19899868E+02</rscale>
<asrwt>0</asrwt>
<pdfrwt beam="2">  1        2 0.12981318E+00 0.18449499E+02</pdfrwt>
<pdfrwt beam="1">  1        4 0.92952663E-01 0.21464255E+02</pdfrwt>
<totfact> 0.16895381E+01</totfact>
</mgrwt>
</event>
<event>
13    1  0.2742815E-008  0.1082964E+03  0.7546771E-02  0.1283979E+00
          2   -1    0    0  502    0  0.00000000000E+00  0.00000000000E+00  0.20272431789E+04  0.20272431789E+04  0.00000000000E+00 0. -1.
          2   -1    0    0  503    0 -0.00000000000E+00 -0.00000000000E+00 -0.21693540074E+04  0.21693540074E+04  0.00000000000E+00 0. -1.
         25    2    1    2    0    0  0.59243249061E+02  0.98748054817E+02 -0.60813350130E+03  0.63143750016E+03  0.12500408118E+03 0.  0.
         24    2    1    2    0    0 -0.16635791967E+03  0.43693170401E+01  0.16753658309E+03  0.24946085552E+03  0.80424892902E+02 0.  0.
         24    2    1    2    0    0 -0.15177921110E+02 -0.36017322300E+02  0.32295506077E+03  0.33597661727E+03  0.83980350551E+02 0.  0.
        -11    1    5    5    0    0 -0.22758497135E+02  0.16130807608E+02  0.44070010504E+02  0.52156667567E+02  0.00000000000E+00 0.  1.
         12    1    5    5    0    0  0.75805760251E+01 -0.52148129908E+02  0.27888505027E+03  0.28381994970E+03  0.00000000000E+00 0. -1.
        -13    1    4    4    0    0  0.42781330027E+01  0.55919295847E+01  0.28476309755E+02  0.29333808408E+02  0.00000000000E+00 0.  1.
         14    1    4    4    0    0 -0.17063605267E+03 -0.12226125446E+01  0.13906027333E+03  0.22012704711E+03  0.00000000000E+00 0. -1.
          5    1    3    3  501    0 -0.32271067349E+02  0.10359810695E+02 -0.22791409780E+03  0.23046837840E+03  0.47000000000E+01 0.  1.
         -5    1    3    3    0  501  0.91514316410E+02  0.88388244122E+02 -0.38021940351E+03  0.40096912177E+03  0.47000000000E+01 0.  1.
          1    1    1    2  502    0  0.15975509236E+02 -0.87727345087E+02  0.14743257307E+04  0.14770198591E+04  0.00000000000E+00 0. -1.
          1    1    1    2  503    0  0.10631708248E+03  0.20627295530E+02 -0.14987947018E+04  0.15027023542E+04  0.00000000000E+00 0. -1.
<mgrwt>
<rscale>  0 0.98269034E+02</rscale>
<asrwt>0</asrwt>
<pdfrwt beam="1">  1        2 0.29812400E+00 0.89170085E+02</pdfrwt>
<pdfrwt beam="2">  1        2 0.31902265E+00 0.10829644E+03</pdfrwt>
<totfact> 0.10541987E+01</totfact>
</mgrwt>
</event>
<event>
13    1  0.2742815E-008  0.2596701E+02  0.7546771E-02  0.1653995E+00
          2   -1    0    0  502    0  0.00000000000E+00  0.00000000000E+00  0.20150696570E+04  0.20150696570E+04  0.00000000000E+00 0. -1.
          2   -1    0    0  503    0 -0.00000000000E+00 -0.00000000000E+00 -0.87462149163E+03  0.87462149163E+03  0.00000000000E+00 0. -1.
         25    2    1    2    0    0 -0.12061917295E+03  0.12878387185E+03 -0.27106658561E+03  0.34674804027E+03  0.12499135594E+03 0.  0.
         24    2    1    2    0    0  0.20200692649E+03 -0.13989868717E+03  0.14299706188E+04  0.14532102310E+04  0.81397567095E+02 0.  0.
         24    2    1    2    0    0 -0.67934747520E+02  0.58580232410E+02  0.20230203144E+03  0.23571919013E+03  0.81182825299E+02 0.  0.
        -11    1    4    4    0    0  0.77230496309E+02 -0.29504295830E+02  0.30651909839E+03  0.31747285035E+03  0.00000000000E+00 0.  1.
         12    1    4    4    0    0  0.12477643018E+03 -0.11039439134E+03  0.11234515204E+04  0.11357373807E+04  0.00000000000E+00 0. -1.
        -13    1    5    5    0    0 -0.35820482177E+02  0.61238107057E+02  0.18708076402E+03  0.20008104599E+03  0.00000000000E+00 0.  1.
         14    1    5    5    0    0 -0.32114265343E+02 -0.26578746467E+01  0.15221267423E+02  0.35638144145E+02  0.00000000000E+00 0. -1.
          5    1    3    3  501    0 -0.85458661554E+02  0.97170788897E+01 -0.72845289124E+02  0.11281015293E+03  0.47000000000E+01 0.  1.
         -5    1    3    3    0  501 -0.35160511397E+02  0.11906679296E+03 -0.19822129649E+03  0.23393788734E+03  0.47000000000E+01 0.  1.
          1    1    1    2  502    0 -0.70612547612E+00 -0.25922960152E+02  0.31580464544E+03  0.31686759468E+03  0.00000000000E+00 0. -1.
          1    1    1    2  503    0 -0.12746880542E+02 -0.21542456939E+02 -0.53656254466E+03  0.53714609256E+03  0.00000000000E+00 0. -1.
<mgrwt>
<rscale>  0 0.25494807E+02</rscale>
<asrwt>0</asrwt>
<pdfrwt beam="1">  1        2 0.29633377E+00 0.25967013E+02</pdfrwt>
<pdfrwt beam="2">  1        2 0.12862081E+00 0.25031189E+02</pdfrwt>
<totfact> 0.60381423E+01</totfact>
</mgrwt>
</event>
<event>
13    1  0.2742815E-008  0.9663885E+02  0.7546771E-02  0.1359022E+00
         -3   -1    0    0    0  501 -0.00000000000E+00  0.00000000000E+00  0.14597440395E+04  0.14597440395E+04  0.00000000000E+00 0.  1.
          2   -1    0    0  503    0  0.00000000000E+00 -0.00000000000E+00 -0.38554688904E+04  0.38554688904E+04  0.00000000000E+00 0. -1.
         25    2    1    2    0    0  0.13465092074E+03  0.47864996868E+01  0.37044506158E+03  0.41352909253E+03  0.12499194248E+03 0.  0.
         24    2    1    2    0    0 -0.55980058641E+02 -0.98818136960E+02 -0.29178057325E+03  0.32330805652E+03  0.80581668712E+02 0.  0.
         24    2    1    2    0    0  0.65290560359E+02  0.66512165795E+02 -0.45373614323E+03  0.47015661428E+03  0.80523467454E+02 0.  0.
        -11    1    4    4    0    0 -0.44569266225E+02 -0.10551972259E+03 -0.28737202182E+03  0.30935983947E+03  0.00000000000E+00 0.  1.
         12    1    4    4    0    0 -0.11410792416E+02  0.67015856284E+01 -0.44085514224E+01  0.13948217059E+02  0.00000000000E+00 0. -1.
        -13    1    5    5    0    0 -0.17643203944E+02  0.24162849134E+02 -0.11985355773E+03  0.12353137749E+03  0.00000000000E+00 0.  1.
         14    1    5    5    0    0  0.82933764303E+02  0.42349316661E+02 -0.33388258550E+03  0.34662523679E+03  0.00000000000E+00 0. -1.
          5    1    3    3  502    0  0.56089576352E+01 -0.37665080212E+02  0.14755414573E+03  0.15246125604E+03  0.47000000000E+01 0. -1.
         -5    1    3    3    0  502  0.12904196310E+03  0.42451579899E+02  0.22289091585E+03  0.26106783649E+03  0.47000000000E+01 0. -1.
          1    1    1    2  503    0 -0.92806193173E+02  0.26620505992E+02 -0.30630481329E+04  0.30645693834E+04  0.00000000000E+00 0. -1.
         -4    1    1    2    0  501 -0.51155229282E+02  0.89896548615E+00  0.10423949368E+04  0.10436497832E+04  0.00000000000E+00 0.  1.
<mgrwt>
<rscale>  0 0.70316043E+02</rscale>
<asrwt>0</asrwt>
<pdfrwt beam="2">  1        2 0.56698072E+00 0.96638853E+02</pdfrwt>
<pdfrwt beam="1">  1       -3 0.21466824E+00 0.51163128E+02</pdfrwt>
<totfact> 0.79082212E-02</totfact>
</mgrwt>
</event>
<event>
13    1  0.2742815E-008  0.1192760E+03  0.7546771E-02  0.1329628E+00
          2   -1    0    0  503    0  0.00000000000E+00  0.00000000000E+00  0.16775599591E+04  0.16775599591E+04  0.00000000000E+00 0. -1.
          2   -1    0    0  502    0 -0.00000000000E+00 -0.00000000000E+00 -0.95149577209E+03  0.95149577209E+03  0.00000000000E+00 0. -1.
         25    2    1    2    0    0 -0.29029543922E+02 -0.68541987714E+02 -0.41286924506E+02  0.15121899853E+03  0.12498742689E+03 0.  0.
         24    2    1    2    0    0 -0.52676218707E+02 -0.23523960895E+02  0.10985707171E+03  0.14785954930E+03  0.80409634760E+02 0.  0.
         24    2    1    2    0    0  0.33058794383E+02 -0.40051462432E+02  0.25056979913E+03  0.26805408455E+03  0.79817068851E+02 0.  0.
        -11    1    5    5    0    0  0.57907679986E+02 -0.28943877324E+02  0.20494973132E+03  0.21493124437E+03  0.00000000000E+00 0.  1.
         12    1    5    5    0    0 -0.24848885602E+02 -0.11107585108E+02  0.45620067807E+02  0.53122840185E+02  0.00000000000E+00 0. -1.
        -13    1    4    4    0    0  0.25693287408E+01  0.22081126905E+02  0.49209955763E+02  0.53998123687E+02  0.00000000000E+00 0.  1.
         14    1    4    4    0    0 -0.55245547448E+02 -0.45605087800E+02  0.60647115945E+02  0.93861425615E+02  0.00000000000E+00 0. -1.
          5    1    3    3  501    0 -0.30580714200E+02  0.30138720939E+02  0.22416707553E+01  0.43250868992E+02  0.47000000000E+01 0.  1.
         -5    1    3    3    0  501  0.15511702773E+01 -0.98680708654E+02 -0.43528595261E+02  0.10796812953E+03  0.47000000000E+01 0.  1.
          1    1    1    2  502    0  0.22638359998E+02 -0.48347442635E+02 -0.81989390548E+03  0.82163007905E+03  0.00000000000E+00 0. -1.
          1    1    1    2  503    0  0.26008608248E+02  0.18046485368E+03  0.12268181462E+04  0.12402930198E+04  0.00000000000E+00 0. -1.
<mgrwt>
<rscale>  0 0.79797006E+02</rscale>
<asrwt>0</asrwt>
<pdfrwt beam="1">  1        2 0.24669999E+00 0.11927598E+03</pdfrwt>
<pdfrwt beam="2">  1        2 0.13992585E+00 0.53385115E+02</pdfrwt>
<totfact> 0.64852260E+01</totfact>
</mgrwt>
</event>
<event>
13    1  0.2742815E-008  0.1445151E+03  0.7546771E-02  0.1305342E+00
          2   -1    0    0  502    0  0.00000000000E+00  0.00000000000E+00  0.27543914281E+04  0.27543914281E+04  0.00000000000E+00 0. -1.
          2   -1    0    0  503    0 -0.00000000000E+00 -0.00000000000E+00 -0.16997866628E+04  0.16997866628E+04  0.00000000000E+00 0. -1.
         25    2    1    2    0    0  0.13524287479E+02 -0.37402734480E+02 -0.31033565649E+03  0.33691710772E+03  0.12499218730E+03 0.  0.
         24    2    1    2    0    0 -0.21081938729E+02 -0.11907509821E+03 -0.20463540308E+03  0.24823414448E+03  0.71562665826E+02 0.  0.
         24    2    1    2    0    0 -0.92214102687E+02 -0.34764969217E+02  0.19836860607E+03  0.23449728896E+03  0.76985913255E+02 0.  0.
        -11    1    4    4    0    0  0.13116012653E+02 -0.10031097045E+03 -0.13969639382E+03  0.17248015255E+03  0.00000000000E+00 0.  1.
         12    1    4    4    0    0 -0.34197951382E+02 -0.18764127767E+02 -0.64939009260E+02  0.75753991929E+02  0.00000000000E+00 0. -1.
        -11    1    5    5    0    0 -0.82887256754E+02 -0.49252659811E+02  0.11838994637E+03  0.15268366394E+03  0.00000000000E+00 0.  1.
         12    1    5    5    0    0 -0.93268459322E+01  0.14487690595E+02  0.79978659693E+02  0.81813625027E+02  0.00000000000E+00 0. -1.
          5    1    3    3  501    0 -0.25975339811E+01 -0.12302069362E+02  0.89971575023E+01  0.16159422529E+02  0.47000000000E+01 0.  1.
         -5    1    3    3    0  501  0.16121821460E+02 -0.25100665118E+02 -0.31933281400E+03  0.32075768519E+03  0.47000000000E+01 0.  1.
          1    1    1    2  502    0  0.46149810741E+02  0.20247488176E+03  0.24978939904E+04  0.25065115739E+04  0.00000000000E+00 0. -1.
          1    1    1    2  503    0  0.53621943195E+02 -0.11232079850E+02 -0.11266867716E+04  0.11280179758E+04  0.00000000000E+00 0. -1.
<mgrwt>
<rscale>  0 0.88979548E+02</rscale>
<asrwt>0</asrwt>
<pdfrwt beam="1">  1        2 0.40505756E+00 0.14451509E+03</pdfrwt>
<pdfrwt beam="2">  1        2 0.24996863E+00 0.54785695E+02</pdfrwt>
<totfact> 0.77732826E+00</totfact>
</mgrwt>
</event>
<event>
13    1  0.2742815E-008  0.3676275E+02  0.7546771E-02  0.1686827E+00
          2   -1    0    0  503    0  0.00000000000E+00  0.00000000000E+00  0.20163199281E+04  0.20163199281E+04  0.00000000000E+00 0. -1.
          2   -1    0    0  502    0 -0.00000000000E+00 -0.00000000000E+00 -0.30363308823E+04  0.30363308823E+04  0.00000000000E+00 0. -1.
         25    2    1    2    0    0 -0.78532198485E+02  0.72014798217E+02 -0.83770014260E+02  0.18437965951E+03  0.12500002476E+03 0.  0.
         24    2    1    2    0    0  0.98613060527E+01 -0.54315196123E+01  0.30862265801E+03  0.31917310798E+03  0.80602611996E+02 0.  0.
         24    2    1    2    0    0  0.10334943370E+03 -0.28675673601E+02  0.14753526313E+04  0.14813646041E+04  0.79197877658E+02 0.  0.
        -11    1    5    5    0    0  0.49761708718E+02 -0.54319059365E+02  0.86163727887E+03  0.86478065901E+03  0.00000000000E+00 0.  1.
         12    1    5    5    0    0  0.53587724980E+02  0.25643385764E+02  0.61371535247E+03  0.61658394510E+03  0.00000000000E+00 0. -1.
        -11    1    4    4    0    0  0.78251539629E+01 -0.23396528967E+02  0.29622551624E+03  0.29725105059E+03  0.00000000000E+00 0.  1.
         12    1    4    4    0    0  0.20361520898E+01  0.17965009355E+02  0.12397141765E+02  0.21922057394E+02  0.00000000000E+00 0. -1.
          5    1    3    3  501    0 -0.62016743022E+01 -0.29429563820E+02 -0.44015467314E+02  0.53516458718E+02  0.47000000000E+01 0. -1.
         -5    1    3    3    0  501 -0.72330524183E+02  0.10144436204E+03 -0.39754546946E+02  0.13086320079E+03  0.47000000000E+01 0. -1.
          1    1    1    2  502    0 -0.26058879599E+02 -0.25930030476E+02 -0.28935445560E+04  0.28937780718E+04  0.00000000000E+00 0. -1.
          1    1    1    2  503    0 -0.86196616669E+01 -0.11977574528E+02  0.17332832673E+03  0.17395536700E+03  0.00000000000E+00 0. -1.
<mgrwt>
<rscale>  0 0.23291579E+02</rscale>
<asrwt>0</asrwt>
<pdfrwt beam="1">  1        2 0.29651764E+00 0.14756722E+02</pdfrwt>
<pdfrwt beam="2">  1        2 0.44651924E+00 0.36762746E+02</pdfrwt>
<totfact> 0.57502807E+00</totfact>
</mgrwt>
</event>
<event>
13    1  0.2742815E-008  0.2661730E+03  0.7546771E-02  0.1146797E+00
          2   -1    0    0  502    0  0.00000000000E+00  0.00000000000E+00  0.36486585940E+04  0.36486585940E+04  0.00000000000E+00 0. -1.
          2   -1    0    0  503    0 -0.00000000000E+00 -0.00000000000E+00 -0.34990491579E+03  0.34990491579E+03  0.00000000000E+00 0. -1.
         25    2    1    2    0    0  0.96898358415E+02 -0.12663913330E+03  0.86284531025E+02  0.22021848369E+03  0.12499759324E+03 0.  0.
         24    2    1    2    0    0 -0.13229851854E+03  0.21232308353E+03  0.36747222930E+03  0.45174960432E+03  0.80360910181E+02 0.  0.
         24    2    1    2    0    0  0.16881412972E+03 -0.12048766672E+03  0.51435673322E+03  0.56455102045E+03  0.10554391250E+03 0.  0.
        -11    1    5    5    0    0  0.57630448817E+01 -0.96150336211E+01 -0.23916325519E+01  0.11462175365E+02  0.00000000000E+00 0.  1.
         12    1    5    5    0    0  0.16305108484E+03 -0.11087263310E+03  0.51674836577E+03  0.55308884509E+03  0.00000000000E+00 0. -1.
        -13    1    4    4    0    0 -0.33501735800E+02  0.11733713389E+03  0.21098813327E+03  0.24373420292E+03  0.00000000000E+00 0.  1.
         14    1    4    4    0    0 -0.98796782736E+02  0.94985949646E+02  0.15648409603E+03  0.20801540140E+03  0.00000000000E+00 0. -1.
          5    1    3    3  501    0  0.88294750977E+02 -0.75529647334E+02  0.11262898027E+03  0.16188906039E+03  0.47000000000E+01 0. -1.
         -5    1    3    3    0  501  0.86036074377E+01 -0.51109485967E+02 -0.26344449241E+02  0.58329423301E+02  0.47000000000E+01 0. -1.
          1    1    1    2  502    0 -0.28874523140E+03  0.44367922598E+02  0.25086476778E+04  0.25256000263E+04  0.00000000000E+00 0. -1.
          1    1    1    2  503    0  0.15533126180E+03 -0.95642061142E+01 -0.17800749309E+03  0.23644437513E+03  0.00000000000E+00 0. -1.
<mgrwt>
<rscale>  0 0.20352713E+03</rscale>
<asrwt>0</asrwt>
<pdfrwt beam="1">  1        2 0.53656742E+00 0.26617303E+03</pdfrwt>
<pdfrwt beam="2">  1        2 0.51456607E-01 0.15562543E+03</pdfrwt>
<totfact> 0.15695972E+01</totfact>
</mgrwt>
</event>
<event>
13    1  0.2742815E-008  0.2720958E+03  0.7546771E-02  0.1301488E+00
          2   -1    0    0  503    0  0.00000000000E+00  0.00000000000E+00  0.38095988883E+04  0.38095988883E+04  0.00000000000E+00 0. -1.
          2   -1    0    0  502    0 -0.00000000000E+00 -0.00000000000E+00 -0.19775937912E+04  0.19775937912E+04  0.00000000000E+00 0. -1.
         25    2    1    2    0    0 -0.93234411791E+02 -0.27348564241E+03 -0.96905268747E+03  0.10189087193E+04  0.12499926035E+03 0.  0.
         24    2    1    2    0    0 -0.69042418739E+02  0.25450579041E+03  0.73795382881E+02  0.28350632391E+03  0.73416784361E+02 0.  0.
         24    2    1    2    0    0 -0.74210837283E+02 -0.75239131346E+02 -0.20319230260E+03  0.24770331079E+03  0.94348519234E+02 0.  0.
        -13    1    5    5    0    0 -0.20308253031E+02  0.22251218483E+02 -0.47926884617E+02  0.56608551776E+02  0.00000000000E+00 0.  1.
         14    1    5    5    0    0 -0.53902584252E+02 -0.97490349829E+02 -0.15526541799E+03  0.19109475901E+03  0.00000000000E+00 0. -1.
        -13    1    4    4    0    0 -0.47560283928E+02  0.24547743348E+03  0.71650271811E+02  0.26010557934E+03  0.00000000000E+00 0.  1.
         14    1    4    4    0    0 -0.21482134811E+02  0.90283569319E+01  0.21451110703E+01  0.23400744570E+02  0.00000000000E+00 0. -1.
          5    1    3    3  501    0 -0.11958469312E+03 -0.17793090432E+03 -0.62062871852E+03  0.65662927272E+03  0.47000000000E+01 0.  1.
         -5    1    3    3    0  501  0.26350281327E+02 -0.95554738085E+02 -0.34842396895E+03  0.36227944661E+03  0.47000000000E+01 0.  1.
          1    1    1    2  502    0 -0.56237443363E+01 -0.29615018627E+02 -0.64779994139E+03  0.64850091742E+03  0.00000000000E+00 0. -1.
          1    1    1    2  503    0  0.24211141215E+03  0.12383400197E+03  0.35782546457E+04  0.35885734081E+04  0.00000000000E+00 0. -1.
<mgrwt>
<rscale>  0 0.90565580E+02</rscale>
<asrwt>0</asrwt>
<pdfrwt beam="1">  1        2 0.56023513E+00 0.27209581E+03</pdfrwt>
<pdfrwt beam="2">  1        2 0.29082262E+00 0.30144250E+02</pdfrwt>
<totfact> 0.13656604E+00</totfact>
</mgrwt>
</event>
<event>
13    1  0.2742815E-008  0.6491307E+02  0.7546771E-02  0.1479813E+00
          4   -1    0    0  503    0 -0.00000000000E+00  0.00000000000E+00  0.11599523066E+04  0.11599523066E+04  0.00000000000E+00 0. -1.
          2   -1    0    0  502    0  0.00000000000E+00 -0.00000000000E+00 -0.23973657006E+04  0.23973657006E+04  0.00000000000E+00 0. -1.
         25    2    1    2    0    0 -0.25492235276E+03 -0.23307490876E+02  0.52931167768E+03  0.60110246323E+03  0.12499869642E+03 0.  0.
         24    2    1    2    0    0  0.12826055458E+03 -0.27232995345E+02 -0.72190426822E+02  0.16535760163E+03  0.70279960142E+02 0.  0.
         24    2    1    2    0    0  0.47932467698E+02  0.29586217577E+01 -0.87660633455E+03  0.88160410021E+03  0.80503719373E+02 0.  0.
        -11    1    5    5    0    0 -0.17848849389E+02  0.13334096817E+00 -0.67397177598E+02  0.69720719679E+02  0.00000000000E+00 0.  1.
         12    1    5    5    0    0  0.65781317088E+02  0.28252807895E+01 -0.80920915695E+03  0.81188338053E+03  0.00000000000E+00 0. -1.
        -11    1    4    4    0    0  0.13209127188E+02 -0.30370170202E+02 -0.10327702037E+02  0.34691349189E+02  0.00000000000E+00 0.  1.
         12    1    4    4    0    0  0.11505142739E+03  0.31371748568E+01 -0.61862724785E+02  0.13066625244E+03  0.00000000000E+00 0. -1.
          5    1    3    3  501    0 -0.21222990484E+02 -0.45033053793E+02  0.86579464246E+02  0.99982422896E+02  0.47000000000E+01 0. -1.
         -5    1    3    3    0  501 -0.23369936228E+03  0.21725562918E+02  0.44273221344E+03  0.50112004034E+03  0.47000000000E+01 0. -1.
          1    1    1    2  502    0  0.29535944717E+02  0.53033953725E+01 -0.13614974789E+04  0.13618281401E+04  0.00000000000E+00 0. -1.
          3    1    1    2  503    0  0.49193385773E+02  0.42278469091E+02  0.54356916861E+03  0.54742570200E+03  0.00000000000E+00 0. -1.
<mgrwt>
<rscale>  0 0.44135369E+02</rscale>
<asrwt>0</asrwt>
<pdfrwt beam="2">  1        2 0.35255378E+00 0.30008299E+02</pdfrwt>
<pdfrwt beam="1">  1        4 0.17058122E+00 0.64913068E+02</pdfrwt>
<totfact> 0.82085142E-01</totfact>
</mgrwt>
</event>
<event>
13    1  0.2742815E-008  0.1878106E+03  0.7546771E-02  0.1294866E+00
          2   -1    0    0  502    0  0.00000000000E+00  0.00000000000E+00  0.12285539335E+04  0.12285539335E+04  0.00000000000E+00 0. -1.
          2   -1    0    0  503    0 -0.00000000000E+00 -0.00000000000E+00 -0.15400507960E+04  0.15400507960E+04  0.00000000000E+00 0. -1.
         25    2    1    2    0    0  0.20806288273E+02  0.85697091022E+02 -0.12266122354E+03  0.19608158055E+03  0.12500126971E+03 0.  0.
         24    2    1    2    0    0  0.43618286248E+02 -0.11496697978E+02  0.16746908067E+02  0.93064535936E+02  0.79660655029E+02 0.  0.
         24    2    1    2    0    0 -0.30967744324E+02  0.14987868648E+03  0.17436881324E+03  0.24610094643E+03  0.82088799197E+02 0.  0.
        -13    1    5    5    0    0 -0.10112505222E+02  0.10743170385E+03  0.62628839307E+02  0.12476459942E+03  0.00000000000E+00 0.  1.
         14    1    5    5    0    0 -0.20855239102E+02  0.42446982629E+02  0.11173997393E+03  0.12133634701E+03  0.00000000000E+00 0. -1.
        -13    1    4    4    0    0  0.73796419183E+01  0.26009598936E+02  0.28836378471E+02  0.39528408455E+02  0.00000000000E+00 0.  1.
         14    1    4    4    0    0  0.36238644329E+02 -0.37506296914E+02 -0.12089470404E+02  0.53536127481E+02  0.00000000000E+00 0. -1.
          5    1    3    3  501    0 -0.34664054208E+02  0.58863681332E+02 -0.11495654494E+03  0.13380443512E+03  0.47000000000E+01 0.  1.
         -5    1    3    3    0  501  0.55470342481E+02  0.26833409690E+02 -0.77046786031E+01  0.62277145430E+02  0.47000000000E+01 0.  1.
          1    1    1    2  502    0  0.53864328941E+01 -0.19864508964E+03  0.91562947818E+03  0.93694515668E+03  0.00000000000E+00 0. -1.
          1    1    1    2  503    0 -0.38843263090E+02 -0.25433989886E+02 -0.12955808384E+04  0.12964125099E+04  0.00000000000E+00 0. -1.
<mgrwt>
<rscale>  0 0.93380554E+02</rscale>
<asrwt>0</asrwt>
<pdfrwt beam="1">  1        2 0.18066970E+00 0.18781058E+03</pdfrwt>
<pdfrwt beam="2">  1        2 0.22647806E+00 0.46429376E+02</pdfrwt>
<totfact> 0.53800422E+01</totfact>
</mgrwt>
</event>
<event>
13    1  0.2742815E-008  0.5413246E+02  0.7546771E-02  0.1592783E+00
          2   -1    0    0  502    0  0.00000000000E+00  0.00000000000E+00  0.16356710959E+04  0.16356710959E+04  0.00000000000E+00 0. -1.
          2   -1    0    0  503    0 -0.00000000000E+00 -0.00000000000E+00 -0.16958359915E+04  0.16958359915E+04  0.00000000000E+00 0. -1.
         25    2    1    2    0    0 -0.57555792509E+02  0.53742630774E+01 -0.12826104685E+04  0.12899831518E+04  0.12500146439E+03 0.  0.
         24    2    1    2    0    0 -0.74095177474E+02  0.12249502716E+02 -0.46283952076E+02  0.11857054154E+03  0.79225144113E+02 0.  0.
         24    2    1    2    0    0  0.82049909588E+02 -0.61105553751E+02  0.41365147819E+02  0.14541898753E+03  0.94707603265E+02 0.  0.
        -11    1    4    4    0    0 -0.87133429496E+02  0.23959022373E+02 -0.45125369280E+02  0.10100776327E+03  0.00000000000E+00 0.  1.
         12    1    4    4    0    0  0.13038252022E+02 -0.11709519657E+02 -0.11585827959E+01  0.17562778268E+02  0.00000000000E+00 0. -1.
        -13    1    5    5    0    0  0.11105861825E+02  0.19543866030E+02  0.29884428242E+02  0.37394945082E+02  0.00000000000E+00 0.  1.
         14    1    5    5    0    0  0.70944047762E+02 -0.80649419781E+02  0.11480719577E+02  0.10802404244E+03  0.00000000000E+00 0. -1.
          5    1    3    3  501    0 -0.58681915391E+02  0.53947525420E+02 -0.55219727286E+03  0.55794069654E+03  0.47000000000E+01 0. -1.
         -5    1    3    3    0  501  0.11261228821E+01 -0.48573262343E+02 -0.73041319567E+03  0.73204245531E+03  0.47000000000E+01 0. -1.
          1    1    1    2  502    0  0.32433237060E+02  0.43336153782E+02  0.15016934257E+04  0.15026686534E+04  0.00000000000E+00 0. -1.
          1    1    1    2  503    0  0.17167823335E+02  0.14563417507E+00 -0.27432904848E+03  0.27486575307E+03  0.00000000000E+00 0. -1.
<mgrwt>
<rscale>  0 0.30485570E+02</rscale>
<asrwt>0</asrwt>
<pdfrwt beam="1">  1        2 0.24053987E+00 0.54132463E+02</pdfrwt>
<pdfrwt beam="2">  1        2 0.24938764E+00 0.17168441E+02</pdfrwt>
<totfact> 0.34412606E+01</totfact>
</mgrwt>
</event>
<event>
13    1  0.2742815E-008  0.6352432E+02  0.7546771E-02  0.1422795E+00
          2   -1    0    0  502    0  0.00000000000E+00  0.00000000000E+00  0.18727206133E+04  0.18727206133E+04  0.00000000000E+00 0. -1.
          2   -1    0    0  503    0 -0.00000000000E+00 -0.00000000000E+00 -0.98889031532E+03  0.98889031532E+03  0.00000000000E+00 0. -1.
         25    2    1    2    0    0 -0.36348198339E+02 -0.23695295344E+02 -0.15054478446E+03  0.20042962220E+03  0.12500257110E+03 0.  0.
         24    2    1    2    0    0 -0.67160273559E+02  0.33573615288E+01  0.30299541809E+02  0.10831973055E+03  0.79330495852E+02 0.  0.
         24    2    1    2    0    0  0.19379170537E+02 -0.22499991091E+02  0.44735709889E+03  0.45569318833E+03  0.81523653719E+02 0.  0.
        -11    1    4    4    0    0  0.21197580709E+01  0.22735532000E+02 -0.11024713342E+02  0.25356302843E+02  0.00000000000E+00 0.  1.
         12    1    4    4    0    0 -0.69280031630E+02 -0.19378170471E+02  0.41324255151E+02  0.82963427709E+02  0.00000000000E+00 0. -1.
        -11    1    5    5    0    0  0.16621752840E+01 -0.43015272574E+02  0.38869126703E+03  0.39106774038E+03  0.00000000000E+00 0.  1.
         12    1    5    5    0    0  0.17716995253E+02  0.20515281483E+02  0.58665831858E+02  0.64625447950E+02  0.00000000000E+00 0. -1.
          5    1    3    3  501    0 -0.78503361099E+02 -0.35056160835E+02 -0.81208140665E+02  0.11835778059E+03  0.47000000000E+01 0. -1.
         -5    1    3    3    0  501  0.42155162760E+02  0.11360865490E+02 -0.69336643798E+02  0.82071841609E+02  0.47000000000E+01 0. -1.
          1    1    1    2  502    0  0.63441867095E+02  0.10322815624E+01  0.13254776319E+04  0.13269954366E+04  0.00000000000E+00 0. -1.
          1    1    1    2  503    0  0.20687434265E+02  0.41805643344E+02 -0.76875919020E+03  0.77017295088E+03  0.00000000000E+00 0. -1.
<mgrwt>
<rscale>  0 0.54433825E+02</rscale>
<asrwt>0</asrwt>
<pdfrwt beam="1">  1        2 0.27540009E+00 0.63524319E+02</pdfrwt>
<pdfrwt beam="2">  1        2 0.14542505E+00 0.46644204E+02</pdfrwt>
<totfact> 0.53155226E+01</totfact>
</mgrwt>
</event>
<event>
13    1  0.2742815E-008  0.3946382E+02  0.7546771E-02  0.1710232E+00
          2   -1    0    0  503    0  0.00000000000E+00  0.00000000000E+00  0.39265309811E+04  0.39265309811E+04  0.00000000000E+00 0. -1.
          2   -1    0    0  502    0 -0.00000000000E+00 -0.00000000000E+00 -0.21644435333E+04  0.21644435333E+04  0.00000000000E+00 0. -1.
         25    2    1    2    0    0 -0.19372610213E+03  0.15192413765E+03 -0.23471826775E+03  0.36239367316E+03  0.12500305152E+03 0.  0.
         24    2    1    2    0    0  0.58907128028E+02 -0.13692881704E+03  0.24487185569E+04  0.24545114923E+04  0.78641872014E+02 0.  0.
         24    2    1    2    0    0  0.97502538214E+02 -0.21885261484E+02  0.95490954122E+03  0.96339652775E+03  0.79340583119E+02 0.  0.
        -13    1    4    4    0    0 -0.76490287449E+01 -0.78572382718E+02  0.10171092928E+04  0.10201683393E+04  0.00000000000E+00 0.  1.
         14    1    4    4    0    0  0.66556156773E+02 -0.58356434323E+02  0.14316092641E+04  0.14343431530E+04  0.00000000000E+00 0. -1.
        -13    1    5    5    0    0  0.90853628497E+02  0.10246540380E+02  0.78847972717E+03  0.79376297064E+03  0.00000000000E+00 0.  1.
         14    1    5    5    0    0  0.66489097167E+01 -0.32131801864E+02  0.16642981405E+03  0.16963355711E+03  0.00000000000E+00 0. -1.
          5    1    3    3  501    0 -0.48905240230E+02  0.79486596370E+02 -0.23769654112E+02  0.96420578619E+02  0.47000000000E+01 0.  1.
         -5    1    3    3    0  501 -0.14482086190E+03  0.72437541282E+02 -0.21094861363E+03  0.26597309454E+03  0.47000000000E+01 0.  1.
          1    1    1    2  502    0  0.34726409093E+02  0.18747954808E+02 -0.18584565885E+04  0.18588755474E+04  0.00000000000E+00 0. -1.
          1    1    1    2  503    0  0.25900267905E+01 -0.11858013936E+02  0.45163420591E+03  0.45179727387E+03  0.00000000000E+00 0. -1.
<mgrwt>
<rscale>  0 0.21885957E+02</rscale>
<asrwt>0</asrwt>
<pdfrwt beam="1">  1        2 0.57743102E+00 0.12137575E+02</pdfrwt>
<pdfrwt beam="2">  1        2 0.31830052E+00 0.39463823E+02</pdfrwt>
<totfact> 0.18183568E+00</totfact>
</mgrwt>
</event>
<event>
13    1  0.2742815E-008  0.6369680E+02  0.7546771E-02  0.1512425E+00
          4   -1    0    0  503    0 -0.00000000000E+00  0.00000000000E+00  0.74641125566E+03  0.74641125566E+03  0.00000000000E+00 0. -1.
          2   -1    0    0  502    0  0.00000000000E+00 -0.00000000000E+00 -0.17278726740E+04  0.17278726740E+04  0.00000000000E+00 0. -1.
         25    2    1    2    0    0 -0.20860670252E+03  0.55787221084E+02  0.65163318111E+03  0.69776696034E+03  0.12499583131E+03 0.  0.
         24    2    1    2    0    0  0.86922728383E+02 -0.22164167668E+02 -0.33513791610E+03  0.35634585571E+03  0.81351920923E+02 0.  0.
         24    2    1    2    0    0  0.59820600891E+02 -0.39638842624E+02 -0.43547681390E+03  0.44809379379E+03  0.77448372789E+02 0.  0.
        -11    1    5    5    0    0 -0.42476830376E+00 -0.95640620149E+01 -0.25946865950E+03  0.25964521365E+03  0.00000000000E+00 0.  1.
         12    1    5    5    0    0  0.60245369195E+02 -0.30074780610E+02 -0.17600815441E+03  0.18844858014E+03  0.00000000000E+00 0. -1.
        -13    1    4    4    0    0  0.85478002069E+02 -0.10950627490E+02 -0.33405084012E+03  0.34498749088E+03  0.00000000000E+00 0.  1.
         14    1    4    4    0    0  0.14447263144E+01 -0.11213540178E+02 -0.10870759799E+01  0.11358364831E+02  0.00000000000E+00 0. -1.
          5    1    3    3  501    0 -0.10416601189E+03  0.76667177358E+02  0.46660974084E+03  0.48422634621E+03  0.47000000000E+01 0. -1.
         -5    1    3    3    0  501 -0.10444069063E+03 -0.20879956274E+02  0.18502344027E+03  0.21354061413E+03  0.47000000000E+01 0. -1.
          1    1    1    2  502    0  0.73134250072E+00  0.24401155300E+02 -0.89846495014E+03  0.89879653864E+03  0.00000000000E+00 0. -1.
          3    1    1    2  503    0  0.61132030745E+02 -0.18385366092E+02  0.35985080647E+02  0.73280781236E+02  0.00000000000E+00 0. -1.
<mgrwt>
<rscale>  0 0.39433151E+02</rscale>
<asrwt>0</asrwt>
<pdfrwt beam="2">  1        2 0.25409892E+00 0.24412113E+02</pdfrwt>
<pdfrwt beam="1">  1        4 0.10976636E+00 0.63696796E+02</pdfrwt>
<totfact> 0.49317661E+00</totfact>
</mgrwt>
</event>
<event>
13    1  0.2742815E-008  0.8466252E+02  0.7546771E-02  0.1577182E+00
          2   -1    0    0  502    0  0.00000000000E+00  0.00000000000E+00  0.22438409542E+04  0.22438409542E+04  0.00000000000E+00 0. -1.
          2   -1    0    0  503    0 -0.00000000000E+00 -0.00000000000E+00 -0.35384626785E+04  0.35384626785E+04  0.00000000000E+00 0. -1.
         25    2    1    2    0    0  0.23184147996E+03  0.13420168502E+03 -0.13360404961E+03  0.32439768255E+03  0.12499300091E+03 0.  0.
         24    2    1    2    0    0 -0.59787284403E+03  0.11924626136E+04 -0.12026376494E+04  0.17978444159E+04  0.80549399384E+02 0.  0.
         24    2    1    2    0    0  0.28360302456E+03 -0.12914976742E+04  0.13549155992E+04  0.18939934731E+04  0.54937029502E+02 0.  0.
        -11    1    4    4    0    0 -0.53161808827E+03  0.10042341094E+04 -0.10412240742E+04  0.15411850995E+04  0.00000000000E+00 0.  1.
         12    1    4    4    0    0 -0.66254755757E+02  0.18822850421E+03 -0.16141357515E+03  0.25665931641E+03  0.00000000000E+00 0. -1.
        -13    1    5    5    0    0  0.23559662653E+03 -0.11297348285E+04  0.12011802559E+04  0.16657252355E+04  0.00000000000E+00 0.  1.
         14    1    5    5    0    0  0.48006398025E+02 -0.16176284573E+03  0.15373534330E+03  0.22826823758E+03  0.00000000000E+00 0. -1.
          5    1    3    3  501    0  0.76443287675E+02 -0.11965983049E+02 -0.11000529103E+02  0.78293439198E+02  0.47000000000E+01 0.  1.
         -5    1    3    3    0  501  0.15539819229E+03  0.14616766807E+03 -0.12260352051E+03  0.24610424335E+03  0.47000000000E+01 0.  1.
          1    1    1    2  502    0  0.98843934967E+00 -0.12039343946E+02  0.22506035163E+03  0.22538430444E+03  0.00000000000E+00 0. -1.
          1    1    1    2  503    0  0.81439900162E+02 -0.23127280474E+02 -0.15383559762E+04  0.15406837567E+04  0.00000000000E+00 0. -1.
<mgrwt>
<rscale>  0 0.31979848E+02</rscale>
<asrwt>0</asrwt>
<pdfrwt beam="1">  1        2 0.32997661E+00 0.12079852E+02</pdfrwt>
<pdfrwt beam="2">  1        2 0.52036215E+00 0.84662521E+02</pdfrwt>
<totfact> 0.21498183E+00</totfact>
</mgrwt>
</event>
<event>
13    1  0.2742815E-008  0.1322928E+03  0.7546771E-02  0.1405697E+00
          2   -1    0    0  503    0  0.00000000000E+00  0.00000000000E+00  0.35622642641E+03  0.35622642641E+03  0.00000000000E+00 0. -1.
          2   -1    0    0  502    0 -0.00000000000E+00 -0.00000000000E+00 -0.20520288164E+04  0.20520288164E+04  0.00000000000E+00 0. -1.
         25    2    1    2    0    0  0.26382331800E+03  0.10112168593E+02 -0.24461896312E+03  0.38100841388E+03  0.12499590095E+03 0.  0.
         24    2    1    2    0    0 -0.16581700678E+03 -0.15808128656E+02  0.75383958649E+01  0.18525113247E+03  0.80721608022E+02 0.  0.
         24    2    1    2    0    0 -0.11992588941E+03  0.11572073647E+03 -0.10856054475E+02  0.18496201913E+03  0.79495828830E+02 0.  0.
        -13    1    4    4    0    0 -0.38168880211E+02  0.10933316345E+02  0.33884725543E+02  0.52197465915E+02  0.00000000000E+00 0.  1.
         14    1    4    4    0    0 -0.12764812657E+03 -0.26741445001E+02 -0.26346329678E+02  0.13305366656E+03  0.00000000000E+00 0. -1.
        -13    1    5    5    0    0 -0.34016431342E+02 -0.70501215607E+01 -0.38912364915E+01  0.34956595038E+02  0.00000000000E+00 0.  1.
         14    1    5    5    0    0 -0.85909458070E+02  0.12277085803E+03 -0.69648179836E+01  0.15000542409E+03  0.00000000000E+00 0. -1.
          5    1    3    3  501    0  0.22593497284E+03  0.48175426472E+02 -0.16139001912E+03  0.28184448183E+03  0.47000000000E+01 0. -1.
         -5    1    3    3    0  501  0.37888345156E+02 -0.38063257879E+02 -0.83228944003E+02  0.99163932047E+02  0.47000000000E+01 0. -1.
          1    1    1    2  502    0 -0.18281226473E+02  0.17882880452E+02 -0.15093254575E+04  0.15095420952E+04  0.00000000000E+00 0. -1.
          1    1    1    2  503    0  0.40200804665E+02 -0.12790765686E+03  0.61459689265E+02  0.14749158207E+03  0.00000000000E+00 0. -1.
<mgrwt>
<rscale>  0 0.58165121E+02</rscale>
<asrwt>0</asrwt>
<pdfrwt beam="1">  1        2 0.52386239E-01 0.13229279E+03</pdfrwt>
<pdfrwt beam="2">  1        2 0.30176894E+00 0.25573437E+02</pdfrwt>
<totfact> 0.14971807E+02</totfact>
</mgrwt>
</event>
<event>
13    1  0.2742815E-008  0.5797741E+02  0.7546771E-02  0.1443776E+00
          2   -1    0    0  503    0  0.00000000000E+00  0.00000000000E+00  0.14450022296E+04  0.14450022296E+04  0.00000000000E+00 0. -1.
          2   -1    0    0  502    0 -0.00000000000E+00 -0.00000000000E+00 -0.84411986663E+03  0.84411986663E+03  0.00000000000E+00 0. -1.
         25    2    1    2    0    0 -0.18702557903E+03  0.13577386972E+03 -0.11218835584E+03  0.28570113843E+03  0.12500320957E+03 0.  0.
         24    2    1    2    0    0  0.26624974833E+03  0.25041212599E+03  0.48833049451E+02  0.37849648623E+03  0.85321521592E+02 0.  0.
         24    2    1    2    0    0 -0.98221107572E+02 -0.33203731562E+03  0.36443669866E+03  0.51433435658E+03  0.10876377195E+03 0.  0.
        -11    1    5    5    0    0  0.88733419016E+01 -0.13426251806E+03  0.10290139172E+03  0.16939261015E+03  0.00000000000E+00 0.  1.
         12    1    5    5    0    0 -0.10709444947E+03 -0.19777479755E+03  0.26153530694E+03  0.34494174643E+03  0.00000000000E+00 0. -1.
        -13    1    4    4    0    0  0.96251948023E+02  0.14189343262E+03  0.21037885835E+01  0.17147189170E+03  0.00000000000E+00 0.  1.
         14    1    4    4    0    0  0.16999780030E+03  0.10851869337E+03  0.46729260868E+02  0.20702459453E+03  0.00000000000E+00 0. -1.
          5    1    3    3  501    0 -0.75521857691E+02 -0.85714886569E+01 -0.10649673868E+02  0.76892957808E+02  0.47000000000E+01 0.  1.
         -5    1    3    3    0  501 -0.11150372134E+03  0.14434535838E+03 -0.10153868197E+03  0.20880818062E+03  0.47000000000E+01 0.  1.
          1    1    1    2  502    0  0.52039957650E+02 -0.25666136469E+02 -0.40263812000E+03  0.40679769349E+03  0.00000000000E+00 0. -1.
          1    1    1    2  503    0 -0.33043019374E+02 -0.28482543621E+02  0.70243909070E+03  0.70379242150E+03  0.00000000000E+00 0. -1.
<mgrwt>
<rscale>  0 0.50291503E+02</rscale>
<asrwt>0</asrwt>
<pdfrwt beam="1">  1        2 0.21250033E+00 0.43624493E+02</pdfrwt>
<pdfrwt beam="2">  1        2 0.12413527E+00 0.57977412E+02</pdfrwt>
<totfact> 0.10540596E+02</totfact>
</mgrwt>
</event>
<event>
13    1  0.2742815E-008  0.1074933E+03  0.7546771E-02  0.1383195E+00
          2   -1    0    0  503    0  0.00000000000E+00  0.00000000000E+00  0.24045621499E+04  0.24045621499E+04  0.00000000000E+00 0. -1.
          2   -1    0    0  502    0 -0.00000000000E+00 -0.00000000000E+00 -0.36057915325E+04  0.36057915325E+04  0.00000000000E+00 0. -1.
         25    2    1    2    0    0  0.13568042470E+03  0.12811512203E+03 -0.19186798907E+04  0.19317829045E+04  0.12502001923E+03 0.  0.
         24    2    1    2    0    0  0.21270015501E+03  0.16807647039E+03 -0.49457967169E+02  0.28706479575E+03  0.80430408437E+02 0.  0.
         24    2    1    2    0    0 -0.21352977426E+03 -0.30373149877E+03  0.42314739752E+03  0.56852175010E+03  0.79469946922E+02 0.  0.
        -11    1    5    5    0    0 -0.83392374859E+02 -0.13938120543E+03  0.12953424376E+03  0.20775112254E+03  0.00000000000E+00 0.  1.
         12    1    5    5    0    0 -0.13013739940E+03 -0.16435029334E+03  0.29361315377E+03  0.36077062756E+03  0.00000000000E+00 0. -1.
        -13    1    4    4    0    0  0.17545892605E+03  0.15893611717E+03 -0.65288480613E+02  0.24557913138E+03  0.00000000000E+00 0.  1.
         14    1    4    4    0    0  0.37241228968E+02  0.91403532161E+01  0.15830513444E+02  0.41485664365E+02  0.00000000000E+00 0. -1.
          5    1    3    3  501    0  0.92364834037E+02  0.14404708576E+02 -0.57186858156E+03  0.57947780179E+03  0.47000000000E+01 0.  1.
         -5    1    3    3    0  501  0.43315590662E+02  0.11371041346E+03 -0.13468113091E+04  0.13523051027E+04  0.47000000000E+01 0.  1.
          1    1    1    2  502    0 -0.28704840082E+02  0.24389238643E+02 -0.14377454447E+04  0.14382387725E+04  0.00000000000E+00 0. -1.
          1    1    1    2  503    0 -0.10614596537E+03 -0.16849332291E+02  0.17815065225E+04  0.17847454596E+04  0.00000000000E+00 0. -1.
<mgrwt>
<rscale>  0 0.63631354E+02</rscale>
<asrwt>0</asrwt>
<pdfrwt beam="1">  1        2 0.35361208E+00 0.10749328E+03</pdfrwt>
<pdfrwt beam="2">  1        2 0.53026346E+00 0.37666999E+02</pdfrwt>
<totfact> 0.14357827E+00</totfact>
</mgrwt>
</event>
<event>
13    1  0.2742815E-008  0.2144131E+03  0.7546771E-02  0.1182600E+00
          2   -1    0    0  502    0  0.00000000000E+00  0.00000000000E+00  0.15940149613E+04  0.15940149613E+04  0.00000000000E+00 0. -1.
          2   -1    0    0  503    0 -0.00000000000E+00 -0.00000000000E+00 -0.38762447072E+04  0.38762447072E+04  0.00000000000E+00 0. -1.
         25    2    1    2    0    0  0.19986392435E+03 -0.23679914541E+03 -0.29950303937E+03  0.44871603265E+03  0.12499833537E+03 0.  0.
         24    2    1    2    0    0 -0.14810944617E+03  0.23999582158E+03 -0.14332546174E+03  0.32665364499E+03  0.81400327921E+02 0.  0.
         24    2    1    2    0    0 -0.11938297619E+02  0.55074912788E+02  0.18014164672E+03  0.20471156989E+03  0.79246734909E+02 0.  0.
        -11    1    5    5    0    0  0.26865158194E+01  0.57510896880E+02  0.18092496351E+03  0.18986459135E+03  0.00000000000E+00 0.  1.
         12    1    5    5    0    0 -0.14624813438E+02 -0.24359840916E+01 -0.78331678611E+00  0.14846978541E+02  0.00000000000E+00 0. -1.
        -13    1    4    4    0    0 -0.14383910066E+03  0.17708197757E+03 -0.12863730910E+03  0.26190698912E+03  0.00000000000E+00 0.  1.
         14    1    4    4    0    0 -0.42703455135E+01  0.62913844009E+02 -0.14688152635E+02  0.64746655872E+02  0.00000000000E+00 0. -1.
          5    1    3    3  501    0  0.46350708920E+02  0.57474401306E+01 -0.46089618864E+02  0.65785745055E+02  0.47000000000E+01 0.  1.
         -5    1    3    3    0  501  0.15351321543E+03 -0.24254658554E+03 -0.25341342051E+03  0.38293028760E+03  0.47000000000E+01 0.  1.
          1    1    1    2  502    0  0.16284075479E+03  0.22190028639E+02  0.12261775022E+04  0.12371421809E+04  0.00000000000E+00 0. -1.
          1    1    1    2  503    0 -0.20265693535E+03 -0.80461617597E+02 -0.32457203937E+04  0.32530362401E+04  0.00000000000E+00 0. -1.
<mgrwt>
<rscale>  0 0.16552204E+03</rscale>
<asrwt>0</asrwt>
<pdfrwt beam="1">  1        2 0.23441397E+00 0.12777928E+03</pdfrwt>
<pdfrwt beam="2">  1        2 0.57003598E+00 0.21441307E+03</pdfrwt>
<totfact> 0.16943961E+00</totfact>
</mgrwt>
</event>
<event>
13    1  0.2742815E-008  0.4986081E+02  0.7546771E-02  0.1472110E+00
          2   -1    0    0  502    0  0.00000000000E+00  0.00000000000E+00  0.12298604437E+04  0.12298604437E+04  0.00000000000E+00 0. -1.
          2   -1    0    0  503    0 -0.00000000000E+00 -0.00000000000E+00 -0.13322258276E+04  0.13322258276E+04  0.00000000000E+00 0. -1.
         25    2    1    2    0    0 -0.13224301703E+02 -0.33904595917E+02 -0.52312747753E+03  0.53908056548E+03  0.12498437722E+03 0.  0.
         24    2    1    2    0    0  0.19411479931E+02  0.81546620325E+02 -0.91422011199E+02  0.14739476211E+03  0.79627727119E+02 0.  0.
         24    2    1    2    0    0 -0.15787613300E+02 -0.37375161849E+02 -0.63305892782E+02  0.10791281294E+03  0.77404054665E+02 0.  0.
        -13    1    4    4    0    0  0.97989691842E+01  0.94062701099E+02 -0.91532309244E+02  0.13161297493E+03  0.00000000000E+00 0.  1.
         14    1    4    4    0    0  0.96125107473E+01 -0.12516080774E+02  0.11029804598E+00  0.15781787176E+02  0.00000000000E+00 0. -1.
        -13    1    5    5    0    0 -0.33348296879E+02 -0.46268603243E+02 -0.66890642108E+02  0.87904781170E+02  0.00000000000E+00 0.  1.
         14    1    5    5    0    0  0.17560683579E+02  0.88934413937E+01  0.35847493258E+01  0.20008031770E+02  0.00000000000E+00 0. -1.
          5    1    3    3  501    0  0.35263834914E+02 -0.31658728705E+02 -0.78710393553E+02  0.91995810824E+02  0.47000000000E+01 0.  1.
         -5    1    3    3    0  501 -0.48488136617E+02 -0.22458672126E+01 -0.44441708398E+03  0.44708475465E+03  0.47000000000E+01 0.  1.
          1    1    1    2  502    0  0.49873371483E+02 -0.12757452390E+01  0.11703478769E+04  0.11714107451E+04  0.00000000000E+00 0. -1.
          1    1    1    2  503    0 -0.40272936412E+02 -0.89911173195E+01 -0.59485787941E+03  0.59628738565E+03  0.00000000000E+00 0. -1.
<mgrwt>
<rscale>  0 0.45359405E+02</rscale>
<asrwt>0</asrwt>
<pdfrwt beam="1">  1        2 0.18086183E+00 0.49860808E+02</pdfrwt>
<pdfrwt beam="2">  1        2 0.19591556E+00 0.41264387E+02</pdfrwt>
<totfact> 0.74042408E+01</totfact>
</mgrwt>
</event>
<event>
13    1  0.2742815E-008  0.8420525E+02  0.7546771E-02  0.1494062E+00
          2   -1    0    0  503    0  0.00000000000E+00  0.00000000000E+00  0.10242930549E+04  0.10242930549E+04  0.00000000000E+00 0. -1.
          2   -1    0    0  502    0 -0.00000000000E+00 -0.00000000000E+00 -0.23608623665E+04  0.23608623665E+04  0.00000000000E+00 0. -1.
         25    2    1    2    0    0  0.88887759688E+02 -0.17852383285E+03 -0.12737931716E+04  0.12953570029E+04  0.12501571209E+03 0.  0.
         24    2    1    2    0    0 -0.64093382839E+02  0.10557131253E+03 -0.82425344218E+02  0.16069293397E+03  0.61441174341E+02 0.  0.
         24    2    1    2    0    0  0.14931526149E+02  0.51973115044E+01  0.57859377359E+02  0.10044109759E+03  0.80565153860E+02 0.  0.
        -11    1    4    4    0    0 -0.69020995963E+02  0.60789802251E+02 -0.46441928587E+02  0.10303470615E+03  0.00000000000E+00 0.  1.
         12    1    4    4    0    0  0.49276131248E+01  0.44781510278E+02 -0.35983415631E+02  0.57658227811E+02  0.00000000000E+00 0. -1.
        -13    1    5    5    0    0  0.40840593025E+02 -0.20414284635E+02  0.33037477254E+02  0.56357536843E+02  0.00000000000E+00 0.  1.
         14    1    5    5    0    0 -0.25909066876E+02  0.25611596139E+02  0.24821900105E+02  0.44083560745E+02  0.00000000000E+00 0. -1.
          5    1    3    3  501    0  0.11790068236E+03 -0.11217530725E+03 -0.88056533049E+03  0.89548939788E+03  0.47000000000E+01 0.  1.
         -5    1    3    3    0  501 -0.29012922674E+02 -0.66348525594E+02 -0.39322784114E+03  0.39986760506E+03  0.47000000000E+01 0.  1.
          1    1    1    2  502    0 -0.16087569464E+02 -0.13401357371E+02 -0.93132400079E+03  0.93155933827E+03  0.00000000000E+00 0. -1.
          1    1    1    2  503    0 -0.23638333534E+02  0.81156566184E+02  0.89311382769E+03  0.89710504862E+03  0.00000000000E+00 0. -1.
<mgrwt>
<rscale>  0 0.41989313E+02</rscale>
<asrwt>0</asrwt>
<pdfrwt beam="1">  1        2 0.15063133E+00 0.84205249E+02</pdfrwt>
<pdfrwt beam="2">  1        2 0.34718565E+00 0.20938153E+02</pdfrwt>
<totfact> 0.33824215E+01</totfact>
</mgrwt>
</event>
<event>
13    1  0.2742815E-008  0.9885891E+02  0.7546771E-02  0.1290640E+00
          2   -1    0    0  502    0  0.00000000000E+00  0.00000000000E+00  0.13258746539E+04  0.13258746539E+04  0.00000000000E+00 0. -1.
          2   -1    0    0  503    0 -0.00000000000E+00 -0.00000000000E+00 -0.29318946383E+04  0.29318946383E+04  0.00000000000E+00 0. -1.
         25    2    1    2    0    0 -0.43802515362E+02  0.57799832765E+02 -0.14536018547E+04  0.14607676471E+04  0.12499714297E+03 0.  0.
         24    2    1    2    0    0  0.42018312445E+02  0.12445508823E+02  0.19089667878E+03  0.21188527243E+03  0.80829434211E+02 0.  0.
         24    2    1    2    0    0 -0.38400721100E+02 -0.46007108648E+02  0.12687688253E+03  0.15814034657E+03  0.72933918493E+02 0.  0.
        -11    1    4    4    0    0  0.10625571650E+02  0.42931056870E+02  0.12666512128E+03  0.13416419554E+03  0.00000000000E+00 0.  1.
         12    1    4    4    0    0  0.31392740794E+02 -0.30485548047E+02  0.64231557502E+02  0.77721076893E+02  0.00000000000E+00 0. -1.
        -13    1    5    5    0    0 -0.42144758486E+02 -0.61944532508E+02  0.85722607097E+02  0.11384933528E+03  0.00000000000E+00 0.  1.
         14    1    5    5    0    0  0.37440373853E+01  0.15937423861E+02  0.41154275433E+02  0.44291011297E+02  0.00000000000E+00 0. -1.
          5    1    3    3  501    0 -0.49938439283E+02  0.37499096309E+02 -0.14156828602E+04  0.14170674227E+04  0.47000000000E+01 0.  1.
         -5    1    3    3    0  501  0.61359239211E+01  0.20300736456E+02 -0.37918994494E+02  0.43700224329E+02  0.47000000000E+01 0.  1.
          1    1    1    2  502    0  0.90591219077E+01  0.91302458424E+02  0.97376088328E+03  0.97807385427E+03  0.00000000000E+00 0. -1.
          1    1    1    2  503    0  0.31125802110E+02 -0.11554069136E+03 -0.14439525742E+04  0.14489021718E+04  0.00000000000E+00 0. -1.
<mgrwt>
<rscale>  0 0.95238557E+02</rscale>
<asrwt>0</asrwt>
<pdfrwt beam="1">  1        2 0.19498157E+00 0.91750785E+02</pdfrwt>
<pdfrwt beam="2">  1        2 0.43116097E+00 0.98858912E+02</pdfrwt>
<totfact> 0.96681502E+00</totfact>
</mgrwt>
</event>
<event>
13    1  0.2742815E-008  0.1264169E+03  0.7546771E-02  0.1268799E+00
          2   -1    0    0  503    0  0.00000000000E+00  0.00000000000E+00  0.60613502963E+03  0.60613502963E+03  0.00000000000E+00 0. -1.
          2   -1    0    0  502    0 -0.00000000000E+00 -0.00000000000E+00 -0.13748006198E+04  0.13748006198E+04  0.00000000000E+00 0. -1.
         25    2    1    2    0    0  0.19132803547E+02 -0.78564447604E+02 -0.88289298640E+03  0.89535662055E+03  0.12500006370E+03 0.  0.
         24    2    1    2    0    0 -0.11571769853E+02  0.19192686441E+03 -0.96152220604E+02  0.22946856910E+03  0.80254268035E+02 0.  0.
         24    2    1    2    0    0 -0.18413764028E+03  0.59139756587E+01  0.23316715910E+03  0.30829830935E+03  0.82093104402E+02 0.  0.
        -11    1    4    4    0    0 -0.83805309284E+00  0.12853714560E+03 -0.10313165282E+03  0.16479878017E+03  0.00000000000E+00 0.  1.
         12    1    4    4    0    0 -0.10733716760E+02  0.63389718808E+02  0.69794322161E+01  0.64669788929E+02  0.00000000000E+00 0. -1.
        -13    1    5    5    0    0 -0.11864833973E+03 -0.33152149908E+02  0.12110119288E+03  0.17274835016E+03  0.00000000000E+00 0.  1.
         14    1    5    5    0    0 -0.65489300548E+02  0.39066125567E+02  0.11206596622E+03  0.13554995920E+03  0.00000000000E+00 0. -1.
          5    1    3    3  501    0 -0.27607150427E+02 -0.44924433801E+02 -0.13164879096E+03  0.14189381124E+03  0.47000000000E+01 0.  1.
         -5    1    3    3    0  501  0.46739953974E+02 -0.33640013803E+02 -0.75124419545E+03  0.75346280931E+03  0.47000000000E+01 0.  1.
          1    1    1    2  502    0  0.69179320379E+02 -0.54926735506E+02 -0.26272327392E+03  0.27717547384E+03  0.00000000000E+00 0. -1.
          1    1    1    2  503    0  0.10739728621E+03 -0.64349656961E+02  0.23993573161E+03  0.27063667663E+03  0.00000000000E+00 0. -1.
<mgrwt>
<rscale>  0 0.10567302E+03</rscale>
<asrwt>0</asrwt>
<pdfrwt beam="1">  1        2 0.89137505E-01 0.12641688E+03</pdfrwt>
<pdfrwt beam="2">  1        2 0.20217656E+00 0.88333033E+02</pdfrwt>
<totfact> 0.15516500E+02</totfact>
</mgrwt>
</event>
<event>
13    1  0.2742815E-008  0.4995431E+02  0.7546771E-02  0.1645435E+00
          2   -1    0    0  503    0  0.00000000000E+00  0.00000000000E+00  0.31989566833E+03  0.31989566833E+03  0.00000000000E+00 0. -1.
          2   -1    0    0  502    0 -0.00000000000E+00 -0.00000000000E+00 -0.13980482569E+04  0.13980482569E+04  0.00000000000E+00 0. -1.
         25    2    1    2    0    0  0.17102659079E+02 -0.82477642391E+00 -0.77017556140E+03  0.78044093801E+03  0.12499792451E+03 0.  0.
         24    2    1    2    0    0  0.28901457810E+02 -0.24095706558E+02  0.77916140763E+02  0.11398135844E+03  0.74195200263E+02 0.  0.
         24    2    1    2    0    0 -0.10938988854E+01  0.39845026437E+02  0.18405546407E+03  0.20484149267E+03  0.80590325219E+02 0.  0.
        -13    1    5    5    0    0 -0.21848007696E+02 -0.16561563238E+02  0.37607205360E+02  0.46539474773E+02  0.00000000000E+00 0.  1.
         14    1    5    5    0    0  0.20754108810E+02  0.56406589675E+02  0.14644825871E+03  0.15830201789E+03  0.00000000000E+00 0. -1.
        -13    1    4    4    0    0  0.43757014997E+02  0.70824638010E+01  0.61321832675E+02  0.75665083213E+02  0.00000000000E+00 0.  1.
         14    1    4    4    0    0 -0.14855557188E+02 -0.31178170359E+02  0.16594308089E+02  0.38316275226E+02  0.00000000000E+00 0. -1.
          5    1    3    3  501    0 -0.22141327853E+02 -0.97989730082E+01 -0.28632690418E+02  0.37791258667E+02  0.47000000000E+01 0. -1.
         -5    1    3    3    0  501  0.39243986931E+02  0.89741965843E+01 -0.74154287099E+03  0.74264967934E+03  0.47000000000E+01 0. -1.
          1    1    1    2  502    0 -0.49920694039E+02 -0.22207672940E+01 -0.59126050574E+03  0.59336834525E+03  0.00000000000E+00 0. -1.
          1    1    1    2  503    0  0.50104760359E+01 -0.12703776162E+02  0.21311873689E+02  0.25311790909E+02  0.00000000000E+00 0. -1.
<mgrwt>
<rscale>  0 0.26118656E+02</rscale>
<asrwt>0</asrwt>
<pdfrwt beam="1">  1        2 0.47043481E-01 0.13656163E+02</pdfrwt>
<pdfrwt beam="2">  1        2 0.20559533E+00 0.49954306E+02</pdfrwt>
<totfact> 0.30452044E+02</totfact>
</mgrwt>
</event>
<event>
13    1  0.2742815E-008  0.7951548E+02  0.7546771E-02  0.1472075E+00
          2   -1    0    0  503    0  0.00000000000E+00  0.00000000000E+00  0.14498861729E+04  0.14498861729E+04  0.00000000000E+00 0. -1.
         -1   -1    0    0    0  501 -0.00000000000E+00 -0.00000000000E+00 -0.44346557906E+03  0.44346557906E+03  0.00000000000E+00 0.  1.
         25    2    1    2    0    0 -0.17066554496E+03  0.25040195475E+02 -0.13621315799E+02  0.21345939991E+03  0.12500254214E+03 0.  0.
         24    2    1    2    0    0  0.68342999926E+02 -0.37148409034E+02 -0.45050332548E+02  0.11936563881E+03  0.78535681916E+02 0.  0.
         24    2    1    2    0    0 -0.96173805318E+00  0.26316239007E+02 -0.15203972957E+02  0.84914333687E+02  0.79283124915E+02 0.  0.
        -11    1    5    5    0    0  0.93349463765E+01  0.28720280847E+02  0.27546610267E+02  0.40875561072E+02  0.00000000000E+00 0.  1.
         12    1    5    5    0    0 -0.10296684430E+02 -0.24040418397E+01 -0.42750583224E+02  0.44038772615E+02  0.00000000000E+00 0. -1.
        -13    1    4    4    0    0  0.54118186949E+02 -0.49170620982E+02 -0.27785215142E+01  0.73172729266E+02  0.00000000000E+00 0.  1.
         14    1    4    4    0    0  0.14224812977E+02  0.12022211948E+02 -0.42271811034E+02  0.46192909547E+02  0.00000000000E+00 0. -1.
          5    1    3    3  502    0 -0.11685873493E+03  0.35880898251E+02 -0.64651900165E+02  0.13836676257E+03  0.47000000000E+01 0. -1.
         -5    1    3    3    0  502 -0.53806810025E+02 -0.10840702776E+02  0.51030584366E+02  0.75092637339E+02  0.47000000000E+01 0. -1.
          1    1    1    2  503    0  0.25500901972E+02 -0.44232884050E+01  0.12700437454E+04  0.12703074339E+04  0.00000000000E+00 0. -1.
         -2    1    1    2    0  501  0.77783381115E+02 -0.97847370430E+01 -0.18974753025E+03  0.20530494561E+03  0.00000000000E+00 0.  1.
<mgrwt>
<rscale>  0 0.45365123E+02</rscale>
<asrwt>0</asrwt>
<pdfrwt beam="1">  1        2 0.21321855E+00 0.25881682E+02</pdfrwt>
<pdfrwt beam="2">  1       -1 0.65215527E-01 0.79515479E+02</pdfrwt>
<totfact> 0.55090354E+01</totfact>
</mgrwt>
</event>
<event>
13    1  0.2742815E-008  0.1207622E+03  0.7546771E-02  0.1327984E+00
          2   -1    0    0  503    0  0.00000000000E+00  0.00000000000E+00  0.48708050896E+03  0.48708050896E+03  0.00000000000E+00 0. -1.
          2   -1    0    0  502    0 -0.00000000000E+00 -0.00000000000E+00 -0.88672731899E+03  0.88672731899E+03  0.00000000000E+00 0. -1.
         25    2    1    2    0    0 -0.16068096603E+02  0.29246853428E+02 -0.42027887905E+02  0.13603789720E+03  0.12500561567E+03 0.  0.
         24    2    1    2    0    0  0.52038073287E+02 -0.91480998720E+02 -0.16550328429E+02  0.13204107076E+03  0.78001261510E+02 0.  0.
         24    2    1    2    0    0  0.36773201986E+02  0.12365652500E+03  0.13998813491E+03  0.20995644367E+03  0.88554083834E+02 0.  0.
        -11    1    4    4    0    0 -0.91384494464E+01 -0.66840724270E+01 -0.24691165575E+02  0.27163242442E+02  0.00000000000E+00 0.  1.
         12    1    4    4    0    0  0.61176522733E+02 -0.84796926293E+02  0.81408371466E+01  0.10487782831E+03  0.00000000000E+00 0. -1.
        -11    1    5    5    0    0  0.42550215588E+02  0.13310518029E+03  0.14139038063E+03  0.19879323329E+03  0.00000000000E+00 0.  1.
         12    1    5    5    0    0 -0.57770136023E+01 -0.94486552906E+01 -0.14022457202E+01  0.11163210381E+02  0.00000000000E+00 0. -1.
          5    1    3    3  501    0 -0.31035503819E+02  0.16297625522E+01 -0.80341398261E+02  0.86271020035E+02  0.47000000000E+01 0.  1.
         -5    1    3    3    0  501  0.14967407216E+02  0.27617090876E+02  0.38313510357E+02  0.49766877168E+02  0.47000000000E+01 0.  1.
          1    1    1    2  502    0  0.46234625583E+02 -0.26914528612E+02 -0.66874810055E+03  0.67088453138E+03  0.00000000000E+00 0. -1.
          1    1    1    2  503    0 -0.11897780425E+03 -0.34507851092E+02  0.18769137195E+03  0.22488788494E+03  0.00000000000E+00 0. -1.
<mgrwt>
<rscale>  0 0.80377435E+02</rscale>
<asrwt>0</asrwt>
<pdfrwt beam="1">  1        2 0.71629487E-01 0.12076220E+03</pdfrwt>
<pdfrwt beam="2">  1        2 0.13040108E+00 0.53497967E+02</pdfrwt>
<totfact> 0.37246474E+02</totfact>
</mgrwt>
</event>
<event>
13    1  0.2742815E-008  0.1205222E+03  0.7546771E-02  0.1291752E+00
          2   -1    0    0  502    0  0.00000000000E+00  0.00000000000E+00  0.33264521498E+04  0.33264521498E+04  0.00000000000E+00 0. -1.
          2   -1    0    0  503    0 -0.00000000000E+00 -0.00000000000E+00 -0.19257927155E+04  0.19257927155E+04  0.00000000000E+00 0. -1.
         25    2    1    2    0    0 -0.27858599923E+01 -0.68654639860E+02 -0.91972932882E+03  0.93072472927E+03  0.12500105118E+03 0.  0.
         24    2    1    2    0    0  0.74577507091E+02  0.24029587583E+02  0.95558729614E+02  0.14688088157E+03  0.79393305273E+02 0.  0.
         24    2    1    2    0    0 -0.14556853214E+03  0.60452332402E+02  0.18976617445E+04  0.19059070413E+04  0.80727141833E+02 0.  0.
        -11    1    4    4    0    0  0.79727062804E+01 -0.22695856120E+02  0.39819344937E+01  0.24382816342E+02  0.00000000000E+00 0.  1.
         12    1    4    4    0    0  0.66604800810E+02  0.46725443703E+02  0.91576795120E+02  0.12249806523E+03  0.00000000000E+00 0. -1.
        -11    1    5    5    0    0 -0.15390780256E+03  0.65448892994E+02  0.18085537957E+04  0.18162703547E+04  0.00000000000E+00 0.  1.
         12    1    5    5    0    0  0.83392704214E+01 -0.49965605917E+01  0.89107948742E+02  0.89636686563E+02  0.00000000000E+00 0. -1.
          5    1    3    3  501    0 -0.34675842055E+02 -0.45241355847E+02 -0.83648283166E+03  0.83843593193E+03  0.47000000000E+01 0. -1.
         -5    1    3    3    0  501  0.31889982062E+02 -0.23413284012E+02 -0.83246497164E+02  0.92288797339E+02  0.47000000000E+01 0. -1.
          1    1    1    2  502    0  0.75154683929E+02 -0.90294860000E+02  0.12938565127E+04  0.12991789961E+04  0.00000000000E+00 0. -1.
          1    1    1    2  503    0 -0.13777988915E+01  0.74467579874E+02 -0.96668822374E+03  0.96955321705E+03  0.00000000000E+00 0. -1.
<mgrwt>
<rscale>  0 0.94744568E+02</rscale>
<asrwt>0</asrwt>
<pdfrwt beam="1">  1        2 0.48918414E+00 0.12052221E+03</pdfrwt>
<pdfrwt beam="2">  1        2 0.28320481E+00 0.74480325E+02</pdfrwt>
<totfact> 0.29621257E+00</totfact>
</mgrwt>
</event>
<event>
13    1  0.2742815E-008  0.1006429E+03  0.7546771E-02  0.1323205E+00
          2   -1    0    0  503    0  0.00000000000E+00  0.00000000000E+00  0.29654408161E+03  0.29654408161E+03  0.00000000000E+00 0. -1.
          2   -1    0    0  502    0 -0.00000000000E+00 -0.00000000000E+00 -0.17656369434E+04  0.17656369434E+04  0.00000000000E+00 0. -1.
         25    2    1    2    0    0 -0.22909396313E+02 -0.61992148175E+02 -0.94300878022E+03  0.95354950695E+03  0.12499294280E+03 0.  0.
         24    2    1    2    0    0 -0.45379155739E+02 -0.33466583361E+02  0.11485893952E+02  0.10231512619E+03  0.84600114127E+02 0.  0.
         24    2    1    2    0    0  0.41154803231E+02 -0.61611551059E+02  0.10026989756E+02  0.10836814482E+03  0.78443694688E+02 0.  0.
        -11    1    4    4    0    0 -0.42783568100E+02 -0.55696959902E+02 -0.10415679347E+02  0.71000502942E+02  0.00000000000E+00 0.  1.
         12    1    4    4    0    0 -0.25955876389E+01  0.22230376541E+02  0.21901573299E+02  0.31314623250E+02  0.00000000000E+00 0. -1.
        -13    1    5    5    0    0 -0.32647118457E+01  0.16570174313E+02  0.73235481145E+01  0.18408242099E+02  0.00000000000E+00 0.  1.
         14    1    5    5    0    0  0.44419515077E+02 -0.78181725371E+02  0.27034416419E+01  0.89959902726E+02  0.00000000000E+00 0. -1.
          5    1    3    3  501    0 -0.37187991694E+02 -0.58301178026E+02 -0.22636597704E+03  0.23673956080E+03  0.47000000000E+01 0.  1.
         -5    1    3    3    0  501  0.14278595381E+02 -0.36909701489E+01 -0.71664280318E+03  0.71680994615E+03  0.47000000000E+01 0.  1.
          1    1    1    2  502    0  0.47187705256E+02  0.47518492113E+02 -0.70331800243E+03  0.70649904399E+03  0.00000000000E+00 0. -1.
          1    1    1    2  503    0 -0.20053956435E+02  0.10955179048E+03  0.15572103712E+03  0.19144920310E+03  0.00000000000E+00 0. -1.
<mgrwt>
<rscale>  0 0.82096493E+02</rscale>
<asrwt>0</asrwt>
<pdfrwt beam="1">  1        2 0.43609423E-01 0.10064290E+03</pdfrwt>
<pdfrwt beam="2">  1        2 0.25965250E+00 0.66967803E+02</pdfrwt>
<totfact> 0.22092075E+02</totfact>
</mgrwt>
</event>
<event>
13    1  0.2742815E-008  0.1216072E+03  0.7546771E-02  0.1304932E+00
          2   -1    0    0  503    0  0.00000000000E+00  0.00000000000E+00  0.48401093837E+04  0.48401093837E+04  0.00000000000E+00 0. -1.
          2   -1    0    0  502    0 -0.00000000000E+00 -0.00000000000E+00 -0.10236750853E+04  0.10236750853E+04  0.00000000000E+00 0. -1.
         25    2    1    2    0    0  0.14408365712E+03 -0.27595878190E+03 -0.24965291692E+03  0.41816942641E+03  0.12500296276E+03 0.  0.
         24    2    1    2    0    0 -0.30002375711E+02  0.11457750206E+03  0.11812544035E+03  0.18805462229E+03  0.85923074789E+02 0.  0.
         24    2    1    2    0    0 -0.26912214686E+03  0.87907930295E+02  0.13013046540E+04  0.13343780927E+04  0.83764896047E+02 0.  0.
        -11    1    4    4    0    0 -0.23639489468E+01  0.30439965054E+02  0.90150765759E+02  0.95180566788E+02  0.00000000000E+00 0.  1.
         12    1    4    4    0    0 -0.27638426765E+02  0.84137537003E+02  0.27974674588E+02  0.92874055501E+02  0.00000000000E+00 0. -1.
        -13    1    5    5    0    0 -0.55976997637E+02  0.56779776688E+02  0.36781656222E+03  0.37635939041E+03  0.00000000000E+00 0.  1.
         14    1    5    5    0    0 -0.21314514923E+03  0.31128153607E+02  0.93348809175E+03  0.95801870233E+03  0.00000000000E+00 0. -1.
          5    1    3    3  501    0  0.55799104930E+01  0.18642416631E+01 -0.46580114289E+02  0.47184826430E+02  0.47000000000E+01 0.  1.
         -5    1    3    3    0  501  0.13850374662E+03 -0.27782302357E+03 -0.20307280263E+03  0.37098459998E+03  0.47000000000E+01 0.  1.
          1    1    1    2  502    0  0.34936216362E+02  0.55227870005E+02 -0.63546314865E+03  0.63881458197E+03  0.00000000000E+00 0. -1.
          1    1    1    2  503    0  0.12010464910E+03  0.18245479547E+02  0.32821202696E+04  0.32843677456E+04  0.00000000000E+00 0. -1.
<mgrwt>
<rscale>  0 0.89146306E+02</rscale>
<asrwt>0</asrwt>
<pdfrwt beam="1">  1        2 0.71178078E+00 0.12160722E+03</pdfrwt>
<pdfrwt beam="2">  1        2 0.15054046E+00 0.65350263E+02</pdfrwt>
<totfact> 0.70931152E-01</totfact>
</mgrwt>
</event>
<event>
13    1  0.2742815E-008  0.1509854E+03  0.7546771E-02  0.1282414E+00
          2   -1    0    0  503    0  0.00000000000E+00  0.00000000000E+00  0.82315556823E+03  0.82315556823E+03  0.00000000000E+00 0. -1.
          2   -1    0    0  502    0 -0.00000000000E+00 -0.00000000000E+00 -0.85143267530E+03  0.85143267530E+03  0.00000000000E+00 0. -1.
         25    2    1    2    0    0  0.19549084792E+03  0.13487097958E+03 -0.18402317841E+03  0.32541712218E+03  0.12499968185E+03 0.  0.
         24    2    1    2    0    0  0.41268383202E+01 -0.39462945684E+02  0.20157765904E+02  0.91250004236E+02  0.79660987128E+02 0.  0.
         24    2    1    2    0    0 -0.24809991437E+02  0.11267271463E+01 -0.30090803564E+02  0.90118159069E+02  0.81234358160E+02 0.  0.
        -11    1    5    5    0    0 -0.54357750328E+02  0.98411862555E+00 -0.26082231924E+02  0.60299389154E+02  0.00000000000E+00 0.  1.
         12    1    5    5    0    0  0.29547758891E+02  0.14260852075E+00 -0.40085716398E+01  0.29818769915E+02  0.00000000000E+00 0. -1.
        -11    1    4    4    0    0  0.24272699491E+01 -0.63836913594E+02  0.94684541234E+01  0.64580916687E+02  0.00000000000E+00 0.  1.
         12    1    4    4    0    0  0.16995683711E+01  0.24373967911E+02  0.10689311781E+02  0.26669087549E+02  0.00000000000E+00 0. -1.
          5    1    3    3  501    0  0.18072130896E+03  0.15706645979E+03 -0.15273269445E+03  0.28404124746E+03  0.47000000000E+01 0. -1.
         -5    1    3    3    0  501  0.14769538952E+02 -0.22195480204E+02 -0.31290483960E+02  0.41375874719E+02  0.47000000000E+01 0. -1.
          1    1    1    2  502    0 -0.64849021781E+02  0.28855010825E+01 -0.49065794188E+03  0.49493326587E+03  0.00000000000E+00 0. -1.
          1    1    1    2  503    0 -0.10995867302E+03 -0.99420262129E+02  0.65633705088E+03  0.67286969218E+03  0.00000000000E+00 0. -1.
<mgrwt>
<rscale>  0 0.98999705E+02</rscale>
<asrwt>0</asrwt>
<pdfrwt beam="1">  1        2 0.12105229E+00 0.15098537E+03</pdfrwt>
<pdfrwt beam="2">  1        2 0.12521069E+00 0.64913186E+02</pdfrwt>
<totfact> 0.21155084E+02</totfact>
</mgrwt>
</event>
<event>
13    1  0.2742815E-008  0.1038337E+03  0.7546771E-02  0.1443854E+00
          2   -1    0    0  502    0  0.00000000000E+00  0.00000000000E+00  0.10157976809E+04  0.10157976809E+04  0.00000000000E+00 0. -1.
          2   -1    0    0  503    0 -0.00000000000E+00 -0.00000000000E+00 -0.25840008479E+04  0.25840008479E+04  0.00000000000E+00 0. -1.
         25    2    1    2    0    0 -0.96817561490E+02  0.24917492545E+02 -0.47607456209E+03  0.50226121908E+03  0.12499928750E+03 0.  0.
         24    2    1    2    0    0 -0.22827880836E+02  0.30948283279E+02  0.29631461578E+02  0.94293558127E+02  0.80835284422E+02 0.  0.
         24    2    1    2    0    0 -0.95698975898E+01 -0.80655787321E+02  0.26531135697E+03  0.29114179288E+03  0.88184400297E+02 0.  0.
        -13    1    4    4    0    0  0.25519902421E+02  0.10618996003E+02  0.31378226053E+02  0.41816522643E+02  0.00000000000E+00 0.  1.
         14    1    4    4    0    0 -0.48347783258E+02  0.20329287276E+02 -0.17467644750E+01  0.52477035484E+02  0.00000000000E+00 0. -1.
        -13    1    5    5    0    0  0.27881723814E+02 -0.75558394276E+02  0.15751054830E+03  0.17690685202E+03  0.00000000000E+00 0.  1.
         14    1    5    5    0    0 -0.37451621404E+02 -0.50973930442E+01  0.10780080867E+03  0.11423494085E+03  0.00000000000E+00 0. -1.
          5    1    3    3  501    0 -0.24293884182E+02  0.65609087233E+02 -0.29064421119E+03  0.29898309757E+03  0.47000000000E+01 0.  1.
         -5    1    3    3    0  501 -0.72523677308E+02 -0.40691594687E+02 -0.18543035090E+03  0.20327812150E+03  0.47000000000E+01 0.  1.
          1    1    1    2  502    0  0.13501468556E+03  0.11465047181E+01  0.65556278996E+03  0.66932268105E+03  0.00000000000E+00 0. -1.
          1    1    1    2  503    0 -0.57993456393E+01  0.23643506779E+02 -0.20426342134E+04  0.20427792777E+04  0.00000000000E+00 0. -1.
<mgrwt>
<rscale>  0 0.50276875E+02</rscale>
<asrwt>0</asrwt>
<pdfrwt beam="1">  1        2 0.14938201E+00 0.10383367E+03</pdfrwt>
<pdfrwt beam="2">  1        2 0.38000012E+00 0.24344359E+02</pdfrwt>
<totfact> 0.26111884E+01</totfact>
</mgrwt>
</event>
<event>
13    1  0.2742815E-008  0.3374632E+02  0.7546771E-02  0.1731808E+00
          2   -1    0    0  503    0  0.00000000000E+00  0.00000000000E+00  0.24584503437E+04  0.24584503437E+04  0.00000000000E+00 0. -1.
         -1   -1    0    0    0  501 -0.00000000000E+00 -0.00000000000E+00 -0.58546098800E+03  0.58546098800E+03  0.00000000000E+00 0.  1.
         25    2    1    2    0    0  0.92727972794E+02 -0.92118384928E+02 -0.29043385778E+03  0.34214250764E+03  0.12500158402E+03 0.  0.
         24    2    1    2    0    0  0.17165775108E+03  0.90239959190E+02  0.61657447145E+03  0.65082318094E+03  0.76138691023E+02 0.  0.
         24    2    1    2    0    0 -0.25095115840E+03 -0.42341569002E+02  0.16947477714E+04  0.17156772192E+04  0.81295876608E+02 0.  0.
        -11    1    5    5    0    0  0.63452024937E+01 -0.22138328389E+01  0.38212224214E+02  0.38798669177E+02  0.00000000000E+00 0.  1.
         12    1    5    5    0    0 -0.25729636090E+03 -0.40127736163E+02  0.16565355472E+04  0.16768785501E+04  0.00000000000E+00 0. -1.
        -13    1    4    4    0    0  0.42247957184E+02  0.51640439957E+02  0.28702203602E+03  0.29467486165E+03  0.00000000000E+00 0.  1.
         14    1    4    4    0    0  0.12940979390E+03  0.38599519234E+02  0.32955243543E+03  0.35614831929E+03  0.00000000000E+00 0. -1.
          5    1    3    3  502    0 -0.94118895597E+01  0.71473638697E+01  0.53662850867E+01  0.13804183822E+02  0.47000000000E+01 0. -1.
         -5    1    3    3    0  502  0.10213986235E+03 -0.99265748797E+02 -0.29580014287E+03  0.32833832382E+03  0.47000000000E+01 0. -1.
          1    1    1    2  503    0 -0.55595675743E+01  0.11411744910E+02  0.92069030199E+02  0.92939996962E+02  0.00000000000E+00 0. -1.
         -2    1    1    2    0  501 -0.78749978947E+01  0.32808249829E+02 -0.23996805960E+03  0.24232842689E+03  0.00000000000E+00 0.  1.
<mgrwt>
<rscale>  0 0.20697211E+02</rscale>
<asrwt>0</asrwt>
<pdfrwt beam="1">  1        2 0.36153681E+00 0.12693964E+02</pdfrwt>
<pdfrwt beam="2">  1       -1 0.86097205E-01 0.33746320E+02</pdfrwt>
<totfact> 0.12833902E+01</totfact>
</mgrwt>
</event>
<event>
13    1  0.2742815E-008  0.6513397E+02  0.7546771E-02  0.1501715E+00
          2   -1    0    0  503    0  0.00000000000E+00  0.00000000000E+00  0.18247786838E+04  0.18247786838E+04  0.00000000000E+00 0. -1.
          2   -1    0    0  502    0 -0.00000000000E+00 -0.00000000000E+00 -0.33536767286E+04  0.33536767286E+04  0.00000000000E+00 0. -1.
         25    2    1    2    0    0 -0.26573592710E+03  0.46103620382E+02 -0.10004850428E+04  0.10437147550E+04  0.12501616717E+03 0.  0.
         24    2    1    2    0    0  0.19189472049E+03  0.31006491471E+02  0.30873159836E+03  0.37353879403E+03  0.80193793726E+02 0.  0.
         24    2    1    2    0    0 -0.91689652433E+01 -0.77268928115E+02  0.38780010005E+02  0.11751992792E+03  0.79072669791E+02 0.  0.
        -13    1    5    5    0    0  0.22284318782E+02 -0.13828107587E+02  0.38652365263E+02  0.46709878649E+02  0.00000000000E+00 0.  1.
         14    1    5    5    0    0 -0.31453284026E+02 -0.63440820527E+02  0.12764474174E+00  0.70810049275E+02  0.00000000000E+00 0. -1.
        -13    1    4    4    0    0  0.54065197164E+02  0.45676955527E+02  0.12103566760E+03  0.14021077934E+03  0.00000000000E+00 0.  1.
         14    1    4    4    0    0  0.13782952333E+03 -0.14670464056E+02  0.18769593076E+03  0.23332801469E+03  0.00000000000E+00 0. -1.
          5    1    3    3  501    0 -0.24041883254E+03 -0.39132999483E+01 -0.78555796531E+03  0.82154728155E+03  0.47000000000E+01 0.  1.
         -5    1    3    3    0  501 -0.25317094561E+02  0.50016920330E+02 -0.21492707753E+03  0.22216747343E+03  0.47000000000E+01 0.  1.
          1    1    1    2  502    0  0.19900580588E+02  0.16228058051E+02 -0.22589641096E+04  0.22591100530E+04  0.00000000000E+00 0. -1.
          1    1    1    2  503    0  0.63109591262E+02 -0.16069241789E+02  0.13830394994E+04  0.13845718825E+04  0.00000000000E+00 0. -1.
<mgrwt>
<rscale>  0 0.40896696E+02</rscale>
<asrwt>0</asrwt>
<pdfrwt beam="1">  1        2 0.26834981E+00 0.65133973E+02</pdfrwt>
<pdfrwt beam="2">  1        2 0.49318775E+00 0.25678454E+02</pdfrwt>
<totfact> 0.43226798E+00</totfact>
</mgrwt>
</event>
<event>
13    1  0.2742815E-008  0.7934696E+02  0.7546771E-02  0.1369386E+00
          2   -1    0    0  502    0  0.00000000000E+00  0.00000000000E+00  0.88816169179E+03  0.88816169179E+03  0.00000000000E+00 0. -1.
          2   -1    0    0  503    0 -0.00000000000E+00 -0.00000000000E+00 -0.67849479669E+03  0.67849479669E+03  0.00000000000E+00 0. -1.
         25    2    1    2    0    0 -0.31209510324E+01 -0.23412573649E+03 -0.34513550716E+03  0.43539424475E+03  0.12500011694E+03 0.  0.
         24    2    1    2    0    0 -0.99244326701E+02  0.14875602756E+03 -0.70670725660E+02  0.20854311029E+03  0.80734659634E+02 0.  0.
         24    2    1    2    0    0  0.31946707751E+02  0.45635416800E+02  0.13816898680E+02  0.99369660876E+02  0.81118674858E+02 0.  0.
        -11    1    5    5    0    0  0.59303612689E+02  0.36027807287E+02  0.88346940451E+01  0.69949790527E+02  0.00000000000E+00 0.  1.
         12    1    5    5    0    0 -0.27356904938E+02  0.96076095132E+01  0.49822046353E+01  0.29419870349E+02  0.00000000000E+00 0. -1.
        -13    1    4    4    0    0 -0.94574061628E+02  0.70884741154E+02 -0.43071366469E+02  0.12579364956E+03  0.00000000000E+00 0.  1.
         14    1    4    4    0    0 -0.46702650726E+01  0.77871286409E+02 -0.27599359190E+02  0.82749460727E+02  0.00000000000E+00 0. -1.
          5    1    3    3  501    0 -0.93592531777E+01 -0.78807243500E+02 -0.22574830191E+03  0.23933775938E+03  0.47000000000E+01 0.  1.
         -5    1    3    3    0  501  0.62383021453E+01 -0.15531849299E+03 -0.11938720524E+03  0.19605648537E+03  0.47000000000E+01 0.  1.
          1    1    1    2  502    0 -0.87505171907E+01  0.56472710214E+02  0.70070217962E+03  0.70302865025E+03  0.00000000000E+00 0. -1.
          1    1    1    2  503    0  0.79169087173E+02 -0.16738418086E+02 -0.89045950379E+02  0.12032082232E+03  0.00000000000E+00 0. -1.
<mgrwt>
<rscale>  0 0.67338044E+02</rscale>
<asrwt>0</asrwt>
<pdfrwt beam="1">  1        2 0.13061201E+00 0.57146641E+02</pdfrwt>
<pdfrwt beam="2">  1        2 0.99778646E-01 0.79346959E+02</pdfrwt>
<totfact> 0.25912609E+02</totfact>
</mgrwt>
</event>
<event>
13    1  0.2742815E-008  0.4254935E+02  0.7546771E-02  0.1579796E+00
          2   -1    0    0  503    0  0.00000000000E+00  0.00000000000E+00  0.23172431638E+04  0.23172431638E+04  0.00000000000E+00 0. -1.
          2   -1    0    0  502    0 -0.00000000000E+00 -0.00000000000E+00 -0.60254682428E+03  0.60254682428E+03  0.00000000000E+00 0. -1.
         25    2    1    2    0    0  0.78014784808E+02  0.98363205472E+02  0.10746209019E+03  0.20720952935E+03  0.12500424547E+03 0.  0.
         24    2    1    2    0    0 -0.36013603767E+02 -0.22617996681E+02  0.98552541655E+02  0.13360392972E+03  0.79554089393E+02 0.  0.
         24    2    1    2    0    0 -0.89446900046E+01 -0.37981090151E+02  0.20366148202E+03  0.22235676611E+03  0.80261830837E+02 0.  0.
        -11    1    4    4    0    0  0.19191905015E+02  0.13858404302E+02  0.20845161232E+02  0.31542120010E+02  0.00000000000E+00 0.  1.
         12    1    4    4    0    0 -0.55205508782E+02 -0.36476400984E+02  0.77707380423E+02  0.10206180971E+03  0.00000000000E+00 0. -1.
        -13    1    5    5    0    0  0.34496927158E+02 -0.26919670848E+02  0.11410443428E+03  0.12220690890E+03  0.00000000000E+00 0.  1.
         14    1    5    5    0    0 -0.43441617163E+02 -0.11061419303E+02  0.89557047738E+02  0.10014985721E+03  0.00000000000E+00 0. -1.
          5    1    3    3  501    0  0.74192289113E+01  0.56555775607E+02  0.11107068522E+03  0.12494954112E+03  0.47000000000E+01 0.  1.
         -5    1    3    3    0  501  0.70595555896E+02  0.41807429865E+02 -0.36085950313E+01  0.82259988222E+02  0.47000000000E+01 0.  1.
          1    1    1    2  502    0  0.67214161278E+01 -0.22675083853E+02 -0.52528651019E+03  0.52581865187E+03  0.00000000000E+00 0. -1.
          1    1    1    2  503    0 -0.39777907164E+02 -0.15089034787E+02  0.18303067358E+04  0.18308011110E+04  0.00000000000E+00 0. -1.
<mgrwt>
<rscale>  0 0.31722310E+02</rscale>
<asrwt>0</asrwt>
<pdfrwt beam="1">  1        2 0.34077105E+00 0.42549345E+02</pdfrwt>
<pdfrwt beam="2">  1        2 0.88609828E-01 0.23650304E+02</pdfrwt>
<totfact> 0.61921449E+01</totfact>
</mgrwt>
</event>
<event>
13    1  0.2742815E-008  0.1162925E+03  0.7546771E-02  0.1416721E+00
          2   -1    0    0  503    0  0.00000000000E+00  0.00000000000E+00  0.11357637815E+04  0.11357637815E+04  0.00000000000E+00 0. -1.
          2   -1    0    0  502    0 -0.00000000000E+00 -0.00000000000E+00 -0.18985178152E+04  0.18985178152E+04  0.00000000000E+00 0. -1.
         25    2    1    2    0    0  0.19366909746E+03 -0.86422537202E+02 -0.79760859163E+03  0.83473334075E+03  0.12499484181E+03 0.  0.
         24    2    1    2    0    0  0.51270653635E+02  0.18930755360E+03 -0.16306122141E+03  0.26739912122E+03  0.80295070382E+02 0.  0.
         24    2    1    2    0    0 -0.22488750522E+03 -0.10488874500E+02  0.29921795984E+03  0.38278163488E+03  0.79410238750E+02 0.  0.
        -13    1    5    5    0    0 -0.81389864450E+02  0.27240728090E+02  0.75364901069E+02  0.11422011914E+03  0.00000000000E+00 0.  1.
         14    1    5    5    0    0 -0.14349764077E+03 -0.37729602590E+02  0.22385305878E+03  0.26856151575E+03  0.00000000000E+00 0. -1.
        -13    1    4    4    0    0  0.23113095200E+02  0.18032031322E+03 -0.13309212291E+03  0.22530677689E+03  0.00000000000E+00 0.  1.
         14    1    4    4    0    0  0.28157558435E+02  0.89872403766E+01 -0.29969098496E+02  0.42092344331E+02  0.00000000000E+00 0. -1.
          5    1    3    3  501    0  0.66696595579E+02  0.26525661758E+02 -0.17194942736E+03  0.18638868571E+03  0.47000000000E+01 0. -1.
         -5    1    3    3    0  501  0.12697250188E+03 -0.11294819896E+03 -0.62565916427E+03  0.64834465504E+03  0.47000000000E+01 0. -1.
          1    1    1    2  502    0 -0.12229631996E+02  0.23732426501E+02 -0.82043866240E+03  0.82087294433E+03  0.00000000000E+00 0. -1.
          1    1    1    2  503    0 -0.78226138797E+01 -0.11612856840E+03  0.71913648193E+03  0.72849455545E+03  0.00000000000E+00 0. -1.
<mgrwt>
<rscale>  0 0.55720707E+02</rscale>
<asrwt>0</asrwt>
<pdfrwt beam="1">  1        2 0.16702409E+00 0.11629254E+03</pdfrwt>
<pdfrwt beam="2">  1        2 0.27919379E+00 0.26698164E+02</pdfrwt>
<totfact> 0.44966659E+01</totfact>
</mgrwt>
</event>
<event>
13    1  0.2742815E-008  0.1389934E+03  0.7546771E-02  0.1292418E+00
          2   -1    0    0  503    0  0.00000000000E+00  0.00000000000E+00  0.81211776152E+03  0.81211776152E+03  0.00000000000E+00 0. -1.
          2   -1    0    0  502    0 -0.00000000000E+00 -0.00000000000E+00 -0.93647832423E+03  0.93647832423E+03  0.00000000000E+00 0. -1.
         25    2    1    2    0    0  0.58476650728E+02 -0.13622398457E+03 -0.43787824991E+03  0.47889275162E+03  0.12499765261E+03 0.  0.
         24    2    1    2    0    0 -0.27996250138E+03 -0.14712044156E+02  0.72573142687E+02  0.30069112023E+03  0.80949628281E+02 0.  0.
         24    2    1    2    0    0  0.40570717392E+02  0.42141743449E+01  0.49190524963E+02  0.10247272382E+03  0.80107484083E+02 0.  0.
        -11    1    5    5    0    0 -0.53060695446E+00 -0.31187743378E+02  0.33998843966E+02  0.46139768875E+02  0.00000000000E+00 0.  1.
         12    1    5    5    0    0  0.41101324347E+02  0.35401917723E+02  0.15191680997E+02  0.56332954947E+02  0.00000000000E+00 0. -1.
        -11    1    4    4    0    0 -0.42918893736E+01 -0.12274904958E+02  0.13514665678E+02  0.18754727257E+02  0.00000000000E+00 0.  1.
         12    1    4    4    0    0 -0.27567061201E+03 -0.24371391988E+01  0.59058477010E+02  0.28193639297E+03  0.00000000000E+00 0. -1.
          5    1    3    3  501    0  0.76387011227E+02 -0.14391746042E+03 -0.42468054750E+03  0.45488775355E+03  0.47000000000E+01 0.  1.
         -5    1    3    3    0  501 -0.17910360499E+02  0.76934758494E+01 -0.13197702409E+02  0.24004998078E+02  0.47000000000E+01 0.  1.
          1    1    1    2  502    0  0.64182331660E+02  0.52927295090E-01 -0.31747862425E+03  0.32390129878E+03  0.00000000000E+00 0. -1.
          1    1    1    2  503    0  0.11673280160E+03  0.14666892709E+03  0.50923264380E+03  0.54263819129E+03  0.00000000000E+00 0. -1.
<mgrwt>
<rscale>  0 0.94450639E+02</rscale>
<asrwt>0</asrwt>
<pdfrwt beam="1">  1        2 0.11942908E+00 0.13899339E+03</pdfrwt>
<pdfrwt beam="2">  1        2 0.13771740E+00 0.64182353E+02</pdfrwt>
<totfact> 0.19193838E+02</totfact>
</mgrwt>
</event>
<event>
13    1  0.2742815E-008  0.1232493E+03  0.7546771E-02  0.1499169E+00
          2   -1    0    0  502    0  0.00000000000E+00  0.00000000000E+00  0.31956010101E+04  0.31956010101E+04  0.00000000000E+00 0. -1.
          2   -1    0    0  503    0 -0.00000000000E+00 -0.00000000000E+00 -0.30189872916E+04  0.30189872916E+04  0.00000000000E+00 0. -1.
         25    2    1    2    0    0 -0.21528701252E+03  0.50865677407E+02 -0.12207456214E+04  0.12469079425E+04  0.12499492025E+03 0.  0.
         24    2    1    2    0    0  0.18408931868E+01 -0.61441964268E+02 -0.70980810765E+02  0.12351655206E+03  0.80246864585E+02 0.  0.
         24    2    1    2    0    0  0.93384199542E+02 -0.10921768207E+02  0.77333985673E+03  0.78316265004E+03  0.80307587848E+02 0.  0.
        -11    1    5    5    0    0  0.94709065359E+01 -0.32437390822E+02  0.14536883289E+03  0.14924469829E+03  0.00000000000E+00 0.  1.
         12    1    5    5    0    0  0.83913293007E+02  0.21515622615E+02  0.62797102384E+03  0.63391795175E+03  0.00000000000E+00 0. -1.
        -13    1    4    4    0    0 -0.16036348222E+02 -0.66404311539E+02 -0.77994945625E+02  0.10368176599E+03  0.00000000000E+00 0.  1.
         14    1    4    4    0    0  0.17877241409E+02  0.49623472711E+01  0.70141348593E+01  0.19834786075E+02  0.00000000000E+00 0. -1.
          5    1    3    3  501    0 -0.21845849224E+02  0.53133495416E+02 -0.36756527539E+03  0.37205742988E+03  0.47000000000E+01 0. -1.
         -5    1    3    3    0  501 -0.19344116329E+03 -0.22678180084E+01 -0.85318034600E+03  0.87485051263E+03  0.47000000000E+01 0. -1.
          1    1    1    2  502    0  0.11814738945E+03  0.35174391834E+02  0.23763747860E+04  0.23795699542E+04  0.00000000000E+00 0. -1.
          1    1    1    2  503    0  0.19145303405E+01 -0.13676336766E+02 -0.16813744921E+04  0.16814312029E+04  0.00000000000E+00 0. -1.
<mgrwt>
<rscale>  0 0.41255726E+02</rscale>
<asrwt>0</asrwt>
<pdfrwt beam="1">  1        2 0.46994132E+00 0.12324930E+03</pdfrwt>
<pdfrwt beam="2">  1        2 0.44396872E+00 0.13809693E+02</pdfrwt>
<totfact> 0.13773354E+00</totfact>
</mgrwt>
</event>
<event>
13    1  0.2742815E-008  0.2414056E+03  0.7546771E-02  0.1429400E+00
          2   -1    0    0  503    0  0.00000000000E+00  0.00000000000E+00  0.12887180773E+04  0.12887180773E+04  0.00000000000E+00 0. -1.
          2   -1    0    0  502    0 -0.00000000000E+00 -0.00000000000E+00 -0.45723588115E+04  0.45723588115E+04  0.00000000000E+00 0. -1.
         25    2    1    2    0    0  0.12025180041E+03  0.23245187801E+03 -0.80052575670E+03  0.85144658418E+03  0.12500170994E+03 0.  0.
         24    2    1    2    0    0 -0.30250305496E+03 -0.34142293273E+03  0.47456608977E+03  0.66299686009E+03  0.79209504972E+02 0.  0.
         24    2    1    2    0    0  0.58907788934E+01 -0.39271554330E+02  0.34461385442E+03  0.35580871875E+03  0.79146569223E+02 0.  0.
        -13    1    4    4    0    0 -0.65061555297E+02 -0.68710651057E+02  0.56341615650E+02  0.11012963816E+03  0.00000000000E+00 0.  1.
         14    1    4    4    0    0 -0.23744149966E+03 -0.27271228167E+03  0.41822447412E+03  0.55286722193E+03  0.00000000000E+00 0. -1.
        -13    1    5    5    0    0 -0.24040459741E+02  0.72813523270E+01  0.49049509583E+02  0.55107315182E+02  0.00000000000E+00 0.  1.
         14    1    5    5    0    0  0.29931238634E+02 -0.46552906657E+02  0.29556434484E+03  0.30070140356E+03  0.00000000000E+00 0. -1.
          5    1    3    3  501    0  0.81014990482E+02  0.22753281386E+03 -0.59629412961E+03  0.64336878155E+03  0.47000000000E+01 0. -1.
         -5    1    3    3    0  501  0.39236809927E+02  0.49190641499E+01 -0.20423162709E+03  0.20807780263E+03  0.47000000000E+01 0. -1.
          1    1    1    2  502    0  0.18703820615E+03  0.15295524165E+03 -0.36424573211E+04  0.36504621533E+04  0.00000000000E+00 0. -1.
          1    1    1    2  503    0 -0.10677730494E+02 -0.47126326141E+01  0.34016239938E+03  0.34036257254E+03  0.00000000000E+00 0. -1.
<mgrwt>
<rscale>  0 0.53080645E+02</rscale>
<asrwt>0</asrwt>
<pdfrwt beam="1">  1        2 0.18951737E+00 0.11671454E+02</pdfrwt>
<pdfrwt beam="2">  1        2 0.67240570E+00 0.24140564E+03</pdfrwt>
<totfact> 0.85271946E-01</totfact>
</mgrwt>
</event>
<event>
13    1  0.2742815E-008  0.6035585E+02  0.7546771E-02  0.1420859E+00
          2   -1    0    0  502    0  0.00000000000E+00  0.00000000000E+00  0.21043022530E+04  0.21043022530E+04  0.00000000000E+00 0. -1.
          2   -1    0    0  503    0 -0.00000000000E+00 -0.00000000000E+00 -0.77987264231E+03  0.77987264231E+03  0.00000000000E+00 0. -1.
         25    2    1    2    0    0  0.27476673397E+02  0.20022230547E+02 -0.47309084052E+02  0.13791927151E+03  0.12501087442E+03 0.  0.
         24    2    1    2    0    0  0.22060306353E+02 -0.87158518515E+01  0.18852954754E+03  0.20568058731E+03  0.78730492878E+02 0.  0.
         24    2    1    2    0    0 -0.43663317864E+02 -0.86702811220E+02  0.11324051729E+04  0.11394266077E+04  0.80793910233E+02 0.  0.
        -13    1    5    5    0    0 -0.21634704814E+01 -0.47327836449E+02  0.84814297891E+03  0.84946519492E+03  0.00000000000E+00 0.  1.
         14    1    5    5    0    0 -0.41499847382E+02 -0.39374974771E+02  0.28426219403E+03  0.28996141282E+03  0.00000000000E+00 0. -1.
        -13    1    4    4    0    0 -0.12123305441E+01 -0.40491070087E+02  0.71207184092E+02  0.81923498268E+02  0.00000000000E+00 0.  1.
         14    1    4    4    0    0  0.23272636897E+02  0.31775218235E+02  0.11732236345E+03  0.12375708904E+03  0.00000000000E+00 0. -1.
          5    1    3    3  501    0  0.11522886871E+02 -0.37911246844E+02 -0.63962060928E+02  0.75387497619E+02  0.47000000000E+01 0. -1.
         -5    1    3    3    0  501  0.15953786526E+02  0.57933477391E+02  0.16652976876E+02  0.62531773891E+02  0.47000000000E+01 0. -1.
          1    1    1    2  502    0 -0.43113745561E+02  0.42291396008E+02  0.72379756338E+03  0.72631279073E+03  0.00000000000E+00 0. -1.
          1    1    1    2  503    0  0.37240083674E+02  0.33105036516E+02 -0.67299358915E+03  0.67483563799E+03  0.00000000000E+00 0. -1.
<mgrwt>
<rscale>  0 0.54839526E+02</rscale>
<asrwt>0</asrwt>
<pdfrwt beam="1">  1        2 0.30945621E+00 0.60355851E+02</pdfrwt>
<pdfrwt beam="2">  1        2 0.11468715E+00 0.49827375E+02</pdfrwt>
<totfact> 0.55260356E+01</totfact>
</mgrwt>
</event>
<event>
13    1  0.2742815E-008  0.1421149E+03  0.7546771E-02  0.1229759E+00
          2   -1    0    0  502    0  0.00000000000E+00  0.00000000000E+00  0.14630265365E+04  0.14630265365E+04  0.00000000000E+00 0. -1.
          2   -1    0    0  503    0 -0.00000000000E+00 -0.00000000000E+00 -0.36323868385E+04  0.36323868385E+04  0.00000000000E+00 0. -1.
         25    2    1    2    0    0 -0.72139990209E+01  0.15361266258E+03 -0.43220564968E+03  0.47547309309E+03  0.12499618696E+03 0.  0.
         24    2    1    2    0    0 -0.22542416450E+02 -0.81304003407E+02  0.75517593680E+02  0.13916488204E+03  0.80903992046E+02 0.  0.
         24    2    1    2    0    0 -0.72942519601E+02 -0.31936988401E+02  0.67213844194E+01  0.11390560961E+03  0.81170983100E+02 0.  0.
        -13    1    4    4    0    0 -0.21337056148E+02  0.79341564227E+01  0.81299561183E+00  0.22778976383E+02  0.00000000000E+00 0.  1.
         14    1    4    4    0    0 -0.12053603015E+01 -0.89238159830E+02  0.74704598068E+02  0.11638590566E+03  0.00000000000E+00 0. -1.
        -13    1    5    5    0    0 -0.15830374502E+02 -0.42296559512E+02  0.26766148709E+02  0.52497870625E+02  0.00000000000E+00 0.  1.
         14    1    5    5    0    0 -0.57112145099E+02  0.10359571112E+02 -0.20044764289E+02  0.61407738981E+02  0.00000000000E+00 0. -1.
          5    1    3    3  501    0  0.33519180695E+02  0.14821847617E+03 -0.29081377030E+03  0.32815696115E+03  0.47000000000E+01 0. -1.
         -5    1    3    3    0  501 -0.40733179715E+02  0.53941864053E+01 -0.14139187938E+03  0.14731613195E+03  0.47000000000E+01 0. -1.
          1    1    1    2  502    0  0.69291518891E+02 -0.15162083384E+03  0.12671864986E+04  0.12781047743E+04  0.00000000000E+00 0. -1.
          1    1    1    2  503    0  0.33407416180E+02  0.11124916307E+03 -0.30865801289E+04  0.30887650160E+04  0.00000000000E+00 0. -1.
<mgrwt>
<rscale>  0 0.12845982E+03</rscale>
<asrwt>0</asrwt>
<pdfrwt beam="1">  1        2 0.21515096E+00 0.14211492E+03</pdfrwt>
<pdfrwt beam="2">  1        2 0.53417453E+00 0.11611678E+03</pdfrwt>
<totfact> 0.31246178E+00</totfact>
</mgrwt>
</event>
<event>
13    1  0.2742815E-008  0.5799492E+02  0.7546771E-02  0.1578824E+00
          2   -1    0    0  502    0  0.00000000000E+00  0.00000000000E+00  0.55607778577E+03  0.55607778577E+03  0.00000000000E+00 0. -1.
          2   -1    0    0  503    0 -0.00000000000E+00 -0.00000000000E+00 -0.12337836611E+04  0.12337836611E+04  0.00000000000E+00 0. -1.
         25    2    1    2    0    0  0.27001148326E+02  0.11663634299E+03 -0.78411338359E+03  0.80298940884E+03  0.12500037546E+03 0.  0.
         24    2    1    2    0    0 -0.43277476953E+02 -0.56772634407E+01 -0.52805120159E+01  0.89118607906E+02  0.77518198742E+02 0.  0.
         24    2    1    2    0    0 -0.41594034742E+01 -0.52221319805E+02  0.13088995206E+03  0.16288157957E+03  0.81571211427E+02 0.  0.
        -13    1    4    4    0    0  0.17397075168E+02  0.43396289686E+00  0.16871480466E+02  0.24238263167E+02  0.00000000000E+00 0.  1.
         14    1    4    4    0    0 -0.60674552122E+02 -0.61112263376E+01 -0.22151992482E+02  0.64880344739E+02  0.00000000000E+00 0. -1.
        -13    1    5    5    0    0  0.22982532163E+02  0.30247132739E+01  0.64675063300E+01  0.24066040662E+02  0.00000000000E+00 0.  1.
         14    1    5    5    0    0 -0.27141935638E+02 -0.55246033079E+02  0.12442244573E+03  0.13881553890E+03  0.00000000000E+00 0. -1.
          5    1    3    3  501    0  0.72257448455E+02  0.10000658810E+03 -0.60288224779E+03  0.61539544297E+03  0.47000000000E+01 0.  1.
         -5    1    3    3    0  501 -0.45256300129E+02  0.16629754891E+02 -0.18123113580E+03  0.18759396587E+03  0.47000000000E+01 0.  1.
          1    1    1    2  502    0  0.33594691820E+02 -0.47267930467E+02  0.35528086065E+03  0.35998243084E+03  0.00000000000E+00 0. -1.
          1    1    1    2  503    0 -0.13158959719E+02 -0.11469829276E+02 -0.37448279246E+03  0.37488941977E+03  0.00000000000E+00 0. -1.
<mgrwt>
<rscale>  0 0.31817679E+02</rscale>
<asrwt>0</asrwt>
<pdfrwt beam="1">  1        2 0.81776146E-01 0.57994919E+02</pdfrwt>
<pdfrwt beam="2">  1        2 0.18143877E+00 0.17456094E+02</pdfrwt>
<totfact> 0.22781944E+02</totfact>
</mgrwt>
</event>
<event>
13    1  0.2742815E-008  0.1508125E+03  0.7546771E-02  0.1345156E+00
          2   -1    0    0  502    0  0.00000000000E+00  0.00000000000E+00  0.24391572923E+04  0.24391572923E+04  0.00000000000E+00 0. -1.
          2   -1    0    0  503    0 -0.00000000000E+00 -0.00000000000E+00 -0.34377164014E+03  0.34377164014E+03  0.00000000000E+00 0. -1.
         25    2    1    2    0    0  0.13436384987E+03 -0.98238432004E+02 -0.13845111112E+03  0.24999496108E+03  0.12499734686E+03 0.  0.
         24    2    1    2    0    0 -0.91499999189E+01  0.38849212872E+01 -0.13845596399E+02  0.80726329736E+02  0.78906429783E+02 0.  0.
         24    2    1    2    0    0  0.78550917313E+02 -0.76030129229E+02  0.34786626140E+03  0.37310509884E+03  0.79029436276E+02 0.  0.
        -11    1    5    5    0    0  0.84682316495E+02 -0.59081605859E+02  0.20943393088E+03  0.23350439457E+03  0.00000000000E+00 0.  1.
         12    1    5    5    0    0 -0.61313991815E+01 -0.16948523371E+02  0.13843233052E+03  0.13960070428E+03  0.00000000000E+00 0. -1.
        -11    1    4    4    0    0 -0.42441181562E+02  0.12888454692E+02 -0.25178450077E+01  0.44426407690E+02  0.00000000000E+00 0.  1.
         12    1    4    4    0    0  0.33291181643E+02 -0.90035334046E+01 -0.11327751392E+02  0.36299922046E+02  0.00000000000E+00 0. -1.
          5    1    3    3  501    0  0.15521868004E+03 -0.10250187370E+03 -0.12781802986E+03  0.22574102752E+03  0.47000000000E+01 0. -1.
         -5    1    3    3    0  501 -0.20854830168E+02  0.42634416988E+01 -0.10633081263E+02  0.24253933569E+02  0.47000000000E+01 0. -1.
          1    1    1    2  502    0 -0.22894921815E+03  0.14343062241E+03  0.19760392966E+04  0.19944225705E+04  0.00000000000E+00 0. -1.
          1    1    1    2  503    0  0.25184450887E+02  0.26953017536E+02 -0.76223198400E+02  0.84679972219E+02  0.00000000000E+00 0. -1.
<mgrwt>
<rscale>  0 0.74586644E+02</rscale>
<asrwt>0</asrwt>
<pdfrwt beam="1">  1        2 0.35869959E+00 0.15081255E+03</pdfrwt>
<pdfrwt beam="2">  1        2 0.50554654E-01 0.36887962E+02</pdfrwt>
<totfact> 0.81172339E+01</totfact>
</mgrwt>
</event>
<event>
13    1  0.2742815E-008  0.1465864E+03  0.7546771E-02  0.1455637E+00
          2   -1    0    0  503    0  0.00000000000E+00  0.00000000000E+00  0.22388161987E+04  0.22388161987E+04  0.00000000000E+00 0. -1.
          2   -1    0    0  502    0 -0.00000000000E+00 -0.00000000000E+00 -0.23259745252E+04  0.23259745252E+04  0.00000000000E+00 0. -1.
         25    2    1    2    0    0 -0.36696152042E+03  0.44537951305E+03 -0.83450722071E+03  0.10222770547E+04  0.12499762847E+03 0.  0.
         24    2    1    2    0    0  0.47106601802E+03 -0.22796209032E+03 -0.36342002214E+03  0.64215222491E+03  0.80096563618E+02 0.  0.
         24    2    1    2    0    0 -0.15480202458E+02 -0.89175702119E+02  0.12608942374E+03  0.17857138067E+03  0.88302053761E+02 0.  0.
        -11    1    4    4    0    0  0.30744905759E+03 -0.10869995675E+03 -0.20637896743E+03  0.38591823202E+03  0.00000000000E+00 0.  1.
         12    1    4    4    0    0  0.16361696043E+03 -0.11926213357E+03 -0.15704105471E+03  0.25623399289E+03  0.00000000000E+00 0. -1.
        -11    1    5    5    0    0  0.27529080752E+02 -0.62577379923E+02  0.10140785543E+03  0.12230017133E+03  0.00000000000E+00 0.  1.
         12    1    5    5    0    0 -0.43009283210E+02 -0.26598322196E+02  0.24681568308E+02  0.56271209335E+02  0.00000000000E+00 0. -1.
          5    1    3    3  501    0 -0.36964134388E+03  0.42133371851E+03 -0.82122698037E+03  0.99427997503E+03  0.47000000000E+01 0.  1.
         -5    1    3    3    0  501  0.26798234627E+01  0.24045794542E+02 -0.13280240341E+02  0.27997079713E+02  0.47000000000E+01 0.  1.
          1    1    1    2  502    0 -0.73358919629E+02 -0.12412847022E+03 -0.86253732037E+03  0.87450559589E+03  0.00000000000E+00 0. -1.
          1    1    1    2  503    0 -0.15265375512E+02 -0.41132503880E+01  0.18472168129E+04  0.18472844677E+04  0.00000000000E+00 0. -1.
<mgrwt>
<rscale>  0 0.48140480E+02</rscale>
<asrwt>0</asrwt>
<pdfrwt beam="1">  1        2 0.32923768E+00 0.15809823E+02</pdfrwt>
<pdfrwt beam="2">  1        2 0.34205508E+00 0.14658644E+03</pdfrwt>
<totfact> 0.84866328E+00</totfact>
</mgrwt>
</event>
<event>
13    1  0.2742815E-008  0.2018850E+03  0.7546771E-02  0.1262032E+00
          2   -1    0    0  503    0  0.00000000000E+00  0.00000000000E+00  0.15712925542E+04  0.15712925542E+04  0.00000000000E+00 0. -1.
          2   -1    0    0  502    0 -0.00000000000E+00 -0.00000000000E+00 -0.10936637686E+04  0.10936637686E+04  0.00000000000E+00 0. -1.
         25    2    1    2    0    0  0.13757186744E+03  0.31454941502E+01 -0.31758026601E+03  0.36799427636E+03  0.12500659674E+03 0.  0.
         24    2    1    2    0    0  0.12132718276E+03 -0.11026320050E+02 -0.80205658653E+01  0.14635241484E+03  0.80702136538E+02 0.  0.
         24    2    1    2    0    0 -0.10129962745E+03  0.62244697556E+02  0.30826177890E+03  0.34854410464E+03  0.11100293533E+03 0.  0.
        -11    1    4    4    0    0  0.41190681334E+02 -0.40364264153E+02  0.11509186220E+02  0.58808225758E+02  0.00000000000E+00 0.  1.
         12    1    4    4    0    0  0.80136501431E+02  0.29337944103E+02 -0.19529752086E+02  0.87544189083E+02  0.00000000000E+00 0. -1.
        -13    1    5    5    0    0 -0.90401583839E+02  0.85886408776E+02  0.29284780964E+03  0.31829037243E+03  0.00000000000E+00 0.  1.
         14    1    5    5    0    0 -0.10898043613E+02 -0.23641711220E+02  0.15413969259E+02  0.30253732205E+02  0.00000000000E+00 0. -1.
          5    1    3    3  501    0  0.19158699773E+02  0.53579565458E+02 -0.10020006419E+03  0.11532548927E+03  0.47000000000E+01 0. -1.
         -5    1    3    3    0  501  0.11841316767E+03 -0.50434071308E+02 -0.21738020182E+03  0.25266878709E+03  0.47000000000E+01 0. -1.
          1    1    1    2  502    0  0.12219192042E+02  0.57804630818E+02 -0.64316821506E+03  0.64587617766E+03  0.00000000000E+00 0. -1.
          1    1    1    2  503    0 -0.16981861479E+03 -0.11216850247E+03  0.11381360536E+04  0.11561893493E+04  0.00000000000E+00 0. -1.
<mgrwt>
<rscale>  0 0.10921433E+03</rscale>
<asrwt>0</asrwt>
<pdfrwt beam="1">  1        2 0.23107244E+00 0.20188495E+03</pdfrwt>
<pdfrwt beam="2">  1        2 0.16083291E+00 0.59082011E+02</pdfrwt>
<totfact> 0.58279872E+01</totfact>
</mgrwt>
</event>
<event>
13    1  0.2742815E-008  0.5723161E+02  0.7546771E-02  0.1549295E+00
         -1   -1    0    0    0  501 -0.00000000000E+00  0.00000000000E+00  0.18111984431E+04  0.18111984431E+04  0.00000000000E+00 0.  1.
          2   -1    0    0  503    0  0.00000000000E+00 -0.00000000000E+00 -0.50762969466E+04  0.50762969466E+04  0.00000000000E+00 0. -1.
         25    2    1    2    0    0  0.60011943648E+02  0.61674299161E+02  0.15243190395E+03  0.21509886388E+03  0.12500753315E+03 0.  0.
         24    2    1    2    0    0 -0.11198893894E+04 -0.74543137962E+02 -0.84196342824E+02  0.11303426946E+04  0.10429122230E+03 0.  0.
         24    2    1    2    0    0  0.10634104271E+04 -0.22963340113E+02 -0.11003642842E+03  0.10723280568E+04  0.80064938252E+02 0.  0.
        -11    1    4    4    0    0 -0.71155355994E+03 -0.39723553158E+01 -0.78839195426E+02  0.71591889695E+03  0.00000000000E+00 0.  1.
         12    1    4    4    0    0 -0.40833582947E+03 -0.70570782646E+02 -0.53571473977E+01  0.41442379761E+03  0.00000000000E+00 0. -1.
        -11    1    5    5    0    0  0.51663345339E+03  0.23156526666E+02 -0.32681583204E+02  0.51818378571E+03  0.00000000000E+00 0.  1.
         12    1    5    5    0    0  0.54677697369E+03 -0.46119866779E+02 -0.77354845221E+02  0.55414427106E+03  0.00000000000E+00 0. -1.
          5    1    3    3  502    0  0.64717944052E+02 -0.11957399688E+02  0.30927878076E+02  0.72869852010E+02  0.47000000000E+01 0.  1.
         -5    1    3    3    0  502 -0.47060004038E+01  0.73631698848E+02  0.12150402587E+03  0.14222901187E+03  0.47000000000E+01 0.  1.
          1    1    1    2  503    0 -0.33054751697E+01  0.57139891195E+02 -0.38461165711E+04  0.38465424178E+04  0.00000000000E+00 0. -1.
         -2    1    1    2    0  501 -0.22750614178E+00 -0.21307712281E+02  0.62281893495E+03  0.62318335672E+03  0.00000000000E+00 0.  1.
<mgrwt>
<rscale>  0 0.34921973E+02</rscale>
<asrwt>0</asrwt>
<pdfrwt beam="2">  1        2 0.74651424E+00 0.57231611E+02</pdfrwt>
<pdfrwt beam="1">  1       -1 0.26635272E+00 0.21308927E+02</pdfrwt>
<totfact> 0.11118603E-02</totfact>
</mgrwt>
</event>
<event>
13    1  0.2742815E-008  0.1239343E+03  0.7546771E-02  0.1437034E+00
          2   -1    0    0  503    0  0.00000000000E+00  0.00000000000E+00  0.11057022181E+04  0.11057022181E+04  0.00000000000E+00 0. -1.
          2   -1    0    0  502    0 -0.00000000000E+00 -0.00000000000E+00 -0.18659345533E+04  0.18659345533E+04  0.00000000000E+00 0. -1.
         25    2    1    2    0    0  0.73314822160E+01  0.10869658943E+03 -0.48346173028E+03  0.51110576279E+03  0.12500062770E+03 0.  0.
         24    2    1    2    0    0 -0.32315342344E+02  0.72930613849E+01  0.17611468227E+02  0.88983310055E+02  0.80687022253E+02 0.  0.
         24    2    1    2    0    0  0.69447932054E+02  0.80227491268E+02  0.11534299300E+03  0.17582069279E+03  0.79683400759E+02 0.  0.
        -11    1    4    4    0    0 -0.50388200155E+02  0.28187240642E+02  0.32017887666E+01  0.57825104420E+02  0.00000000000E+00 0.  1.
         12    1    4    4    0    0  0.18072857811E+02 -0.20894179257E+02  0.14409679460E+02  0.31158205635E+02  0.00000000000E+00 0. -1.
        -13    1    5    5    0    0  0.82770963324E+02  0.80576447361E+02  0.87369267453E+02  0.14483433686E+03  0.00000000000E+00 0.  1.
         14    1    5    5    0    0 -0.13323031270E+02 -0.34895609316E+00  0.27973725549E+02  0.30986355927E+02  0.00000000000E+00 0. -1.
          5    1    3    3  501    0  0.19671134291E+02 -0.47211267446E+01 -0.82146610211E+01  0.22334126751E+02  0.47000000000E+01 0. -1.
         -5    1    3    3    0  501 -0.12339652075E+02  0.11341771618E+03 -0.47524706926E+03  0.48877163604E+03  0.47000000000E+01 0. -1.
          1    1    1    2  502    0  0.20819901739E+02 -0.52090045967E+01 -0.12912286518E+04  0.12914069975E+04  0.00000000000E+00 0. -1.
          1    1    1    2  503    0 -0.65283973664E+02 -0.19100813749E+03  0.88150358563E+03  0.90432000823E+03  0.00000000000E+00 0. -1.
<mgrwt>
<rscale>  0 0.51573574E+02</rscale>
<asrwt>0</asrwt>
<pdfrwt beam="1">  1        2 0.16260327E+00 0.12393431E+03</pdfrwt>
<pdfrwt beam="2">  1        2 0.27440214E+00 0.21461641E+02</pdfrwt>
<totfact> 0.49367055E+01</totfact>
</mgrwt>
</event>
<event>
13    1  0.2742815E-008  0.2896616E+02  0.7546771E-02  0.1646113E+00
          2   -1    0    0  502    0  0.00000000000E+00  0.00000000000E+00  0.19484126773E+04  0.19484126773E+04  0.00000000000E+00 0. -1.
          4   -1    0    0  503    0 -0.00000000000E+00 -0.00000000000E+00 -0.16938985095E+04  0.16938985095E+04  0.00000000000E+00 0. -1.
         25    2    1    2    0    0  0.10209478884E+02 -0.18554940358E+01 -0.12150580958E+03  0.17462913073E+03  0.12499598082E+03 0.  0.
         24    2    1    2    0    0 -0.26329251508E+02  0.32341716461E+02 -0.44332966700E+02  0.10077811012E+03  0.80321849049E+02 0.  0.
         24    2    1    2    0    0  0.13106306989E+02 -0.35964705676E+02  0.14214621231E+03  0.16767116033E+03  0.80267284714E+02 0.  0.
        -11    1    4    4    0    0 -0.63258454237E+01 -0.12700037940E+02 -0.49246796954E+02  0.51249919944E+02  0.00000000000E+00 0.  1.
         12    1    4    4    0    0 -0.20003406085E+02  0.45041754401E+02  0.49138302546E+01  0.49528190178E+02  0.00000000000E+00 0. -1.
        -11    1    5    5    0    0 -0.34363591036E+01 -0.58489890437E+02  0.11302743338E+03  0.12731094432E+03  0.00000000000E+00 0.  1.
         12    1    5    5    0    0  0.16542666093E+02  0.22525184761E+02  0.29118778922E+02  0.40360216004E+02  0.00000000000E+00 0. -1.
          5    1    3    3  501    0 -0.40426847810E+01  0.14324661336E+02  0.23358482021E+02  0.28093556289E+02  0.47000000000E+01 0.  1.
         -5    1    3    3    0  501  0.14252163665E+02 -0.16180155372E+02 -0.14486429160E+03  0.14653557444E+03  0.47000000000E+01 0.  1.
          1    1    1    2  502    0  0.23388052275E+02  0.17109522651E+02  0.17385047894E+04  0.17387462838E+04  0.00000000000E+00 0. -1.
          3    1    1    2  503    0 -0.20374586640E+02 -0.11631039400E+02 -0.14602980576E+04  0.14604865018E+04  0.00000000000E+00 0. -1.
<mgrwt>
<rscale>  0 0.26068498E+02</rscale>
<asrwt>0</asrwt>
<pdfrwt beam="1">  1        2 0.28653128E+00 0.28966157E+02</pdfrwt>
<pdfrwt beam="2">  1        4 0.24910272E+00 0.23460709E+02</pdfrwt>
<totfact> 0.45820614E-01</totfact>
</mgrwt>
</event>
<event>
13    1  0.2742815E-008  0.6941184E+02  0.7546771E-02  0.1456551E+00
          2   -1    0    0  502    0  0.00000000000E+00  0.00000000000E+00  0.34980051728E+04  0.34980051728E+04  0.00000000000E+00 0. -1.
          2   -1    0    0  503    0 -0.00000000000E+00 -0.00000000000E+00 -0.34142471654E+04  0.34142471654E+04  0.00000000000E+00 0. -1.
         25    2    1    2    0    0 -0.14845913288E+02 -0.28746617285E+03 -0.19221929503E+03  0.36800741344E+03  0.12499598908E+03 0.  0.
         24    2    1    2    0    0  0.48478182263E+03  0.97938727779E+02 -0.39080261978E+03  0.63514744784E+03  0.77975527684E+02 0.  0.
         24    2    1    2    0    0 -0.46832131381E+03  0.87189698423E+02  0.66888318676E+03  0.82425457630E+03  0.71161735086E+02 0.  0.
        -11    1    4    4    0    0  0.35449447751E+03  0.44916133079E+02 -0.24984956149E+03  0.43601444583E+03  0.00000000000E+00 0.  1.
         12    1    4    4    0    0  0.13028734512E+03  0.53022594700E+02 -0.14095305829E+03  0.19913300201E+03  0.00000000000E+00 0. -1.
        -13    1    5    5    0    0 -0.40817787488E+03  0.56760809880E+02  0.54558169314E+03  0.68373266045E+03  0.00000000000E+00 0.  1.
         14    1    5    5    0    0 -0.60143438930E+02  0.30428888542E+02  0.12330149363E+03  0.14052191585E+03  0.00000000000E+00 0. -1.
          5    1    3    3  501    0 -0.46172683459E+02 -0.32574985162E+02 -0.40663194770E+02  0.69775581438E+02  0.47000000000E+01 0. -1.
         -5    1    3    3    0  501  0.31326770171E+02 -0.25489118769E+03 -0.15155610026E+03  0.29823183200E+03  0.47000000000E+01 0. -1.
          1    1    1    2  502    0  0.25517893464E+01  0.33067338768E+02  0.25407882285E+04  0.25410046798E+04  0.00000000000E+00 0. -1.
          1    1    1    2  503    0 -0.41663848767E+01  0.69270407883E+02 -0.25428914931E+04  0.25438382209E+04  0.00000000000E+00 0. -1.
<mgrwt>
<rscale>  0 0.47980090E+02</rscale>
<asrwt>0</asrwt>
<pdfrwt beam="1">  1        2 0.51441252E+00 0.33165653E+02</pdfrwt>
<pdfrwt beam="2">  1        2 0.50209517E+00 0.69411841E+02</pdfrwt>
<totfact> 0.53598758E-01</totfact>
</mgrwt>
</event>
<event>
13    1  0.2742815E-008  0.9639718E+02  0.7546771E-02  0.1291609E+00
         -3   -1    0    0    0  501 -0.00000000000E+00  0.00000000000E+00  0.27056963791E+03  0.27056963791E+03  0.00000000000E+00 0.  1.
          2   -1    0    0  503    0  0.00000000000E+00 -0.00000000000E+00 -0.12503912021E+04  0.12503912021E+04  0.00000000000E+00 0. -1.
         25    2    1    2    0    0 -0.51052430162E+02 -0.72570070879E+02 -0.12218246225E+03  0.19602943225E+03  0.12500487356E+03 0.  0.
         24    2    1    2    0    0  0.14690929430E+02  0.27242256913E+02 -0.17874560386E+02  0.67419261431E+02  0.57165487260E+02 0.  0.
         24    2    1    2    0    0  0.66189926815E+02 -0.26134073509E+02 -0.32575502868E+03  0.34082219416E+03  0.70564389819E+02 0.  0.
        -13    1    4    4    0    0  0.15608510601E+02  0.43769250802E+02 -0.20264085617E+02  0.50695227437E+02  0.00000000000E+00 0.  1.
         14    1    4    4    0    0 -0.91758117157E+00 -0.16526993889E+02  0.23895252305E+01  0.16724033995E+02  0.00000000000E+00 0. -1.
        -13    1    5    5    0    0  0.31831608066E+02 -0.42619220700E+02 -0.11575704479E+03  0.12739443734E+03  0.00000000000E+00 0.  1.
         14    1    5    5    0    0  0.34358318749E+02  0.16485147191E+02 -0.20999798389E+03  0.21342775682E+03  0.00000000000E+00 0. -1.
          5    1    3    3  502    0  0.23227861303E+02 -0.65168008305E+02 -0.25705067747E+02  0.73954332902E+02  0.47000000000E+01 0.  1.
         -5    1    3    3    0  502 -0.74280291466E+02 -0.74020625741E+01 -0.96477394498E+02  0.12207509934E+03  0.47000000000E+01 0.  1.
          1    1    1    2  503    0 -0.86840297809E+02 -0.42635446961E+02 -0.69143830300E+03  0.69817329189E+03  0.00000000000E+00 0. -1.
         -4    1    1    2    0  501  0.57011871726E+02  0.11409733444E+03  0.17742879013E+03  0.21851666026E+03  0.00000000000E+00 0.  1.
<mgrwt>
<rscale>  0 0.94808089E+02</rscale>
<asrwt>0</asrwt>
<pdfrwt beam="2">  1        2 0.18388106E+00 0.96397180E+02</pdfrwt>
<pdfrwt beam="1">  1       -3 0.39789653E-01 0.93245194E+02</pdfrwt>
<totfact> 0.79869930E+01</totfact>
</mgrwt>
</event>
<event>
13    1  0.2742815E-008  0.1028203E+03  0.7546771E-02  0.1283247E+00
          2   -1    0    0  503    0  0.00000000000E+00  0.00000000000E+00  0.21988778173E+04  0.21988778173E+04  0.00000000000E+00 0. -1.
          2   -1    0    0  502    0 -0.00000000000E+00 -0.00000000000E+00 -0.36268849858E+04  0.36268849858E+04  0.00000000000E+00 0. -1.
         25    2    1    2    0    0  0.13057015309E+03  0.49856720070E+01 -0.28884227980E+03  0.34077599567E+03  0.12499997928E+03 0.  0.
         24    2    1    2    0    0 -0.85298358779E+01  0.30708484148E+01 -0.91061401230E+01  0.82805176613E+02  0.81802122685E+02 0.  0.
         24    2    1    2    0    0  0.64887320727E+02  0.24190322965E+02  0.67729656308E+03  0.68554889491E+03  0.80318844793E+02 0.  0.
        -13    1    5    5    0    0  0.13866499746E+02  0.45072834032E+02  0.40434836502E+03  0.40708898349E+03  0.00000000000E+00 0.  1.
         14    1    5    5    0    0  0.51020820981E+02 -0.20882511067E+02  0.27294819806E+03  0.27845991142E+03  0.00000000000E+00 0. -1.
        -13    1    4    4    0    0 -0.25332236441E+02  0.25060134029E+02  0.21440906102E+02  0.41586596099E+02  0.00000000000E+00 0.  1.
         14    1    4    4    0    0  0.16802400563E+02 -0.21989285614E+02 -0.30547046225E+02  0.41218580514E+02  0.00000000000E+00 0. -1.
          5    1    3    3  501    0 -0.23169650361E+02  0.37081667936E+01 -0.20666568596E+02  0.31619301959E+02  0.47000000000E+01 0. -1.
         -5    1    3    3    0  501  0.15373980346E+03  0.12775052134E+01 -0.26817571120E+03  0.30915669371E+03  0.47000000000E+01 0. -1.
          1    1    1    2  502    0 -0.88300053048E+02 -0.52675229451E+02 -0.32594388979E+04  0.32610601816E+04  0.00000000000E+00 0. -1.
          1    1    1    2  503    0 -0.98627584896E+02  0.20428386064E+02  0.14520835862E+04  0.14555725543E+04  0.00000000000E+00 0. -1.
<mgrwt>
<rscale>  0 0.98609909E+02</rscale>
<asrwt>0</asrwt>
<pdfrwt beam="1">  1        2 0.32336439E+00 0.94571892E+02</pdfrwt>
<pdfrwt beam="2">  1        2 0.53336543E+00 0.10282034E+03</pdfrwt>
<totfact> 0.14621043E+00</totfact>
</mgrwt>
</event>
<event>
13    1  0.2742815E-008  0.1438567E+03  0.7546771E-02  0.1304221E+00
          2   -1    0    0  502    0  0.00000000000E+00  0.00000000000E+00  0.26147113656E+04  0.26147113656E+04  0.00000000000E+00 0. -1.
          2   -1    0    0  503    0 -0.00000000000E+00 -0.00000000000E+00 -0.15115311705E+04  0.15115311705E+04  0.00000000000E+00 0. -1.
         25    2    1    2    0    0 -0.18024903601E+03  0.84378753702E+02  0.10988195602E+04  0.11236721831E+04  0.12500104036E+03 0.  0.
         24    2    1    2    0    0 -0.10718239234E+02 -0.13803861046E+03  0.23850748315E+03  0.28838368642E+03  0.84319585166E+02 0.  0.
         24    2    1    2    0    0  0.17455670548E+02  0.13334536532E+03  0.83707920765E+03  0.85162241268E+03  0.80457734366E+02 0.  0.
        -11    1    5    5    0    0  0.43420022700E+02  0.38017898649E+02  0.32977649296E+03  0.33478828280E+03  0.00000000000E+00 0.  1.
         12    1    5    5    0    0 -0.25964352152E+02  0.95327466670E+02  0.50730271469E+03  0.51683412989E+03  0.00000000000E+00 0. -1.
        -13    1    4    4    0    0 -0.23146058733E+02 -0.57914861317E+01  0.69143999573E+02  0.73144883781E+02  0.00000000000E+00 0.  1.
         14    1    4    4    0    0  0.12427819499E+02 -0.13224712432E+03  0.16936348358E+03  0.21523880263E+03  0.00000000000E+00 0. -1.
          5    1    3    3  501    0 -0.26902407447E+02  0.30937653837E+02  0.63819257540E+02  0.75999115681E+02  0.47000000000E+01 0.  1.
         -5    1    3    3    0  501 -0.15334662856E+03  0.53441099865E+02  0.10350003027E+04  0.10476730674E+04  0.47000000000E+01 0.  1.
          1    1    1    2  502    0  0.34280297106E+02 -0.43779449571E+02  0.39016973731E+03  0.39411191671E+03  0.00000000000E+00 0. -1.
          1    1    1    2  503    0  0.13923130759E+03 -0.35906058993E+02 -0.14613957933E+04  0.14684523372E+04  0.00000000000E+00 0. -1.
<mgrwt>
<rscale>  0 0.89436991E+02</rscale>
<asrwt>0</asrwt>
<pdfrwt beam="1">  1        2 0.38451638E+00 0.55603768E+02</pdfrwt>
<pdfrwt beam="2">  1        2 0.22228400E+00 0.14385671E+03</pdfrwt>
<totfact> 0.11906762E+01</totfact>
</mgrwt>
</event>
<event>
13    1  0.2742815E-008  0.1394210E+03  0.7546771E-02  0.1244729E+00
          2   -1    0    0  503    0  0.00000000000E+00  0.00000000000E+00  0.25342200982E+04  0.25342200982E+04  0.00000000000E+00 0. -1.
          2   -1    0    0  502    0 -0.00000000000E+00 -0.00000000000E+00 -0.57033575778E+03  0.57033575778E+03  0.00000000000E+00 0. -1.
         25    2    1    2    0    0 -0.75771848909E+02 -0.23316304579E+03 -0.38963834296E+01  0.27521981377E+03  0.12499754028E+03 0.  0.
         24    2    1    2    0    0  0.60195186469E+02  0.50957198542E+01  0.90539632594E+02  0.13144453749E+03  0.73694060354E+02 0.  0.
         24    2    1    2    0    0 -0.53415331276E+02  0.24737222508E+02  0.42575424053E+03  0.43831333284E+03  0.85946358974E+02 0.  0.
        -13    1    5    5    0    0 -0.43127651680E+02  0.18797426555E+02  0.42364376826E+03  0.42624802635E+03  0.00000000000E+00 0.  1.
         14    1    5    5    0    0 -0.10287679597E+02  0.59397959527E+01  0.21104722746E+01  0.12065306489E+02  0.00000000000E+00 0. -1.
        -13    1    4    4    0    0  0.17026719105E+02  0.35389958303E+02  0.56016271222E+02  0.68411848051E+02  0.00000000000E+00 0.  1.
         14    1    4    4    0    0  0.43168467365E+02 -0.30294238449E+02  0.34523361372E+02  0.63032689442E+02  0.00000000000E+00 0. -1.
          5    1    3    3  501    0 -0.91751194842E+02 -0.15319657534E+03  0.39173895034E+02  0.18287743574E+03  0.47000000000E+01 0.  1.
         -5    1    3    3    0  501  0.15979345933E+02 -0.79966470453E+02 -0.43070278463E+02  0.92342378029E+02  0.47000000000E+01 0.  1.
          1    1    1    2  502    0  0.13077963465E+03  0.77162700777E+01 -0.38757127597E+03  0.40911410098E+03  0.00000000000E+00 0. -1.
          1    1    1    2  503    0 -0.61787640937E+02  0.19561383335E+03  0.18390581267E+04  0.18504640709E+04  0.00000000000E+00 0. -1.
<mgrwt>
<rscale>  0 0.11901637E+03</rscale>
<asrwt>0</asrwt>
<pdfrwt beam="1">  1        2 0.37267942E+00 0.13942098E+03</pdfrwt>
<pdfrwt beam="2">  1        2 0.83872906E-01 0.10159802E+03</pdfrwt>
<totfact> 0.43028893E+01</totfact>
</mgrwt>
</event>
<event>
13    1  0.2742815E-008  0.9931863E+02  0.7546771E-02  0.1283098E+00
          2   -1    0    0  502    0  0.00000000000E+00  0.00000000000E+00  0.19189628280E+04  0.19189628280E+04  0.00000000000E+00 0. -1.
          4   -1    0    0  503    0 -0.00000000000E+00 -0.00000000000E+00 -0.34613319937E+03  0.34613319937E+03  0.00000000000E+00 0. -1.
         25    2    1    2    0    0  0.10839064823E+02  0.80434302139E+02  0.21780117779E+03  0.26392032534E+03  0.12501768993E+03 0.  0.
         24    2    1    2    0    0 -0.11634381906E+03 -0.10694619482E+03  0.41784849936E+02  0.18213961342E+03  0.80346078131E+02 0.  0.
         24    2    1    2    0    0  0.97551524219E+02  0.37701482647E+02  0.40231140925E+03  0.42331626030E+03  0.80028023527E+02 0.  0.
        -13    1    4    4    0    0 -0.66892481861E+02 -0.23358035288E+02  0.46758942478E+02  0.84891699498E+02  0.00000000000E+00 0.  1.
         14    1    4    4    0    0 -0.49451337200E+02 -0.83588159531E+02 -0.49740925422E+01  0.97247913917E+02  0.00000000000E+00 0. -1.
        -13    1    5    5    0    0  0.44574972170E+02  0.59548569720E+02  0.22630310004E+03  0.23821430139E+03  0.00000000000E+00 0.  1.
         14    1    5    5    0    0  0.52976552048E+02 -0.21847087073E+02  0.17600830921E+03  0.18510195891E+03  0.00000000000E+00 0. -1.
          5    1    3    3  501    0 -0.36723435743E+02  0.71040701756E+02  0.19362351723E+03  0.20954128105E+03  0.47000000000E+01 0.  1.
         -5    1    3    3    0  501  0.47562500566E+02  0.93936003827E+01  0.24177660560E+02  0.54379044295E+02  0.47000000000E+01 0.  1.
          1    1    1    2  502    0  0.72427443950E+02  0.66082169757E+02  0.11406860617E+04  0.11448918198E+04  0.00000000000E+00 0. -1.
          3    1    1    2  503    0 -0.64474213931E+02 -0.77271759724E+02 -0.22975386996E+03  0.25082800855E+03  0.00000000000E+00 0. -1.
<mgrwt>
<rscale>  0 0.98679158E+02</rscale>
<asrwt>0</asrwt>
<pdfrwt beam="1">  1        2 0.28220041E+00 0.98043805E+02</pdfrwt>
<pdfrwt beam="2">  1        4 0.50901942E-01 0.99318628E+02</pdfrwt>
<totfact> 0.18872138E+01</totfact>
</mgrwt>
</event>
<event>
13    1  0.2742815E-008  0.1083616E+03  0.7546771E-02  0.1277287E+00
         -1   -1    0    0    0  501 -0.00000000000E+00  0.00000000000E+00  0.65836718992E+03  0.65836718992E+03  0.00000000000E+00 0.  1.
          2   -1    0    0  503    0  0.00000000000E+00 -0.00000000000E+00 -0.31031911867E+04  0.31031911867E+04  0.00000000000E+00 0. -1.
         25    2    1    2    0    0  0.16850102157E+03 -0.33974977454E+03 -0.15639790437E+03  0.42884346891E+03  0.12499565098E+03 0.  0.
         24    2    1    2    0    0 -0.79240060284E+02  0.18182360481E+03 -0.83550273416E+03  0.86227216427E+03  0.78164288854E+02 0.  0.
         24    2    1    2    0    0 -0.15275687804E+02  0.27560932640E+02 -0.19861033487E+03  0.21626533646E+03  0.79571847994E+02 0.  0.
        -11    1    4    4    0    0  0.19906753703E+01  0.72002798270E+01 -0.15118824209E+03  0.15137269028E+03  0.00000000000E+00 0.  1.
         12    1    4    4    0    0 -0.81230735654E+02  0.17462332498E+03 -0.68431449208E+03  0.71089947398E+03  0.00000000000E+00 0. -1.
        -13    1    5    5    0    0  0.22387032699E+02  0.83829047830E+01 -0.14981844132E+03  0.15171360415E+03  0.00000000000E+00 0.  1.
         14    1    5    5    0    0 -0.37662720503E+02  0.19178027857E+02 -0.48791893547E+02  0.64551732309E+02  0.00000000000E+00 0. -1.
          5    1    3    3  502    0 -0.14392260871E+02 -0.10969237465E+02  0.51195988462E+01  0.19384572110E+02  0.47000000000E+01 0. -1.
         -5    1    3    3    0  502  0.18289328245E+03 -0.32878053708E+03 -0.16151750322E+03  0.40945889680E+03  0.47000000000E+01 0. -1.
          1    1    1    2  503    0 -0.88360401336E+02  0.23151000537E+02 -0.17471866182E+04  0.17495726930E+04  0.00000000000E+00 0. -1.
         -2    1    1    2    0  501  0.14375127849E+02  0.10721423656E+03  0.49287359485E+03  0.50460471393E+03  0.00000000000E+00 0.  1.
<mgrwt>
<rscale>  0 0.10144490E+03</rscale>
<asrwt>0</asrwt>
<pdfrwt beam="2">  1        2 0.45635165E+00 0.94969658E+02</pdfrwt>
<pdfrwt beam="1">  1       -1 0.96818703E-01 0.10836163E+03</pdfrwt>
<totfact> 0.33309225E+00</totfact>
</mgrwt>
</event>
<event>
13    1  0.2742815E-008  0.4390571E+02  0.7546771E-02  0.1521540E+00
          2   -1    0    0  503    0  0.00000000000E+00  0.00000000000E+00  0.18990075059E+04  0.18990075059E+04  0.00000000000E+00 0. -1.
          2   -1    0    0  502    0 -0.00000000000E+00 -0.00000000000E+00 -0.18332780439E+04  0.18332780439E+04  0.00000000000E+00 0. -1.
         25    2    1    2    0    0  0.18919839190E+03  0.41910906910E+02 -0.51439549936E+03  0.56372170671E+03  0.12500750873E+03 0.  0.
         24    2    1    2    0    0 -0.47791997819E+03  0.41091529794E+03 -0.38515797401E+02  0.63974611876E+03  0.10262914884E+03 0.  0.
         24    2    1    2    0    0  0.33738378100E+03 -0.48363150013E+03  0.77938950106E+03  0.98064516796E+03  0.80558720728E+02 0.  0.
        -13    1    5    5    0    0  0.24810166378E+03 -0.28814216824E+03  0.49500469382E+03  0.62418746510E+03  0.00000000000E+00 0.  1.
         14    1    5    5    0    0  0.89282117219E+02 -0.19548933189E+03  0.28438480724E+03  0.35645770286E+03  0.00000000000E+00 0. -1.
        -13    1    4    4    0    0 -0.16665942997E+03  0.19569478303E+03 -0.46618664774E+02  0.26123765733E+03  0.00000000000E+00 0.  1.
         14    1    4    4    0    0 -0.31126054822E+03  0.21522051490E+03  0.81028673724E+01  0.37850846143E+03  0.00000000000E+00 0. -1.
          5    1    3    3  501    0  0.19290978110E+03  0.45021978251E+02 -0.37473339372E+03  0.42389664841E+03  0.47000000000E+01 0.  1.
         -5    1    3    3    0  501 -0.37113892036E+01 -0.31110713412E+01 -0.13966210565E+03  0.13982505830E+03  0.47000000000E+01 0.  1.
          1    1    1    2  502    0 -0.48118790602E+01  0.32964440438E+02 -0.85344071207E+03  0.85409066119E+03  0.00000000000E+00 0. -1.
          1    1    1    2  503    0 -0.43850315649E+02 -0.21591451527E+01  0.69269196984E+03  0.69408189515E+03  0.00000000000E+00 0. -1.
<mgrwt>
<rscale>  0 0.38244809E+02</rscale>
<asrwt>0</asrwt>
<pdfrwt beam="1">  1        2 0.27926581E+00 0.43905707E+02</pdfrwt>
<pdfrwt beam="2">  1        2 0.26959971E+00 0.33313789E+02</pdfrwt>
<totfact> 0.21413217E+01</totfact>
</mgrwt>
</event>
<event>
13    1  0.2742815E-008  0.8786530E+02  0.7546771E-02  0.1464703E+00
         -1   -1    0    0    0  501 -0.00000000000E+00  0.00000000000E+00  0.36656445561E+03  0.36656445561E+03  0.00000000000E+00 0.  1.
          2   -1    0    0  503    0  0.00000000000E+00 -0.00000000000E+00 -0.23363860994E+04  0.23363860994E+04  0.00000000000E+00 0. -1.
         25    2    1    2    0    0 -0.65443970758E+02 -0.26526945975E+03  0.64390561827E+02  0.30728574828E+03  0.12501034781E+03 0.  0.
         24    2    1    2    0    0  0.20710506142E+03  0.13458751696E+03 -0.40319376275E+03  0.47976508273E+03  0.81258957049E+02 0.  0.
         24    2    1    2    0    0 -0.72432831092E+02  0.43420901317E+02 -0.38385535822E+03  0.40029613648E+03  0.75895791399E+02 0.  0.
        -11    1    4    4    0    0  0.14245533430E+02 -0.92670726344E+01 -0.13173943180E+02  0.21502712313E+02  0.00000000000E+00 0.  1.
         12    1    4    4    0    0  0.19285952799E+03  0.14385458959E+03 -0.39001981957E+03  0.45826237042E+03  0.00000000000E+00 0. -1.
        -13    1    5    5    0    0 -0.82651783696E+02  0.31644548489E+02 -0.36619414613E+03  0.37673710656E+03  0.00000000000E+00 0.  1.
         14    1    5    5    0    0  0.10218952604E+02  0.11776352828E+02 -0.17661212093E+02  0.23559029922E+02  0.00000000000E+00 0. -1.
          5    1    3    3  502    0 -0.13759749608E+02 -0.11904722973E+03  0.90107435661E+02  0.15001004492E+03  0.47000000000E+01 0.  1.
         -5    1    3    3    0  502 -0.51684221150E+02 -0.14622223002E+03 -0.25716873834E+02  0.15727570336E+03  0.47000000000E+01 0.  1.
          1    1    1    2  503    0 -0.49470024752E+02  0.72446858469E+02 -0.13788415722E+04  0.13816294409E+04  0.00000000000E+00 0. -1.
         -2    1    1    2    0  501 -0.19758234816E+02  0.14814183006E+02  0.13167848760E+03  0.13397414660E+03  0.00000000000E+00 0.  1.
<mgrwt>
<rscale>  0 0.46581566E+02</rscale>
<asrwt>0</asrwt>
<pdfrwt beam="2">  1        2 0.34358620E+00 0.87865303E+02</pdfrwt>
<pdfrwt beam="1">  1       -1 0.53906537E-01 0.24695098E+02</pdfrwt>
<totfact> 0.26739073E+01</totfact>
</mgrwt>
</event>
<event>
13    1  0.2742815E-008  0.6672045E+02  0.7546771E-02  0.1603507E+00
          2   -1    0    0  502    0  0.00000000000E+00  0.00000000000E+00  0.57723146933E+03  0.57723146933E+03  0.00000000000E+00 0. -1.
          2   -1    0    0  503    0 -0.00000000000E+00 -0.00000000000E+00 -0.42026570643E+03  0.42026570643E+03  0.00000000000E+00 0. -1.
         25    2    1    2    0    0  0.84947823646E+01  0.48426238415E+02 -0.83972876698E+02  0.15840915869E+03  0.12499902257E+03 0.  0.
         24    2    1    2    0    0  0.41178148208E+02 -0.23095063055E+02  0.61694451546E+02  0.11208121028E+03  0.80789668398E+02 0.  0.
         24    2    1    2    0    0  0.20365247764E+01  0.16419510799E+02  0.85607471776E+02  0.12013553583E+03  0.82644781919E+02 0.  0.
        -11    1    5    5    0    0 -0.21605045780E+02  0.40228223183E+02  0.68888601284E+02  0.82648214321E+02  0.00000000000E+00 0.  1.
         12    1    5    5    0    0  0.23641570556E+02 -0.23808712384E+02  0.16718870492E+02  0.37487321514E+02  0.00000000000E+00 0. -1.
        -11    1    4    4    0    0  0.44974596090E+02 -0.44309423248E+02  0.64607728196E+02  0.90333813296E+02  0.00000000000E+00 0.  1.
         12    1    4    4    0    0 -0.37964478815E+01  0.21214360193E+02 -0.29132766501E+01  0.21747396988E+02  0.00000000000E+00 0. -1.
          5    1    3    3  501    0  0.23318624848E+02  0.87820315423E+02 -0.48160098903E+02  0.10294489396E+03  0.47000000000E+01 0. -1.
         -5    1    3    3    0  501 -0.14823842483E+02 -0.39394077007E+02 -0.35812777795E+02  0.55464264735E+02  0.47000000000E+01 0. -1.
          1    1    1    2  502    0 -0.89512376263E+01  0.95056991993E+01  0.34578810493E+03  0.34603453077E+03  0.00000000000E+00 0. -1.
          1    1    1    2  503    0 -0.42758217723E+02 -0.51256385359E+02 -0.25215138865E+03  0.26083674017E+03  0.00000000000E+00 0. -1.
<mgrwt>
<rscale>  0 0.29515473E+02</rscale>
<asrwt>0</asrwt>
<pdfrwt beam="1">  1        2 0.84886980E-01 0.13056913E+02</pdfrwt>
<pdfrwt beam="2">  1        2 0.61803781E-01 0.66720455E+02</pdfrwt>
<totfact> 0.72582752E+02</totfact>
</mgrwt>
</event>
<event>
13    1  0.2742815E-008  0.1092993E+03  0.7546771E-02  0.1563635E+00
          2   -1    0    0  502    0  0.00000000000E+00  0.00000000000E+00  0.21153208664E+04  0.21153208664E+04  0.00000000000E+00 0. -1.
          2   -1    0    0  503    0 -0.00000000000E+00 -0.00000000000E+00 -0.40270323479E+03  0.40270323479E+03  0.00000000000E+00 0. -1.
         25    2    1    2    0    0  0.93569073658E+02  0.32010562023E+02 -0.86246292611E+02  0.18122711494E+03  0.12499998629E+03 0.  0.
         24    2    1    2    0    0  0.44228297124E+02  0.67729582255E+02  0.11659410198E+03  0.16332306647E+03  0.80850484503E+02 0.  0.
         24    2    1    2    0    0 -0.22101628038E+03 -0.38961250396E+02  0.95291758495E+03  0.98222964557E+03  0.79730657167E+02 0.  0.
        -11    1    5    5    0    0  0.38059478441E+01  0.21161481066E+01  0.72550765413E+02  0.72681337933E+02  0.00000000000E+00 0.  1.
         12    1    5    5    0    0 -0.22482222823E+03 -0.41077398503E+02  0.88036681954E+03  0.90954830764E+03  0.00000000000E+00 0. -1.
        -13    1    4    4    0    0 -0.27974971451E+01 -0.17001638465E+02  0.21499795185E+02  0.27552184918E+02  0.00000000000E+00 0.  1.
         14    1    4    4    0    0  0.47025794269E+02  0.84731220720E+02  0.95094306796E+02  0.13577088155E+03  0.00000000000E+00 0. -1.
          5    1    3    3  501    0  0.12581925025E+02 -0.38659983724E+02 -0.56197716195E+02  0.69521021888E+02  0.47000000000E+01 0. -1.
         -5    1    3    3    0  501  0.80987148633E+02  0.70670545747E+02 -0.30048576417E+02  0.11170609305E+03  0.47000000000E+01 0. -1.
          1    1    1    2  502    0 -0.97033835849E+01 -0.30916438602E+01  0.94732003593E+03  0.94737477504E+03  0.00000000000E+00 0. -1.
          1    1    1    2  503    0  0.92922293187E+02 -0.57687250021E+02 -0.21796779864E+03  0.24386949918E+03  0.00000000000E+00 0. -1.
<mgrwt>
<rscale>  0 0.33363224E+02</rscale>
<asrwt>0</asrwt>
<pdfrwt beam="1">  1        2 0.31107659E+00 0.10184003E+02</pdfrwt>
<pdfrwt beam="2">  1        2 0.59221065E-01 0.10929933E+03</pdfrwt>
<totfact> 0.14022772E+02</totfact>
</mgrwt>
</event>
<event>
13    1  0.2742815E-008  0.2006767E+03  0.7546771E-02  0.1276504E+00
          2   -1    0    0  503    0  0.00000000000E+00  0.00000000000E+00  0.18296217431E+04  0.18296217431E+04  0.00000000000E+00 0. -1.
          2   -1    0    0  502    0 -0.00000000000E+00 -0.00000000000E+00 -0.22981515097E+04  0.22981515097E+04  0.00000000000E+00 0. -1.
         25    2    1    2    0    0  0.76187429933E+02  0.15666660084E+03 -0.48621507079E+03  0.53138955113E+03  0.12498324563E+03 0.  0.
         24    2    1    2    0    0  0.60781293322E+02  0.13795143833E+03  0.12815816413E+03  0.21428632128E+03  0.82274829071E+02 0.  0.
         24    2    1    2    0    0 -0.19061939556E+03 -0.31477333487E+02  0.47311721965E+03  0.51737973030E+03  0.80717441223E+02 0.  0.
        -11    1    4    4    0    0  0.78096515663E+02  0.11998737584E+03  0.91374926734E+02  0.16983937516E+03  0.00000000000E+00 0.  1.
         12    1    4    4    0    0 -0.17315222341E+02  0.17964062495E+02  0.36783237399E+02  0.44446946122E+02  0.00000000000E+00 0. -1.
        -11    1    5    5    0    0 -0.10668045568E+03 -0.43609592846E+02  0.34494033567E+03  0.36368441179E+03  0.00000000000E+00 0.  1.
         12    1    5    5    0    0 -0.83938939882E+02  0.12132259359E+02  0.12817688398E+03  0.15369531851E+03  0.00000000000E+00 0. -1.
          5    1    3    3  501    0  0.30885983432E+02  0.30636650270E+02 -0.23515402735E+02  0.49675068979E+02  0.47000000000E+01 0. -1.
         -5    1    3    3    0  501  0.45301446502E+02  0.12602995057E+03 -0.46269966805E+03  0.48171448215E+03  0.47000000000E+01 0. -1.
          1    1    1    2  502    0 -0.34548523138E+02  0.38417057103E+02 -0.17021168503E+04  0.17029008318E+04  0.00000000000E+00 0. -1.
          1    1    1    2  503    0  0.88199195445E+02 -0.30155776279E+03  0.11185267707E+04  0.11618168182E+04  0.00000000000E+00 0. -1.
<mgrwt>
<rscale>  0 0.10182507E+03</rscale>
<asrwt>0</asrwt>
<pdfrwt beam="1">  1        2 0.26906202E+00 0.20067667E+03</pdfrwt>
<pdfrwt beam="2">  1        2 0.33796346E+00 0.51666921E+02</pdfrwt>
<totfact> 0.11533779E+01</totfact>
</mgrwt>
</event>
<event>
13    1  0.2742815E-008  0.1082476E+03  0.7546771E-02  0.1525293E+00
          2   -1    0    0  503    0  0.00000000000E+00  0.00000000000E+00  0.18863822621E+04  0.18863822621E+04  0.00000000000E+00 0. -1.
          2   -1    0    0  502    0 -0.00000000000E+00 -0.00000000000E+00 -0.94869873588E+03  0.94869873588E+03  0.00000000000E+00 0. -1.
         25    2    1    2    0    0 -0.67635560636E+00  0.49919356288E+02 -0.29819408845E+03  0.32715724601E+03  0.12497899680E+03 0.  0.
         24    2    1    2    0    0 -0.31273039779E+01  0.35372307108E+02 -0.81446331544E+01  0.89170838709E+02  0.81388717194E+02 0.  0.
         24    2    1    2    0    0 -0.54295122110E+02  0.19523471081E+02  0.31990040366E+02  0.10685361246E+03  0.84054777408E+02 0.  0.
        -13    1    4    4    0    0  0.38044342124E+02  0.24937725591E+02 -0.10307991651E+02  0.46642435798E+02  0.00000000000E+00 0.  1.
         14    1    4    4    0    0 -0.41171646102E+02  0.10434581517E+02  0.21633584963E+01  0.42528402911E+02  0.00000000000E+00 0. -1.
        -13    1    5    5    0    0 -0.63883688936E+02  0.24103041704E+02 -0.49083529034E+01  0.68455637165E+02  0.00000000000E+00 0.  1.
         14    1    5    5    0    0  0.95885668268E+01 -0.45795706224E+01  0.36898393269E+02  0.38397975295E+02  0.00000000000E+00 0. -1.
          5    1    3    3  501    0  0.84249494368E+01  0.84507504188E+02 -0.13154213617E+03  0.15664584778E+03  0.47000000000E+01 0. -1.
         -5    1    3    3    0  501 -0.91013050431E+01 -0.34588147901E+02 -0.16665195228E+03  0.17051139823E+03  0.47000000000E+01 0. -1.
          1    1    1    2  502    0  0.11256001794E+02 -0.68544639063E+01 -0.54818135101E+03  0.54833974400E+03  0.00000000000E+00 0. -1.
          1    1    1    2  503    0  0.46842779900E+02 -0.97960670570E+02  0.17602135584E+04  0.17635595568E+04  0.00000000000E+00 0. -1.
<mgrwt>
<rscale>  0 0.37770042E+02</rscale>
<asrwt>0</asrwt>
<pdfrwt beam="1">  1        2 0.27740916E+00 0.10824764E+03</pdfrwt>
<pdfrwt beam="2">  1        2 0.13951452E+00 0.13178818E+02</pdfrwt>
<totfact> 0.55539780E+01</totfact>
</mgrwt>
</event>
<event>
13    1  0.2742815E-008  0.3139293E+03  0.7546771E-02  0.1255624E+00
          2   -1    0    0  502    0  0.00000000000E+00  0.00000000000E+00  0.28748954753E+04  0.28748954753E+04  0.00000000000E+00 0. -1.
          2   -1    0    0  503    0 -0.00000000000E+00 -0.00000000000E+00 -0.12353930554E+04  0.12353930554E+04  0.00000000000E+00 0. -1.
         25    2    1    2    0    0  0.12158407896E+02  0.17710501412E+03 -0.32180489069E+02  0.21948543370E+03  0.12499703524E+03 0.  0.
         24    2    1    2    0    0  0.75061394414E+03 -0.33304871808E+03  0.47404840103E+03  0.95261598411E+03  0.91720144549E+02 0.  0.
         24    2    1    2    0    0 -0.11010556468E+04  0.64289765798E+02  0.53724362824E+03  0.12293787258E+04  0.79275621482E+02 0.  0.
        -11    1    5    5    0    0 -0.28930675798E+03 -0.15896145488E+02  0.12761340228E+03  0.31660111827E+03  0.00000000000E+00 0.  1.
         12    1    5    5    0    0 -0.81174888882E+03  0.80185911286E+02  0.40963022596E+03  0.91277760757E+03  0.00000000000E+00 0. -1.
        -13    1    4    4    0    0  0.25790138553E+03 -0.93151945714E+02  0.11431870963E+03  0.29708446109E+03  0.00000000000E+00 0.  1.
         14    1    4    4    0    0  0.49271255861E+03 -0.23989677236E+03  0.35972969140E+03  0.65553152303E+03  0.00000000000E+00 0. -1.
          5    1    3    3  501    0  0.25537313054E+02  0.60192424768E+01  0.26959734453E+02  0.37911778114E+02  0.47000000000E+01 0. -1.
         -5    1    3    3    0  501 -0.13378905158E+02  0.17108577165E+03 -0.59140223522E+02  0.18157365558E+03  0.47000000000E+01 0. -1.
          1    1    1    2  502    0  0.35457140431E+02  0.19507955318E+02  0.11379915549E+04  0.11387109151E+04  0.00000000000E+00 0. -1.
          1    1    1    2  503    0  0.30282615433E+03  0.72145982838E+02 -0.47760067522E+03  0.57009747198E+03  0.00000000000E+00 0. -1.
<mgrwt>
<rscale>  0 0.11271432E+03</rscale>
<asrwt>0</asrwt>
<pdfrwt beam="1">  1        2 0.42277875E+00 0.40469360E+02</pdfrwt>
<pdfrwt beam="2">  1        2 0.18167545E+00 0.31392929E+03</pdfrwt>
<totfact> 0.12336201E+01</totfact>
</mgrwt>
</event>
<event>
13    1  0.2742815E-008  0.8485890E+02  0.7546771E-02  0.1487371E+00
          2   -1    0    0  503    0  0.00000000000E+00  0.00000000000E+00  0.13674811182E+04  0.13674811182E+04  0.00000000000E+00 0. -1.
         -3   -1    0    0    0  501 -0.00000000000E+00 -0.00000000000E+00 -0.13115503484E+04  0.13115503484E+04  0.00000000000E+00 0.  1.
         25    2    1    2    0    0  0.10073969099E+03 -0.26538342707E+03 -0.76418135075E+03  0.82472749487E+03  0.12500182103E+03 0.  0.
         24    2    1    2    0    0  0.16375846748E+03  0.17462286958E+03  0.73601814760E+02  0.26312919742E+03  0.80683115645E+02 0.  0.
         24    2    1    2    0    0 -0.17155856234E+03  0.39288675373E+02  0.29267578453E+03  0.35632124438E+03  0.10163549584E+03 0.  0.
        -13    1    5    5    0    0 -0.19780456885E+02 -0.19519282143E+02  0.10150864007E+03  0.10524387326E+03  0.00000000000E+00 0.  1.
         14    1    5    5    0    0 -0.15177810546E+03  0.58807957516E+02  0.19116714446E+03  0.25107737111E+03  0.00000000000E+00 0. -1.
        -13    1    4    4    0    0  0.13666027105E+03  0.94650128926E+02  0.64060451896E+02  0.17815279422E+03  0.00000000000E+00 0.  1.
         14    1    4    4    0    0  0.27098196428E+02  0.79972740650E+02  0.95413628636E+01  0.84976403207E+02  0.00000000000E+00 0. -1.
          5    1    3    3  502    0  0.12854890712E+03 -0.18814699376E+03 -0.56599964796E+03  0.61016539092E+03  0.47000000000E+01 0. -1.
         -5    1    3    3    0  502 -0.27809216133E+02 -0.77236433317E+02 -0.19818170279E+03  0.21456210396E+03  0.47000000000E+01 0. -1.
          1    1    1    2  503    0 -0.20171447760E+02  0.81811276213E+01  0.83961160383E+03  0.83989372151E+03  0.00000000000E+00 0. -1.
         -4    1    1    2    0  501 -0.72768148365E+02  0.43290754503E+02 -0.38577708256E+03  0.39495980843E+03  0.00000000000E+00 0.  1.
<mgrwt>
<rscale>  0 0.42978536E+02</rscale>
<asrwt>0</asrwt>
<pdfrwt beam="1">  1        2 0.20110017E+00 0.21767364E+02</pdfrwt>
<pdfrwt beam="2">  1       -3 0.19287505E+00 0.84858897E+02</pdfrwt>
<totfact> 0.23523166E+00</totfact>
</mgrwt>
</event>
<event>
13    1  0.2742815E-008  0.4424849E+02  0.7546771E-02  0.1588074E+00
          2   -1    0    0  503    0  0.00000000000E+00  0.00000000000E+00  0.32672083037E+04  0.32672083037E+04  0.00000000000E+00 0. -1.
          2   -1    0    0  502    0 -0.00000000000E+00 -0.00000000000E+00 -0.77904805893E+03  0.77904805893E+03  0.00000000000E+00 0. -1.
         25    2    1    2    0    0  0.13814897495E+02  0.10092516782E+03 -0.15940337530E+03  0.22674231439E+03  0.12500360069E+03 0.  0.
         24    2    1    2    0    0  0.16735238679E+03 -0.11724545029E+03  0.35194836064E+03  0.41816309555E+03  0.96121844301E+02 0.  0.
         24    2    1    2    0    0 -0.13238721752E+03  0.53497265742E+02  0.55566733830E+03  0.57991674692E+03  0.84551225318E+02 0.  0.
        -11    1    5    5    0    0  0.19118151832E+00 -0.14186022620E+02  0.24765639161E+02  0.28541490347E+02  0.00000000000E+00 0.  1.
         12    1    5    5    0    0 -0.13257839904E+03  0.67683288362E+02  0.53090169914E+03  0.55137525658E+03  0.00000000000E+00 0. -1.
        -13    1    4    4    0    0  0.26327836711E+02  0.14831890282E+02  0.29332016420E+02  0.42113028180E+02  0.00000000000E+00 0.  1.
         14    1    4    4    0    0  0.14102455008E+03 -0.13207734057E+03  0.32261634422E+03  0.37605006737E+03  0.00000000000E+00 0. -1.
          5    1    3    3  501    0  0.44789018012E+02 -0.98749610906E+01 -0.44822836614E+02  0.64302003648E+02  0.47000000000E+01 0.  1.
         -5    1    3    3    0  501 -0.30974120517E+02  0.11080012891E+03 -0.11458053869E+03  0.16244031074E+03  0.47000000000E+01 0.  1.
          1    1    1    2  502    0 -0.40800194697E+02 -0.17089379183E+02 -0.53978718885E+03  0.54159663220E+03  0.00000000000E+00 0. -1.
          1    1    1    2  503    0 -0.79798720618E+01 -0.20087604087E+02  0.22797351100E+04  0.22798375736E+04  0.00000000000E+00 0. -1.
<mgrwt>
<rscale>  0 0.30925922E+02</rscale>
<asrwt>0</asrwt>
<pdfrwt beam="1">  1        2 0.48047181E+00 0.21614583E+02</pdfrwt>
<pdfrwt beam="2">  1        2 0.11456589E+00 0.44248490E+02</pdfrwt>
<totfact> 0.17730906E+01</totfact>
</mgrwt>
</event>
<event>
13    1  0.2742815E-008  0.9943114E+02  0.7546771E-02  0.1351659E+00
          2   -1    0    0  502    0  0.00000000000E+00  0.00000000000E+00  0.17979214672E+04  0.17979214672E+04  0.00000000000E+00 0. -1.
          2   -1    0    0  503    0 -0.00000000000E+00 -0.00000000000E+00 -0.58777075338E+03  0.58777075338E+03  0.00000000000E+00 0. -1.
         25    2    1    2    0    0 -0.57252363677E+02  0.87240732629E+02 -0.13797814793E+02  0.16341004338E+03  0.12499473592E+03 0.  0.
         24    2    1    2    0    0 -0.33342161688E+02 -0.17843278845E+03  0.15721093748E+03  0.25568281213E+03  0.87797846294E+02 0.  0.
         24    2    1    2    0    0  0.54052612388E+02  0.12715334120E+03  0.93522004438E+02  0.19950052342E+03  0.10938206639E+03 0.  0.
        -11    1    5    5    0    0  0.81948422122E+02  0.89416140980E+02  0.92543825290E+02  0.15256195383E+03  0.00000000000E+00 0.  1.
         12    1    5    5    0    0 -0.27895809734E+02  0.37737200218E+02  0.97817914718E+00  0.46938569593E+02  0.00000000000E+00 0. -1.
        -13    1    4    4    0    0 -0.27153324137E+01 -0.21831466706E+02 -0.10337733271E+02  0.24307502913E+02  0.00000000000E+00 0.  1.
         14    1    4    4    0    0 -0.30626829275E+02 -0.15660132175E+03  0.16754867076E+03  0.23137530922E+03  0.00000000000E+00 0. -1.
          5    1    3    3  501    0  0.32071867856E+01 -0.26611231477E+02 -0.20759882952E+02  0.34227276082E+02  0.47000000000E+01 0. -1.
         -5    1    3    3    0  501 -0.60459550463E+02  0.11385196411E+03  0.69620681595E+01  0.12918276729E+03  0.47000000000E+01 0. -1.
          1    1    1    2  502    0 -0.51647526220E+02  0.11550605889E+02  0.13633155604E+04  0.13643424059E+04  0.00000000000E+00 0. -1.
          1    1    1    2  503    0  0.88189439197E+02 -0.47511891264E+02 -0.39009997372E+03  0.40275643569E+03  0.00000000000E+00 0. -1.
<mgrwt>
<rscale>  0 0.72541240E+02</rscale>
<asrwt>0</asrwt>
<pdfrwt beam="1">  1        2 0.26440021E+00 0.52923373E+02</pdfrwt>
<pdfrwt beam="2">  1        2 0.86436876E-01 0.99431143E+02</pdfrwt>
<totfact> 0.10539746E+02</totfact>
</mgrwt>
</event>
<event>
13    1  0.2742815E-008  0.1316449E+03  0.7546771E-02  0.1431615E+00
          2   -1    0    0  503    0  0.00000000000E+00  0.00000000000E+00  0.31679061683E+04  0.31679061683E+04  0.00000000000E+00 0. -1.
          2   -1    0    0  502    0 -0.00000000000E+00 -0.00000000000E+00 -0.56080871276E+03  0.56080871276E+03  0.00000000000E+00 0. -1.
         25    2    1    2    0    0  0.38237827967E+02 -0.25318836050E+03 -0.12243588891E+03  0.31013911485E+03  0.12501698400E+03 0.  0.
         24    2    1    2    0    0  0.25130389945E+02  0.24110388337E+03  0.10196705832E+04  0.10511772495E+04  0.80516411311E+02 0.  0.
         24    2    1    2    0    0  0.10545999523E+03 -0.21577880072E+02  0.50142328686E+03  0.51866548772E+03  0.77467154663E+02 0.  0.
        -11    1    5    5    0    0 -0.91272310051E+01 -0.12270526927E+02  0.33489018733E+02  0.36815574865E+02  0.00000000000E+00 0.  1.
         12    1    5    5    0    0  0.11458722623E+03 -0.93073531455E+01  0.46793426812E+03  0.48184991286E+03  0.00000000000E+00 0. -1.
        -11    1    4    4    0    0  0.43705406558E+02  0.21672262927E+03  0.94380732500E+03  0.96935603745E+03  0.00000000000E+00 0.  1.
         12    1    4    4    0    0 -0.18575016612E+02  0.24381254095E+02  0.75863258204E+02  0.81821212034E+02  0.00000000000E+00 0. -1.
          5    1    3    3  501    0  0.56290569934E+02 -0.41523221826E+02 -0.13642251786E+02  0.71421336085E+02  0.47000000000E+01 0. -1.
         -5    1    3    3    0  501 -0.18052741967E+02 -0.21166513867E+03 -0.10879363712E+03  0.23871777877E+03  0.47000000000E+01 0. -1.
          1    1    1    2  502    0  0.21026402416E+02  0.91964127080E+00 -0.31372233374E+03  0.31442750838E+03  0.00000000000E+00 0. -1.
          1    1    1    2  503    0 -0.18985461555E+03  0.32742715934E+02  0.15221618082E+04  0.15343055207E+04  0.00000000000E+00 0. -1.
<mgrwt>
<rscale>  0 0.52637099E+02</rscale>
<asrwt>0</asrwt>
<pdfrwt beam="1">  1        2 0.46586855E+00 0.13164486E+03</pdfrwt>
<pdfrwt beam="2">  1        2 0.82471871E-01 0.21046504E+02</pdfrwt>
<totfact> 0.20921941E+01</totfact>
</mgrwt>
</event>
<event>
13    1  0.2742815E-008  0.4982557E+02  0.7546771E-02  0.1490763E+00
          4   -1    0    0  503    0 -0.00000000000E+00  0.00000000000E+00  0.87564444543E+03  0.87564444543E+03  0.00000000000E+00 0. -1.
          2   -1    0    0  502    0  0.00000000000E+00 -0.00000000000E+00 -0.17187523637E+04  0.17187523637E+04  0.00000000000E+00 0. -1.
         25    2    1    2    0    0  0.11853224982E+03 -0.11333422990E+03  0.17202928272E+03  0.26854265999E+03  0.12500617667E+03 0.  0.
         24    2    1    2    0    0 -0.99965858555E+02  0.94780051474E+02 -0.20539082443E+03  0.26106384537E+03  0.83621226785E+02 0.  0.
         24    2    1    2    0    0  0.54675900623E+02  0.36120134385E+01  0.54206455661E+02  0.10379188878E+03  0.69511981634E+02 0.  0.
        -11    1    5    5    0    0 -0.60866051454E+01  0.35741597049E+01 -0.12004256674E+02  0.13925643902E+02  0.00000000000E+00 0.  1.
         12    1    5    5    0    0  0.60762505769E+02  0.37853733601E-01  0.66210712335E+02  0.89866244876E+02  0.00000000000E+00 0. -1.
        -11    1    4    4    0    0 -0.39942033672E+02  0.10611147492E+02 -0.14173964563E+02  0.43690545618E+02  0.00000000000E+00 0.  1.
         12    1    4    4    0    0 -0.60023824883E+02  0.84168903982E+02 -0.19121685986E+03  0.21737329976E+03  0.00000000000E+00 0. -1.
          5    1    3    3  501    0  0.84115258091E+02 -0.64942221315E+01  0.35287372355E+02  0.91568773130E+02  0.47000000000E+01 0.  1.
         -5    1    3    3    0  501  0.34416991728E+02 -0.10684000777E+03  0.13674191036E+03  0.17697388686E+03  0.47000000000E+01 0.  1.
          1    1    1    2  502    0 -0.48465432720E+02 -0.11457652815E+02 -0.14114385398E+04  0.14123168651E+04  0.00000000000E+00 0. -1.
          3    1    1    2  503    0 -0.24776859168E+02  0.26399817804E+02  0.54748570758E+03  0.54868154984E+03  0.00000000000E+00 0. -1.
<mgrwt>
<rscale>  0 0.42473085E+02</rscale>
<asrwt>0</asrwt>
<pdfrwt beam="2">  1        2 0.25275770E+00 0.49825567E+02</pdfrwt>
<pdfrwt beam="1">  1        4 0.12877124E+00 0.36205568E+02</pdfrwt>
<totfact> 0.30912812E+00</totfact>
</mgrwt>
</event>
<event>
13    1  0.2742815E-008  0.1489815E+03  0.7546771E-02  0.1342420E+00
          2   -1    0    0  502    0  0.00000000000E+00  0.00000000000E+00  0.65952667092E+03  0.65952667092E+03  0.00000000000E+00 0. -1.
          2   -1    0    0  503    0 -0.00000000000E+00 -0.00000000000E+00 -0.25076704897E+04  0.25076704897E+04  0.00000000000E+00 0. -1.
         25    2    1    2    0    0 -0.22993403063E+03 -0.90311098217E+02 -0.97721299577E+03  0.10156754451E+04  0.12500247116E+03 0.  0.
         24    2    1    2    0    0  0.10819837620E+03 -0.38127255896E+02 -0.16590168570E+03  0.22008198758E+03  0.88046213361E+02 0.  0.
         24    2    1    2    0    0 -0.79856345924E+02  0.29367632328E+02 -0.51863219526E+01  0.11636594796E+03  0.79212638482E+02 0.  0.
        -11    1    5    5    0    0 -0.40548338834E+01  0.20682872727E+02  0.26406333896E+02  0.33786348898E+02  0.00000000000E+00 0.  1.
         12    1    5    5    0    0 -0.75801512041E+02  0.86847596008E+01 -0.31592655848E+02  0.82579599058E+02  0.00000000000E+00 0. -1.
        -11    1    4    4    0    0  0.67525644400E+01  0.82502471378E+01  0.81052655962E+01  0.13392499197E+02  0.00000000000E+00 0.  1.
         12    1    4    4    0    0  0.10144581176E+03 -0.46377503034E+02 -0.17400695129E+03  0.20668948839E+03  0.00000000000E+00 0. -1.
          5    1    3    3  501    0 -0.21678271332E+03 -0.35317148826E+02 -0.79859286269E+03  0.82826004137E+03  0.47000000000E+01 0.  1.
         -5    1    3    3    0  501 -0.13151317308E+02 -0.54993949392E+02 -0.17862013308E+03  0.18741540374E+03  0.47000000000E+01 0.  1.
          1    1    1    2  502    0  0.18118757565E+03  0.13140206670E+03  0.53484800243E+03  0.57979119208E+03  0.00000000000E+00 0. -1.
          1    1    1    2  503    0  0.20404424703E+02 -0.32331344920E+02 -0.12346908178E+04  0.12352825879E+04  0.00000000000E+00 0. -1.
<mgrwt>
<rscale>  0 0.75470541E+02</rscale>
<asrwt>0</asrwt>
<pdfrwt beam="1">  1        2 0.96989216E-01 0.14898148E+03</pdfrwt>
<pdfrwt beam="2">  1        2 0.36877507E+00 0.38231615E+02</pdfrwt>
<totfact> 0.44510541E+01</totfact>
</mgrwt>
</event>
<event>
13    1  0.2742815E-008  0.7005630E+02  0.7546771E-02  0.1545422E+00
          2   -1    0    0  503    0  0.00000000000E+00  0.00000000000E+00  0.26485362303E+04  0.26485362303E+04  0.00000000000E+00 0. -1.
          2   -1    0    0  502    0 -0.00000000000E+00 -0.00000000000E+00 -0.15191672351E+03  0.15191672351E+03  0.00000000000E+00 0. -1.
         25    2    1    2    0    0 -0.28516228110E+02  0.45840922331E+02 -0.15970257981E+02  0.13709741457E+03  0.12500434599E+03 0.  0.
         24    2    1    2    0    0  0.56022763037E+02 -0.89639449209E+01  0.13007981104E+03  0.16237110963E+03  0.78896880271E+02 0.  0.
         24    2    1    2    0    0  0.11642888123E+02 -0.80777298564E+02  0.22574433351E+04  0.22603541424E+04  0.80559971826E+02 0.  0.
        -13    1    4    4    0    0  0.37966721999E+02 -0.40268355110E+02  0.10398561897E+03  0.11779652523E+03  0.00000000000E+00 0.  1.
         14    1    4    4    0    0  0.18056041038E+02  0.31304410189E+02  0.26094192064E+02  0.44574584403E+02  0.00000000000E+00 0. -1.
        -13    1    5    5    0    0 -0.16126152451E+02  0.10515349764E+02  0.38278657896E+03  0.38327038812E+03  0.00000000000E+00 0.  1.
         14    1    5    5    0    0  0.27769040574E+02 -0.91292648328E+02  0.18746567562E+04  0.18770837543E+04  0.00000000000E+00 0. -1.
          5    1    3    3  501    0  0.22380890154E+02  0.58772247563E+02 -0.44466736338E+02  0.77165160327E+02  0.47000000000E+01 0.  1.
         -5    1    3    3    0  501 -0.50897118264E+02 -0.12931325232E+02  0.28496478356E+02  0.59932254242E+02  0.47000000000E+01 0.  1.
          1    1    1    2  502    0 -0.56792709799E+02  0.41204877906E+02 -0.35803755408E+02  0.78772855420E+02  0.00000000000E+00 0. -1.
          1    1    1    2  503    0  0.17643286748E+02  0.26954432471E+01  0.16087037398E+03  0.16185743173E+03  0.00000000000E+00 0. -1.
<mgrwt>
<rscale>  0 0.35360495E+02</rscale>
<asrwt>0</asrwt>
<pdfrwt beam="1">  1        2 0.38949059E+00 0.17847997E+02</pdfrwt>
<pdfrwt beam="2">  1        2 0.22340696E-01 0.70056302E+02</pdfrwt>
<totfact> 0.20818670E+02</totfact>
</mgrwt>
</event>
<event>
13    1  0.2742815E-008  0.5933658E+02  0.7546771E-02  0.1459769E+00
          2   -1    0    0  503    0  0.00000000000E+00  0.00000000000E+00  0.10019036089E+04  0.10019036089E+04  0.00000000000E+00 0. -1.
         -3   -1    0    0    0  501 -0.00000000000E+00 -0.00000000000E+00 -0.25373863527E+03  0.25373863527E+03  0.00000000000E+00 0.  1.
         25    2    1    2    0    0 -0.67206855437E+02  0.95945423111E+02 -0.47997946484E+02  0.17790758675E+03  0.12500008369E+03 0.  0.
         24    2    1    2    0    0 -0.31526519601E+02 -0.41465631338E+02  0.61297313970E+02  0.11441549004E+03  0.81364756746E+02 0.  0.
         24    2    1    2    0    0  0.89914353471E+02 -0.15091024128E+02  0.44141341014E+03  0.45782115635E+03  0.80262585230E+02 0.  0.
        -11    1    5    5    0    0  0.95032343356E+01  0.22213745015E+02  0.39949476869E+02  0.46687499746E+02  0.00000000000E+00 0.  1.
         12    1    5    5    0    0  0.80411119135E+02 -0.37304769143E+02  0.40146393327E+03  0.41113365661E+03  0.00000000000E+00 0. -1.
        -11    1    4    4    0    0 -0.35861546898E+02  0.15331761278E+02  0.31479375744E+02  0.50120500267E+02  0.00000000000E+00 0.  1.
         12    1    4    4    0    0  0.43350272971E+01 -0.56797392616E+02  0.29817938227E+02  0.64294989772E+02  0.00000000000E+00 0. -1.
          5    1    3    3  502    0 -0.79867326549E+01 -0.27610708862E+01 -0.61190805739E+02  0.61950109911E+02  0.47000000000E+01 0. -1.
         -5    1    3    3    0  502 -0.59220122782E+02  0.98706493998E+02  0.13192859255E+02  0.11595747684E+03  0.47000000000E+01 0. -1.
          1    1    1    2  503    0 -0.26286200235E+02 -0.53668688077E+02  0.39376025075E+03  0.39826929014E+03  0.00000000000E+00 0. -1.
         -4    1    1    2    0  501  0.35105221802E+02  0.14279920431E+02 -0.10030805476E+03  0.10722872085E+03  0.00000000000E+00 0.  1.
<mgrwt>
<rscale>  0 0.47421142E+02</rscale>
<asrwt>0</asrwt>
<pdfrwt beam="1">  1        2 0.14733877E+00 0.59336583E+02</pdfrwt>
<pdfrwt beam="2">  1       -3 0.37314505E-01 0.37898453E+02</pdfrwt>
<totfact> 0.11727116E+02</totfact>
</mgrwt>
</event>
<event>
13    1  0.2742815E-008  0.1243026E+03  0.7546771E-02  0.1348622E+00
          2   -1    0    0  503    0  0.00000000000E+00  0.00000000000E+00  0.67019472621E+03  0.67019472621E+03  0.00000000000E+00 0. -1.
          2   -1    0    0  502    0 -0.00000000000E+00 -0.00000000000E+00 -0.10433913747E+04  0.10433913747E+04  0.00000000000E+00 0. -1.
         25    2    1    2    0    0  0.15223257276E+03  0.21620141451E+03 -0.74433532108E+03  0.79973788558E+03  0.12501122985E+03 0.  0.
         24    2    1    2    0    0 -0.10275186968E+03 -0.76551190778E+02  0.13807527486E+03  0.20482342524E+03  0.80435206654E+02 0.  0.
         24    2    1    2    0    0  0.45886692011E+02 -0.28231260186E+02  0.87557281155E+02  0.13041045282E+03  0.80237249248E+02 0.  0.
        -11    1    4    4    0    0  0.35755743957E+01 -0.15898878913E+02 -0.45027597865E+01  0.16906623810E+02  0.00000000000E+00 0.  1.
         12    1    4    4    0    0 -0.10632744408E+03 -0.60652311865E+02  0.14257803464E+03  0.18791680143E+03  0.00000000000E+00 0. -1.
        -13    1    5    5    0    0  0.33365568824E+02  0.25098377670E+02  0.41041700954E+02  0.58545802256E+02  0.00000000000E+00 0.  1.
         14    1    5    5    0    0  0.12521123187E+02 -0.53329637856E+02  0.46515580201E+02  0.71864650567E+02  0.00000000000E+00 0. -1.
          5    1    3    3  501    0  0.43117339154E+02  0.12157799441E+03 -0.49500144202E+03  0.51155530616E+03  0.47000000000E+01 0. -1.
         -5    1    3    3    0  501  0.10911523361E+03  0.94623420103E+02 -0.24933387906E+03  0.28818257942E+03  0.47000000000E+01 0. -1.
          1    1    1    2  502    0 -0.35511297469E+02  0.25028079647E+02 -0.19877868311E+03  0.20347093620E+03  0.00000000000E+00 0. -1.
          1    1    1    2  503    0 -0.59856097620E+02 -0.13644704320E+03  0.34428479971E+03  0.37514340103E+03  0.00000000000E+00 0. -1.
<mgrwt>
<rscale>  0 0.73486803E+02</rscale>
<asrwt>0</asrwt>
<pdfrwt beam="1">  1        2 0.98558049E-01 0.12430259E+03</pdfrwt>
<pdfrwt beam="2">  1        2 0.15343991E+00 0.43444873E+02</pdfrwt>
<totfact> 0.21489385E+02</totfact>
</mgrwt>
</event>
<event>
13    1  0.2742815E-008  0.6353219E+02  0.7546771E-02  0.1469260E+00
          2   -1    0    0  503    0  0.00000000000E+00  0.00000000000E+00  0.15077558872E+04  0.15077558872E+04  0.00000000000E+00 0. -1.
          2   -1    0    0  502    0 -0.00000000000E+00 -0.00000000000E+00 -0.25799537640E+04  0.25799537640E+04  0.00000000000E+00 0. -1.
         25    2    1    2    0    0  0.30706437073E+03  0.73439356003E+02 -0.18920547805E+03  0.38872890295E+03  0.12501831978E+03 0.  0.
         24    2    1    2    0    0 -0.10791708573E+03 -0.58317245738E+03 -0.30652496193E+03  0.67301574421E+03  0.85184665485E+02 0.  0.
         24    2    1    2    0    0 -0.17900918719E+03  0.60406231316E+03  0.65259940480E+03  0.91070782942E+03  0.81038263402E+02 0.  0.
        -13    1    5    5    0    0 -0.41294884148E+02  0.25718305207E+03  0.23749277099E+03  0.35249284532E+03  0.00000000000E+00 0.  1.
         14    1    5    5    0    0 -0.13771430304E+03  0.34687926109E+03  0.41510663382E+03  0.55821498410E+03  0.00000000000E+00 0. -1.
        -13    1    4    4    0    0 -0.39839083073E+02 -0.24956136940E+03 -0.84230737930E+02  0.26638852612E+03  0.00000000000E+00 0.  1.
         14    1    4    4    0    0 -0.68078002657E+02 -0.33361108798E+03 -0.22229422400E+03  0.40662721809E+03  0.00000000000E+00 0. -1.
          5    1    3    3  501    0  0.14530823026E+03  0.31522969595E+02 -0.16099140194E+03  0.21919968269E+03  0.47000000000E+01 0.  1.
         -5    1    3    3    0  501  0.16175614048E+03  0.41916386408E+02 -0.28214076108E+02  0.16952922026E+03  0.47000000000E+01 0.  1.
          1    1    1    2  502    0 -0.54964358896E+01 -0.32591828160E+02 -0.16697261650E+04  0.16700532639E+04  0.00000000000E+00 0. -1.
          1    1    1    2  503    0 -0.14641661924E+02 -0.61737383632E+02  0.44065932346E+03  0.44520391076E+03  0.00000000000E+00 0. -1.
<mgrwt>
<rscale>  0 0.45824330E+02</rscale>
<asrwt>0</asrwt>
<pdfrwt beam="1">  1        2 0.22172881E+00 0.63532193E+02</pdfrwt>
<pdfrwt beam="2">  1        2 0.37940496E+00 0.33052051E+02</pdfrwt>
<totfact> 0.14324759E+01</totfact>
</mgrwt>
</event>
<event>
13    1  0.2742815E-008  0.5921180E+02  0.7546771E-02  0.1431292E+00
          2   -1    0    0  503    0  0.00000000000E+00  0.00000000000E+00  0.37758770792E+03  0.37758770792E+03  0.00000000000E+00 0. -1.
          2   -1    0    0  502    0 -0.00000000000E+00 -0.00000000000E+00 -0.15333454043E+04  0.15333454043E+04  0.00000000000E+00 0. -1.
         25    2    1    2    0    0 -0.32124660774E+02  0.10366479187E+03 -0.24521669486E+03  0.29586210016E+03  0.12499908787E+03 0.  0.
         24    2    1    2    0    0 -0.56745920055E+00 -0.89789546900E+02  0.21883244163E+02  0.11903117031E+03  0.75013721338E+02 0.  0.
         24    2    1    2    0    0  0.73021738035E+02  0.42407071310E+02  0.10794843737E+03  0.16053209379E+03  0.83589198362E+02 0.  0.
        -13    1    4    4    0    0  0.33443305837E+02 -0.19021764416E+02  0.79839644759E+01  0.39294095175E+02  0.00000000000E+00 0.  1.
         14    1    4    4    0    0 -0.34010765038E+02 -0.70767782483E+02  0.13899279687E+02  0.79737075140E+02  0.00000000000E+00 0. -1.
        -13    1    5    5    0    0  0.13190278962E+02 -0.52840578301E+01  0.76499497947E+02  0.77807955328E+02  0.00000000000E+00 0.  1.
         14    1    5    5    0    0  0.59831459073E+02  0.47691129141E+02  0.31448939428E+02  0.82724138464E+02  0.00000000000E+00 0. -1.
          5    1    3    3  501    0  0.52213933282E+01  0.55769440259E+02 -0.15646293817E+02  0.58347150104E+02  0.47000000000E+01 0.  1.
         -5    1    3    3    0  501 -0.37346054102E+02  0.47895351608E+02 -0.22957040104E+03  0.23751495005E+03  0.47000000000E+01 0.  1.
          1    1    1    2  502    0 -0.46829299055E+02  0.27002684498E+01 -0.11814905649E+04  0.11824213419E+04  0.00000000000E+00 0. -1.
          1    1    1    2  503    0  0.64996809943E+01 -0.58982584727E+02  0.14111788186E+03  0.15308640610E+03  0.00000000000E+00 0. -1.
<mgrwt>
<rscale>  0 0.52701547E+02</rscale>
<asrwt>0</asrwt>
<pdfrwt beam="1">  1        2 0.55527604E-01 0.59211800E+02</pdfrwt>
<pdfrwt beam="2">  1        2 0.22549197E+00 0.46907086E+02</pdfrwt>
<totfact> 0.22792688E+02</totfact>
</mgrwt>
</event>
<event>
13    1  0.2742815E-008  0.8973085E+02  0.7546771E-02  0.1541296E+00
          2   -1    0    0  503    0  0.00000000000E+00  0.00000000000E+00  0.29640552166E+04  0.29640552166E+04  0.00000000000E+00 0. -1.
          2   -1    0    0  502    0 -0.00000000000E+00 -0.00000000000E+00 -0.14131876673E+04  0.14131876673E+04  0.00000000000E+00 0. -1.
         25    2    1    2    0    0 -0.47815962230E+02  0.37495853826E+02 -0.17866444111E+03  0.22636045447E+03  0.12500307010E+03 0.  0.
         24    2    1    2    0    0 -0.32530638600E+02 -0.20098121752E+02  0.11890340029E+03  0.14843388239E+03  0.80202380861E+02 0.  0.
         24    2    1    2    0    0 -0.56285865980E+02 -0.57181822756E+02  0.73246126484E+03  0.74119477426E+03  0.80201803889E+02 0.  0.
        -11    1    5    5    0    0 -0.24139915886E+02  0.90017327984E+01  0.68770821942E+02  0.73438359751E+02  0.00000000000E+00 0.  1.
         12    1    5    5    0    0 -0.32145950095E+02 -0.66183555554E+02  0.66369044289E+03  0.66775641451E+03  0.00000000000E+00 0. -1.
        -13    1    4    4    0    0  0.18665729178E+01  0.13030793766E+02 -0.61811247083E+01  0.14542763949E+02  0.00000000000E+00 0.  1.
         14    1    4    4    0    0 -0.34397211517E+02 -0.33128915518E+02  0.12508452500E+03  0.13389111845E+03  0.00000000000E+00 0. -1.
          5    1    3    3  501    0 -0.39325589019E+01  0.36450537777E+02 -0.17842477213E+03  0.18221305121E+03  0.47000000000E+01 0. -1.
         -5    1    3    3    0  501 -0.43883403328E+02  0.10453160492E+01 -0.23966898264E+00  0.44147403259E+02  0.47000000000E+01 0. -1.
          1    1    1    2  502    0  0.14287184152E+02 -0.84617362431E+00 -0.11894927029E+04  0.11895788035E+04  0.00000000000E+00 0. -1.
          1    1    1    2  503    0  0.12234528266E+03  0.40630264306E+02  0.20676600281E+04  0.20716749693E+04  0.00000000000E+00 0. -1.
<mgrwt>
<rscale>  0 0.35836401E+02</rscale>
<asrwt>0</asrwt>
<pdfrwt beam="1">  1        2 0.43589047E+00 0.89730847E+02</pdfrwt>
<pdfrwt beam="2">  1        2 0.20782172E+00 0.14312220E+02</pdfrwt>
<totfact> 0.98928812E+00</totfact>
</mgrwt>
</event>
<event>
13    1  0.2742815E-008  0.1450500E+03  0.7546771E-02  0.1234589E+00
         -1   -1    0    0    0  501 -0.00000000000E+00  0.00000000000E+00  0.96436064766E+03  0.96436064766E+03  0.00000000000E+00 0.  1.
          2   -1    0    0  503    0  0.00000000000E+00 -0.00000000000E+00 -0.15894313480E+04  0.15894313480E+04  0.00000000000E+00 0. -1.
         25    2    1    2    0    0 -0.25417218933E+02  0.13913237283E+03 -0.48666215468E+02  0.19492764788E+03  0.12499814076E+03 0.  0.
         24    2    1    2    0    0  0.47218271049E+02 -0.30387590026E+03 -0.15862935112E+03  0.35600636488E+03  0.83708619152E+02 0.  0.
         24    2    1    2    0    0 -0.13510615395E+03  0.41539649697E+02 -0.22233481544E+03  0.27549754699E+03  0.80541373895E+02 0.  0.
        -11    1    4    4    0    0 -0.14699122871E+02 -0.22870846758E+02 -0.30979687243E+02  0.41217482532E+02  0.00000000000E+00 0.  1.
         12    1    4    4    0    0  0.61917393920E+02 -0.28100505350E+03 -0.12764966388E+03  0.31478888235E+03  0.00000000000E+00 0. -1.
        -13    1    5    5    0    0 -0.32551080207E+02  0.38355087536E+02 -0.33047394989E+02  0.60189832016E+02  0.00000000000E+00 0.  1.
         14    1    5    5    0    0 -0.10255507374E+03  0.31845621614E+01 -0.18928742046E+03  0.21530771498E+03  0.00000000000E+00 0. -1.
          5    1    3    3  502    0 -0.39451847343E+02  0.32371462244E+01  0.16925485816E+02  0.43306921440E+02  0.47000000000E+01 0.  1.
         -5    1    3    3    0  502  0.14034628410E+02  0.13589522661E+03 -0.65591701284E+02  0.15162072644E+03  0.47000000000E+01 0.  1.
          1    1    1    2  503    0  0.10612955137E+03 -0.21333811172E+02 -0.95146827213E+03  0.95760664473E+03  0.00000000000E+00 0. -1.
         -2    1    1    2    0  501  0.71755504635E+01  0.14453768890E+03  0.75602795383E+03  0.76975379116E+03  0.00000000000E+00 0.  1.
<mgrwt>
<rscale>  0 0.12530773E+03</rscale>
<asrwt>0</asrwt>
<pdfrwt beam="2">  1        2 0.23373990E+00 0.10825254E+03</pdfrwt>
<pdfrwt beam="1">  1       -1 0.14181774E+00 0.14504995E+03</pdfrwt>
<totfact> 0.75497413E+00</totfact>
</mgrwt>
</event>
<event>
13    1  0.2742815E-008  0.1520589E+03  0.7546771E-02  0.1386309E+00
          2   -1    0    0  502    0  0.00000000000E+00  0.00000000000E+00  0.35868341847E+04  0.35868341847E+04  0.00000000000E+00 0. -1.
          2   -1    0    0  503    0 -0.00000000000E+00 -0.00000000000E+00 -0.11067629154E+03  0.11067629154E+03  0.00000000000E+00 0. -1.
         25    2    1    2    0    0 -0.67326945891E+02  0.20952875331E+02  0.48714658438E+02  0.15155954839E+03  0.12500095253E+03 0.  0.
         24    2    1    2    0    0 -0.45827178986E+02  0.98690264713E+02  0.33049556986E+03  0.35775205315E+03  0.83182396917E+02 0.  0.
         24    2    1    2    0    0  0.93847434883E+02  0.52464163028E+02  0.28719669645E+03  0.31732435036E+03  0.81565749204E+02 0.  0.
        -11    1    4    4    0    0  0.24702742273E+01  0.84832807441E+02  0.17811176621E+03  0.19729802010E+03  0.00000000000E+00 0.  1.
         12    1    4    4    0    0 -0.48297453213E+02  0.13857457273E+02  0.15238380364E+03  0.16045403305E+03  0.00000000000E+00 0. -1.
        -11    1    5    5    0    0  0.68405367115E+02 -0.69414827411E+01  0.17209130360E+03  0.18531836177E+03  0.00000000000E+00 0.  1.
         12    1    5    5    0    0  0.25442067768E+02  0.59405645769E+02  0.11510539284E+03  0.13200598859E+03  0.00000000000E+00 0. -1.
          5    1    3    3  501    0  0.10870260255E+02  0.21996057719E+02 -0.30984618496E+02  0.39801076575E+02  0.47000000000E+01 0. -1.
         -5    1    3    3    0  501 -0.78197206146E+02 -0.10431823884E+01  0.79699276934E+02  0.11175847181E+03  0.47000000000E+01 0. -1.
          1    1    1    2  502    0  0.38595491632E+02 -0.15472652801E+03  0.28321183114E+04  0.28366043151E+04  0.00000000000E+00 0. -1.
          1    1    1    2  503    0 -0.19288801638E+02 -0.17380775067E+02 -0.22367343001E+02  0.34270209271E+02  0.00000000000E+00 0. -1.
<mgrwt>
<rscale>  0 0.62834028E+02</rscale>
<asrwt>0</asrwt>
<pdfrwt beam="1">  1        2 0.52747554E+00 0.15205888E+03</pdfrwt>
<pdfrwt beam="2">  1        2 0.16275928E-01 0.25964384E+02</pdfrwt>
<totfact> 0.60964730E+01</totfact>
</mgrwt>
</event>
<event>
13    1  0.2742815E-008  0.1687775E+03  0.7546771E-02  0.1311612E+00
          2   -1    0    0  502    0  0.00000000000E+00  0.00000000000E+00  0.17881864444E+04  0.17881864444E+04  0.00000000000E+00 0. -1.
          2   -1    0    0  503    0 -0.00000000000E+00 -0.00000000000E+00 -0.21502412091E+04  0.21502412091E+04  0.00000000000E+00 0. -1.
         25    2    1    2    0    0  0.11844278407E+03 -0.69767550889E+02 -0.51943402946E+01  0.18586644901E+03  0.12499260554E+03 0.  0.
         24    2    1    2    0    0 -0.27925615580E+02  0.25419926226E+02 -0.96042486373E+01  0.90754312471E+02  0.81963961503E+02 0.  0.
         24    2    1    2    0    0  0.84195311250E+02 -0.38716480174E+02  0.85179890633E+02  0.14976723270E+03  0.81159065717E+02 0.  0.
        -11    1    5    5    0    0  0.50159420542E+02 -0.51165358602E+02  0.87924780311E+02  0.11342234516E+03  0.00000000000E+00 0.  1.
         12    1    5    5    0    0  0.34035890708E+02  0.12448878429E+02 -0.27448896778E+01  0.36344887533E+02  0.00000000000E+00 0. -1.
        -13    1    4    4    0    0 -0.29095274159E+02  0.33769150532E+02 -0.39582812154E+02  0.59612830197E+02  0.00000000000E+00 0.  1.
         14    1    4    4    0    0  0.11696585790E+01 -0.83492243067E+01  0.29978563517E+02  0.31141482274E+02  0.00000000000E+00 0. -1.
          5    1    3    3  501    0  0.81576703154E+01 -0.71896483449E+02  0.13875314885E+02  0.73825918758E+02  0.47000000000E+01 0. -1.
         -5    1    3    3    0  501  0.11028511375E+03  0.21289325604E+01 -0.19069655180E+02  0.11204053025E+03  0.47000000000E+01 0. -1.
          1    1    1    2  502    0 -0.16594890074E+03  0.39629862187E+02  0.15348253746E+04  0.15442792799E+04  0.00000000000E+00 0. -1.
          1    1    1    2  503    0 -0.87635789959E+01  0.43434242650E+02 -0.19672614411E+04  0.19677603795E+04  0.00000000000E+00 0. -1.
<mgrwt>
<rscale>  0 0.86478022E+02</rscale>
<asrwt>0</asrwt>
<pdfrwt beam="1">  1        2 0.26296860E+00 0.16877745E+03</pdfrwt>
<pdfrwt beam="2">  1        2 0.31621194E+00 0.44309522E+02</pdfrwt>
<totfact> 0.14686002E+01</totfact>
</mgrwt>
</event>
<event>
13    1  0.2742815E-008  0.8893883E+02  0.7546771E-02  0.1342435E+00
          2   -1    0    0  503    0  0.00000000000E+00  0.00000000000E+00  0.58394268645E+03  0.58394268645E+03  0.00000000000E+00 0. -1.
          2   -1    0    0  502    0 -0.00000000000E+00 -0.00000000000E+00 -0.46223958193E+04  0.46223958193E+04  0.00000000000E+00 0. -1.
         25    2    1    2    0    0  0.36181522059E+02  0.49258571211E+02 -0.52294627511E+03  0.54114035636E+03  0.12499827702E+03 0.  0.
         24    2    1    2    0    0 -0.16523283384E+02  0.25354441688E+02 -0.48650813004E+02  0.99020555020E+02  0.80760770820E+02 0.  0.
         24    2    1    2    0    0  0.11224862254E+01 -0.10156702788E+03  0.98737883380E+02  0.16336282223E+03  0.81370270647E+02 0.  0.
        -11    1    4    4    0    0 -0.47813028070E+02  0.58987874021E+01 -0.19235914882E+02  0.51873902565E+02  0.00000000000E+00 0.  1.
         12    1    4    4    0    0  0.31289744685E+02  0.19455654286E+02 -0.29414898122E+02  0.47146652455E+02  0.00000000000E+00 0. -1.
        -13    1    5    5    0    0 -0.36344861358E+01 -0.89468884544E+01 -0.14233164710E+02  0.17199979074E+02  0.00000000000E+00 0.  1.
         14    1    5    5    0    0  0.47569723612E+01 -0.92620139423E+02  0.11297104809E+03  0.14616284316E+03  0.00000000000E+00 0. -1.
          5    1    3    3  501    0 -0.33603576087E+02  0.42583306551E+02 -0.11562476712E+03  0.12780342364E+03  0.47000000000E+01 0.  1.
         -5    1    3    3    0  501  0.69785098146E+02  0.66752646601E+01 -0.40732150799E+03  0.41333693272E+03  0.47000000000E+01 0.  1.
          1    1    1    2  502    0 -0.84813782515E+02  0.27210418510E+02 -0.39812545434E+04  0.39822508112E+04  0.00000000000E+00 0. -1.
          1    1    1    2  503    0  0.64033057614E+02 -0.25640353165E+00  0.41566061520E+03  0.42056396094E+03  0.00000000000E+00 0. -1.
<mgrwt>
<rscale>  0 0.75465693E+02</rscale>
<asrwt>0</asrwt>
<pdfrwt beam="1">  1        2 0.85873924E-01 0.64033571E+02</pdfrwt>
<pdfrwt beam="2">  1        2 0.67976410E+00 0.88938829E+02</pdfrwt>
<totfact> 0.22998952E+00</totfact>
</mgrwt>
</event>
<event>
13    1  0.2742815E-008  0.7014275E+02  0.7546771E-02  0.1458683E+00
          2   -1    0    0  502    0  0.00000000000E+00  0.00000000000E+00  0.20812478442E+04  0.20812478442E+04  0.00000000000E+00 0. -1.
          2   -1    0    0  503    0 -0.00000000000E+00 -0.00000000000E+00 -0.41403384095E+04  0.41403384095E+04  0.00000000000E+00 0. -1.
         25    2    1    2    0    0  0.33770583554E+03 -0.38732357259E+03  0.62029982336E+02  0.53247851836E+03  0.12498348914E+03 0.  0.
         24    2    1    2    0    0 -0.29667713957E+03 -0.32969133183E+03  0.18959744391E+03  0.48888403126E+03  0.79666215269E+02 0.  0.
         24    2    1    2    0    0 -0.10063158459E+03  0.76769824297E+03  0.95366287938E+03  0.12304287714E+04  0.70673658036E+02 0.  0.
        -11    1    4    4    0    0 -0.22753901354E+03 -0.21874376312E+03  0.16392566135E+03  0.35566059528E+03  0.00000000000E+00 0.  1.
         12    1    4    4    0    0 -0.69138126028E+02 -0.11094756871E+03  0.25671782556E+02  0.13322343598E+03  0.00000000000E+00 0. -1.
        -13    1    5    5    0    0 -0.40361808348E+02  0.28961705665E+03  0.41522774675E+03  0.50785942617E+03  0.00000000000E+00 0.  1.
         14    1    5    5    0    0 -0.60269776238E+02  0.47808118631E+03  0.53843513263E+03  0.72256934524E+03  0.00000000000E+00 0. -1.
          5    1    3    3  501    0  0.19868338707E+03 -0.16866061661E+03  0.80105095547E+02  0.27269104904E+03  0.47000000000E+01 0.  1.
         -5    1    3    3    0  501  0.13902244847E+03 -0.21866295598E+03 -0.18075113210E+02  0.25978746932E+03  0.47000000000E+01 0.  1.
          1    1    1    2  502    0 -0.78233760681E+01 -0.31352721449E+02  0.35162606453E+03  0.35310775637E+03  0.00000000000E+00 0. -1.
          1    1    1    2  503    0  0.67426264685E+02 -0.19330617097E+02 -0.36160069355E+04  0.36166871763E+04  0.00000000000E+00 0. -1.
<mgrwt>
<rscale>  0 0.47608789E+02</rscale>
<asrwt>0</asrwt>
<pdfrwt beam="1">  1        2 0.30606586E+00 0.32314058E+02</pdfrwt>
<pdfrwt beam="2">  1        2 0.60887329E+00 0.70142746E+02</pdfrwt>
<totfact> 0.95133852E-01</totfact>
</mgrwt>
</event>
<event>
13    1  0.2742815E-008  0.6935668E+02  0.7546771E-02  0.1441339E+00
          2   -1    0    0  503    0  0.00000000000E+00  0.00000000000E+00  0.43435736279E+03  0.43435736279E+03  0.00000000000E+00 0. -1.
          2   -1    0    0  502    0 -0.00000000000E+00 -0.00000000000E+00 -0.11108888790E+04  0.11108888790E+04  0.00000000000E+00 0. -1.
         25    2    1    2    0    0 -0.40033268397E+01  0.39376004181E+02 -0.68174350091E+02  0.14778617188E+03  0.12500605688E+03 0.  0.
         24    2    1    2    0    0 -0.46872374844E+02 -0.10384444453E+03 -0.17383429198E+02  0.13928959811E+03  0.78222249693E+02 0.  0.
         24    2    1    2    0    0  0.23953726777E+02  0.96714869408E+02  0.15715989660E+03  0.20255294391E+03  0.80005718527E+02 0.  0.
        -11    1    4    4    0    0 -0.65840808702E+02 -0.77369986712E+02  0.15749181581E+01  0.10160515391E+03  0.00000000000E+00 0.  1.
         12    1    4    4    0    0  0.18968433859E+02 -0.26474457820E+02 -0.18958347356E+02  0.37684444196E+02  0.00000000000E+00 0. -1.
        -11    1    5    5    0    0 -0.15360875823E+02  0.23332018711E+02  0.39863088185E+01  0.28217552360E+02  0.00000000000E+00 0.  1.
         12    1    5    5    0    0  0.39314602600E+02  0.73382850697E+02  0.15317358778E+03  0.17433539155E+03  0.00000000000E+00 0. -1.
          5    1    3    3  501    0  0.37839328676E+02 -0.10799313996E+02 -0.71986078725E+02  0.82173751939E+02  0.47000000000E+01 0. -1.
         -5    1    3    3    0  501 -0.41842655516E+02  0.50175318177E+02  0.38117286340E+01  0.65612419937E+02  0.47000000000E+01 0. -1.
          1    1    1    2  502    0  0.15823727075E+02 -0.67683806978E+02 -0.89827080912E+03  0.90095612245E+03  0.00000000000E+00 0. -1.
          1    1    1    2  503    0  0.11098247832E+02  0.35437377922E+02  0.15013717556E+03  0.15466140548E+03  0.00000000000E+00 0. -1.
<mgrwt>
<rscale>  0 0.50749707E+02</rscale>
<asrwt>0</asrwt>
<pdfrwt beam="1">  1        2 0.63876083E-01 0.37134605E+02</pdfrwt>
<pdfrwt beam="2">  1        2 0.16336601E+00 0.69356677E+02</pdfrwt>
<totfact> 0.31247359E+02</totfact>
</mgrwt>
</event>
<event>
13    1  0.2742815E-008  0.2586248E+03  0.7546771E-02  0.1226167E+00
          2   -1    0    0  502    0  0.00000000000E+00  0.00000000000E+00  0.29099946290E+03  0.29099946290E+03  0.00000000000E+00 0. -1.
          2   -1    0    0  503    0 -0.00000000000E+00 -0.00000000000E+00 -0.30577974597E+04  0.30577974597E+04  0.00000000000E+00 0. -1.
         25    2    1    2    0    0 -0.90155586253E+01 -0.17026984964E+03 -0.11413773221E+04  0.11607931024E+04  0.12500133227E+03 0.  0.
         24    2    1    2    0    0 -0.43876652513E+01  0.62316105913E+02 -0.48860295444E+03  0.49931390577E+03  0.81725031363E+02 0.  0.
         24    2    1    2    0    0 -0.61421911650E+02 -0.18679647704E+03 -0.17797476849E+03  0.27725075428E+03  0.80792248796E+02 0.  0.
        -11    1    4    4    0    0 -0.21796365476E+02  0.62794956419E+02 -0.21229717154E+03  0.22245983265E+03  0.00000000000E+00 0.  1.
         12    1    4    4    0    0  0.17408700225E+02 -0.47885050573E+00 -0.27630578290E+03  0.27685407312E+03  0.00000000000E+00 0. -1.
        -13    1    5    5    0    0 -0.65062847831E+02 -0.19345641711E+03 -0.17574032431E+03  0.26933848793E+03  0.00000000000E+00 0.  1.
         14    1    5    5    0    0  0.36409361808E+01  0.66599400740E+01 -0.22344441784E+01  0.79122663535E+01  0.00000000000E+00 0. -1.
          5    1    3    3  501    0 -0.42081299720E+02 -0.13529945344E+03 -0.56972563950E+03  0.58709979747E+03  0.47000000000E+01 0. -1.
         -5    1    3    3    0  501  0.33065741095E+02 -0.34970396196E+02 -0.57165168262E+03  0.57369330490E+03  0.47000000000E+01 0. -1.
          1    1    1    2  502    0  0.12676093606E+03  0.25365897698E+03  0.13606984260E+03  0.31452537828E+03  0.00000000000E+00 0. -1.
          1    1    1    2  503    0 -0.51935800531E+02  0.41091243781E+02 -0.10949127944E+04  0.10969137819E+04  0.00000000000E+00 0. -1.
<mgrwt>
<rscale>  0 0.13087230E+03</rscale>
<asrwt>0</asrwt>
<pdfrwt beam="1">  1        2 0.42794038E-01 0.25862479E+03</pdfrwt>
<pdfrwt beam="2">  1        2 0.44967611E+00 0.66225506E+02</pdfrwt>
<totfact> 0.52926923E+01</totfact>
</mgrwt>
</event>
<event>
13    1  0.2742815E-008  0.8889018E+02  0.7546771E-02  0.1410395E+00
          2   -1    0    0  503    0  0.00000000000E+00  0.00000000000E+00  0.13015804090E+04  0.13015804090E+04  0.00000000000E+00 0. -1.
         -3   -1    0    0    0  501 -0.00000000000E+00 -0.00000000000E+00 -0.10460967562E+03  0.10460967562E+03  0.00000000000E+00 0.  1.
         25    2    1    2    0    0 -0.49704543679E+02 -0.56799718597E+02  0.73630337240E+02  0.16353603889E+03  0.12500343899E+03 0.  0.
         24    2    1    2    0    0  0.25453788815E+01 -0.40250259577E+02  0.22393270250E+03  0.24092214736E+03  0.79190046651E+02 0.  0.
         24    2    1    2    0    0  0.11282602834E+02  0.94937299171E+01  0.55182732283E+03  0.55767666519E+03  0.79198741421E+02 0.  0.
        -11    1    5    5    0    0 -0.12362783897E+02  0.25310398391E+01  0.12418381215E+02  0.17704823647E+02  0.00000000000E+00 0.  1.
         12    1    5    5    0    0  0.23645386732E+02  0.69626900780E+01  0.53940894162E+03  0.53997184155E+03  0.00000000000E+00 0. -1.
        -13    1    4    4    0    0  0.11343058749E+01  0.16483301962E+02  0.13095433736E+03  0.13199251633E+03  0.00000000000E+00 0.  1.
         14    1    4    4    0    0  0.14110730066E+01 -0.56733561539E+02  0.92978365143E+02  0.10892963103E+03  0.00000000000E+00 0. -1.
          5    1    3    3  502    0  0.46860436002E+01 -0.78635071716E+02  0.14666983351E+02  0.80266081933E+02  0.47000000000E+01 0.  1.
         -5    1    3    3    0  502 -0.54390587279E+02  0.21835353118E+02  0.58963353890E+02  0.83269956961E+02  0.47000000000E+01 0.  1.
          1    1    1    2  503    0  0.36685568333E+02 -0.27579032981E+00  0.35408357834E+03  0.35597905477E+03  0.00000000000E+00 0. -1.
         -4    1    1    2    0  501 -0.80900637002E+00  0.87832038587E+02 -0.65032075325E+01  0.88076178402E+02  0.00000000000E+00 0.  1.
<mgrwt>
<rscale>  0 0.57105859E+02</rscale>
<asrwt>0</asrwt>
<pdfrwt beam="1">  1        2 0.19140887E+00 0.36686605E+02</pdfrwt>
<pdfrwt beam="2">  1       -3 0.15383777E-01 0.88890184E+02</pdfrwt>
<totfact> 0.43955744E+02</totfact>
</mgrwt>
</event>
<event>
13    1  0.2742815E-008  0.2403228E+03  0.7546771E-02  0.1242090E+00
         -1   -1    0    0    0  501 -0.00000000000E+00  0.00000000000E+00  0.36475061427E+03  0.36475061427E+03  0.00000000000E+00 0.  1.
          2   -1    0    0  503    0  0.00000000000E+00 -0.00000000000E+00 -0.50131078722E+04  0.50131078722E+04  0.00000000000E+00 0. -1.
         25    2    1    2    0    0 -0.17681977402E+03  0.17568096033E+03 -0.15521202898E+03  0.31913124778E+03  0.12499978825E+03 0.  0.
         24    2    1    2    0    0  0.38843358348E+02 -0.55802098309E+02 -0.93770399149E+03  0.94348432692E+03  0.79064649618E+02 0.  0.
         24    2    1    2    0    0 -0.51066790188E+02  0.26491477182E+02 -0.96274058607E+03  0.96772642439E+03  0.79469371272E+02 0.  0.
        -11    1    4    4    0    0  0.24095371074E+02 -0.72697942300E+02 -0.57361074393E+03  0.57870101372E+03  0.00000000000E+00 0.  1.
         12    1    4    4    0    0  0.14747987273E+02  0.16895843991E+02 -0.36409324756E+03  0.36478331320E+03  0.00000000000E+00 0. -1.
        -13    1    5    5    0    0  0.13497435495E+02  0.24708788603E+02 -0.16587072400E+03  0.16824328242E+03  0.00000000000E+00 0.  1.
         14    1    5    5    0    0 -0.64564225683E+02  0.17826885786E+01 -0.79686986207E+03  0.79948314197E+03  0.00000000000E+00 0. -1.
          5    1    3    3  502    0 -0.13025043074E+03  0.11444838922E+03 -0.35959702793E+02  0.17714061851E+03  0.47000000000E+01 0.  1.
         -5    1    3    3    0  502 -0.46569343284E+02  0.61232571110E+02 -0.11925232619E+03  0.14199062927E+03  0.47000000000E+01 0.  1.
          1    1    1    2  503    0 -0.32776460869E+02 -0.50890968312E+02 -0.28171635404E+04  0.28178137980E+04  0.00000000000E+00 0. -1.
         -2    1    1    2    0  501  0.22181966673E+03 -0.95479370891E+02  0.22446288901E+03  0.32970268934E+03  0.00000000000E+00 0.  1.
<mgrwt>
<rscale>  0 0.12061238E+03</rscale>
<asrwt>0</asrwt>
<pdfrwt beam="2">  1        2 0.73722173E+00 0.60532529E+02</pdfrwt>
<pdfrwt beam="1">  1       -1 0.53639798E-01 0.24032279E+03</pdfrwt>
<totfact> 0.53874288E-01</totfact>
</mgrwt>
</event>
<event>
13    1  0.2742815E-008  0.1468083E+03  0.7546771E-02  0.1335817E+00
          2   -1    0    0  502    0  0.00000000000E+00  0.00000000000E+00  0.77104449601E+03  0.77104449601E+03  0.00000000000E+00 0. -1.
          2   -1    0    0  503    0 -0.00000000000E+00 -0.00000000000E+00 -0.10054829909E+04  0.10054829909E+04  0.00000000000E+00 0. -1.
         25    2    1    2    0    0 -0.17580623507E+03  0.87813009284E+01 -0.11802943837E+03  0.24606059865E+03  0.12501970385E+03 0.  0.
         24    2    1    2    0    0  0.41889023143E+02 -0.45583121752E+02  0.19858583789E+03  0.22316867416E+03  0.80841888080E+02 0.  0.
         24    2    1    2    0    0  0.29449637456E+02 -0.14444039338E+02  0.27513984027E+03  0.28877524139E+03  0.81322179749E+02 0.  0.
        -11    1    5    5    0    0  0.57027536961E+02 -0.16884802806E+02  0.20188358570E+03  0.21046191748E+03  0.00000000000E+00 0.  1.
         12    1    5    5    0    0 -0.27577899506E+02  0.24407634675E+01  0.73256254570E+02  0.78313323906E+02  0.00000000000E+00 0. -1.
        -13    1    4    4    0    0  0.21569774605E+02 -0.27910330102E+01  0.30331184919E+01  0.21960073988E+02  0.00000000000E+00 0.  1.
         14    1    4    4    0    0  0.20319248537E+02 -0.42792088742E+02  0.19555271939E+03  0.20120860017E+03  0.00000000000E+00 0. -1.
          5    1    3    3  501    0 -0.61542430335E+01 -0.29682191372E+02  0.73900764596E+01  0.31553294948E+02  0.47000000000E+01 0. -1.
         -5    1    3    3    0  501 -0.16965199204E+03  0.38463492301E+02 -0.12541951483E+03  0.21450730370E+03  0.47000000000E+01 0. -1.
          1    1    1    2  502    0 -0.12381450435E+02 -0.39174552629E+02  0.20535716260E+03  0.20942662228E+03  0.00000000000E+00 0. -1.
          1    1    1    2  503    0  0.11684902491E+03  0.90420412792E+02 -0.79549189726E+03  0.80909635043E+03  0.00000000000E+00 0. -1.
<mgrwt>
<rscale>  0 0.77663144E+02</rscale>
<asrwt>0</asrwt>
<pdfrwt beam="1">  1        2 0.11338890E+00 0.41084619E+02</pdfrwt>
<pdfrwt beam="2">  1        2 0.14786514E+00 0.14680832E+03</pdfrwt>
<totfact> 0.18672845E+02</totfact>
</mgrwt>
</event>
<event>
13    1  0.2742815E-008  0.1025373E+03  0.7546771E-02  0.1373316E+00
          2   -1    0    0  502    0  0.00000000000E+00  0.00000000000E+00  0.35216144017E+04  0.35216144017E+04  0.00000000000E+00 0. -1.
          2   -1    0    0  503    0 -0.00000000000E+00 -0.00000000000E+00 -0.13075652000E+04  0.13075652000E+04  0.00000000000E+00 0. -1.
         25    2    1    2    0    0 -0.11673484513E+03 -0.95556875123E+02 -0.25937735879E+03  0.32505394995E+03  0.12500126269E+03 0.  0.
         24    2    1    2    0    0  0.31532207813E+02  0.65639883856E+02  0.92067623473E+03  0.92693894460E+03  0.79171985823E+02 0.  0.
         24    2    1    2    0    0  0.27689930645E+02  0.61344718166E+01  0.94644777973E+03  0.95003584862E+03  0.77461925525E+02 0.  0.
        -11    1    4    4    0    0 -0.25758068417E+02  0.29329059766E+02  0.28682504199E+03  0.28946895611E+03  0.00000000000E+00 0.  1.
         12    1    4    4    0    0  0.57290276230E+02  0.36310824090E+02  0.63385119274E+03  0.63746998849E+03  0.00000000000E+00 0. -1.
        -13    1    5    5    0    0  0.13580813362E+02  0.35651449895E+02  0.74261206376E+03  0.74359138081E+03  0.00000000000E+00 0.  1.
         14    1    5    5    0    0  0.14109117283E+02 -0.29516978078E+02  0.20383571597E+03  0.20644446781E+03  0.00000000000E+00 0. -1.
          5    1    3    3  501    0 -0.80597413605E+01 -0.83517814027E+02 -0.13843026346E+03  0.16194200361E+03  0.47000000000E+01 0. -1.
         -5    1    3    3    0  501 -0.10867510377E+03 -0.12039061096E+02 -0.12094709533E+03  0.16311194635E+03  0.47000000000E+01 0. -1.
          1    1    1    2  502    0 -0.19870929033E+02 -0.37918509902E+02  0.16140186566E+04  0.16145862909E+04  0.00000000000E+00 0. -1.
          1    1    1    2  503    0  0.77383635703E+02  0.61701029351E+02 -0.10077161105E+04  0.10125645676E+04  0.00000000000E+00 0. -1.
<mgrwt>
<rscale>  0 0.66253957E+02</rscale>
<asrwt>0</asrwt>
<pdfrwt beam="1">  1        2 0.51788447E+00 0.42809663E+02</pdfrwt>
<pdfrwt beam="2">  1        2 0.19228900E+00 0.10253729E+03</pdfrwt>
<totfact> 0.54074917E+00</totfact>
</mgrwt>
</event>
<event>
13    1  0.2742815E-008  0.7043055E+02  0.7546771E-02  0.1373420E+00
          2   -1    0    0  503    0  0.00000000000E+00  0.00000000000E+00  0.17681168187E+04  0.17681168187E+04  0.00000000000E+00 0. -1.
          2   -1    0    0  502    0 -0.00000000000E+00 -0.00000000000E+00 -0.22172859399E+04  0.22172859399E+04  0.00000000000E+00 0. -1.
         25    2    1    2    0    0 -0.80823153529E+02 -0.66607286756E+02 -0.66866761343E+03  0.68826642441E+03  0.12500152369E+03 0.  0.
         24    2    1    2    0    0 -0.50151362029E+01  0.83241016889E+01 -0.78361308160E+02  0.10984334102E+03  0.76358514198E+02 0.  0.
         24    2    1    2    0    0 -0.82649915170E+01 -0.19898290419E+02  0.56047424552E+03  0.56675830543E+03  0.81359356124E+02 0.  0.
        -11    1    4    4    0    0  0.26796490441E+02 -0.20525102279E+02 -0.29908591828E+02  0.45098288090E+02  0.00000000000E+00 0.  1.
         12    1    4    4    0    0 -0.31811626644E+02  0.28849203968E+02 -0.48452716332E+02  0.64745052933E+02  0.00000000000E+00 0. -1.
        -13    1    5    5    0    0  0.33671212233E+02 -0.20113733904E+01  0.33679808108E+03  0.33848300337E+03  0.00000000000E+00 0.  1.
         14    1    5    5    0    0 -0.41936203750E+02 -0.17886917028E+02  0.22367616445E+03  0.22827530205E+03  0.00000000000E+00 0. -1.
          5    1    3    3  501    0  0.19298257587E+02 -0.33778568084E+02 -0.35895569022E+03  0.36108820522E+03  0.47000000000E+01 0. -1.
         -5    1    3    3    0  501 -0.10012141112E+03 -0.32828718672E+02 -0.30971192321E+03  0.32717821919E+03  0.47000000000E+01 0. -1.
          1    1    1    2  502    0  0.66762307470E+02  0.22233056415E+02 -0.14398924945E+04  0.14416108734E+04  0.00000000000E+00 0. -1.
          1    1    1    2  503    0  0.27340973779E+02  0.55948419071E+02  0.11772780493E+04  0.11789238143E+04  0.00000000000E+00 0. -1.
<mgrwt>
<rscale>  0 0.66225554E+02</rscale>
<asrwt>0</asrwt>
<pdfrwt beam="1">  1        2 0.26001718E+00 0.62271618E+02</pdfrwt>
<pdfrwt beam="2">  1        2 0.32607146E+00 0.70430545E+02</pdfrwt>
<totfact> 0.14466470E+01</totfact>
</mgrwt>
</event>
<event>
13    1  0.2742815E-008  0.8845602E+02  0.7546771E-02  0.1339335E+00
         -3   -1    0    0    0  501 -0.00000000000E+00  0.00000000000E+00  0.75703376148E+03  0.75703376148E+03  0.00000000000E+00 0.  1.
          2   -1    0    0  503    0  0.00000000000E+00 -0.00000000000E+00 -0.10625011861E+04  0.10625011861E+04  0.00000000000E+00 0. -1.
         25    2    1    2    0    0 -0.40463082028E+02 -0.44518482244E+02  0.24150869175E+03  0.27854175295E+03  0.12505960050E+03 0.  0.
         24    2    1    2    0    0  0.17224036240E+02  0.21063895106E+03  0.16124996655E+03  0.27909977531E+03  0.85027629261E+02 0.  0.
         24    2    1    2    0    0 -0.76894643198E+02 -0.15992454032E+03 -0.53500166688E+03  0.56963802240E+03  0.82292455563E+02 0.  0.
        -11    1    4    4    0    0 -0.28521062606E+02  0.77380219132E+02  0.86864066466E+02  0.11977694005E+03  0.00000000000E+00 0.  1.
         12    1    4    4    0    0  0.45745098846E+02  0.13325873193E+03  0.74385900085E+02  0.15932283526E+03  0.00000000000E+00 0. -1.
        -13    1    5    5    0    0 -0.66214387760E+02 -0.12035805821E+03 -0.28592294216E+03  0.31721023971E+03  0.00000000000E+00 0.  1.
         14    1    5    5    0    0 -0.10680255438E+02 -0.39566482109E+02 -0.24907872472E+03  0.25242778268E+03  0.00000000000E+00 0. -1.
          5    1    3    3  502    0 -0.54277504595E+02 -0.20635449140E+02  0.24360605582E+03  0.25047528760E+03  0.47000000000E+01 0. -1.
         -5    1    3    3    0  502  0.13814422567E+02 -0.23883033105E+02 -0.20973640699E+01  0.28066465349E+02  0.47000000000E+01 0. -1.
          1    1    1    2  503    0  0.70872590169E+02  0.53111172699E+02 -0.42387429827E+03  0.43302787605E+03  0.00000000000E+00 0. -1.
         -4    1    1    2    0  501  0.29261098817E+02 -0.59307101193E+02  0.25064988219E+03  0.25922752091E+03  0.00000000000E+00 0.  1.
<mgrwt>
<rscale>  0 0.76484259E+02</rscale>
<asrwt>0</asrwt>
<pdfrwt beam="2">  1        2 0.15625017E+00 0.88456016E+02</pdfrwt>
<pdfrwt beam="1">  1       -3 0.11132849E+00 0.66132777E+02</pdfrwt>
<totfact> 0.11754772E+01</totfact>
</mgrwt>
</event>
<event>
13    1  0.2742815E-008  0.1713753E+03  0.7546771E-02  0.1262207E+00
          2   -1    0    0  503    0  0.00000000000E+00  0.00000000000E+00  0.42308847640E+03  0.42308847640E+03  0.00000000000E+00 0. -1.
          2   -1    0    0  502    0 -0.00000000000E+00 -0.00000000000E+00 -0.42172145493E+04  0.42172145493E+04  0.00000000000E+00 0. -1.
         25    2    1    2    0    0 -0.63694022045E+01  0.66989372478E+02 -0.11346227394E+04  0.11434697810E+04  0.12500493532E+03 0.  0.
         24    2    1    2    0    0 -0.61287745795E+02 -0.79547435347E+02 -0.42005292917E+03  0.43818739316E+03  0.74025306226E+02 0.  0.
         24    2    1    2    0    0 -0.12000599379E+03  0.15971746604E+03 -0.41389566582E+03  0.46645533721E+03  0.79748679722E+02 0.  0.
        -11    1    5    5    0    0 -0.64607223036E+02  0.14241969135E+03 -0.31776810171E+03  0.35416666729E+03  0.00000000000E+00 0.  1.
         12    1    5    5    0    0 -0.55398770751E+02  0.17297774692E+02 -0.96127564112E+02  0.11228866992E+03  0.00000000000E+00 0. -1.
        -13    1    4    4    0    0  0.83544551927E+01 -0.50990327285E+01 -0.53831966181E+01  0.11170311641E+02  0.00000000000E+00 0.  1.
         14    1    4    4    0    0 -0.69642200988E+02 -0.74448402618E+02 -0.41466973255E+03  0.42701708152E+03  0.00000000000E+00 0. -1.
          5    1    3    3  501    0  0.34615155981E+02  0.39090826457E+02 -0.17820485491E+03  0.18575618981E+03  0.47000000000E+01 0. -1.
         -5    1    3    3    0  501 -0.40984558185E+02  0.27898546021E+02 -0.95641788454E+03  0.95771359118E+03  0.47000000000E+01 0. -1.
          1    1    1    2  502    0  0.60935675726E+02 -0.33383639801E+02 -0.21893773529E+04  0.21904795862E+04  0.00000000000E+00 0. -1.
          1    1    1    2  503    0  0.12672746606E+03 -0.11377576337E+03  0.36382261448E+03  0.40171092815E+03  0.00000000000E+00 0. -1.
<mgrwt>
<rscale>  0 0.10912080E+03</rscale>
<asrwt>0</asrwt>
<pdfrwt beam="1">  1        2 0.62218893E-01 0.17137534E+03</pdfrwt>
<pdfrwt beam="2">  1        2 0.62017862E+00 0.69481105E+02</pdfrwt>
<totfact> 0.69632792E+00</totfact>
</mgrwt>
</event>
<event>
13    1  0.2742815E-008  0.1083165E+03  0.7546771E-02  0.1336583E+00
          2   -1    0    0  502    0  0.00000000000E+00  0.00000000000E+00  0.25581768654E+04  0.25581768654E+04  0.00000000000E+00 0. -1.
          2   -1    0    0  503    0 -0.00000000000E+00 -0.00000000000E+00 -0.20875907415E+04  0.20875907415E+04  0.00000000000E+00 0. -1.
         25    2    1    2    0    0  0.14042779465E+03 -0.13991083708E+02 -0.27779120043E+03  0.33571906089E+03  0.12499448338E+03 0.  0.
         24    2    1    2    0    0  0.20987964755E+03 -0.12570997482E+03 -0.12382782405E+03  0.28175689474E+03  0.64816305802E+02 0.  0.
         24    2    1    2    0    0 -0.38923447033E+03  0.29530154095E+03  0.72625059420E+03  0.87890348924E+03  0.79529521789E+02 0.  0.
        -13    1    5    5    0    0 -0.99327800652E+02  0.81929680259E+02  0.25739984264E+03  0.28780751116E+03  0.00000000000E+00 0.  1.
         14    1    5    5    0    0 -0.28990666968E+03  0.21337186069E+03  0.46885075156E+03  0.59109597808E+03  0.00000000000E+00 0. -1.
        -13    1    4    4    0    0  0.11318697143E+03 -0.40955009084E+02 -0.85299476595E+02  0.14752831585E+03  0.00000000000E+00 0.  1.
         14    1    4    4    0    0  0.96692676119E+02 -0.84754965733E+02 -0.38528347455E+02  0.13422857888E+03  0.00000000000E+00 0. -1.
          5    1    3    3  501    0  0.19447789586E+02  0.23965876180E+02 -0.15856867483E+03  0.16161279150E+03  0.47000000000E+01 0.  1.
         -5    1    3    3    0  501  0.12098000506E+03 -0.37956959888E+02 -0.11922252560E+03  0.17410626939E+03  0.47000000000E+01 0.  1.
          1    1    1    2  502    0  0.11531873510E+02 -0.10754680937E+03  0.16453857203E+04  0.16489370725E+04  0.00000000000E+00 0. -1.
          1    1    1    2  503    0  0.27395154619E+02 -0.48053673055E+02 -0.14994311661E+04  0.15004510895E+04  0.00000000000E+00 0. -1.
<mgrwt>
<rscale>  0 0.77404337E+02</rscale>
<asrwt>0</asrwt>
<pdfrwt beam="1">  1        2 0.37620248E+00 0.10831652E+03</pdfrwt>
<pdfrwt beam="2">  1        2 0.30699864E+00 0.55314103E+02</pdfrwt>
<totfact> 0.66944965E+00</totfact>
</mgrwt>
</event>
<event>
13    1  0.2742815E-008  0.7444261E+02  0.7546771E-02  0.1391714E+00
          2   -1    0    0  502    0  0.00000000000E+00  0.00000000000E+00  0.60769434172E+03  0.60769434172E+03  0.00000000000E+00 0. -1.
          2   -1    0    0  503    0 -0.00000000000E+00 -0.00000000000E+00 -0.13609401311E+04  0.13609401311E+04  0.00000000000E+00 0. -1.
         25    2    1    2    0    0  0.14623638868E+03 -0.47877658753E+02 -0.63551047125E+03  0.66571589090E+03  0.12500694679E+03 0.  0.
         24    2    1    2    0    0 -0.22960760907E+02 -0.61814195601E+02 -0.25902730623E+02  0.10732034819E+03  0.80613363423E+02 0.  0.
         24    2    1    2    0    0 -0.74650061983E+01  0.66245753448E+02  0.15352596235E+02  0.10570944824E+03  0.80588827195E+02 0.  0.
        -13    1    4    4    0    0 -0.44564892821E+02 -0.67669495132E+02 -0.14921987266E+02  0.82388445473E+02  0.00000000000E+00 0.  1.
         14    1    4    4    0    0  0.21604131914E+02  0.58552995306E+01 -0.10980743357E+02  0.24931902716E+02  0.00000000000E+00 0. -1.
        -13    1    5    5    0    0  0.35080552260E+02  0.42586983799E+02  0.19180602477E+01  0.55208471190E+02  0.00000000000E+00 0.  1.
         14    1    5    5    0    0 -0.42545558458E+02  0.23658769649E+02  0.13434535987E+02  0.50500977050E+02  0.00000000000E+00 0. -1.
          5    1    3    3  501    0  0.12815256499E+03 -0.82979450954E+02 -0.42822925826E+03  0.45465487661E+03  0.47000000000E+01 0.  1.
         -5    1    3    3    0  501  0.18083823693E+02  0.35101792201E+02 -0.20728121299E+03  0.21106101429E+03  0.47000000000E+01 0.  1.
          1    1    1    2  502    0 -0.45152231542E+02  0.23231912133E+02  0.48777283321E+03  0.49040879129E+03  0.00000000000E+00 0. -1.
          1    1    1    2  503    0 -0.70658390033E+02  0.20214188773E+02 -0.59495801697E+03  0.59947999422E+03  0.00000000000E+00 0. -1.
<mgrwt>
<rscale>  0 0.61482328E+02</rscale>
<asrwt>0</asrwt>
<pdfrwt beam="1">  1        2 0.89366815E-01 0.50778399E+02</pdfrwt>
<pdfrwt beam="2">  1        2 0.20013825E+00 0.74442613E+02</pdfrwt>
<totfact> 0.16213400E+02</totfact>
</mgrwt>
</event>
<event>
13    1  0.2742815E-008  0.1164043E+03  0.7546771E-02  0.1281689E+00
          2   -1    0    0  502    0  0.00000000000E+00  0.00000000000E+00  0.43889366439E+04  0.43889366439E+04  0.00000000000E+00 0. -1.
          2   -1    0    0  503    0 -0.00000000000E+00 -0.00000000000E+00 -0.41930450554E+04  0.41930450554E+04  0.00000000000E+00 0. -1.
         25    2    1    2    0    0  0.30750189791E+03 -0.29573059965E+03  0.69660484824E+02  0.44998574289E+03  0.12498232224E+03 0.  0.
         24    2    1    2    0    0 -0.12946132325E+04 -0.22498693945E+03  0.94094636022E+03  0.16197136489E+04  0.10700330295E+03 0.  0.
         24    2    1    2    0    0  0.11701738123E+04  0.51171501910E+03  0.96789183434E+03  0.16045405398E+04  0.81097034212E+02 0.  0.
        -11    1    5    5    0    0  0.59888252785E+02  0.27704157365E+02  0.74360708014E+02  0.99416487834E+02  0.00000000000E+00 0.  1.
         12    1    5    5    0    0  0.11102855596E+04  0.48401086174E+03  0.89353112633E+03  0.15051240520E+04  0.00000000000E+00 0. -1.
        -13    1    4    4    0    0 -0.52606769228E+03 -0.10197254739E+03  0.44755505040E+03  0.69817701224E+03  0.00000000000E+00 0.  1.
         14    1    4    4    0    0 -0.76854554025E+03 -0.12301439205E+03  0.49339130982E+03  0.92153663666E+03  0.00000000000E+00 0. -1.
          5    1    3    3  501    0  0.16709299652E+03 -0.12075209861E+03  0.89327851881E+02  0.22472804437E+03  0.47000000000E+01 0.  1.
         -5    1    3    3    0  501  0.14040890139E+03 -0.17497850104E+03 -0.19667367057E+02  0.22525769852E+03  0.47000000000E+01 0.  1.
          1    1    1    2  502    0 -0.72201919018E+02  0.44432531201E+02  0.15604040100E+04  0.15627053598E+04  0.00000000000E+00 0. -1.
          1    1    1    2  503    0 -0.11086055871E+03 -0.35430011208E+02 -0.33430111009E+04  0.33450364079E+04  0.00000000000E+00 0. -1.
<mgrwt>
<rscale>  0 0.99340634E+02</rscale>
<asrwt>0</asrwt>
<pdfrwt beam="1">  1        2 0.64543186E+00 0.84778340E+02</pdfrwt>
<pdfrwt beam="2">  1        2 0.61662427E+00 0.11640428E+03</pdfrwt>
<totfact> 0.33199970E-02</totfact>
</mgrwt>
</event>
<event>
13    1  0.2742815E-008  0.1201215E+03  0.7546771E-02  0.1262711E+00
          2   -1    0    0  502    0  0.00000000000E+00  0.00000000000E+00  0.89716223148E+03  0.89716223148E+03  0.00000000000E+00 0. -1.
          4   -1    0    0  503    0 -0.00000000000E+00 -0.00000000000E+00 -0.56576077894E+03  0.56576077894E+03  0.00000000000E+00 0. -1.
         25    2    1    2    0    0 -0.11520788423E+03 -0.15745031728E+03 -0.16327330452E+03  0.28345917853E+03  0.12500989928E+03 0.  0.
         24    2    1    2    0    0  0.41881198782E+02  0.28018346245E+02  0.20270399318E+03  0.22467210137E+03  0.82762200000E+02 0.  0.
         24    2    1    2    0    0 -0.71289072492E+02 -0.25529801798E+02  0.17229473255E+03  0.20422224699E+03  0.79292803345E+02 0.  0.
        -13    1    5    5    0    0 -0.53471682841E+02 -0.47606113509E+02  0.15566188171E+03  0.17133646526E+03  0.00000000000E+00 0.  1.
         14    1    5    5    0    0 -0.17817389651E+02  0.22076311712E+02  0.16632850842E+02  0.32885781728E+02  0.00000000000E+00 0. -1.
        -13    1    4    4    0    0 -0.12247596044E+02  0.21247376530E+01 -0.84892089472E+00  0.12459485770E+02  0.00000000000E+00 0.  1.
         14    1    4    4    0    0  0.54128794826E+02  0.25893608592E+02  0.20355291407E+03  0.21221261560E+03  0.00000000000E+00 0. -1.
          5    1    3    3  501    0 -0.83282443007E+02 -0.84248822216E+02 -0.16531682413E+03  0.20343444079E+03  0.47000000000E+01 0.  1.
         -5    1    3    3    0  501 -0.31925441226E+02 -0.73201495067E+02  0.20435196086E+01  0.80024737737E+02  0.47000000000E+01 0.  1.
          1    1    1    2  502    0  0.70565706208E+02  0.90666715809E+02  0.41958681211E+03  0.43503225759E+03  0.00000000000E+00 0. -1.
          3    1    1    2  503    0  0.74050051736E+02  0.64295057026E+02 -0.29991078078E+03  0.31553722593E+03  0.00000000000E+00 0. -1.
<mgrwt>
<rscale>  0 0.10885168E+03</rscale>
<asrwt>0</asrwt>
<pdfrwt beam="1">  1        2 0.13193562E+00 0.12012151E+03</pdfrwt>
<pdfrwt beam="2">  1        4 0.83200114E-01 0.98639186E+02</pdfrwt>
<totfact> 0.22264675E+01</totfact>
</mgrwt>
</event>
<event>
13    1  0.2742815E-008  0.9045186E+02  0.7546771E-02  0.1447932E+00
          2   -1    0    0  502    0  0.00000000000E+00  0.00000000000E+00  0.13071306257E+04  0.13071306257E+04  0.00000000000E+00 0. -1.
          2   -1    0    0  503    0 -0.00000000000E+00 -0.00000000000E+00 -0.17095107238E+04  0.17095107238E+04  0.00000000000E+00 0. -1.
         25    2    1    2    0    0 -0.19303293610E+02  0.78030756342E+01 -0.53081855328E+03  0.54573252900E+03  0.12498860576E+03 0.  0.
         24    2    1    2    0    0  0.43992710354E+02 -0.11030188312E+03 -0.88325733259E+02  0.16883980315E+03  0.81262414369E+02 0.  0.
         24    2    1    2    0    0  0.81278115328E+01 -0.39917219122E+02  0.23079616514E+03  0.24897862909E+03  0.84047856612E+02 0.  0.
        -11    1    4    4    0    0  0.14562345805E+02 -0.22322648465E+02  0.14506299048E+02  0.30344608448E+02  0.00000000000E+00 0.  1.
         12    1    4    4    0    0  0.29430364549E+02 -0.87979234653E+02 -0.10283203231E+03  0.13849519470E+03  0.00000000000E+00 0. -1.
        -11    1    5    5    0    0  0.24987276270E+02 -0.58184339508E+02  0.12287817257E+03  0.13823467956E+03  0.00000000000E+00 0.  1.
         12    1    5    5    0    0 -0.16859464737E+02  0.18267120386E+02  0.10791799257E+03  0.11074394953E+03  0.00000000000E+00 0. -1.
          5    1    3    3  501    0 -0.38611859689E+02 -0.24509084346E+02 -0.48061496930E+03  0.48280887485E+03  0.47000000000E+01 0. -1.
         -5    1    3    3    0  501  0.19308566079E+02  0.32312159981E+02 -0.50203583987E+02  0.62923654151E+02  0.47000000000E+01 0. -1.
          1    1    1    2  502    0 -0.11657649660E+02  0.12546176263E+03  0.10154569166E+04  0.10232444987E+04  0.00000000000E+00 0. -1.
          1    1    1    2  503    0 -0.21159578618E+02  0.16954263974E+02 -0.10294888933E+04  0.10298458895E+04  0.00000000000E+00 0. -1.
<mgrwt>
<rscale>  0 0.49522938E+02</rscale>
<asrwt>0</asrwt>
<pdfrwt beam="1">  1        2 0.19222509E+00 0.90451856E+02</pdfrwt>
<pdfrwt beam="2">  1        2 0.25139863E+00 0.27114108E+02</pdfrwt>
<totfact> 0.44991885E+01</totfact>
</mgrwt>
</event>
<event>
13    1  0.2742815E-008  0.1229065E+03  0.7546771E-02  0.1282956E+00
          2   -1    0    0  503    0  0.00000000000E+00  0.00000000000E+00  0.80933657680E+03  0.80933657680E+03  0.00000000000E+00 0. -1.
          2   -1    0    0  502    0 -0.00000000000E+00 -0.00000000000E+00 -0.72737359848E+03  0.72737359848E+03  0.00000000000E+00 0. -1.
         25    2    1    2    0    0 -0.44644852020E+02  0.92040717292E+02 -0.10708518408E+03  0.19379480168E+03  0.12499812821E+03 0.  0.
         24    2    1    2    0    0  0.61967327889E+02  0.47365803757E+02  0.76928567354E+02  0.13816730415E+03  0.84194598227E+02 0.  0.
         24    2    1    2    0    0  0.21048918848E+02  0.46253430351E+02  0.98925395375E+02  0.14519101211E+03  0.93336805939E+02 0.  0.
        -11    1    5    5    0    0 -0.36479121811E+02  0.27569752791E+02  0.45066076216E+02  0.64201003283E+02  0.00000000000E+00 0.  1.
         12    1    5    5    0    0  0.57528040658E+02  0.18683677560E+02  0.53859319159E+02  0.80990008825E+02  0.00000000000E+00 0. -1.
        -13    1    4    4    0    0  0.67608974037E+02  0.47811727104E+01  0.64219206440E+02  0.93369906601E+02  0.00000000000E+00 0.  1.
         14    1    4    4    0    0 -0.56416461480E+01  0.42584631047E+02  0.12709360914E+02  0.44797397553E+02  0.00000000000E+00 0. -1.
          5    1    3    3  501    0  0.16313290892E+02  0.67703889086E+02 -0.10728161887E+03  0.12798974882E+03  0.47000000000E+01 0. -1.
         -5    1    3    3    0  501 -0.60958142912E+02  0.24336828206E+02  0.19643478678E+00  0.65805052854E+02  0.47000000000E+01 0. -1.
          1    1    1    2  502    0 -0.56812076668E+02 -0.10849862909E+03 -0.51299947542E+03  0.52741636906E+03  0.00000000000E+00 0. -1.
          1    1    1    2  503    0  0.18440681951E+02 -0.77161322313E+02  0.52619367510E+03  0.53214068828E+03  0.00000000000E+00 0. -1.
<mgrwt>
<rscale>  0 0.98745618E+02</rscale>
<asrwt>0</asrwt>
<pdfrwt beam="1">  1        2 0.11902009E+00 0.79334283E+02</pdfrwt>
<pdfrwt beam="2">  1        2 0.10696671E+00 0.12290647E+03</pdfrwt>
<totfact> 0.26097643E+02</totfact>
</mgrwt>
</event>
<event>
13    1  0.2742815E-008  0.9829596E+02  0.7546771E-02  0.1498772E+00
          2   -1    0    0  503    0  0.00000000000E+00  0.00000000000E+00  0.92840345033E+03  0.92840345033E+03  0.00000000000E+00 0. -1.
         -1   -1    0    0    0  501 -0.00000000000E+00 -0.00000000000E+00 -0.77042842302E+03  0.77042842302E+03  0.00000000000E+00 0.  1.
         25    2    1    2    0    0 -0.26794798674E+02  0.11480134335E+03  0.16823797161E+03  0.24046973873E+03  0.12499748190E+03 0.  0.
         24    2    1    2    0    0 -0.28498620428E+02  0.38606281581E+01  0.73936109476E+02  0.11292002675E+03  0.80357378886E+02 0.  0.
         24    2    1    2    0    0  0.88688227703E+02 -0.43513281101E+02  0.45885634507E+03  0.47623548150E+03  0.80573451354E+02 0.  0.
        -11    1    4    4    0    0 -0.56313328805E+02 -0.38267192714E+01  0.50700406498E+02  0.75870718994E+02  0.00000000000E+00 0.  1.
         12    1    4    4    0    0  0.27814708377E+02  0.76873474295E+01  0.23235702978E+02  0.37049307760E+02  0.00000000000E+00 0. -1.
        -11    1    5    5    0    0 -0.45558895274E+01  0.14059234303E+02  0.27996952650E+02  0.31658293641E+02  0.00000000000E+00 0.  1.
         12    1    5    5    0    0  0.93244117231E+02 -0.57572515404E+02  0.43085939242E+03  0.44457718786E+03  0.00000000000E+00 0. -1.
          5    1    3    3  502    0  0.29558319802E+02  0.50717207913E+02  0.87653441447E+01  0.59538648842E+02  0.47000000000E+01 0. -1.
         -5    1    3    3    0  502 -0.56353118476E+02  0.64084135436E+02  0.15947262746E+03  0.18093108989E+03  0.47000000000E+01 0. -1.
          1    1    1    2  503    0 -0.18820536870E-01  0.17362785659E+02  0.15917683481E+03  0.16012098995E+03  0.00000000000E+00 0. -1.
         -2    1    1    2    0  501 -0.33375988064E+02 -0.92511476064E+02 -0.70223223367E+03  0.70908563642E+03  0.00000000000E+00 0.  1.
<mgrwt>
<rscale>  0 0.41312138E+02</rscale>
<asrwt>0</asrwt>
<pdfrwt beam="1">  1        2 0.13652992E+00 0.17362796E+02</pdfrwt>
<pdfrwt beam="2">  1       -1 0.11329830E+00 0.98295962E+02</pdfrwt>
<totfact> 0.32165211E+01</totfact>
</mgrwt>
</event>
<event>
13    1  0.2742815E-008  0.7048890E+02  0.7546771E-02  0.1387723E+00
          2   -1    0    0  502    0  0.00000000000E+00  0.00000000000E+00  0.17418862194E+04  0.17418862194E+04  0.00000000000E+00 0. -1.
          2   -1    0    0  503    0 -0.00000000000E+00 -0.00000000000E+00 -0.17883024170E+04  0.17883024170E+04  0.00000000000E+00 0. -1.
         25    2    1    2    0    0  0.18672400357E+03 -0.66434164678E+02  0.42406793685E+02  0.23813118091E+03  0.12501508480E+03 0.  0.
         24    2    1    2    0    0 -0.20065839103E+02  0.42948646592E+02  0.39548723791E+02  0.10139919615E+03  0.80439239703E+02 0.  0.
         24    2    1    2    0    0 -0.12775195986E+03  0.23052387560E+02  0.12738591650E+03  0.19830800047E+03  0.79037431053E+02 0.  0.
        -11    1    4    4    0    0  0.25416491051E+01 -0.22997256708E+02  0.14586531929E+02  0.27351429761E+02  0.00000000000E+00 0.  1.
         12    1    4    4    0    0 -0.22607488208E+02  0.65945903300E+02  0.24962191862E+02  0.74047766392E+02  0.00000000000E+00 0. -1.
        -13    1    5    5    0    0 -0.38241431160E+02  0.77416823641E+01  0.93616518132E+02  0.10142185746E+03  0.00000000000E+00 0.  1.
         14    1    5    5    0    0 -0.89510528700E+02  0.15310705196E+02  0.33769398370E+02  0.96886143013E+02  0.00000000000E+00 0. -1.
          5    1    3    3  501    0  0.14477424354E+03 -0.32364090897E+02 -0.26150719747E+02  0.15070821515E+03  0.47000000000E+01 0.  1.
         -5    1    3    3    0  501  0.41949760029E+02 -0.34070073781E+02  0.68557513432E+02  0.87422965758E+02  0.47000000000E+01 0.  1.
          1    1    1    2  502    0 -0.44975989641E+02 -0.54608329583E+02  0.13669092607E+04  0.13687387758E+04  0.00000000000E+00 0. -1.
          1    1    1    2  503    0  0.60697850368E+01  0.55041460109E+02 -0.16226668923E+04  0.16236114831E+04  0.00000000000E+00 0. -1.
<mgrwt>
<rscale>  0 0.62476649E+02</rscale>
<asrwt>0</asrwt>
<pdfrwt beam="1">  1        2 0.25615974E+00 0.70488900E+02</pdfrwt>
<pdfrwt beam="2">  1        2 0.26298565E+00 0.55375126E+02</pdfrwt>
<totfact> 0.24062479E+01</totfact>
</mgrwt>
</event>
<event>
13    1  0.2742815E-008  0.7695329E+02  0.7546771E-02  0.1515593E+00
          2   -1    0    0  502    0  0.00000000000E+00  0.00000000000E+00  0.31336375169E+03  0.31336375169E+03  0.00000000000E+00 0. -1.
          2   -1    0    0  503    0 -0.00000000000E+00 -0.00000000000E+00 -0.19614401905E+04  0.19614401905E+04  0.00000000000E+00 0. -1.
         25    2    1    2    0    0 -0.24406199377E+02  0.86024156367E+01 -0.72294632125E+03  0.73413023649E+03  0.12500462629E+03 0.  0.
         24    2    1    2    0    0 -0.35910362813E+02  0.14345193778E+00 -0.55133234051E+02  0.10355854529E+03  0.79969519629E+02 0.  0.
         24    2    1    2    0    0  0.35093609816E+01 -0.41994396837E+02 -0.55795962522E+01  0.90461699544E+02  0.79852001915E+02 0.  0.
        -13    1    4    4    0    0 -0.49942790182E+02  0.71215811334E+01 -0.46072868033E+01  0.50657934232E+02  0.00000000000E+00 0.  1.
         14    1    4    4    0    0  0.14032427369E+02 -0.69781291956E+01 -0.50525947248E+02  0.52900611057E+02  0.00000000000E+00 0. -1.
        -13    1    5    5    0    0 -0.14922408489E+02  0.32470708384E+01  0.27505360630E+02  0.31460556376E+02  0.00000000000E+00 0.  1.
         14    1    5    5    0    0  0.18431769471E+02 -0.45241467675E+02 -0.33084956882E+02  0.59001143167E+02  0.00000000000E+00 0. -1.
          5    1    3    3  501    0 -0.34906201776E+02  0.35766419494E+02 -0.68101073241E+03  0.68285824836E+03  0.47000000000E+01 0.  1.
         -5    1    3    3    0  501  0.10500002399E+02 -0.27164003857E+02 -0.41935588840E+02  0.51271988135E+02  0.47000000000E+01 0.  1.
          1    1    1    2  502    0 -0.16891946873E+02  0.10290676243E+02  0.23936220844E+03  0.24017806460E+03  0.00000000000E+00 0. -1.
          1    1    1    2  503    0  0.73699148081E+02  0.22957853019E+02 -0.11037794957E+04  0.11064753963E+04  0.00000000000E+00 0. -1.
<mgrwt>
<rscale>  0 0.39014250E+02</rscale>
<asrwt>0</asrwt>
<pdfrwt beam="1">  1        2 0.46082904E-01 0.19779684E+02</pdfrwt>
<pdfrwt beam="2">  1        2 0.28844709E+00 0.76953290E+02</pdfrwt>
<totfact> 0.16249917E+02</totfact>
</mgrwt>
</event>
<event>
13    1  0.2742815E-008  0.5383638E+02  0.7546771E-02  0.1476679E+00
          2   -1    0    0  502    0  0.00000000000E+00  0.00000000000E+00  0.10930107254E+04  0.10930107254E+04  0.00000000000E+00 0. -1.
          4   -1    0    0  503    0 -0.00000000000E+00 -0.00000000000E+00 -0.59458577644E+03  0.59458577644E+03  0.00000000000E+00 0. -1.
         25    2    1    2    0    0 -0.10850120404E+03 -0.21459066992E+03 -0.75900944633E+02  0.28144084453E+03  0.12500531459E+03 0.  0.
         24    2    1    2    0    0  0.10373950900E+01  0.65621666367E+02  0.32693282210E+02  0.10886833513E+03  0.80474743906E+02 0.  0.
         24    2    1    2    0    0  0.80201796506E+02  0.69487058235E+02  0.65321884931E+03  0.66688345028E+03  0.82327952288E+02 0.  0.
        -13    1    5    5    0    0 -0.26721457525E+01  0.28978869625E+02  0.61741923052E+02  0.68256723551E+02  0.00000000000E+00 0.  1.
         14    1    5    5    0    0  0.82873942259E+02  0.40508188610E+02  0.59147692626E+03  0.59862672672E+03  0.00000000000E+00 0. -1.
        -13    1    4    4    0    0 -0.19665360005E+02  0.36180325800E+01 -0.17405453858E+02  0.26509741000E+02  0.00000000000E+00 0.  1.
         14    1    4    4    0    0  0.20702755095E+02  0.62003633787E+02  0.50098736068E+02  0.82358594129E+02  0.00000000000E+00 0. -1.
          5    1    3    3  501    0  0.11204623964E+02 -0.59044255465E+02  0.19231348687E+02  0.63274817060E+02  0.47000000000E+01 0. -1.
         -5    1    3    3    0  501 -0.11970582800E+03 -0.15554641446E+03 -0.95132293321E+02  0.21816602747E+03  0.47000000000E+01 0. -1.
          1    1    1    2  502    0  0.26599595020E+02  0.25710620926E+02  0.25612418219E+03  0.25878209209E+03  0.00000000000E+00 0. -1.
          3    1    1    2  503    0  0.66241742359E+00  0.53771324393E+02 -0.36771042015E+03  0.37162177978E+03  0.00000000000E+00 0. -1.
<mgrwt>
<rscale>  0 0.44627754E+02</rscale>
<asrwt>0</asrwt>
<pdfrwt beam="1">  1        2 0.16073687E+00 0.36994249E+02</pdfrwt>
<pdfrwt beam="2">  1        4 0.87439085E-01 0.53836379E+02</pdfrwt>
<totfact> 0.15762366E+01</totfact>
</mgrwt>
</event>
<event>
13    1  0.2742815E-008  0.7827204E+02  0.7546771E-02  0.1359478E+00
          2   -1    0    0  503    0  0.00000000000E+00  0.00000000000E+00  0.10282342513E+04  0.10282342513E+04  0.00000000000E+00 0. -1.
          2   -1    0    0  502    0 -0.00000000000E+00 -0.00000000000E+00 -0.71283336293E+03  0.71283336293E+03  0.00000000000E+00 0. -1.
         25    2    1    2    0    0  0.61409934117E+02 -0.63360267759E+02 -0.12328138309E+03  0.19649212765E+03  0.12500061310E+03 0.  0.
         24    2    1    2    0    0  0.11281473617E+02 -0.33321675178E+02  0.31903589970E+02  0.94264372569E+02  0.81426821129E+02 0.  0.
         24    2    1    2    0    0 -0.80439059966E+01 -0.25495668919E+02  0.65236268534E+02  0.10713118956E+03  0.80663420999E+02 0.  0.
        -11    1    5    5    0    0  0.11467744045E+02  0.26580655639E+02  0.17396727825E+02  0.33774051381E+02  0.00000000000E+00 0.  1.
         12    1    5    5    0    0 -0.19511650042E+02 -0.52076324558E+02  0.47839540709E+02  0.73357138180E+02  0.00000000000E+00 0. -1.
        -13    1    4    4    0    0  0.12329995795E+02 -0.59135695949E+02  0.11848289195E+02  0.61558437996E+02  0.00000000000E+00 0.  1.
         14    1    4    4    0    0 -0.10485221784E+01  0.25814020770E+02  0.20055300775E+02  0.32705934573E+02  0.00000000000E+00 0. -1.
          5    1    3    3  501    0 -0.33236592853E+02 -0.44635919920E+02 -0.53392002714E+02  0.77264690547E+02  0.47000000000E+01 0.  1.
         -5    1    3    3    0  501  0.94646526970E+02 -0.18724347839E+02 -0.69889380376E+02  0.11922743711E+03  0.47000000000E+01 0.  1.
          1    1    1    2  502    0 -0.25285472989E+02  0.73081681127E+02 -0.49664706184E+03  0.50263166563E+03  0.00000000000E+00 0. -1.
          1    1    1    2  503    0 -0.39362028748E+02  0.49095930729E+02  0.83818947483E+03  0.84054825884E+03  0.00000000000E+00 0. -1.
<mgrwt>
<rscale>  0 0.70181249E+02</rscale>
<asrwt>0</asrwt>
<pdfrwt beam="1">  1        2 0.15121092E+00 0.62926781E+02</pdfrwt>
<pdfrwt beam="2">  1        2 0.10482843E+00 0.78272044E+02</pdfrwt>
<totfact> 0.20264516E+02</totfact>
</mgrwt>
</event>
<event>
13    1  0.2742815E-008  0.8612828E+02  0.7546771E-02  0.1322503E+00
          2   -1    0    0  502    0  0.00000000000E+00  0.00000000000E+00  0.15893123403E+04  0.15893123403E+04  0.00000000000E+00 0. -1.
          2   -1    0    0  503    0 -0.00000000000E+00 -0.00000000000E+00 -0.16647644938E+04  0.16647644938E+04  0.00000000000E+00 0. -1.
         25    2    1    2    0    0  0.98829222444E+02  0.44398801530E+02 -0.52454804552E+03  0.55001441907E+03  0.12500696118E+03 0.  0.
         24    2    1    2    0    0  0.32908495101E+02 -0.21431569375E+02 -0.12106741857E+03  0.14982959342E+03  0.79052552214E+02 0.  0.
         24    2    1    2    0    0  0.27437624112E+02  0.74828805971E+01  0.11211515508E+01  0.85935310476E+02  0.81085164407E+02 0.  0.
        -11    1    5    5    0    0  0.16846029867E+01  0.69591904424E+01  0.39262918082E+02  0.39910461725E+02  0.00000000000E+00 0.  1.
         12    1    5    5    0    0  0.25753021125E+02  0.52369015469E+00 -0.38141766531E+02  0.46024848751E+02  0.00000000000E+00 0. -1.
        -13    1    4    4    0    0  0.38595703900E+02 -0.18575263533E+02 -0.13111608602E+03  0.13793511804E+03  0.00000000000E+00 0.  1.
         14    1    4    4    0    0 -0.56872087994E+01 -0.28563058428E+01  0.10048667457E+02  0.11894475384E+02  0.00000000000E+00 0. -1.
          5    1    3    3  501    0 -0.97570966773E+01  0.43303829956E+01 -0.27107891568E+03  0.27132972871E+03  0.47000000000E+01 0.  1.
         -5    1    3    3    0  501  0.10858631912E+03  0.40068418534E+02 -0.25346912984E+03  0.27868469037E+03  0.47000000000E+01 0.  1.
          1    1    1    2  502    0 -0.76978124865E+02 -0.16582059883E+02  0.15158165802E+04  0.15178605012E+04  0.00000000000E+00 0. -1.
          1    1    1    2  503    0 -0.82197216792E+02 -0.13868052869E+02 -0.94677442115E+03  0.95043700995E+03  0.00000000000E+00 0. -1.
<mgrwt>
<rscale>  0 0.82353349E+02</rscale>
<asrwt>0</asrwt>
<pdfrwt beam="1">  1        2 0.23372240E+00 0.78743866E+02</pdfrwt>
<pdfrwt beam="2">  1        2 0.24481831E+00 0.86128284E+02</pdfrwt>
<totfact> 0.30974806E+01</totfact>
</mgrwt>
</event>
<event>
13    1  0.2742815E-008  0.6572990E+02  0.7546771E-02  0.1402383E+00
         -3   -1    0    0    0  501  0.00000000000E+00  0.00000000000E+00  0.28530860463E+04  0.28530860463E+04  0.00000000000E+00 0.  1.
         -3   -1    0    0    0  502 -0.00000000000E+00 -0.00000000000E+00 -0.72898816185E+03  0.72898816185E+03  0.00000000000E+00 0.  1.
         25    2    1    2    0    0 -0.45450917640E+03  0.17226143848E+03  0.35116640114E+03  0.61253389944E+03  0.12500936788E+03 0.  0.
         24    2    1    2    0    0  0.43813839240E+03 -0.54158598161E+03  0.64158060771E+03  0.95053874830E+03  0.81348690635E+02 0.  0.
         24    2    1    2    0    0 -0.85341049457E+02  0.41560150265E+03  0.10159793451E+04  0.11056640947E+04  0.10134770300E+03 0.  0.
        -13    1    4    4    0    0  0.13734321247E+03 -0.22270820759E+03  0.26854316240E+03  0.37493670641E+03  0.00000000000E+00 0.  1.
         14    1    4    4    0    0  0.30079517993E+03 -0.31887777402E+03  0.37303744531E+03  0.57560204190E+03  0.00000000000E+00 0. -1.
        -13    1    5    5    0    0 -0.60109551115E+02  0.32957914258E+03  0.68169574328E+03  0.75956873011E+03  0.00000000000E+00 0.  1.
         14    1    5    5    0    0 -0.25231498343E+02  0.86022360066E+02  0.33428360180E+03  0.34609536456E+03  0.00000000000E+00 0. -1.
          5    1    3    3  503    0 -0.32727485444E+03  0.16143314344E+03  0.20576666752E+03  0.41896479758E+03  0.47000000000E+01 0. -1.
         -5    1    3    3    0  503 -0.12723432196E+03  0.10828295042E+02  0.14539973363E+03  0.19356910186E+03  0.47000000000E+01 0. -1.
         -4    1    1    2    0  502  0.65179532260E+02 -0.81123871719E+01 -0.39490664179E+03  0.40033165998E+03  0.00000000000E+00 0.  1.
         -4    1    1    2    0  501  0.36532301193E+02 -0.38164572341E+02  0.51027817228E+03  0.51300580574E+03  0.00000000000E+00 0.  1.
<mgrwt>
<rscale>  0 0.58928725E+02</rscale>
<asrwt>0</asrwt>
<pdfrwt beam="1">  1       -3 0.41957147E+00 0.52831275E+02</pdfrwt>
<pdfrwt beam="2">  1       -3 0.10720414E+00 0.65729905E+02</pdfrwt>
<totfact> 0.23198347E-02</totfact>
</mgrwt>
</event>
<event>
13    1  0.2742815E-008  0.1601705E+03  0.7546771E-02  0.1255868E+00
          2   -1    0    0  502    0  0.00000000000E+00  0.00000000000E+00  0.36136436775E+04  0.36136436775E+04  0.00000000000E+00 0. -1.
          2   -1    0    0  503    0 -0.00000000000E+00 -0.00000000000E+00 -0.11748970159E+04  0.11748970159E+04  0.00000000000E+00 0. -1.
         25    2    1    2    0    0  0.33992978327E+02  0.28703283868E+02 -0.14076281671E+03  0.19343638063E+03  0.12499624674E+03 0.  0.
         24    2    1    2    0    0  0.93179656468E+02  0.23360363666E+01 -0.57746741015E+02  0.13559208458E+03  0.79766044521E+02 0.  0.
         24    2    1    2    0    0 -0.18989840339E+03  0.42848545688E+02  0.10764256786E+04  0.10970119953E+04  0.82738593181E+02 0.  0.
        -11    1    4    4    0    0  0.48281275780E+02 -0.35796253949E+02 -0.45606188218E+02  0.75447848157E+02  0.00000000000E+00 0.  1.
         12    1    4    4    0    0  0.44898380687E+02  0.38132290316E+02 -0.12140552797E+02  0.60144236426E+02  0.00000000000E+00 0. -1.
        -13    1    5    5    0    0 -0.33350686960E+02 -0.21003021062E+02  0.13980345544E+03  0.14525288764E+03  0.00000000000E+00 0.  1.
         14    1    5    5    0    0 -0.15654771643E+03  0.63851566750E+02  0.93662222314E+03  0.95175910764E+03  0.00000000000E+00 0. -1.
          5    1    3    3  501    0  0.21664561492E+01 -0.39494048721E+02 -0.78117967978E+01  0.40590486395E+02  0.47000000000E+01 0. -1.
         -5    1    3    3    0  501  0.31826522178E+02  0.68197332589E+02 -0.13295101992E+03  0.15284589423E+03  0.47000000000E+01 0. -1.
          1    1    1    2  502    0 -0.75168333733E+01  0.78769933233E+02  0.24531851924E+04  0.24544609985E+04  0.00000000000E+00 0. -1.
          1    1    1    2  503    0  0.70242601969E+02 -0.15265779916E+03 -0.89235465167E+03  0.90803923436E+03  0.00000000000E+00 0. -1.
<mgrwt>
<rscale>  0 0.11257858E+03</rscale>
<asrwt>0</asrwt>
<pdfrwt beam="1">  1        2 0.53141818E+00 0.79127777E+02</pdfrwt>
<pdfrwt beam="2">  1        2 0.17277897E+00 0.16017053E+03</pdfrwt>
<totfact> 0.48407142E+00</totfact>
</mgrwt>
</event>
<event>
13    1  0.2742815E-008  0.8994180E+02  0.7546771E-02  0.1392883E+00
          2   -1    0    0  503    0  0.00000000000E+00  0.00000000000E+00  0.41209101194E+04  0.41209101194E+04  0.00000000000E+00 0. -1.
          2   -1    0    0  502    0 -0.00000000000E+00 -0.00000000000E+00 -0.23213559436E+04  0.23213559436E+04  0.00000000000E+00 0. -1.
         25    2    1    2    0    0  0.85656586119E+02 -0.80792445062E+02 -0.11500388148E+04  0.11627889650E+04  0.12499772580E+03 0.  0.
         24    2    1    2    0    0 -0.47233486268E+01  0.98932000865E+01 -0.44298584954E+03  0.44976503785E+03  0.77019094657E+02 0.  0.
         24    2    1    2    0    0 -0.51248902223E+02 -0.68619175308E+02  0.28018485473E+03  0.30385564942E+03  0.80558436339E+02 0.  0.
        -11    1    4    4    0    0 -0.32604197096E+02 -0.97505358247E+01 -0.11278046588E+03  0.11780297153E+03  0.00000000000E+00 0.  1.
         12    1    4    4    0    0  0.27880848470E+02  0.19643735911E+02 -0.33020538366E+03  0.33196206631E+03  0.00000000000E+00 0. -1.
        -13    1    5    5    0    0  0.69371601905E+01  0.55860443181E+01  0.10082892975E+03  0.10122154492E+03  0.00000000000E+00 0.  1.
         14    1    5    5    0    0 -0.58186062414E+02 -0.74205219626E+02  0.17935592499E+03  0.20263410450E+03  0.00000000000E+00 0. -1.
          5    1    3    3  501    0  0.89373153246E+02 -0.87051553580E+02 -0.11467414897E+04  0.11535179530E+04  0.47000000000E+01 0.  1.
         -5    1    3    3    0  501 -0.37165671268E+01  0.62591085176E+01 -0.32973250993E+01  0.92710119972E+01  0.47000000000E+01 0.  1.
          1    1    1    2  502    0 -0.37327613828E+02  0.18445693967E+02 -0.70515359998E+03  0.70638176218E+03  0.00000000000E+00 0. -1.
          1    1    1    2  503    0  0.76432785586E+01  0.12107272632E+03  0.38175475854E+04  0.38194746486E+04  0.00000000000E+00 0. -1.
<mgrwt>
<rscale>  0 0.61195243E+02</rscale>
<asrwt>0</asrwt>
<pdfrwt beam="1">  1        2 0.60601619E+00 0.89941802E+02</pdfrwt>
<pdfrwt beam="2">  1        2 0.34137588E+00 0.41636455E+02</pdfrwt>
<totfact> 0.69629073E-01</totfact>
</mgrwt>
</event>
<event>
13    1  0.2742815E-008  0.8907204E+02  0.7546771E-02  0.1368152E+00
          2   -1    0    0  503    0  0.00000000000E+00  0.00000000000E+00  0.14233397266E+04  0.14233397266E+04  0.00000000000E+00 0. -1.
          2   -1    0    0  502    0 -0.00000000000E+00 -0.00000000000E+00 -0.20449462307E+04  0.20449462307E+04  0.00000000000E+00 0. -1.
         25    2    1    2    0    0 -0.45685411011E+02  0.12360636428E+03 -0.11970529008E+04  0.12107541610E+04  0.12499720394E+03 0.  0.
         24    2    1    2    0    0 -0.99820718139E+01 -0.59049823627E+02 -0.63292011503E+02  0.11694605830E+03  0.77999861559E+02 0.  0.
         24    2    1    2    0    0  0.51007712036E+02  0.12066534950E+02  0.52095849390E+03  0.52993939392E+03  0.81796215771E+02 0.  0.
        -13    1    5    5    0    0 -0.10670595862E+02  0.19585210488E+02  0.48139555134E+02  0.53055243420E+02  0.00000000000E+00 0.  1.
         14    1    5    5    0    0  0.61678307898E+02 -0.75186755380E+01  0.47281893876E+03  0.47688415050E+03  0.00000000000E+00 0. -1.
        -13    1    4    4    0    0  0.28803487237E+02 -0.34421525580E+02 -0.89180739928E+01  0.45760401484E+02  0.00000000000E+00 0.  1.
         14    1    4    4    0    0 -0.38785559051E+02 -0.24628298047E+02 -0.54373937510E+02  0.71185656813E+02  0.00000000000E+00 0. -1.
          5    1    3    3  501    0 -0.77190732468E+02  0.12336706584E+03 -0.10653468358E+04  0.10752505814E+04  0.47000000000E+01 0.  1.
         -5    1    3    3    0  501  0.31505321457E+02  0.23929844619E+00 -0.13170606495E+03  0.13550357962E+03  0.47000000000E+01 0.  1.
          1    1    1    2  502    0 -0.46766815938E+02 -0.75953868866E+02 -0.74299820060E+03  0.74833311524E+03  0.00000000000E+00 0. -1.
          1    1    1    2  503    0  0.51426586727E+02 -0.66920674161E+00  0.86077811490E+03  0.86231322891E+03  0.00000000000E+00 0. -1.
<mgrwt>
<rscale>  0 0.67683520E+02</rscale>
<asrwt>0</asrwt>
<pdfrwt beam="1">  1        2 0.20931467E+00 0.51430941E+02</pdfrwt>
<pdfrwt beam="2">  1        2 0.30072738E+00 0.89072042E+02</pdfrwt>
<totfact> 0.25268296E+01</totfact>
</mgrwt>
</event>
<event>
13    1  0.2742815E-008  0.1469923E+03  0.7546771E-02  0.1256397E+00
         -1   -1    0    0    0  501 -0.00000000000E+00  0.00000000000E+00  0.12532119636E+04  0.12532119636E+04  0.00000000000E+00 0.  1.
          2   -1    0    0  503    0  0.00000000000E+00 -0.00000000000E+00 -0.29720137939E+04  0.29720137939E+04  0.00000000000E+00 0. -1.
         25    2    1    2    0    0 -0.17320654583E+03  0.53667721323E+02 -0.31171164980E+03  0.38166442423E+03  0.12499139279E+03 0.  0.
         24    2    1    2    0    0 -0.30800931629E+02  0.43220651823E+02 -0.31428211955E+03  0.33236743038E+03  0.94223860963E+02 0.  0.
         24    2    1    2    0    0  0.69998757107E+01  0.32122490213E+02 -0.59198247511E+03  0.59851101760E+03  0.81800578942E+02 0.  0.
        -13    1    4    4    0    0  0.91696647150E+01  0.62532827304E+02 -0.20081379214E+03  0.21052462173E+03  0.00000000000E+00 0.  1.
         14    1    4    4    0    0 -0.39970596344E+02 -0.19312175481E+02 -0.11346832741E+03  0.12184280864E+03  0.00000000000E+00 0. -1.
        -13    1    5    5    0    0 -0.13622115902E+02 -0.21300694888E+02 -0.29334778590E+03  0.29443540062E+03  0.00000000000E+00 0.  1.
         14    1    5    5    0    0  0.20621991613E+02  0.53423185101E+02 -0.29863468921E+03  0.30407561698E+03  0.00000000000E+00 0. -1.
          5    1    3    3  502    0  0.11944782873E+02  0.20262272781E+01 -0.77762215558E+02  0.78840570795E+02  0.47000000000E+01 0.  1.
         -5    1    3    3    0  502 -0.18515132870E+03  0.51641494045E+02 -0.23394943424E+03  0.30282385343E+03  0.47000000000E+01 0.  1.
          1    1    1    2  503    0  0.61301669891E+02 -0.73661426949E+02 -0.17009475687E+04  0.17036450722E+04  0.00000000000E+00 0. -1.
         -2    1    1    2    0  501  0.13570593185E+03 -0.55349436410E+02  0.12001219828E+04  0.12090378132E+04  0.00000000000E+00 0.  1.
<mgrwt>
<rscale>  0 0.11228437E+03</rscale>
<asrwt>0</asrwt>
<pdfrwt beam="2">  1        2 0.43706086E+00 0.85771693E+02</pdfrwt>
<pdfrwt beam="1">  1       -1 0.18429588E+00 0.14699231E+03</pdfrwt>
<totfact> 0.79361092E-01</totfact>
</mgrwt>
</event>
<event>
13    1  0.2742815E-008  0.7515138E+02  0.7546771E-02  0.1521367E+00
          2   -1    0    0  503    0  0.00000000000E+00  0.00000000000E+00  0.17638424525E+04  0.17638424525E+04  0.00000000000E+00 0. -1.
          2   -1    0    0  502    0 -0.00000000000E+00 -0.00000000000E+00 -0.14492371073E+04  0.14492371073E+04  0.00000000000E+00 0. -1.
         25    2    1    2    0    0 -0.12964526694E+03 -0.58594119727E+02 -0.22457178038E+03  0.29376872456E+03  0.12500565139E+03 0.  0.
         24    2    1    2    0    0  0.26189563524E+03  0.39245314345E+03 -0.60879107384E+03  0.77450319333E+03  0.81362345859E+02 0.  0.
         24    2    1    2    0    0 -0.12644008982E+03 -0.39001736825E+03  0.54015006067E+03  0.68236550288E+03  0.75894318783E+02 0.  0.
        -13    1    4    4    0    0  0.35643017657E+02  0.96385403577E+02 -0.17205655517E+03  0.20040965273E+03  0.00000000000E+00 0.  1.
         14    1    4    4    0    0  0.22625261758E+03  0.29606773987E+03 -0.43673451868E+03  0.57409354060E+03  0.00000000000E+00 0. -1.
        -13    1    5    5    0    0 -0.73059106674E+02 -0.22145002110E+03  0.24448038765E+03  0.33785855747E+03  0.00000000000E+00 0.  1.
         14    1    5    5    0    0 -0.53380983144E+02 -0.16856734715E+03  0.29566967302E+03  0.34450694540E+03  0.00000000000E+00 0. -1.
          5    1    3    3  501    0 -0.10730538301E+03 -0.95713579523E+02 -0.15333394707E+03  0.21025918256E+03  0.47000000000E+01 0. -1.
         -5    1    3    3    0  501 -0.22339883927E+02  0.37119459796E+02 -0.71237833313E+02  0.83509541997E+02  0.47000000000E+01 0. -1.
          1    1    1    2  502    0  0.81070305733E+01 -0.17718792430E+02 -0.42572393124E+03  0.42616962020E+03  0.00000000000E+00 0. -1.
          1    1    1    2  503    0 -0.13917309055E+02  0.73877136964E+02  0.10335420700E+04  0.10362725188E+04  0.00000000000E+00 0. -1.
<mgrwt>
<rscale>  0 0.38266855E+02</rscale>
<asrwt>0</asrwt>
<pdfrwt beam="1">  1        2 0.25938860E+00 0.75151378E+02</pdfrwt>
<pdfrwt beam="2">  1        2 0.21312310E+00 0.19485368E+02</pdfrwt>
<totfact> 0.36884955E+01</totfact>
</mgrwt>
</event>
<event>
13    1  0.2742815E-008  0.1510760E+03  0.7546771E-02  0.1324639E+00
          2   -1    0    0  503    0  0.00000000000E+00  0.00000000000E+00  0.14203085643E+04  0.14203085643E+04  0.00000000000E+00 0. -1.
          2   -1    0    0  502    0 -0.00000000000E+00 -0.00000000000E+00 -0.22312556128E+04  0.22312556128E+04  0.00000000000E+00 0. -1.
         25    2    1    2    0    0  0.56735533628E+02  0.21262799368E+03 -0.88845402535E+03  0.92380012443E+03  0.12500612087E+03 0.  0.
         24    2    1    2    0    0 -0.39262837645E+02 -0.10380206149E+03 -0.54317775836E+02  0.14595195389E+03  0.77685994129E+02 0.  0.
         24    2    1    2    0    0  0.67117484608E+01  0.97751018022E+01 -0.12509257095E+03  0.14798065348E+03  0.78163433361E+02 0.  0.
        -13    1    5    5    0    0  0.19297843384E+02 -0.26320319993E+02 -0.91302907415E+02  0.96960749307E+02  0.00000000000E+00 0.  1.
         14    1    5    5    0    0 -0.12586094924E+02  0.36095421795E+02 -0.33789663539E+02  0.51019904175E+02  0.00000000000E+00 0. -1.
        -13    1    4    4    0    0 -0.41724311233E+02 -0.13857745393E+02 -0.77696641874E+01  0.44646645303E+02  0.00000000000E+00 0.  1.
         14    1    4    4    0    0  0.24614735880E+01 -0.89944316099E+02 -0.46548111648E+02  0.10130530859E+03  0.00000000000E+00 0. -1.
          5    1    3    3  501    0 -0.34589473212E+02  0.32813253495E+02 -0.11753969085E+03  0.12692836636E+03  0.47000000000E+01 0.  1.
         -5    1    3    3    0  501  0.91325006840E+02  0.17981474019E+03 -0.77091433450E+03  0.79687175807E+03  0.47000000000E+01 0.  1.
          1    1    1    2  502    0 -0.30184438758E+02  0.32079401640E+02 -0.10837825898E+04  0.10846773208E+04  0.00000000000E+00 0. -1.
          1    1    1    2  503    0  0.59999943138E+01 -0.15068043563E+03  0.13406999134E+04  0.13491541245E+04  0.00000000000E+00 0. -1.
<mgrwt>
<rscale>  0 0.81575300E+02</rscale>
<asrwt>0</asrwt>
<pdfrwt beam="1">  1        2 0.20886891E+00 0.15107598E+03</pdfrwt>
<pdfrwt beam="2">  1        2 0.32812582E+00 0.44047569E+02</pdfrwt>
<totfact> 0.20772390E+01</totfact>
</mgrwt>
</event>
<event>
13    1  0.2742815E-008  0.1422834E+03  0.7546771E-02  0.1256121E+00
          2   -1    0    0  502    0  0.00000000000E+00  0.00000000000E+00  0.17614774120E+04  0.17614774120E+04  0.00000000000E+00 0. -1.
          2   -1    0    0  503    0 -0.00000000000E+00 -0.00000000000E+00 -0.18318051917E+04  0.18318051917E+04  0.00000000000E+00 0. -1.
         25    2    1    2    0    0  0.13397601623E+03 -0.80528099602E+02 -0.61957163730E+03  0.65108937138E+03  0.12495602435E+03 0.  0.
         24    2    1    2    0    0 -0.71680114710E+02 -0.85780855442E+02 -0.41938485702E+03  0.44153238161E+03  0.81060420147E+02 0.  0.
         24    2    1    2    0    0 -0.11831278953E+03  0.19745498560E+03  0.19487719154E+03  0.31184871601E+03  0.79285020005E+02 0.  0.
        -13    1    5    5    0    0 -0.23364850278E+02  0.62940887144E+02  0.10399263414E+03  0.12378182201E+03  0.00000000000E+00 0.  1.
         14    1    5    5    0    0 -0.94947939248E+02  0.13451409845E+03  0.90884557392E+02  0.18806689401E+03  0.00000000000E+00 0. -1.
        -13    1    4    4    0    0  0.14384954330E+02 -0.67471749628E+01 -0.10381939035E+03  0.10502817286E+03  0.00000000000E+00 0.  1.
         14    1    4    4    0    0 -0.86065069040E+02 -0.79033680479E+02 -0.31556546666E+03  0.33650420875E+03  0.00000000000E+00 0. -1.
          5    1    3    3  501    0  0.10382675195E+03 -0.56205181366E+02 -0.22092378991E+03  0.25053628037E+03  0.47000000000E+01 0. -1.
         -5    1    3    3    0  501  0.30149264285E+02 -0.24322918236E+02 -0.39864784739E+03  0.40055309101E+03  0.47000000000E+01 0. -1.
          1    1    1    2  502    0  0.14221738798E+03 -0.95996485384E+01  0.14750430487E+04  0.14819142803E+04  0.00000000000E+00 0. -1.
          1    1    1    2  503    0 -0.86200499977E+02 -0.21546382013E+02 -0.70129152557E+03  0.70689785443E+03  0.00000000000E+00 0. -1.
<mgrwt>
<rscale>  0 0.11243773E+03</rscale>
<asrwt>0</asrwt>
<pdfrwt beam="1">  1        2 0.25904080E+00 0.14228344E+03</pdfrwt>
<pdfrwt beam="2">  1        2 0.26938312E+00 0.88852534E+02</pdfrwt>
<totfact> 0.20112980E+01</totfact>
</mgrwt>
</event>
<event>
13    1  0.2742815E-008  0.7461497E+02  0.7546771E-02  0.1408416E+00
          2   -1    0    0  503    0  0.00000000000E+00  0.00000000000E+00  0.20570568026E+04  0.20570568026E+04  0.00000000000E+00 0. -1.
         -1   -1    0    0    0  501 -0.00000000000E+00 -0.00000000000E+00 -0.72222088541E+03  0.72222088541E+03  0.00000000000E+00 0.  1.
         25    2    1    2    0    0 -0.61893275823E+02 -0.28728573505E+02 -0.16887960924E+03  0.22091043464E+03  0.12499995674E+03 0.  0.
         24    2    1    2    0    0 -0.34940677461E+02 -0.59533306374E+01  0.11808826604E+03  0.14814521802E+03  0.82133269506E+02 0.  0.
         24    2    1    2    0    0  0.16422532287E+03 -0.50720772945E+02  0.69540665567E+03  0.72081213119E+03  0.80231902955E+02 0.  0.
        -11    1    5    5    0    0  0.12250760294E+01  0.14179647780E+02  0.53595995480E+02  0.55453529679E+02  0.00000000000E+00 0.  1.
         12    1    5    5    0    0  0.16300024684E+03 -0.64900420726E+02  0.64181066019E+03  0.66535860151E+03  0.00000000000E+00 0. -1.
        -11    1    4    4    0    0 -0.57607208612E+02  0.13035289500E+02  0.87791195728E+02  0.10581022306E+03  0.00000000000E+00 0.  1.
         12    1    4    4    0    0  0.22666531151E+02 -0.18988620137E+02  0.30297070309E+02  0.42334994962E+02  0.00000000000E+00 0. -1.
          5    1    3    3  502    0 -0.29354605198E+02  0.12806116477E+02 -0.16461517655E+03  0.16776750525E+03  0.47000000000E+01 0.  1.
         -5    1    3    3    0  502 -0.32538670625E+02 -0.41534689982E+02 -0.42644326934E+01  0.53142929390E+02  0.47000000000E+01 0.  1.
          1    1    1    2  503    0 -0.25821808589E+02  0.69843143912E+02  0.11876610555E+04  0.11899931148E+04  0.00000000000E+00 0. -1.
         -2    1    1    2    0  501 -0.41569560996E+02  0.15559533176E+02 -0.49744045075E+03  0.49941678938E+03  0.00000000000E+00 0.  1.
<mgrwt>
<rscale>  0 0.57548839E+02</rscale>
<asrwt>0</asrwt>
<pdfrwt beam="1">  1        2 0.30250835E+00 0.74614971E+02</pdfrwt>
<pdfrwt beam="2">  1       -1 0.10620895E+00 0.44386118E+02</pdfrwt>
<totfact> 0.97827305E+00</totfact>
</mgrwt>
</event>
<event>
13    1  0.2742815E-008  0.1580162E+03  0.7546771E-02  0.1253574E+00
          2   -1    0    0  502    0  0.00000000000E+00  0.00000000000E+00  0.26482224137E+04  0.26482224137E+04  0.00000000000E+00 0. -1.
          2   -1    0    0  503    0 -0.00000000000E+00 -0.00000000000E+00 -0.66053521312E+03  0.66053521312E+03  0.00000000000E+00 0. -1.
         25    2    1    2    0    0 -0.23993472491E+03  0.11768785173E+02  0.40927778535E+02  0.27387295358E+03  0.12499654044E+03 0.  0.
         24    2    1    2    0    0  0.47161312397E+03 -0.17025109438E+03  0.61471509860E+03  0.79775207778E+03  0.84435486108E+02 0.  0.
         24    2    1    2    0    0 -0.23565526629E+03 -0.31717353976E+02  0.18045703522E+03  0.30923292970E+03  0.80751892692E+02 0.  0.
        -11    1    4    4    0    0  0.23048334672E+03 -0.78717783497E+02  0.36467376166E+03  0.43852709723E+03  0.00000000000E+00 0.  1.
         12    1    4    4    0    0  0.24112977724E+03 -0.91533310879E+02  0.25004133694E+03  0.35922498055E+03  0.00000000000E+00 0. -1.
        -11    1    5    5    0    0  0.13012147306E+01  0.91589099607E+01  0.12342292747E+01  0.93328512978E+01  0.00000000000E+00 0.  1.
         12    1    5    5    0    0 -0.23695648102E+03 -0.40876263936E+02  0.17922280595E+03  0.29990007840E+03  0.00000000000E+00 0. -1.
          5    1    3    3  501    0 -0.23157972406E+03 -0.23333607973E+02  0.24953925923E+02  0.23413332586E+03  0.47000000000E+01 0.  1.
         -5    1    3    3    0  501 -0.83550008460E+01  0.35102393146E+02  0.15973852612E+02  0.39739627716E+02  0.47000000000E+01 0.  1.
          1    1    1    2  502    0 -0.65995182319E+02  0.48755388385E+02  0.15225540348E+04  0.15247633393E+04  0.00000000000E+00 0. -1.
          1    1    1    2  503    0  0.69972049555E+02  0.14144427479E+03 -0.37096674662E+03  0.40313632644E+03  0.00000000000E+00 0. -1.
<mgrwt>
<rscale>  0 0.11386602E+03</rscale>
<asrwt>0</asrwt>
<pdfrwt beam="1">  1        2 0.38944447E+00 0.82051520E+02</pdfrwt>
<pdfrwt beam="2">  1        2 0.97137532E-01 0.15801621E+03</pdfrwt>
<totfact> 0.33943162E+01</totfact>
</mgrwt>
</event>
<event>
13    1  0.2742815E-008  0.5534690E+02  0.7546771E-02  0.1423275E+00
          2   -1    0    0  503    0  0.00000000000E+00  0.00000000000E+00  0.33501642677E+03  0.33501642677E+03  0.00000000000E+00 0. -1.
          2   -1    0    0  502    0 -0.00000000000E+00 -0.00000000000E+00 -0.27101133923E+04  0.27101133923E+04  0.00000000000E+00 0. -1.
         25    2    1    2    0    0  0.37835877906E+02 -0.20128050793E+02 -0.90340557962E+03  0.91301873855E+03  0.12499953426E+03 0.  0.
         24    2    1    2    0    0 -0.67179181073E+01 -0.10114142989E+03 -0.61655892617E+02  0.14022717473E+03  0.74749529602E+02 0.  0.
         24    2    1    2    0    0  0.74607022800E+02  0.12698047263E+03  0.94347040158E+02  0.19204516603E+03  0.79307840272E+02 0.  0.
        -13    1    4    4    0    0 -0.10348044297E+02 -0.10463562623E+01 -0.35095876564E+02  0.36604609464E+02  0.00000000000E+00 0.  1.
         14    1    4    4    0    0  0.36301261899E+01 -0.10009507362E+03 -0.26560016053E+02  0.10362256527E+03  0.00000000000E+00 0. -1.
        -13    1    5    5    0    0  0.51095145763E+02  0.36571154702E+02  0.54167556215E+01  0.63067460058E+02  0.00000000000E+00 0.  1.
         14    1    5    5    0    0  0.23511877037E+02  0.90409317927E+02  0.88930284537E+02  0.12897770597E+03  0.00000000000E+00 0. -1.
          5    1    3    3  501    0 -0.38355597486E+02 -0.25775140599E+02 -0.19344128526E+03  0.19894001753E+03  0.47000000000E+01 0.  1.
         -5    1    3    3    0  501  0.76191475392E+02  0.56470898067E+01 -0.70996429436E+03  0.71407872102E+03  0.47000000000E+01 0.  1.
          1    1    1    2  502    0 -0.52589060771E+02  0.89160781487E+01 -0.16465235439E+04  0.16473872910E+04  0.00000000000E+00 0. -1.
          1    1    1    2  503    0 -0.53135921827E+02 -0.14627070099E+02  0.14214101049E+03  0.15245144877E+03  0.00000000000E+00 0. -1.
<mgrwt>
<rscale>  0 0.54333946E+02</rscale>
<asrwt>0</asrwt>
<pdfrwt beam="1">  1        2 0.49267123E-01 0.55346898E+02</pdfrwt>
<pdfrwt beam="2">  1        2 0.39854608E+00 0.53339533E+02</pdfrwt>
<totfact> 0.70499085E+01</totfact>
</mgrwt>
</event>
<event>
13    1  0.2742815E-008  0.8071770E+02  0.7546771E-02  0.1457645E+00
          2   -1    0    0  502    0  0.00000000000E+00  0.00000000000E+00  0.10211874157E+04  0.10211874157E+04  0.00000000000E+00 0. -1.
          2   -1    0    0  503    0 -0.00000000000E+00 -0.00000000000E+00 -0.33750494979E+04  0.33750494979E+04  0.00000000000E+00 0. -1.
         25    2    1    2    0    0  0.16560215709E+03 -0.30122424496E+02 -0.11566558670E+04  0.11755031667E+04  0.12499386195E+03 0.  0.
         24    2    1    2    0    0 -0.21179073011E+03 -0.19127530653E+03  0.60302279143E+02  0.30260354016E+03  0.80566627075E+02 0.  0.
         24    2    1    2    0    0  0.89467712724E+02  0.12220483685E+03  0.32069335520E+03  0.36353008981E+03  0.79821077175E+02 0.  0.
        -11    1    4    4    0    0 -0.64622054671E+02 -0.19053972202E+02  0.31059717987E+02  0.74187397097E+02  0.00000000000E+00 0.  1.
         12    1    4    4    0    0 -0.14716867544E+03 -0.17222133433E+03  0.29242561157E+02  0.22841614307E+03  0.00000000000E+00 0. -1.
        -13    1    5    5    0    0  0.32976577640E+02  0.10778693714E+03  0.21917639786E+03  0.24646251616E+03  0.00000000000E+00 0.  1.
         14    1    5    5    0    0  0.56491135084E+02  0.14417899716E+02  0.10151695733E+03  0.11706757365E+03  0.00000000000E+00 0. -1.
          5    1    3    3  501    0  0.98605293066E+02  0.45161219539E+02 -0.62572424396E+03  0.63507122361E+03  0.47000000000E+01 0.  1.
         -5    1    3    3    0  501  0.66996864026E+02 -0.75283644035E+02 -0.53093162300E+03  0.54043194313E+03  0.47000000000E+01 0.  1.
          1    1    1    2  502    0 -0.37187478833E+02  0.71562845284E+02  0.48477078013E+03  0.49143347329E+03  0.00000000000E+00 0. -1.
          1    1    1    2  503    0 -0.60916608702E+01  0.27630048895E+02 -0.20629726297E+04  0.20631666435E+04  0.00000000000E+00 0. -1.
<mgrwt>
<rscale>  0 0.47789061E+02</rscale>
<asrwt>0</asrwt>
<pdfrwt beam="1">  1        2 0.15017462E+00 0.80717695E+02</pdfrwt>
<pdfrwt beam="2">  1        2 0.49633081E+00 0.28293602E+02</pdfrwt>
<totfact> 0.10263209E+01</totfact>
</mgrwt>
</event>
<event>
13    1  0.2742815E-008  0.6904390E+02  0.7546771E-02  0.1410046E+00
          2   -1    0    0  503    0  0.00000000000E+00  0.00000000000E+00  0.92106269244E+03  0.92106269244E+03  0.00000000000E+00 0. -1.
         -3   -1    0    0    0  501 -0.00000000000E+00 -0.00000000000E+00 -0.37103847846E+03  0.37103847846E+03  0.00000000000E+00 0.  1.
         25    2    1    2    0    0  0.61421168262E+02  0.13984670163E+02  0.35042891564E+02  0.14429426086E+03  0.12499879422E+03 0.  0.
         24    2    1    2    0    0 -0.74416808557E+02  0.42224654963E+02  0.64607745932E+02  0.13553749684E+03  0.82918449900E+02 0.  0.
         24    2    1    2    0    0  0.31875653357E+02 -0.18780362693E+02  0.11635491422E+03  0.14512917188E+03  0.78455408777E+02 0.  0.
        -11    1    4    4    0    0  0.72590939171E+01  0.27838740057E+02 -0.24664805015E+01  0.28875134952E+02  0.00000000000E+00 0.  1.
         12    1    4    4    0    0 -0.81675902474E+02  0.14385914906E+02  0.67074226434E+02  0.10666236189E+03  0.00000000000E+00 0. -1.
        -13    1    5    5    0    0 -0.18088661507E+02 -0.26552994092E+02  0.67794629860E+02  0.75022483352E+02  0.00000000000E+00 0.  1.
         14    1    5    5    0    0  0.49964314864E+02  0.77726313996E+01  0.48560284363E+02  0.70106688526E+02  0.00000000000E+00 0. -1.
          5    1    3    3  502    0  0.74380163826E+02  0.82423076764E+01 -0.27596112628E+02  0.79899811256E+02  0.47000000000E+01 0.  1.
         -5    1    3    3    0  502 -0.12958995563E+02  0.57423624868E+01  0.62639004193E+02  0.64394449599E+02  0.47000000000E+01 0.  1.
          1    1    1    2  503    0 -0.36809374316E+02  0.29800738720E+02  0.59508202720E+03  0.59696367826E+03  0.00000000000E+00 0. -1.
         -4    1    1    2    0  501  0.17929361253E+02 -0.67229701153E+02 -0.26106336494E+03  0.27017656306E+03  0.00000000000E+00 0.  1.
<mgrwt>
<rscale>  0 0.57183488E+02</rscale>
<asrwt>0</asrwt>
<pdfrwt beam="1">  1        2 0.13545040E+00 0.47360469E+02</pdfrwt>
<pdfrwt beam="2">  1       -3 0.54564482E-01 0.69043896E+02</pdfrwt>
<totfact> 0.66600293E+01</totfact>
</mgrwt>
</event>
<event>
13    1  0.2742815E-008  0.1132860E+03  0.7546771E-02  0.1435116E+00
         -1   -1    0    0    0  501 -0.00000000000E+00  0.00000000000E+00  0.18036538250E+04  0.18036538250E+04  0.00000000000E+00 0.  1.
          2   -1    0    0  503    0  0.00000000000E+00 -0.00000000000E+00 -0.13195761575E+04  0.13195761575E+04  0.00000000000E+00 0. -1.
         25    2    1    2    0    0 -0.10732323610E+03  0.11361144518E+02  0.17569590321E+03  0.24112537086E+03  0.12500016584E+03 0.  0.
         24    2    1    2    0    0 -0.75401468186E+01  0.14155063721E+01 -0.61288637678E+02  0.10057217465E+03  0.79370068246E+02 0.  0.
         24    2    1    2    0    0 -0.16037330597E+00  0.97736534345E+02 -0.23478286063E+03  0.26777231323E+03  0.83824603909E+02 0.  0.
        -11    1    5    5    0    0  0.33156820414E+02  0.86263365919E+02 -0.18476412827E+03  0.20658781701E+03  0.00000000000E+00 0.  1.
         12    1    5    5    0    0 -0.33317193720E+02  0.11473168426E+02 -0.50018732360E+02  0.61184496223E+02  0.00000000000E+00 0. -1.
        -13    1    4    4    0    0  0.35812680856E+02  0.44926696919E+01 -0.31225180448E+02  0.47725717229E+02  0.00000000000E+00 0.  1.
         14    1    4    4    0    0 -0.43352827674E+02 -0.30771633198E+01 -0.30063457230E+02  0.52846457422E+02  0.00000000000E+00 0. -1.
          5    1    3    3  502    0 -0.39589394371E+02  0.66223334458E+02  0.72698646763E+02  0.10611330461E+03  0.47000000000E+01 0.  1.
         -5    1    3    3    0  502 -0.67733841727E+02 -0.54862189939E+02  0.10299725644E+03  0.13501206626E+03  0.47000000000E+01 0.  1.
          1    1    1    2  503    0  0.99706955808E+02 -0.92270867617E+02 -0.94972869834E+03  0.95939563815E+03  0.00000000000E+00 0. -1.
         -2    1    1    2    0  501  0.15316800414E+02 -0.18242317618E+02  0.15541819609E+04  0.15543644856E+04  0.00000000000E+00 0.  1.
<mgrwt>
<rscale>  0 0.51946699E+02</rscale>
<asrwt>0</asrwt>
<pdfrwt beam="2">  1        2 0.19405532E+00 0.11328604E+03</pdfrwt>
<pdfrwt beam="1">  1       -1 0.26524321E+00 0.23819877E+02</pdfrwt>
<totfact> 0.19051857E+00</totfact>
</mgrwt>
</event>
<event>
13    1  0.2742815E-008  0.2380104E+03  0.7546771E-02  0.1369862E+00
          2   -1    0    0  502    0  0.00000000000E+00  0.00000000000E+00  0.21616692756E+04  0.21616692756E+04  0.00000000000E+00 0. -1.
          2   -1    0    0  503    0 -0.00000000000E+00 -0.00000000000E+00 -0.28806286805E+04  0.28806286805E+04  0.00000000000E+00 0. -1.
         25    2    1    2    0    0  0.30156257238E+03  0.24922944314E+03 -0.41009831974E+03  0.58039752671E+03  0.12500142707E+03 0.  0.
         24    2    1    2    0    0 -0.17742066664E+03  0.18432156852E+03 -0.17352333615E+03  0.31934391965E+03  0.80110281862E+02 0.  0.
         24    2    1    2    0    0  0.10046556060E+03 -0.45410207258E+01  0.95397037686E+02  0.16050965712E+03  0.80924690259E+02 0.  0.
        -11    1    5    5    0    0  0.80633008075E+02 -0.25032359848E+02  0.30754186643E+02  0.89856112908E+02  0.00000000000E+00 0.  1.
         12    1    5    5    0    0  0.19832552524E+02  0.20491339122E+02  0.64642851044E+02  0.70653544212E+02  0.00000000000E+00 0. -1.
        -13    1    4    4    0    0 -0.16219322387E+03  0.11943648084E+03 -0.12896721434E+03  0.23917411482E+03  0.00000000000E+00 0.  1.
         14    1    4    4    0    0 -0.15227442767E+02  0.64885087684E+02 -0.44556121809E+02  0.80169804837E+02  0.00000000000E+00 0. -1.
          5    1    3    3  501    0  0.20359415513E+03  0.87733339672E+02 -0.21871027656E+03  0.31145464191E+03  0.47000000000E+01 0. -1.
         -5    1    3    3    0  501  0.97968417250E+02  0.16149610347E+03 -0.19138804317E+03  0.26894288480E+03  0.47000000000E+01 0. -1.
          1    1    1    2  502    0 -0.20674403555E+03 -0.43541319352E+03  0.18446457416E+04  0.19065795702E+04  0.00000000000E+00 0. -1.
          1    1    1    2  503    0 -0.17863430792E+02  0.64032025846E+01 -0.20753805283E+04  0.20754672824E+04  0.00000000000E+00 0. -1.
<mgrwt>
<rscale>  0 0.67205487E+02</rscale>
<asrwt>0</asrwt>
<pdfrwt beam="1">  1        2 0.31789254E+00 0.23801043E+03</pdfrwt>
<pdfrwt beam="2">  1        2 0.42362187E+00 0.18976384E+02</pdfrwt>
<totfact> 0.48004179E+00</totfact>
</mgrwt>
</event>
<event>
13    1  0.2742815E-008  0.3496164E+02  0.7546771E-02  0.1550484E+00
          2   -1    0    0  502    0  0.00000000000E+00  0.00000000000E+00  0.42134638456E+03  0.42134638456E+03  0.00000000000E+00 0. -1.
          2   -1    0    0  503    0 -0.00000000000E+00 -0.00000000000E+00 -0.33902738723E+04  0.33902738723E+04  0.00000000000E+00 0. -1.
         25    2    1    2    0    0 -0.18005712058E+03  0.42174605448E+03 -0.17235410732E+04  0.17878782532E+04  0.12499806396E+03 0.  0.
         24    2    1    2    0    0  0.19509615050E+03 -0.57258098436E+02 -0.18925904457E+03  0.28911292495E+03  0.80164204268E+02 0.  0.
         24    2    1    2    0    0 -0.50717120344E+02 -0.41263232960E+03 -0.60430206227E+02  0.42504693471E+03  0.64617498853E+02 0.  0.
        -11    1    4    4    0    0  0.11495619294E+03 -0.71517522492E+01 -0.62645188782E+02  0.13111252241E+03  0.00000000000E+00 0.  1.
         12    1    4    4    0    0  0.80139957561E+02 -0.50106346187E+02 -0.12661385578E+03  0.15800040254E+03  0.00000000000E+00 0. -1.
        -13    1    5    5    0    0 -0.45243202642E+02 -0.26803746720E+03 -0.67813892314E+02  0.28016023129E+03  0.00000000000E+00 0.  1.
         14    1    5    5    0    0 -0.54739177018E+01 -0.14459486240E+03  0.73836860870E+01  0.14488670342E+03  0.00000000000E+00 0. -1.
          5    1    3    3  501    0 -0.16749718541E+03  0.24362836687E+03 -0.10175821155E+04  0.10596723740E+04  0.47000000000E+01 0.  1.
         -5    1    3    3    0  501 -0.12559935168E+02  0.17811768761E+03 -0.70595895769E+03  0.72820587924E+03  0.47000000000E+01 0.  1.
          1    1    1    2  502    0  0.32146275309E+02  0.13708154034E+02  0.15473345580E+03  0.15863082565E+03  0.00000000000E+00 0. -1.
          1    1    1    2  503    0  0.35318151148E+01  0.34436219525E+02 -0.11504306195E+04  0.11509513183E+04  0.00000000000E+00 0. -1.
<mgrwt>
<rscale>  0 0.34788824E+02</rscale>
<asrwt>0</asrwt>
<pdfrwt beam="1">  1        2 0.61962705E-01 0.34961643E+02</pdfrwt>
<pdfrwt beam="2">  1        2 0.49856968E+00 0.34616859E+02</pdfrwt>
<totfact> 0.26664439E+01</totfact>
</mgrwt>
</event>
<event>
13    1  0.2742815E-008  0.8523066E+02  0.7546771E-02  0.1408342E+00
          2   -1    0    0  502    0  0.00000000000E+00  0.00000000000E+00  0.85622027667E+03  0.85622027667E+03  0.00000000000E+00 0. -1.
          2   -1    0    0  503    0 -0.00000000000E+00 -0.00000000000E+00 -0.89737040983E+03  0.89737040983E+03  0.00000000000E+00 0. -1.
         25    2    1    2    0    0 -0.14744268212E+03 -0.63628836808E+02 -0.37711462675E+03  0.42851875568E+03  0.12499963550E+03 0.  0.
         24    2    1    2    0    0  0.54114285920E+02  0.20862157255E+03  0.45595553474E+02  0.23438676058E+03  0.80043004466E+02 0.  0.
         24    2    1    2    0    0  0.16673501615E+03 -0.11318510513E+03  0.31658048392E+03  0.38576472407E+03  0.89329647365E+02 0.  0.
        -11    1    4    4    0    0  0.21981658398E+02  0.40916289640E+01  0.91780622424E+01  0.24169641289E+02  0.00000000000E+00 0.  1.
         12    1    4    4    0    0  0.32132627523E+02  0.20452994359E+03  0.36417491232E+02  0.21021711929E+03  0.00000000000E+00 0. -1.
        -13    1    5    5    0    0  0.94189556964E+01 -0.26852886335E+02  0.10273125181E+03  0.10659973888E+03  0.00000000000E+00 0.  1.
         14    1    5    5    0    0  0.15731606045E+03 -0.86332218798E+02  0.21384923212E+03  0.27916498519E+03  0.00000000000E+00 0. -1.
          5    1    3    3  501    0 -0.13877176294E+03 -0.37875269561E+01 -0.29843705259E+03  0.32917884487E+03  0.47000000000E+01 0.  1.
         -5    1    3    3    0  501 -0.86709191831E+01 -0.59841309852E+02 -0.78677574158E+02  0.99339910810E+02  0.47000000000E+01 0.  1.
          1    1    1    2  502    0  0.11796941733E+02 -0.37047351923E+02  0.33322526799E+03  0.33548584672E+03  0.00000000000E+00 0. -1.
          1    1    1    2  503    0 -0.85203561680E+02  0.52397213125E+01 -0.35943681180E+03  0.36943459946E+03  0.00000000000E+00 0. -1.
<mgrwt>
<rscale>  0 0.57565524E+02</rscale>
<asrwt>0</asrwt>
<pdfrwt beam="1">  1        2 0.12591475E+00 0.38880254E+02</pdfrwt>
<pdfrwt beam="2">  1        2 0.13196624E+00 0.85230658E+02</pdfrwt>
<totfact> 0.19683706E+02</totfact>
</mgrwt>
</event>
<event>
13    1  0.2742815E-008  0.1383861E+03  0.7546771E-02  0.1456270E+00
          2   -1    0    0  503    0  0.00000000000E+00  0.00000000000E+00  0.18890336992E+04  0.18890336992E+04  0.00000000000E+00 0. -1.
          2   -1    0    0  502    0 -0.00000000000E+00 -0.00000000000E+00 -0.60096596362E+03  0.60096596362E+03  0.00000000000E+00 0. -1.
         25    2    1    2    0    0  0.30987901845E+02 -0.12682109487E+03 -0.47841437793E+03  0.51141866471E+03  0.12499957375E+03 0.  0.
         24    2    1    2    0    0  0.49118333574E+02  0.39878975088E+02  0.40300485685E+02  0.11602148099E+03  0.88509386828E+02 0.  0.
         24    2    1    2    0    0 -0.11108427550E+03 -0.34103533785E+02  0.85476779745E+03  0.86643343718E+03  0.81093441291E+02 0.  0.
        -11    1    5    5    0    0 -0.13483890981E+02 -0.41677805758E+02  0.26609152342E+03  0.26967304954E+03  0.00000000000E+00 0.  1.
         12    1    5    5    0    0 -0.97600384517E+02  0.75742719725E+01  0.58867627403E+03  0.59676038764E+03  0.00000000000E+00 0. -1.
        -11    1    4    4    0    0 -0.18304602080E+02  0.36944889406E+02  0.13136409134E+02  0.43272954088E+02  0.00000000000E+00 0.  1.
         12    1    4    4    0    0  0.67422935654E+02  0.29340856818E+01  0.27164076551E+02  0.72748526898E+02  0.00000000000E+00 0. -1.
          5    1    3    3  501    0  0.87049531218E+01 -0.30535866909E+02 -0.11437698142E+02  0.34075303601E+02  0.47000000000E+01 0. -1.
         -5    1    3    3    0  501  0.22282948723E+02 -0.96285227961E+02 -0.46697667979E+03  0.47734336111E+03  0.47000000000E+01 0. -1.
          1    1    1    2  502    0 -0.13695883422E+02 -0.95023008003E+01 -0.56038909488E+02  0.58465633665E+02  0.00000000000E+00 0. -1.
          1    1    1    2  503    0  0.44673923501E+02  0.13054795437E+03  0.92745273983E+03  0.93766044624E+03  0.00000000000E+00 0. -1.
<mgrwt>
<rscale>  0 0.48029379E+02</rscale>
<asrwt>0</asrwt>
<pdfrwt beam="1">  1        2 0.27779907E+00 0.13838607E+03</pdfrwt>
<pdfrwt beam="2">  1        2 0.88377348E-01 0.16669461E+02</pdfrwt>
<totfact> 0.87452761E+01</totfact>
</mgrwt>
</event>
<event>
13    1  0.2742815E-008  0.8501980E+02  0.7546771E-02  0.1316977E+00
          2   -1    0    0  503    0  0.00000000000E+00  0.00000000000E+00  0.27530839379E+04  0.27530839379E+04  0.00000000000E+00 0. -1.
          2   -1    0    0  502    0 -0.00000000000E+00 -0.00000000000E+00 -0.12134158458E+04  0.12134158458E+04  0.00000000000E+00 0. -1.
         25    2    1    2    0    0 -0.65408098390E+02 -0.79598337834E+02  0.10807631904E+02  0.16234381013E+03  0.12499837223E+03 0.  0.
         24    2    1    2    0    0 -0.38866962988E+02 -0.52414510937E+02  0.27038265797E+02  0.10713716059E+03  0.80556698006E+02 0.  0.
         24    2    1    2    0    0 -0.56937527176E+02  0.66519221823E+02  0.49462770346E+03  0.50790731237E+03  0.75143755910E+02 0.  0.
        -13    1    4    4    0    0 -0.50612734062E+01  0.15068165228E+02 -0.14038092825E+02  0.21206936176E+02  0.00000000000E+00 0.  1.
         14    1    4    4    0    0 -0.33805689581E+02 -0.67482676165E+02  0.41076358622E+02  0.85930224415E+02  0.00000000000E+00 0. -1.
        -13    1    5    5    0    0  0.10831851516E+02 -0.11960453209E+01  0.13576125634E+02  0.17408926414E+02  0.00000000000E+00 0.  1.
         14    1    5    5    0    0 -0.67769378692E+02  0.67715267144E+02  0.48105157783E+03  0.49049838595E+03  0.00000000000E+00 0. -1.
          5    1    3    3  501    0 -0.64534930173E+02 -0.65524319886E+02  0.60693636585E+02  0.11029053101E+03  0.47000000000E+01 0. -1.
         -5    1    3    3    0  501 -0.87316821697E+00 -0.14074017948E+02 -0.49886004681E+02  0.52053279118E+02  0.47000000000E+01 0. -1.
          1    1    1    2  502    0  0.52079919591E+02  0.11652062935E+03 -0.10854873262E+04  0.10929648258E+04  0.00000000000E+00 0. -1.
          1    1    1    2  503    0  0.10913266896E+03 -0.51027002403E+02  0.20926818172E+04  0.20961466748E+04  0.00000000000E+00 0. -1.
<mgrwt>
<rscale>  0 0.84412229E+02</rscale>
<asrwt>0</asrwt>
<pdfrwt beam="1">  1        2 0.40486529E+00 0.83809004E+02</pdfrwt>
<pdfrwt beam="2">  1        2 0.17844351E+00 0.85019796E+02</pdfrwt>
<totfact> 0.14086286E+01</totfact>
</mgrwt>
</event>
<event>
13    1  0.2742815E-008  0.3554498E+02  0.7546771E-02  0.1633714E+00
          2   -1    0    0  502    0  0.00000000000E+00  0.00000000000E+00  0.13038106790E+04  0.13038106790E+04  0.00000000000E+00 0. -1.
          2   -1    0    0  503    0 -0.00000000000E+00 -0.00000000000E+00 -0.32047060003E+04  0.32047060003E+04  0.00000000000E+00 0. -1.
         25    2    1    2    0    0  0.28849772485E+02 -0.13338237477E+02 -0.14293576420E+04  0.14351646496E+04  0.12499633839E+03 0.  0.
         24    2    1    2    0    0 -0.24517502125E+03 -0.47885736539E+02 -0.18526324061E+03  0.31744970147E+03  0.63623972163E+02 0.  0.
         24    2    1    2    0    0  0.24433818726E+03  0.73719481088E+02  0.34861889402E+02  0.27018431674E+03  0.81538347019E+02 0.  0.
        -11    1    5    5    0    0  0.71032045710E+02 -0.14782732883E+02  0.18658373892E+02  0.74914722355E+02  0.00000000000E+00 0.  1.
         12    1    5    5    0    0  0.17330614155E+03  0.88502213971E+02  0.16203515510E+02  0.19526959439E+03  0.00000000000E+00 0. -1.
        -13    1    4    4    0    0 -0.13252725558E+03 -0.57617348149E+02 -0.11020132034E+03  0.18173487085E+03  0.00000000000E+00 0.  1.
         14    1    4    4    0    0 -0.11264776567E+03  0.97316116102E+01 -0.75061920275E+02  0.13571483062E+03  0.00000000000E+00 0. -1.
          5    1    3    3  501    0 -0.13089504845E+02 -0.61225644472E+02 -0.57238059052E+03  0.57581381112E+03  0.47000000000E+01 0.  1.
         -5    1    3    3    0  501  0.41939277330E+02  0.47887406995E+02 -0.85697705150E+03  0.85935083845E+03  0.47000000000E+01 0.  1.
          1    1    1    2  502    0 -0.97922157326E+01  0.18036557119E+02  0.10819683121E+04  0.10821629421E+04  0.00000000000E+00 0. -1.
          1    1    1    2  503    0 -0.18220722762E+02 -0.30532064192E+02 -0.14031046402E+04  0.14035550695E+04  0.00000000000E+00 0. -1.
<mgrwt>
<rscale>  0 0.27009249E+02</rscale>
<asrwt>0</asrwt>
<pdfrwt beam="1">  1        2 0.19173686E+00 0.20523277E+02</pdfrwt>
<pdfrwt beam="2">  1        2 0.47128029E+00 0.35544984E+02</pdfrwt>
<totfact> 0.94290587E+00</totfact>
</mgrwt>
</event>
<event>
13    1  0.2742815E-008  0.1063671E+03  0.7546771E-02  0.1313641E+00
          2   -1    0    0  503    0  0.00000000000E+00  0.00000000000E+00  0.98092593537E+03  0.98092593537E+03  0.00000000000E+00 0. -1.
         -1   -1    0    0    0  501 -0.00000000000E+00 -0.00000000000E+00 -0.97874898226E+03  0.97874898226E+03  0.00000000000E+00 0.  1.
         25    2    1    2    0    0 -0.86261717731E+02  0.32560326248E+02 -0.46569401818E+03  0.49091525075E+03  0.12500242424E+03 0.  0.
         24    2    1    2    0    0  0.31740123651E+02  0.10821855375E+02  0.74165913996E+02  0.11522609887E+03  0.81559322325E+02 0.  0.
         24    2    1    2    0    0 -0.95708537978E+02  0.16561794740E+01  0.24584756203E+03  0.27816954212E+03  0.88172576448E+02 0.  0.
        -13    1    5    5    0    0 -0.70560361467E+02  0.41948746950E+02  0.16786569899E+03  0.18686186042E+03  0.00000000000E+00 0.  1.
         14    1    5    5    0    0 -0.25148176512E+02 -0.40292567476E+02  0.77981863035E+02  0.91307681703E+02  0.00000000000E+00 0. -1.
        -13    1    4    4    0    0  0.11599897878E+02 -0.35668234596E+02  0.32493452503E+02  0.49624641516E+02  0.00000000000E+00 0.  1.
         14    1    4    4    0    0  0.20140225773E+02  0.46490089971E+02  0.41672461493E+02  0.65601457351E+02  0.00000000000E+00 0. -1.
          5    1    3    3  502    0 -0.10402144510E+03  0.79473894223E+01 -0.22248770826E+03  0.24577732273E+03  0.47000000000E+01 0.  1.
         -5    1    3    3    0  502  0.17759727369E+02  0.24612936825E+02 -0.24320630991E+03  0.24513792803E+03  0.47000000000E+01 0.  1.
          1    1    1    2  503    0  0.10694993186E+03  0.87391218735E+01  0.60428873747E+03  0.61374224101E+03  0.00000000000E+00 0. -1.
         -2    1    1    2    0  501  0.43280200199E+02 -0.53777482970E+02 -0.45643124221E+03  0.46162178487E+03  0.00000000000E+00 0.  1.
<mgrwt>
<rscale>  0 0.85688749E+02</rscale>
<asrwt>0</asrwt>
<pdfrwt beam="1">  1        2 0.14425381E+00 0.10636711E+03</pdfrwt>
<pdfrwt beam="2">  1       -1 0.14393367E+00 0.69030380E+02</pdfrwt>
<totfact> 0.15919341E+01</totfact>
</mgrwt>
</event>
<event>
13    1  0.2742815E-008  0.3483436E+02  0.7546771E-02  0.1740586E+00
          2   -1    0    0  502    0  0.00000000000E+00  0.00000000000E+00  0.19519747338E+04  0.19519747338E+04  0.00000000000E+00 0. -1.
          2   -1    0    0  503    0 -0.00000000000E+00 -0.00000000000E+00 -0.16822314331E+04  0.16822314331E+04  0.00000000000E+00 0. -1.
         25    2    1    2    0    0 -0.11456730117E+03 -0.94401120703E+02 -0.85862677139E+03  0.88028703799E+03  0.12501239385E+03 0.  0.
         24    2    1    2    0    0 -0.45742530470E+01  0.66079210933E+02  0.42417070960E+03  0.43666882162E+03  0.79821569644E+02 0.  0.
         24    2    1    2    0    0  0.10881174082E+03  0.62401340041E+01  0.64983239690E+03  0.66300908190E+03  0.73620407539E+02 0.  0.
        -11    1    4    4    0    0 -0.36525011465E+02  0.14989146766E+02  0.11250671202E+03  0.11923301235E+03  0.00000000000E+00 0.  1.
         12    1    4    4    0    0  0.31950758418E+02  0.51090064167E+02  0.31166399758E+03  0.31743580927E+03  0.00000000000E+00 0. -1.
        -13    1    5    5    0    0  0.48401653154E+02 -0.38940419028E+01  0.11712807185E+03  0.12679459297E+03  0.00000000000E+00 0.  1.
         14    1    5    5    0    0  0.60410087670E+02  0.10134175907E+02  0.53270432505E+03  0.53621448893E+03  0.00000000000E+00 0. -1.
          5    1    3    3  501    0  0.78852560203E+01 -0.42611928893E+02 -0.87365691242E+02  0.97636098614E+02  0.47000000000E+01 0. -1.
         -5    1    3    3    0  501 -0.12245255719E+03 -0.51789191809E+02 -0.77126108015E+03  0.78265093937E+03  0.47000000000E+01 0. -1.
          1    1    1    2  502    0  0.20307150993E+02  0.28308255289E+02  0.85390564794E+03  0.85461605021E+03  0.00000000000E+00 0. -1.
          1    1    1    2  503    0 -0.99773375971E+01 -0.62264795230E+01 -0.79953868235E+03  0.79962517525E+03  0.00000000000E+00 0. -1.
<mgrwt>
<rscale>  0 0.20240549E+02</rscale>
<asrwt>0</asrwt>
<pdfrwt beam="1">  1        2 0.28705511E+00 0.34834362E+02</pdfrwt>
<pdfrwt beam="2">  1        2 0.24738697E+00 0.11760796E+02</pdfrwt>
<totfact> 0.27166737E+01</totfact>
</mgrwt>
</event>
<event>
13    1  0.2742815E-008  0.1102111E+03  0.7546771E-02  0.1283920E+00
          2   -1    0    0  502    0  0.00000000000E+00  0.00000000000E+00  0.16996634021E+04  0.16996634021E+04  0.00000000000E+00 0. -1.
          4   -1    0    0  503    0 -0.00000000000E+00 -0.00000000000E+00 -0.45705902948E+03  0.45705902948E+03  0.00000000000E+00 0. -1.
         25    2    1    2    0    0 -0.36298800389E+03  0.13014186356E+03 -0.83204678725E+02  0.41382545482E+03  0.12502516898E+03 0.  0.
         24    2    1    2    0    0  0.16974553689E+03 -0.10624725814E+03  0.47192725993E+03  0.51888364822E+03  0.80142838517E+02 0.  0.
         24    2    1    2    0    0 -0.12571784515E+02 -0.41105181989E+02  0.94934827617E+02  0.13176105002E+03  0.80626714284E+02 0.  0.
        -11    1    5    5    0    0 -0.70274097325E+01  0.24468492420E+02  0.23709222247E+02  0.34788199556E+02  0.00000000000E+00 0.  1.
         12    1    5    5    0    0 -0.55443747825E+01 -0.65573674409E+02  0.71225605371E+02  0.96972850466E+02  0.00000000000E+00 0. -1.
        -13    1    4    4    0    0  0.29266527780E+02 -0.61499358638E+02  0.15837643051E+03  0.17240010007E+03  0.00000000000E+00 0.  1.
         14    1    4    4    0    0  0.14047900911E+03 -0.44747899506E+02  0.31355082942E+03  0.34648354815E+03  0.00000000000E+00 0. -1.
          5    1    3    3  501    0 -0.36617280073E+03  0.12900574783E+03 -0.95849769479E+02  0.39991783065E+03  0.47000000000E+01 0. -1.
         -5    1    3    3    0  501  0.31847968380E+01  0.11361157315E+01  0.12645090753E+02  0.13907624169E+02  0.47000000000E+01 0. -1.
          1    1    1    2  502    0  0.12992269628E+03 -0.26681176979E+02  0.90891352369E+03  0.91853992061E+03  0.00000000000E+00 0. -1.
          3    1    1    2  503    0  0.75891555231E+02  0.43891753553E+02 -0.14996655992E+03  0.17371235787E+03  0.00000000000E+00 0. -1.
<mgrwt>
<rscale>  0 0.98296475E+02</rscale>
<asrwt>0</asrwt>
<pdfrwt beam="1">  1        2 0.24995050E+00 0.11021109E+03</pdfrwt>
<pdfrwt beam="2">  1        4 0.67214564E-01 0.87669916E+02</pdfrwt>
<totfact> 0.13267819E+01</totfact>
</mgrwt>
</event>
<event>
13    1  0.2742815E-008  0.3655490E+02  0.7546771E-02  0.1559587E+00
          2   -1    0    0  502    0  0.00000000000E+00  0.00000000000E+00  0.22995708556E+04  0.22995708556E+04  0.00000000000E+00 0. -1.
          2   -1    0    0  503    0 -0.00000000000E+00 -0.00000000000E+00 -0.40761095257E+03  0.40761095257E+03  0.00000000000E+00 0. -1.
         25    2    1    2    0    0  0.76468080441E+02 -0.27540499039E+02  0.70970468377E+02  0.16512720497E+03  0.12499736007E+03 0.  0.
         24    2    1    2    0    0  0.25896342917E+03  0.45260478408E+03  0.52064355319E+03  0.74342021326E+03  0.98441636412E+02 0.  0.
         24    2    1    2    0    0 -0.35274076326E+03 -0.47499808759E+03  0.10771146469E+04  0.12317860544E+04  0.84093353185E+02 0.  0.
        -13    1    4    4    0    0  0.21148125381E+02  0.10961154396E+02  0.50933832864E+02  0.56228510945E+02  0.00000000000E+00 0.  1.
         14    1    4    4    0    0  0.23781530379E+03  0.44164362969E+03  0.46970972033E+03  0.68719170231E+03  0.00000000000E+00 0. -1.
        -13    1    5    5    0    0 -0.10249882668E+03 -0.11843842631E+03  0.21664885332E+03  0.26733947696E+03  0.00000000000E+00 0.  1.
         14    1    5    5    0    0 -0.25024193658E+03 -0.35655966128E+03  0.86046579354E+03  0.96444657743E+03  0.00000000000E+00 0. -1.
          5    1    3    3  501    0 -0.68414911443E+01  0.40501713287E+02  0.17186691293E+02  0.44773509332E+02  0.47000000000E+01 0. -1.
         -5    1    3    3    0  501  0.83309571585E+02 -0.68042212327E+02  0.53783777084E+02  0.12035369564E+03  0.47000000000E+01 0. -1.
          1    1    1    2  502    0 -0.10176221512E+02  0.35085102098E+02  0.39276504328E+03  0.39446026301E+03  0.00000000000E+00 0. -1.
          1    1    1    2  503    0  0.27485475163E+02  0.14848700447E+02 -0.16953380870E+03  0.17238807251E+03  0.00000000000E+00 0. -1.
<mgrwt>
<rscale>  0 0.33793101E+02</rscale>
<asrwt>0</asrwt>
<pdfrwt beam="1">  1        2 0.33817218E+00 0.36554900E+02</pdfrwt>
<pdfrwt beam="2">  1        2 0.59942788E-01 0.31239962E+02</pdfrwt>
<totfact> 0.95632444E+01</totfact>
</mgrwt>
</event>
<event>
13    1  0.2742815E-008  0.9509047E+02  0.7546771E-02  0.1548459E+00
          2   -1    0    0  502    0  0.00000000000E+00  0.00000000000E+00  0.26086493195E+04  0.26086493195E+04  0.00000000000E+00 0. -1.
          2   -1    0    0  503    0 -0.00000000000E+00 -0.00000000000E+00 -0.39840891563E+03  0.39840891563E+03  0.00000000000E+00 0. -1.
         25    2    1    2    0    0 -0.68491903068E+02  0.10104183048E+03 -0.17904877964E+03  0.25016815523E+03  0.12500019244E+03 0.  0.
         24    2    1    2    0    0  0.84447874848E+02 -0.19997677359E+03  0.38561987197E+03  0.45005978826E+03  0.82030322527E+02 0.  0.
         24    2    1    2    0    0  0.92036989755E+01  0.29819880892E+02  0.77250149694E+03  0.77722217164E+03  0.79635469078E+02 0.  0.
        -11    1    4    4    0    0  0.94658700529E+02 -0.14634740734E+03  0.25913199653E+03  0.31229349152E+03  0.00000000000E+00 0.  1.
         12    1    4    4    0    0 -0.10210825681E+02 -0.53629366249E+02  0.12648787544E+03  0.13776629674E+03  0.00000000000E+00 0. -1.
        -13    1    5    5    0    0  0.41396014595E+02  0.22188780759E+02  0.30988236828E+03  0.31342152795E+03  0.00000000000E+00 0.  1.
         14    1    5    5    0    0 -0.32192315619E+02  0.76311001330E+01  0.46261912867E+03  0.46380064369E+03  0.00000000000E+00 0. -1.
          5    1    3    3  501    0 -0.94103430714E+02  0.10595279183E+03 -0.12115964171E+03  0.18650254301E+03  0.47000000000E+01 0.  1.
         -5    1    3    3    0  501  0.25611527646E+02 -0.49109613515E+01 -0.57889137927E+02  0.63665612222E+02  0.47000000000E+01 0.  1.
          1    1    1    2  502    0 -0.30476321619E+02  0.80862147703E+02  0.13787541676E+04  0.13814595716E+04  0.00000000000E+00 0. -1.
          1    1    1    2  503    0  0.53166508639E+01 -0.11747085485E+02 -0.14758635304E+03  0.14814854842E+03  0.00000000000E+00 0. -1.
<mgrwt>
<rscale>  0 0.35015953E+02</rscale>
<asrwt>0</asrwt>
<pdfrwt beam="1">  1        2 0.38362489E+00 0.95090465E+02</pdfrwt>
<pdfrwt beam="2">  1        2 0.58589548E-01 0.12894216E+02</pdfrwt>
<totfact> 0.60423992E+01</totfact>
</mgrwt>
</event>
<event>
13    1  0.2742815E-008  0.3077722E+03  0.7546771E-02  0.1233889E+00
          2   -1    0    0  503    0  0.00000000000E+00  0.00000000000E+00  0.96055822514E+03  0.96055822514E+03  0.00000000000E+00 0. -1.
          2   -1    0    0  502    0 -0.00000000000E+00 -0.00000000000E+00 -0.30415367056E+04  0.30415367056E+04  0.00000000000E+00 0. -1.
         25    2    1    2    0    0  0.23379993004E+03  0.30208094388E+03  0.23472104388E+03  0.46544001204E+03  0.12500052970E+03 0.  0.
         24    2    1    2    0    0  0.51966401024E+01 -0.74680021782E+02  0.13862305474E+03  0.17695770434E+03  0.80582672441E+02 0.  0.
         24    2    1    2    0    0 -0.30339267188E+02 -0.65505490731E+02  0.36514660733E+02  0.11451089172E+03  0.81043096094E+02 0.  0.
        -11    1    4    4    0    0  0.42383808912E+02 -0.30443116915E+02  0.67214817279E+02  0.85094079038E+02  0.00000000000E+00 0.  1.
         12    1    4    4    0    0 -0.37187168809E+02 -0.44236904867E+02  0.71408237456E+02  0.91863625298E+02  0.00000000000E+00 0. -1.
        -11    1    5    5    0    0 -0.65677890659E+01 -0.34683934956E+02  0.59590277419E+02  0.69261189422E+02  0.00000000000E+00 0.  1.
         12    1    5    5    0    0 -0.23771478122E+02 -0.30821555775E+02 -0.23075616687E+02  0.45249702297E+02  0.00000000000E+00 0. -1.
          5    1    3    3  501    0  0.18404060236E+03  0.27634642928E+03  0.15143368685E+03  0.36495553675E+03  0.47000000000E+01 0.  1.
         -5    1    3    3    0  501  0.49759327686E+02  0.25734514600E+02  0.83287357027E+02  0.10048447529E+03  0.47000000000E+01 0.  1.
          1    1    1    2  502    0 -0.22108262003E+03 -0.21175631311E+03 -0.28580484584E+04  0.28743971979E+04  0.00000000000E+00 0. -1.
          1    1    1    2  503    0  0.12425317069E+02  0.49860881747E+02  0.36721121853E+03  0.37078912477E+03  0.00000000000E+00 0. -1.
<mgrwt>
<rscale>  0 0.12575813E+03</rscale>
<asrwt>0</asrwt>
<pdfrwt beam="1">  1        2 0.14125856E+00 0.51385757E+02</pdfrwt>
<pdfrwt beam="2">  1        2 0.44728481E+00 0.30777222E+03</pdfrwt>
<totfact> 0.11598837E+01</totfact>
</mgrwt>
</event>
<event>
13    1  0.2742815E-008  0.1032798E+03  0.7546771E-02  0.1403176E+00
          2   -1    0    0  503    0  0.00000000000E+00  0.00000000000E+00  0.35390662812E+04  0.35390662812E+04  0.00000000000E+00 0. -1.
          2   -1    0    0  502    0 -0.00000000000E+00 -0.00000000000E+00 -0.44271685404E+03  0.44271685404E+03  0.00000000000E+00 0. -1.
         25    2    1    2    0    0 -0.14560835505E+03 -0.47788494262E+02 -0.89353031802E+02  0.21701174921E+03  0.12499840702E+03 0.  0.
         24    2    1    2    0    0  0.52781726031E+02  0.58824538225E+02  0.63849940639E+02  0.12762059791E+03  0.77226712930E+02 0.  0.
         24    2    1    2    0    0  0.96561246363E+02  0.91221231783E+02  0.29774583059E+03  0.33568028524E+03  0.79895474481E+02 0.  0.
        -11    1    4    4    0    0  0.20215736076E+02  0.71062491835E+02  0.32220609574E+02  0.80602241980E+02  0.00000000000E+00 0.  1.
         12    1    4    4    0    0  0.32565989955E+02 -0.12237953610E+02  0.31629331065E+02  0.47018355926E+02  0.00000000000E+00 0. -1.
        -13    1    5    5    0    0 -0.12565903655E+02  0.67119671738E+01  0.13180089696E+02  0.19407915973E+02  0.00000000000E+00 0.  1.
         14    1    5    5    0    0  0.10912715002E+03  0.84509264609E+02  0.28456574089E+03  0.31627236927E+03  0.00000000000E+00 0. -1.
          5    1    3    3  501    0 -0.14899510606E+03 -0.68430881902E+01 -0.92449035875E+02  0.17554282588E+03  0.47000000000E+01 0. -1.
         -5    1    3    3    0  501  0.33867510010E+01 -0.40945406071E+02  0.30960040736E+01  0.41468923327E+02  0.47000000000E+01 0. -1.
          1    1    1    2  502    0 -0.33254422007E+02 -0.32578258419E+01 -0.23663674934E+03  0.23898414414E+03  0.00000000000E+00 0. -1.
          1    1    1    2  503    0  0.29519804667E+02 -0.98999449905E+02  0.30607434371E+04  0.30624863588E+04  0.00000000000E+00 0. -1.
<mgrwt>
<rscale>  0 0.58744813E+02</rscale>
<asrwt>0</asrwt>
<pdfrwt beam="1">  1        2 0.52045091E+00 0.10327983E+03</pdfrwt>
<pdfrwt beam="2">  1        2 0.65105421E-01 0.33413620E+02</pdfrwt>
<totfact> 0.16914944E+01</totfact>
</mgrwt>
</event>
<event>
13    1  0.2742815E-008  0.4969254E+02  0.7546771E-02  0.1559730E+00
          2   -1    0    0  502    0  0.00000000000E+00  0.00000000000E+00  0.14941062941E+04  0.14941062941E+04  0.00000000000E+00 0. -1.
          2   -1    0    0  503    0 -0.00000000000E+00 -0.00000000000E+00 -0.18839924067E+04  0.18839924067E+04  0.00000000000E+00 0. -1.
         25    2    1    2    0    0  0.53127077942E+02  0.29507849241E+02 -0.10734204777E+04  0.10823813291E+04  0.12499848103E+03 0.  0.
         24    2    1    2    0    0  0.11611476829E+03  0.81295180142E+02 -0.60568898339E+02  0.17413147438E+03  0.81003908523E+02 0.  0.
         24    2    1    2    0    0 -0.18259551142E+03 -0.61852715144E+02  0.94591544365E+03  0.96890002852E+03  0.82730644691E+02 0.  0.
        -11    1    5    5    0    0 -0.61732772326E+02 -0.63955538582E+02  0.40721037110E+03  0.41679915118E+03  0.00000000000E+00 0.  1.
         12    1    5    5    0    0 -0.12086273909E+03  0.21028234380E+01  0.53870507255E+03  0.55210087734E+03  0.00000000000E+00 0. -1.
        -11    1    4    4    0    0  0.31412943772E+02  0.18803675551E+02  0.19869721676E+02  0.41655216841E+02  0.00000000000E+00 0.  1.
         12    1    4    4    0    0  0.84701824517E+02  0.62491504591E+02 -0.80438620015E+02  0.13247625754E+03  0.00000000000E+00 0. -1.
          5    1    3    3  501    0  0.36500435024E+02  0.50092445915E+02 -0.10259504816E+04  0.10278317058E+04  0.47000000000E+01 0. -1.
         -5    1    3    3    0  501  0.16626642918E+02 -0.20584596674E+02 -0.47469996100E+02  0.54549623323E+02  0.47000000000E+01 0. -1.
          1    1    1    2  502    0  0.22959166156E+02 -0.19110989284E+00  0.47424706423E+03  0.47480252502E+03  0.00000000000E+00 0. -1.
          1    1    1    2  503    0 -0.96055009655E+01 -0.48759204346E+02 -0.67605924446E+03  0.67788334371E+03  0.00000000000E+00 0. -1.
<mgrwt>
<rscale>  0 0.33777785E+02</rscale>
<asrwt>0</asrwt>
<pdfrwt beam="1">  1        2 0.21972151E+00 0.22959962E+02</pdfrwt>
<pdfrwt beam="2">  1        2 0.27705771E+00 0.49692537E+02</pdfrwt>
<totfact> 0.31742831E+01</totfact>
</mgrwt>
</event>
<event>
13    1  0.2742815E-008  0.7432894E+02  0.7546771E-02  0.1409156E+00
          2   -1    0    0  503    0  0.00000000000E+00  0.00000000000E+00  0.77360388568E+03  0.77360388568E+03  0.00000000000E+00 0. -1.
          2   -1    0    0  502    0 -0.00000000000E+00 -0.00000000000E+00 -0.72609573428E+03  0.72609573428E+03  0.00000000000E+00 0. -1.
         25    2    1    2    0    0 -0.34930502089E+02 -0.34048130193E+02 -0.30269769976E+03  0.33110412105E+03  0.12499850554E+03 0.  0.
         24    2    1    2    0    0 -0.39581843573E+01  0.27565964735E+02 -0.70766637371E+02  0.11586446715E+03  0.87413432306E+02 0.  0.
         24    2    1    2    0    0  0.65795032175E+02  0.42126522127E+02  0.73671874122E+02  0.13419599774E+03  0.80482238089E+02 0.  0.
        -11    1    5    5    0    0  0.44306587966E+02  0.51962635499E+02  0.84127135458E+02  0.10835388385E+03  0.00000000000E+00 0.  1.
         12    1    5    5    0    0  0.21488444209E+02 -0.98361133719E+01 -0.10455261336E+02  0.25842113891E+02  0.00000000000E+00 0. -1.
        -11    1    4    4    0    0 -0.33941971868E+02  0.43354308731E+02 -0.29492367420E+02  0.62461614419E+02  0.00000000000E+00 0.  1.
         12    1    4    4    0    0  0.29983787511E+02 -0.15788343996E+02 -0.41274269951E+02  0.53402852729E+02  0.00000000000E+00 0. -1.
          5    1    3    3  501    0  0.88380119618E+01  0.41987983311E+02 -0.13577224236E+03  0.14246856844E+03  0.47000000000E+01 0. -1.
         -5    1    3    3    0  501 -0.43768514051E+02 -0.76036113504E+02 -0.16692545740E+03  0.18863555261E+03  0.47000000000E+01 0. -1.
          1    1    1    2  502    0  0.43116645569E+02 -0.10169937246E+02 -0.28168703645E+03  0.28514918772E+03  0.00000000000E+00 0. -1.
          1    1    1    2  503    0 -0.70022991298E+02 -0.25474419423E+02  0.62898765087E+03  0.63338584631E+03  0.00000000000E+00 0. -1.
<mgrwt>
<rscale>  0 0.57382554E+02</rscale>
<asrwt>0</asrwt>
<pdfrwt beam="1">  1        2 0.11376528E+00 0.74328939E+02</pdfrwt>
<pdfrwt beam="2">  1        2 0.10677878E+00 0.44299805E+02</pdfrwt>
<totfact> 0.28501083E+02</totfact>
</mgrwt>
</event>
<event>
13    1  0.2742815E-008  0.4279611E+02  0.7546771E-02  0.1546255E+00
         -1   -1    0    0    0  501 -0.00000000000E+00  0.00000000000E+00  0.15793341679E+03  0.15793341679E+03  0.00000000000E+00 0.  1.
          2   -1    0    0  503    0  0.00000000000E+00 -0.00000000000E+00 -0.17459577985E+04  0.17459577985E+04  0.00000000000E+00 0. -1.
         25    2    1    2    0    0 -0.89152148501E+02 -0.92048415261E+00  0.60632025379E+02  0.16508251838E+03  0.12500816973E+03 0.  0.
         24    2    1    2    0    0  0.43778695043E+02  0.54102332319E+00 -0.26991836852E+03  0.28878055276E+03  0.92851575898E+02 0.  0.
         24    2    1    2    0    0  0.32409922490E+02  0.93407115370E+01 -0.39763351101E+03  0.40727763932E+03  0.81394191740E+02 0.  0.
        -13    1    4    4    0    0  0.71903453885E+02  0.47218255806E+01 -0.16440655338E+03  0.17950464371E+03  0.00000000000E+00 0.  1.
         14    1    4    4    0    0 -0.28124758843E+02 -0.41808022574E+01 -0.10551181513E+03  0.10927590906E+03  0.00000000000E+00 0. -1.
        -13    1    5    5    0    0  0.75746110271E+01 -0.23350628044E+02 -0.37557034595E+02  0.44868222717E+02  0.00000000000E+00 0.  1.
         14    1    5    5    0    0  0.24835311463E+02  0.32691339581E+02 -0.36007647641E+03  0.36240941660E+03  0.00000000000E+00 0. -1.
          5    1    3    3  502    0 -0.11293803942E+03  0.20067823679E+02  0.66217767203E+02  0.13253150942E+03  0.47000000000E+01 0.  1.
         -5    1    3    3    0  502  0.23785890923E+02 -0.20988307831E+02 -0.55857418242E+01  0.32551008960E+02  0.47000000000E+01 0.  1.
          1    1    1    2  503    0 -0.12206366756E+02  0.26372215256E+02 -0.99634562491E+03  0.99676932808E+03  0.00000000000E+00 0. -1.
         -2    1    1    2    0  501  0.25169897724E+02 -0.35333465964E+02  0.15241097323E+02  0.45981176758E+02  0.00000000000E+00 0.  1.
<mgrwt>
<rscale>  0 0.35265551E+02</rscale>
<asrwt>0</asrwt>
<pdfrwt beam="2">  1        2 0.25675849E+00 0.29060095E+02</pdfrwt>
<pdfrwt beam="1">  1       -1 0.23225504E-01 0.42796113E+02</pdfrwt>
<totfact> 0.23355061E+02</totfact>
</mgrwt>
</event>
<event>
13    1  0.2742815E-008  0.1303480E+03  0.7546771E-02  0.1238536E+00
         -1   -1    0    0    0  501 -0.00000000000E+00  0.00000000000E+00  0.13164179215E+04  0.13164179215E+04  0.00000000000E+00 0.  1.
          2   -1    0    0  503    0  0.00000000000E+00 -0.00000000000E+00 -0.36160661857E+04  0.36160661857E+04  0.00000000000E+00 0. -1.
         25    2    1    2    0    0  0.24985147641E+02 -0.57046201254E+02  0.48184518705E+03  0.50167381361E+03  0.12499321701E+03 0.  0.
         24    2    1    2    0    0 -0.38196923271E+03  0.82525517511E+01 -0.10456072737E+03  0.40397467335E+03  0.79334681285E+02 0.  0.
         24    2    1    2    0    0  0.29263026127E+03 -0.13230849638E+02 -0.10302359084E+04  0.10740212194E+04  0.79548899819E+02 0.  0.
        -11    1    5    5    0    0  0.26717177618E+03 -0.35496903734E+02 -0.90265626824E+03  0.94203456770E+03  0.00000000000E+00 0.  1.
         12    1    5    5    0    0  0.25458485082E+02  0.22266054096E+02 -0.12757964020E+03  0.13198665168E+03  0.00000000000E+00 0. -1.
        -13    1    4    4    0    0 -0.18379752871E+03  0.43586015626E+02 -0.52477253801E+02  0.19604880638E+03  0.00000000000E+00 0.  1.
         14    1    4    4    0    0 -0.19817170400E+03 -0.35333463875E+02 -0.52083473565E+02  0.20792586697E+03  0.00000000000E+00 0. -1.
          5    1    3    3  502    0  0.50128281975E+01 -0.19874646389E+02  0.33447504021E+01  0.21293364480E+02  0.47000000000E+01 0. -1.
         -5    1    3    3    0  502  0.19972319444E+02 -0.37171554865E+02  0.47850043664E+03  0.48038044913E+03  0.47000000000E+01 0. -1.
          1    1    1    2  503    0  0.95774377963E+02 -0.64918907209E+02 -0.22917346583E+04  0.22946535555E+04  0.00000000000E+00 0. -1.
         -2    1    1    2    0  501 -0.31420554158E+02  0.12694340635E+03  0.64503784279E+03  0.65816084529E+03  0.00000000000E+00 0.  1.
<mgrwt>
<rscale>  0 0.12280742E+03</rscale>
<asrwt>0</asrwt>
<pdfrwt beam="2">  1        2 0.53177442E+00 0.11570305E+03</pdfrwt>
<pdfrwt beam="1">  1       -1 0.19359088E+00 0.13034801E+03</pdfrwt>
<totfact> 0.28548403E-01</totfact>
</mgrwt>
</event>
<event>
13    1  0.2742815E-008  0.1271156E+03  0.7546771E-02  0.1306613E+00
          2   -1    0    0  502    0  0.00000000000E+00  0.00000000000E+00  0.37825139634E+04  0.37825139634E+04  0.00000000000E+00 0. -1.
          2   -1    0    0  503    0 -0.00000000000E+00 -0.00000000000E+00 -0.11370912541E+04  0.11370912541E+04  0.00000000000E+00 0. -1.
         25    2    1    2    0    0  0.31418106648E+03  0.95882180572E+02 -0.15586066844E+03  0.38447503864E+03  0.12500148910E+03 0.  0.
         24    2    1    2    0    0 -0.10521834510E+03  0.37347641434E+02  0.93118932250E+02  0.16609063571E+03  0.80307018752E+02 0.  0.
         24    2    1    2    0    0 -0.10602397174E+03  0.16494187952E+02  0.72722735793E+03  0.73953823177E+03  0.80895150098E+02 0.  0.
        -11    1    5    5    0    0 -0.11648423470E+02  0.33738700103E+02  0.13744915139E+03  0.14200793947E+03  0.00000000000E+00 0.  1.
         12    1    5    5    0    0 -0.94375548273E+02 -0.17244512151E+02  0.58977820654E+03  0.59753029230E+03  0.00000000000E+00 0. -1.
        -11    1    4    4    0    0 -0.68755425229E+02 -0.18051032905E+02  0.51702249846E+02  0.87899208907E+02  0.00000000000E+00 0.  1.
         12    1    4    4    0    0 -0.36462919872E+02  0.55398674339E+02  0.41416682404E+02  0.78191426803E+02  0.00000000000E+00 0. -1.
          5    1    3    3  501    0  0.65490075886E+02 -0.12815095468E+01 -0.86445396261E+02  0.10856099134E+03  0.47000000000E+01 0. -1.
         -5    1    3    3    0  501  0.24869099060E+03  0.97163690118E+02 -0.69415272184E+02  0.27591404729E+03  0.47000000000E+01 0. -1.
          1    1    1    2  502    0 -0.13102778818E+02 -0.60155654288E+02  0.27999978968E+04  0.28006746701E+04  0.00000000000E+00 0. -1.
          1    1    1    2  503    0 -0.89835970822E+02 -0.89568355670E+02 -0.81906080924E+03  0.82882664124E+03  0.00000000000E+00 0. -1.
<mgrwt>
<rscale>  0 0.88464737E+02</rscale>
<asrwt>0</asrwt>
<pdfrwt beam="1">  1        2 0.55625205E+00 0.61566107E+02</pdfrwt>
<pdfrwt beam="2">  1        2 0.16721930E+00 0.12711555E+03</pdfrwt>
<totfact> 0.42667586E+00</totfact>
</mgrwt>
</event>
<event>
13    1  0.2742815E-008  0.7621014E+02  0.7546771E-02  0.1412363E+00
          2   -1    0    0  502    0  0.00000000000E+00  0.00000000000E+00  0.16759525274E+04  0.16759525274E+04  0.00000000000E+00 0. -1.
          2   -1    0    0  503    0 -0.00000000000E+00 -0.00000000000E+00 -0.42956406718E+03  0.42956406718E+03  0.00000000000E+00 0. -1.
         25    2    1    2    0    0  0.10255018577E+03 -0.24078889086E+03 -0.14159119957E+03  0.32275131952E+03  0.12499806355E+03 0.  0.
         24    2    1    2    0    0 -0.24042274063E+00  0.30108345956E+03  0.39959960675E+03  0.50671592370E+03  0.80186496338E+02 0.  0.
         24    2    1    2    0    0 -0.24186344477E+02 -0.38352884493E+02  0.41325756713E+03  0.42540137200E+03  0.90158679563E+02 0.  0.
        -11    1    5    5    0    0 -0.14105022702E+02  0.27528293764E+02  0.85172088868E+02  0.90614807538E+02  0.00000000000E+00 0.  1.
         12    1    5    5    0    0 -0.10081321775E+02 -0.65881178258E+02  0.32808547827E+03  0.33478656446E+03  0.00000000000E+00 0. -1.
        -13    1    4    4    0    0  0.13848377626E+02  0.29343129071E+03  0.36458315360E+03  0.46820356238E+03  0.00000000000E+00 0.  1.
         14    1    4    4    0    0 -0.14088800367E+02  0.76521688485E+01  0.35016453147E+02  0.38512361326E+02  0.00000000000E+00 0. -1.
          5    1    3    3  501    0  0.12315614435E+03 -0.22553330498E+03 -0.14707058310E+03  0.29611577797E+03  0.47000000000E+01 0.  1.
         -5    1    3    3    0  501 -0.20605958584E+02 -0.15255585883E+02  0.54793835342E+01  0.26635541551E+02  0.47000000000E+01 0.  1.
          1    1    1    2  502    0 -0.73598485858E+02  0.19954339304E+02  0.70756548919E+03  0.71166272509E+03  0.00000000000E+00 0. -1.
          1    1    1    2  503    0 -0.45249326949E+01 -0.41896023504E+02 -0.13244300325E+03  0.13898525430E+03  0.00000000000E+00 0. -1.
<mgrwt>
<rscale>  0 0.56669836E+02</rscale>
<asrwt>0</asrwt>
<pdfrwt beam="1">  1        2 0.24646360E+00 0.76210143E+02</pdfrwt>
<pdfrwt beam="2">  1        2 0.63171187E-01 0.42139670E+02</pdfrwt>
<totfact> 0.16365071E+02</totfact>
</mgrwt>
</event>
<event>
13    1  0.2742815E-008  0.8514023E+02  0.7546771E-02  0.1332666E+00
          2   -1    0    0  503    0  0.00000000000E+00  0.00000000000E+00  0.24991058345E+04  0.24991058345E+04  0.00000000000E+00 0. -1.
          2   -1    0    0  502    0 -0.00000000000E+00 -0.00000000000E+00 -0.50972505041E+03  0.50972505041E+03  0.00000000000E+00 0. -1.
         25    2    1    2    0    0 -0.12633972905E+03  0.56697606754E+01 -0.19964193285E+03  0.26733871111E+03  0.12497684498E+03 0.  0.
         24    2    1    2    0    0  0.73794576347E+02  0.37659304999E+02  0.64349006073E+03  0.65357112065E+03  0.78815536201E+02 0.  0.
         24    2    1    2    0    0  0.62499696362E+02 -0.16440297073E+02  0.52176257803E+03  0.53189759126E+03  0.80637239186E+02 0.  0.
        -11    1    5    5    0    0  0.47686157020E+01 -0.14092658910E+02  0.35678169359E+03  0.35709175237E+03  0.00000000000E+00 0.  1.
         12    1    5    5    0    0  0.57731080660E+02 -0.23476381628E+01  0.16498088443E+03  0.17480583888E+03  0.00000000000E+00 0. -1.
        -13    1    4    4    0    0  0.24290849088E+02 -0.14451674201E+01  0.40196970041E+02  0.46988618396E+02  0.00000000000E+00 0.  1.
         14    1    4    4    0    0  0.49503727259E+02  0.39104472419E+02  0.60329309068E+03  0.60658250226E+03  0.00000000000E+00 0. -1.
          5    1    3    3  501    0 -0.64096205311E+02 -0.18093313678E+02 -0.11573552033E+02  0.67762295133E+02  0.47000000000E+01 0.  1.
         -5    1    3    3    0  501 -0.62243523739E+02  0.23763074353E+02 -0.18806838082E+03  0.19957641597E+03  0.47000000000E+01 0.  1.
          1    1    1    2  502    0  0.72666893204E+02 -0.47318215275E+01 -0.25969466362E+03  0.26971130087E+03  0.00000000000E+00 0. -1.
          1    1    1    2  503    0 -0.82621436863E+02 -0.22156947074E+02  0.12834647418E+04  0.12863121610E+04  0.00000000000E+00 0. -1.
<mgrwt>
<rscale>  0 0.78739944E+02</rscale>
<asrwt>0</asrwt>
<pdfrwt beam="1">  1        2 0.36751556E+00 0.85140228E+02</pdfrwt>
<pdfrwt beam="2">  1        2 0.74959568E-01 0.72820790E+02</pdfrwt>
<totfact> 0.54194668E+01</totfact>
</mgrwt>
</event>
<event>
13    1  0.2742815E-008  0.8009202E+02  0.7546771E-02  0.1399679E+00
          2   -1    0    0  502    0  0.00000000000E+00  0.00000000000E+00  0.50011261553E+03  0.50011261553E+03  0.00000000000E+00 0. -1.
          2   -1    0    0  503    0 -0.00000000000E+00 -0.00000000000E+00 -0.18442704022E+04  0.18442704022E+04  0.00000000000E+00 0. -1.
         25    2    1    2    0    0 -0.13543975110E+03  0.36247894541E+02 -0.33796207465E+03  0.38665560653E+03  0.12500543238E+03 0.  0.
         24    2    1    2    0    0  0.45403783767E+01 -0.16359298000E+02 -0.29026293031E+02  0.87993590852E+02  0.81314849056E+02 0.  0.
         24    2    1    2    0    0  0.90288291234E+01  0.17263362674E+00  0.10494742979E+02  0.80976736721E+02  0.79784351236E+02 0.  0.
        -11    1    5    5    0    0  0.36902303855E+02 -0.23340318769E+02  0.82884741488E+01  0.44443776998E+02  0.00000000000E+00 0.  1.
         12    1    5    5    0    0 -0.27873474732E+02  0.23512952396E+02  0.22062688302E+01  0.36532959724E+02  0.00000000000E+00 0. -1.
        -13    1    4    4    0    0 -0.38070524190E+02 -0.13193959206E+02 -0.12592712534E+02  0.42213999818E+02  0.00000000000E+00 0.  1.
         14    1    4    4    0    0  0.42610902567E+02 -0.31653387933E+01 -0.16433580498E+02  0.45779591034E+02  0.00000000000E+00 0. -1.
          5    1    3    3  501    0 -0.14999320546E+03  0.16080154495E+02 -0.22526442373E+03  0.27115066596E+03  0.47000000000E+01 0.  1.
         -5    1    3    3    0  501  0.14553454368E+02  0.20167740046E+02 -0.11269765092E+03  0.11550494057E+03  0.47000000000E+01 0.  1.
          1    1    1    2  502    0  0.79347531098E+02 -0.76604548252E+01  0.39622232841E+03  0.40416190666E+03  0.00000000000E+00 0. -1.
          1    1    1    2  503    0  0.42523012498E+02 -0.12400775343E+02 -0.13838864904E+04  0.13845951770E+04  0.00000000000E+00 0. -1.
<mgrwt>
<rscale>  0 0.59561907E+02</rscale>
<asrwt>0</asrwt>
<pdfrwt beam="1">  1        2 0.73545971E-01 0.80092021E+02</pdfrwt>
<pdfrwt beam="2">  1        2 0.27121624E+00 0.44294309E+02</pdfrwt>
<totfact> 0.12215439E+02</totfact>
</mgrwt>
</event>
<event>
13    1  0.2742815E-008  0.1467889E+03  0.7546771E-02  0.1208796E+00
          2   -1    0    0  503    0  0.00000000000E+00  0.00000000000E+00  0.34318808331E+04  0.34318808331E+04  0.00000000000E+00 0. -1.
         -1   -1    0    0    0  501 -0.00000000000E+00 -0.00000000000E+00 -0.55225737790E+03  0.55225737790E+03  0.00000000000E+00 0.  1.
         25    2    1    2    0    0  0.31522062943E+02  0.24364636096E+03  0.35526058265E+03  0.44964382446E+03  0.12494918017E+03 0.  0.
         24    2    1    2    0    0  0.91584222267E+02 -0.16379417603E+02  0.34640927439E+03  0.36745592590E+03  0.79802988669E+02 0.  0.
         24    2    1    2    0    0 -0.44530596325E+02  0.85180033264E+02  0.47113411400E+03  0.48729724189E+03  0.79073614509E+02 0.  0.
        -11    1    4    4    0    0  0.75751971958E+01  0.26705219442E+02  0.91814513787E+02  0.95919014277E+02  0.00000000000E+00 0.  1.
         12    1    4    4    0    0  0.84009025071E+02 -0.43084637045E+02  0.25459476061E+03  0.27153691162E+03  0.00000000000E+00 0. -1.
        -13    1    5    5    0    0 -0.38928832368E+02  0.35816123248E+02  0.37852919546E+03  0.38220753589E+03  0.00000000000E+00 0.  1.
         14    1    5    5    0    0 -0.56017639570E+01  0.49363910015E+02  0.92604918533E+02  0.10508970600E+03  0.00000000000E+00 0. -1.
          5    1    3    3  502    0  0.41628221125E+02  0.13084664148E+02  0.44164102647E+02  0.62262952006E+02  0.47000000000E+01 0.  1.
         -5    1    3    3    0  502 -0.10106158182E+02  0.23056169682E+03  0.31109648000E+03  0.38738087245E+03  0.47000000000E+01 0.  1.
          1    1    1    2  503    0  0.23762049989E+02 -0.13409583641E+03  0.21693198437E+04  0.21735903277E+04  0.00000000000E+00 0. -1.
         -2    1    1    2    0  501 -0.10233773887E+03 -0.17835114022E+03 -0.46250035950E+03  0.50615089109E+03  0.00000000000E+00 0.  1.
<mgrwt>
<rscale>  0 0.14342299E+03</rscale>
<asrwt>0</asrwt>
<pdfrwt beam="1">  1        2 0.50468835E+00 0.14678890E+03</pdfrwt>
<pdfrwt beam="2">  1       -1 0.81214322E-01 0.14013425E+03</pdfrwt>
<totfact> 0.29041661E+00</totfact>
</mgrwt>
</event>
<event>
13    1  0.2742815E-008  0.4505591E+02  0.7546771E-02  0.1488095E+00
         -1   -1    0    0    0  501 -0.00000000000E+00  0.00000000000E+00  0.83513825207E+02  0.83513825207E+02  0.00000000000E+00 0.  1.
          2   -1    0    0  503    0  0.00000000000E+00 -0.00000000000E+00 -0.92717836349E+03  0.92717836349E+03  0.00000000000E+00 0. -1.
         25    2    1    2    0    0 -0.46732696085E+02  0.11280465340E+02 -0.23210042926E+03  0.26796903433E+03  0.12500240125E+03 0.  0.
         24    2    1    2    0    0  0.46413900076E+01  0.77334604228E+01 -0.16302499129E+03  0.18250116840E+03  0.81536370856E+02 0.  0.
         24    2    1    2    0    0 -0.10740675481E+02 -0.10843979391E+02 -0.22085926812E+03  0.23539032941E+03  0.79980227973E+02 0.  0.
        -11    1    5    5    0    0 -0.72477668654E+01 -0.44659618172E+02 -0.15209314761E+03  0.15867998352E+03  0.00000000000E+00 0.  1.
         12    1    5    5    0    0 -0.34929086158E+01  0.33815638781E+02 -0.68766120514E+02  0.76710345895E+02  0.00000000000E+00 0. -1.
        -13    1    4    4    0    0 -0.16009669002E+02 -0.16600744907E+02 -0.82877446381E+01  0.24506753033E+02  0.00000000000E+00 0.  1.
         14    1    4    4    0    0  0.20651059010E+02  0.24334205329E+02 -0.15473724665E+03  0.15799441537E+03  0.00000000000E+00 0. -1.
          5    1    3    3  502    0  0.36731405405E+01  0.49090139646E+02 -0.33937823497E+02  0.59976659090E+02  0.47000000000E+01 0. -1.
         -5    1    3    3    0  502 -0.50405836625E+02 -0.37809674306E+02 -0.19816260576E+03  0.20799237524E+03  0.47000000000E+01 0. -1.
          1    1    1    2  503    0  0.35341316616E+02  0.28679738507E+02 -0.26539987944E+03  0.26927426923E+03  0.00000000000E+00 0. -1.
         -2    1    1    2    0  501  0.17490664943E+02 -0.36849684878E+02  0.37720029827E+02  0.55557387321E+02  0.00000000000E+00 0.  1.
<mgrwt>
<rscale>  0 0.42869917E+02</rscale>
<asrwt>0</asrwt>
<pdfrwt beam="2">  1        2 0.13634976E+00 0.45055910E+02</pdfrwt>
<pdfrwt beam="1">  1       -1 0.12281445E-01 0.40789982E+02</pdfrwt>
<totfact> 0.15130993E+03</totfact>
</mgrwt>
</event>
<event>
13    1  0.2742815E-008  0.8303733E+02  0.7546771E-02  0.1343796E+00
          2   -1    0    0  503    0  0.00000000000E+00  0.00000000000E+00  0.12646142022E+04  0.12646142022E+04  0.00000000000E+00 0. -1.
         -3   -1    0    0    0  501 -0.00000000000E+00 -0.00000000000E+00 -0.71335200237E+03  0.71335200237E+03  0.00000000000E+00 0.  1.
         25    2    1    2    0    0 -0.39404474816E+02 -0.15337299861E+03 -0.68576510356E+02  0.21308198088E+03  0.12500081386E+03 0.  0.
         24    2    1    2    0    0  0.37055686225E+02  0.76027018868E+01  0.10343098074E+03  0.13527523738E+03  0.78552511831E+02 0.  0.
         24    2    1    2    0    0  0.10026282889E+03  0.36558228512E+02  0.56692626401E+03  0.58214908609E+03  0.78121896344E+02 0.  0.
        -11    1    4    4    0    0  0.61380307384E+02 -0.91450525547E+00  0.74352117183E+02  0.96418959671E+02  0.00000000000E+00 0.  1.
         12    1    4    4    0    0 -0.24324621158E+02  0.85172071423E+01  0.29078863556E+02  0.38856277713E+02  0.00000000000E+00 0. -1.
        -11    1    5    5    0    0  0.35711791895E+02 -0.13446548297E+02  0.82606420566E+02  0.90994299053E+02  0.00000000000E+00 0.  1.
         12    1    5    5    0    0  0.64551036996E+02  0.50004776809E+02  0.48431984344E+03  0.49115478704E+03  0.00000000000E+00 0. -1.
          5    1    3    3  502    0  0.38216860249E+02 -0.21541701658E+02  0.27790699738E+01  0.44208444301E+02  0.47000000000E+01 0.  1.
         -5    1    3    3    0  502 -0.77621335065E+02 -0.13183129695E+03 -0.71355580330E+02  0.16887353658E+03  0.47000000000E+01 0.  1.
          1    1    1    2  503    0 -0.42885096834E+02  0.69632853318E+02  0.49299700242E+03  0.49973383934E+03  0.00000000000E+00 0. -1.
         -4    1    1    2    0  501 -0.55028943467E+02  0.39579214895E+02 -0.54351553695E+03  0.54772606089E+03  0.00000000000E+00 0.  1.
<mgrwt>
<rscale>  0 0.75024126E+02</rscale>
<asrwt>0</asrwt>
<pdfrwt beam="1">  1        2 0.18597268E+00 0.83037327E+02</pdfrwt>
<pdfrwt beam="2">  1       -3 0.10490471E+00 0.67784208E+02</pdfrwt>
<totfact> 0.10536035E+01</totfact>
</mgrwt>
</event>
<event>
13    1  0.2742815E-008  0.3484905E+02  0.7546771E-02  0.1578155E+00
         -1   -1    0    0    0  501 -0.00000000000E+00  0.00000000000E+00  0.97426840748E+03  0.97426840748E+03  0.00000000000E+00 0.  1.
          2   -1    0    0  503    0  0.00000000000E+00 -0.00000000000E+00 -0.22869360419E+04  0.22869360419E+04  0.00000000000E+00 0. -1.
         25    2    1    2    0    0 -0.69282511930E+01 -0.91135449612E+02  0.70005112662E+02  0.16993915745E+03  0.12499972238E+03 0.  0.
         24    2    1    2    0    0  0.21702808210E+02  0.17586433331E+02 -0.78393486020E+02  0.11545446664E+03  0.80024375638E+02 0.  0.
         24    2    1    2    0    0 -0.33576310618E+02  0.44137652419E+02 -0.79147470138E+03  0.79747447655E+03  0.80360667186E+02 0.  0.
        -11    1    4    4    0    0  0.58618739458E+01  0.47587750286E+02 -0.30731089220E+02  0.56950464336E+02  0.00000000000E+00 0.  1.
         12    1    4    4    0    0  0.15840934265E+02 -0.30001316955E+02 -0.47662396800E+02  0.58504002309E+02  0.00000000000E+00 0. -1.
        -13    1    5    5    0    0  0.18675303797E+01 -0.19764867427E+02 -0.87842291892E+02  0.90057791995E+02  0.00000000000E+00 0.  1.
         14    1    5    5    0    0 -0.35443840998E+02  0.63902519846E+02 -0.70363240949E+03  0.70741668456E+03  0.00000000000E+00 0. -1.
          5    1    3    3  502    0  0.74502293013E+01 -0.11504046518E+03  0.79482194048E+02  0.14010468842E+03  0.47000000000E+01 0. -1.
         -5    1    3    3    0  502 -0.14378480494E+02  0.23905015570E+02 -0.94770813863E+01  0.29834469030E+02  0.47000000000E+01 0. -1.
          1    1    1    2  503    0 -0.10098259809E+02  0.33374117379E+02 -0.13450890032E+04  0.13455408701E+04  0.00000000000E+00 0. -1.
         -2    1    1    2    0  501  0.28900013409E+02 -0.39627535174E+01  0.83228444356E+03  0.83279547860E+03  0.00000000000E+00 0.  1.
<mgrwt>
<rscale>  0 0.31883570E+02</rscale>
<asrwt>0</asrwt>
<pdfrwt beam="2">  1        2 0.33631413E+00 0.34849055E+02</pdfrwt>
<pdfrwt beam="1">  1       -1 0.14327477E+00 0.29170433E+02</pdfrwt>
<totfact> 0.43125886E+00</totfact>
</mgrwt>
</event>
<event>
13    1  0.2742815E-008  0.8774244E+02  0.7546771E-02  0.1433614E+00
          2   -1    0    0  502    0  0.00000000000E+00  0.00000000000E+00  0.26520333913E+04  0.26520333913E+04  0.00000000000E+00 0. -1.
          2   -1    0    0  503    0 -0.00000000000E+00 -0.00000000000E+00 -0.29776603781E+03  0.29776603781E+03  0.00000000000E+00 0. -1.
         25    2    1    2    0    0 -0.12615717995E+03  0.16570167809E+03 -0.58500212921E+01  0.24296615805E+03  0.12500260411E+03 0.  0.
         24    2    1    2    0    0 -0.54878393461E+02 -0.20840400496E+03  0.12776147825E+03  0.26373281051E+03  0.82390124798E+02 0.  0.
         24    2    1    2    0    0  0.18112311902E+03 -0.14273283124E+02  0.64558800216E+03  0.67550834945E+03  0.80736304085E+02 0.  0.
        -13    1    5    5    0    0  0.15962942609E+03 -0.27634221879E+02  0.44967303783E+03  0.47796552684E+03  0.00000000000E+00 0.  1.
         14    1    5    5    0    0  0.21493692929E+02  0.13360938755E+02  0.19591496433E+03  0.19754282262E+03  0.00000000000E+00 0. -1.
        -13    1    4    4    0    0 -0.37641368954E+02 -0.26678880755E+02  0.40569173520E+02  0.61436904017E+02  0.00000000000E+00 0.  1.
         14    1    4    4    0    0 -0.17237024507E+02 -0.18172512420E+03  0.87192304732E+02  0.20229590649E+03  0.00000000000E+00 0. -1.
          5    1    3    3  501    0  0.77129865063E+01 -0.15125833123E+02  0.23845607743E+01  0.17777995348E+02  0.47000000000E+01 0.  1.
         -5    1    3    3    0  501 -0.13387016646E+03  0.18082751121E+03 -0.82345820664E+01  0.22518816270E+03  0.47000000000E+01 0.  1.
          1    1    1    2  502    0 -0.41190479859E+01  0.87817436870E+02  0.16733163200E+04  0.16756241749E+04  0.00000000000E+00 0. -1.
          1    1    1    2  503    0  0.40315023837E+01 -0.30841826878E+02 -0.86548425661E+02  0.91967936157E+02  0.00000000000E+00 0. -1.
<mgrwt>
<rscale>  0 0.52241349E+02</rscale>
<asrwt>0</asrwt>
<pdfrwt beam="1">  1        2 0.39000490E+00 0.87742443E+02</pdfrwt>
<pdfrwt beam="2">  1        2 0.43789125E-01 0.31104201E+02</pdfrwt>
<totfact> 0.78398436E+01</totfact>
</mgrwt>
</event>
<event>
13    1  0.2742815E-008  0.1863242E+03  0.7546771E-02  0.1254898E+00
          2   -1    0    0  502    0  0.00000000000E+00  0.00000000000E+00  0.38864302981E+03  0.38864302981E+03  0.00000000000E+00 0. -1.
          2   -1    0    0  503    0 -0.00000000000E+00 -0.00000000000E+00 -0.23602574920E+04  0.23602574920E+04  0.00000000000E+00 0. -1.
         25    2    1    2    0    0 -0.19024127217E+03 -0.83846661391E+02 -0.33421144095E+03  0.41297380215E+03  0.12501227835E+03 0.  0.
         24    2    1    2    0    0  0.27881969503E+02  0.14772449532E+03 -0.24855153708E+03  0.30152479594E+03  0.80866589154E+02 0.  0.
         24    2    1    2    0    0  0.25427015266E+02 -0.95041640000E+02 -0.28343629270E+02  0.12999344361E+03  0.80096739155E+02 0.  0.
        -11    1    5    5    0    0 -0.25447713781E+02 -0.91859526012E+01 -0.68359259584E+01  0.27905156254E+02  0.00000000000E+00 0.  1.
         12    1    5    5    0    0  0.50874729047E+02 -0.85855687399E+02 -0.21507703311E+02  0.10208828736E+03  0.00000000000E+00 0. -1.
        -13    1    4    4    0    0  0.27561549397E+02  0.33825090304E+02 -0.12998709488E+03  0.13711462567E+03  0.00000000000E+00 0.  1.
         14    1    4    4    0    0  0.32042010594E+00  0.11389940502E+03 -0.11856444221E+03  0.16441017027E+03  0.00000000000E+00 0. -1.
          5    1    3    3  501    0 -0.13731491883E+02  0.23433624309E+02 -0.84438104308E+02  0.88823263150E+02  0.47000000000E+01 0.  1.
         -5    1    3    3    0  501 -0.17650978029E+03 -0.10728028570E+03 -0.24977333664E+03  0.32415053900E+03  0.47000000000E+01 0.  1.
          1    1    1    2  502    0 -0.48780930559E+02  0.48342488687E+02  0.26218607899E+03  0.27103157642E+03  0.00000000000E+00 0. -1.
          1    1    1    2  503    0  0.18571321796E+03 -0.17178682618E+02 -0.16226939339E+04  0.16333769037E+04  0.00000000000E+00 0. -1.
<mgrwt>
<rscale>  0 0.11312050E+03</rscale>
<asrwt>0</asrwt>
<pdfrwt beam="1">  1        2 0.57153386E-01 0.68677328E+02</pdfrwt>
<pdfrwt beam="2">  1        2 0.34709669E+00 0.18632419E+03</pdfrwt>
<totfact> 0.76779043E+01</totfact>
</mgrwt>
</event>
<event>
13    1  0.2742815E-008  0.8636239E+02  0.7546771E-02  0.1446686E+00
         -3   -1    0    0    0  501 -0.00000000000E+00  0.00000000000E+00  0.77148637186E+03  0.77148637186E+03  0.00000000000E+00 0.  1.
          2   -1    0    0  503    0  0.00000000000E+00 -0.00000000000E+00 -0.20115449361E+04  0.20115449361E+04  0.00000000000E+00 0. -1.
         25    2    1    2    0    0  0.14183572366E+03 -0.56249155462E+02  0.25008560166E+03  0.31851013666E+03  0.12499823601E+03 0.  0.
         24    2    1    2    0    0 -0.87141015740E+02 -0.18527256694E+02  0.64497592892E+01  0.12004752792E+03  0.80205945540E+02 0.  0.
         24    2    1    2    0    0 -0.26640970176E+02 -0.20654857932E+02 -0.30069170577E+03  0.31359389733E+03  0.82397002822E+02 0.  0.
        -11    1    4    4    0    0 -0.58093962668E+01  0.21659291322E+02  0.17788463192E+02  0.28623476523E+02  0.00000000000E+00 0.  1.
         12    1    4    4    0    0 -0.81331619474E+02 -0.40186548015E+02 -0.11338703903E+02  0.91424051397E+02  0.00000000000E+00 0. -1.
        -13    1    5    5    0    0 -0.13159124983E+02 -0.52645862636E+02 -0.17849794931E+03  0.18656437851E+03  0.00000000000E+00 0.  1.
         14    1    5    5    0    0 -0.13481845193E+02  0.31991004704E+02 -0.12219375646E+03  0.12702951881E+03  0.00000000000E+00 0. -1.
          5    1    3    3  502    0  0.82068517439E+02 -0.10038227782E+01  0.36600584455E+02  0.89988565925E+02  0.47000000000E+01 0.  1.
         -5    1    3    3    0  502  0.59767206220E+02 -0.55245332684E+02  0.21348501720E+03  0.22852157074E+03  0.47000000000E+01 0.  1.
          1    1    1    2  503    0 -0.27151365666E+02  0.91788683346E+01 -0.16088065976E+04  0.16090618747E+04  0.00000000000E+00 0. -1.
         -4    1    1    2    0  501 -0.90237207754E+00  0.86252401753E+02  0.41290437815E+03  0.42181787133E+03  0.00000000000E+00 0.  1.
<mgrwt>
<rscale>  0 0.49751637E+02</rscale>
<asrwt>0</asrwt>
<pdfrwt beam="2">  1        2 0.29581542E+00 0.28660919E+02</pdfrwt>
<pdfrwt beam="1">  1       -3 0.11345388E+00 0.86362386E+02</pdfrwt>
<totfact> 0.43220357E+00</totfact>
</mgrwt>
</event>
<event>
13    1  0.2742815E-008  0.5425693E+02  0.7546771E-02  0.1570574E+00
          2   -1    0    0  503    0  0.00000000000E+00  0.00000000000E+00  0.84771687939E+03  0.84771687939E+03  0.00000000000E+00 0. -1.
          2   -1    0    0  502    0 -0.00000000000E+00 -0.00000000000E+00 -0.33824566715E+03  0.33824566715E+03  0.00000000000E+00 0. -1.
         25    2    1    2    0    0 -0.90950566695E+02 -0.40363507432E+02 -0.13982834014E+03  0.21231842293E+03  0.12500371872E+03 0.  0.
         24    2    1    2    0    0  0.39122512585E+02 -0.54972859711E+02  0.38519686442E+02  0.11116744179E+03  0.79510047009E+02 0.  0.
         24    2    1    2    0    0 -0.95966310465E+01  0.66583832925E+02  0.55881056478E+03  0.56885828166E+03  0.82492394586E+02 0.  0.
        -11    1    5    5    0    0  0.19057528450E+02  0.25696474688E+02  0.64155134638E+02  0.71689465770E+02  0.00000000000E+00 0.  1.
         12    1    5    5    0    0 -0.28654159497E+02  0.40887358237E+02  0.49465543015E+03  0.49716881589E+03  0.00000000000E+00 0. -1.
        -13    1    4    4    0    0  0.43239944155E+02 -0.14701194046E+02  0.51330728678E+02  0.68707070841E+02  0.00000000000E+00 0.  1.
         14    1    4    4    0    0 -0.41174315702E+01 -0.40271665665E+02 -0.12811042236E+02  0.42460370951E+02  0.00000000000E+00 0. -1.
          5    1    3    3  501    0 -0.66721710002E+02 -0.49696218635E+02 -0.15912929508E+03  0.17962662187E+03  0.47000000000E+01 0.  1.
         -5    1    3    3    0  501 -0.24228856693E+02  0.93327112031E+01  0.19300954935E+02  0.32691801059E+02  0.47000000000E+01 0.  1.
          1    1    1    2  502    0  0.42409730865E+02  0.33670831884E+02 -0.11414953805E+03  0.12634249969E+03  0.00000000000E+00 0. -1.
          1    1    1    2  503    0  0.19014954292E+02 -0.49182976664E+01  0.16611883920E+03  0.16727590047E+03  0.00000000000E+00 0. -1.
<mgrwt>
<rscale>  0 0.32644226E+02</rscale>
<asrwt>0</asrwt>
<pdfrwt beam="1">  1        2 0.12466425E+00 0.19640727E+02</pdfrwt>
<pdfrwt beam="2">  1        2 0.49742010E-01 0.54256928E+02</pdfrwt>
<totfact> 0.60044143E+02</totfact>
</mgrwt>
</event>
<event>
13    1  0.2742815E-008  0.2095364E+03  0.7546771E-02  0.1288574E+00
          2   -1    0    0  503    0  0.00000000000E+00  0.00000000000E+00  0.86334918978E+03  0.86334918978E+03  0.00000000000E+00 0. -1.
         -3   -1    0    0    0  501 -0.00000000000E+00 -0.00000000000E+00 -0.56099170741E+03  0.56099170741E+03  0.00000000000E+00 0.  1.
         25    2    1    2    0    0  0.15734204890E+03 -0.15655184202E+03 -0.67893460126E+02  0.26362797200E+03  0.12500074439E+03 0.  0.
         24    2    1    2    0    0  0.37233452102E+02 -0.21873306863E+02  0.77535631392E+02  0.11866510325E+03  0.78770940616E+02 0.  0.
         24    2    1    2    0    0  0.43318272518E+01  0.28046119892E+02  0.17916694376E+03  0.19817108970E+03  0.79784945236E+02 0.  0.
        -11    1    5    5    0    0 -0.23285732994E+02 -0.16238807122E+02  0.36386246128E+02  0.46150656822E+02  0.00000000000E+00 0.  1.
         12    1    5    5    0    0  0.27617560246E+02  0.44284927014E+02  0.14278069763E+03  0.15202043287E+03  0.00000000000E+00 0. -1.
        -11    1    4    4    0    0  0.57297374044E+02 -0.11050617056E+01  0.66411813589E+02  0.87719662664E+02  0.00000000000E+00 0.  1.
         12    1    4    4    0    0 -0.20063921941E+02 -0.20768245157E+02  0.11123817803E+02  0.30945440587E+02  0.00000000000E+00 0. -1.
          5    1    3    3  502    0  0.15187870497E+03 -0.94966288009E+02 -0.11078243406E+02  0.17952870065E+03  0.47000000000E+01 0.  1.
         -5    1    3    3    0  502  0.54633439345E+01 -0.61585554010E+02 -0.56815216720E+02  0.84099271344E+02  0.47000000000E+01 0.  1.
          1    1    1    2  503    0 -0.28082922726E+02  0.34046572142E+02  0.44829874464E+03  0.45046596328E+03  0.00000000000E+00 0. -1.
         -4    1    1    2    0  501 -0.17082440553E+03  0.11633245685E+03 -0.33475037729E+03  0.39341076897E+03  0.00000000000E+00 0.  1.
<mgrwt>
<rscale>  0 0.96164979E+02</rscale>
<asrwt>0</asrwt>
<pdfrwt beam="1">  1        2 0.12696312E+00 0.44134110E+02</pdfrwt>
<pdfrwt beam="2">  1       -3 0.82498780E-01 0.20953642E+03</pdfrwt>
<totfact> 0.31499347E+01</totfact>
</mgrwt>
</event>
<event>
13    1  0.2742815E-008  0.6929326E+02  0.7546771E-02  0.1457921E+00
          2   -1    0    0  502    0  0.00000000000E+00  0.00000000000E+00  0.66465924031E+03  0.66465924031E+03  0.00000000000E+00 0. -1.
          2   -1    0    0  503    0 -0.00000000000E+00 -0.00000000000E+00 -0.13997925597E+04  0.13997925597E+04  0.00000000000E+00 0. -1.
         25    2    1    2    0    0  0.39161393565E+02  0.14703136188E+02 -0.40351051543E+03  0.42449626575E+03  0.12500618629E+03 0.  0.
         24    2    1    2    0    0 -0.64719536801E+01  0.11343936108E+03 -0.19263474399E+03  0.23828688467E+03  0.82232110440E+02 0.  0.
         24    2    1    2    0    0 -0.31390969479E+02 -0.26455510908E+02  0.30098663815E+03  0.31440283244E+03  0.81061073759E+02 0.  0.
        -11    1    5    5    0    0  0.26676945969E+02  0.11514341170E+00  0.10131191103E+03  0.10476533788E+03  0.00000000000E+00 0.  1.
         12    1    5    5    0    0 -0.58067915447E+02 -0.26570654320E+02  0.19967472712E+03  0.20963749456E+03  0.00000000000E+00 0. -1.
        -13    1    4    4    0    0 -0.29845092789E+02  0.86355974043E+02 -0.84737392327E+02  0.12461344019E+03  0.00000000000E+00 0.  1.
         14    1    4    4    0    0  0.23373139109E+02  0.27083387035E+02 -0.10789735166E+03  0.11367344448E+03  0.00000000000E+00 0. -1.
          5    1    3    3  501    0  0.36095842881E+02 -0.31774819204E+02 -0.56504394172E+02  0.74346389082E+02  0.47000000000E+01 0.  1.
         -5    1    3    3    0  501  0.30655506839E+01  0.46477955392E+02 -0.34700612126E+03  0.35014987667E+03  0.47000000000E+01 0.  1.
          1    1    1    2  502    0  0.27886124862E+01 -0.69049708471E+02  0.31959663542E+03  0.32698264170E+03  0.00000000000E+00 0. -1.
          1    1    1    2  503    0 -0.40870828923E+01 -0.32637277886E+02 -0.75957133355E+03  0.76028317547E+03  0.00000000000E+00 0. -1.
<mgrwt>
<rscale>  0 0.47741043E+02</rscale>
<asrwt>0</asrwt>
<pdfrwt beam="1">  1        2 0.97744006E-01 0.69293264E+02</pdfrwt>
<pdfrwt beam="2">  1        2 0.20585185E+00 0.32892190E+02</pdfrwt>
<totfact> 0.14854740E+02</totfact>
</mgrwt>
</event>
<event>
13    1  0.2742815E-008  0.7720563E+02  0.7546771E-02  0.1586539E+00
          2   -1    0    0  503    0  0.00000000000E+00  0.00000000000E+00  0.64944402241E+03  0.64944402241E+03  0.00000000000E+00 0. -1.
          2   -1    0    0  502    0 -0.00000000000E+00 -0.00000000000E+00 -0.12759011636E+04  0.12759011636E+04  0.00000000000E+00 0. -1.
         25    2    1    2    0    0  0.93650986359E+02  0.44116473109E+01 -0.47267914378E+03  0.49784046411E+03  0.12501833812E+03 0.  0.
         24    2    1    2    0    0 -0.29326258940E+01 -0.70260588216E+02 -0.25906720689E+02  0.10494731510E+03  0.73468566198E+02 0.  0.
         24    2    1    2    0    0  0.59112362388E+01 -0.61125537060E+01  0.57309295152E+02  0.79153986621E+02  0.53932293299E+02 0.  0.
        -13    1    4    4    0    0  0.23424884926E+02 -0.23109343279E+02 -0.37300893460E+02  0.49740563261E+02  0.00000000000E+00 0.  1.
         14    1    4    4    0    0 -0.26357510820E+02 -0.47151244937E+02  0.11394172771E+02  0.55206751842E+02  0.00000000000E+00 0. -1.
        -13    1    5    5    0    0  0.26917088698E+02 -0.15091869587E+02  0.39850134339E+02  0.50401660671E+02  0.00000000000E+00 0.  1.
         14    1    5    5    0    0 -0.21005852459E+02  0.89793158810E+01  0.17459160814E+02  0.28752325950E+02  0.00000000000E+00 0. -1.
          5    1    3    3  501    0 -0.19655703876E+02 -0.96672197460E+01 -0.17197816757E+02  0.28242817382E+02  0.47000000000E+01 0.  1.
         -5    1    3    3    0  501  0.11330669024E+03  0.14078867057E+02 -0.45548132702E+03  0.46959764673E+03  0.47000000000E+01 0.  1.
          1    1    1    2  502    0  0.43758395039E+01  0.11714017299E+02 -0.70770066299E+03  0.70781112917E+03  0.00000000000E+00 0. -1.
          1    1    1    2  503    0 -0.10100543621E+03  0.60247477313E+02  0.52252009107E+03  0.53559229106E+03  0.00000000000E+00 0. -1.
<mgrwt>
<rscale>  0 0.31071355E+02</rscale>
<asrwt>0</asrwt>
<pdfrwt beam="1">  1        2 0.95506475E-01 0.77205634E+02</pdfrwt>
<pdfrwt beam="2">  1        2 0.18763252E+00 0.12504646E+02</pdfrwt>
<totfact> 0.18739608E+02</totfact>
</mgrwt>
</event>
<event>
13    1  0.2742815E-008  0.4651120E+02  0.7546771E-02  0.1657787E+00
          2   -1    0    0  503    0  0.00000000000E+00  0.00000000000E+00  0.15579447610E+04  0.15579447610E+04  0.00000000000E+00 0. -1.
          2   -1    0    0  502    0 -0.00000000000E+00 -0.00000000000E+00 -0.26932174838E+04  0.26932174838E+04  0.00000000000E+00 0. -1.
         25    2    1    2    0    0  0.41930328256E+03  0.21585745930E+03 -0.21908915405E+03  0.53482201728E+03  0.12499938898E+03 0.  0.
         24    2    1    2    0    0 -0.34612896065E+03 -0.87672606370E+03 -0.12706662175E+04  0.15840641282E+04  0.78820541379E+02 0.  0.
         24    2    1    2    0    0 -0.49308691809E+02  0.60684455528E+03  0.62415198399E+03  0.87643875064E+03  0.88811728570E+02 0.  0.
        -11    1    5    5    0    0  0.18452496177E+02  0.18003749081E+03  0.21857665660E+03  0.28377763746E+03  0.00000000000E+00 0.  1.
         12    1    5    5    0    0 -0.67761187986E+02  0.42680706447E+03  0.40557532739E+03  0.59266111317E+03  0.00000000000E+00 0. -1.
        -13    1    4    4    0    0 -0.25029033816E+03 -0.67104964686E+03 -0.10146992329E+04  0.12420013748E+04  0.00000000000E+00 0.  1.
         14    1    4    4    0    0 -0.95838622482E+02 -0.20567641684E+03 -0.25596698463E+03  0.34206275334E+03  0.00000000000E+00 0. -1.
          5    1    3    3  501    0  0.37696036395E+03  0.15081397626E+03 -0.15705196246E+03  0.43535201888E+03  0.47000000000E+01 0.  1.
         -5    1    3    3    0  501  0.42342918607E+02  0.65043483046E+02 -0.62037191586E+02  0.99469998406E+02  0.47000000000E+01 0.  1.
          1    1    1    2  502    0 -0.95776601077E+01  0.97691157586E+01 -0.76159528192E+03  0.76171815039E+03  0.00000000000E+00 0. -1.
          1    1    1    2  503    0 -0.14287969997E+02  0.44254933351E+02  0.49192594667E+03  0.49411919839E+03  0.00000000000E+00 0. -1.
<mgrwt>
<rscale>  0 0.25225292E+02</rscale>
<asrwt>0</asrwt>
<pdfrwt beam="1">  1        2 0.22910952E+00 0.46511198E+02</pdfrwt>
<pdfrwt beam="2">  1        2 0.39606139E+00 0.13680906E+02</pdfrwt>
<totfact> 0.14316188E+01</totfact>
</mgrwt>
</event>
<event>
13    1  0.2742815E-008  0.1271894E+03  0.7546771E-02  0.1378348E+00
          2   -1    0    0  502    0  0.00000000000E+00  0.00000000000E+00  0.11345287770E+04  0.11345287770E+04  0.00000000000E+00 0. -1.
          2   -1    0    0  503    0 -0.00000000000E+00 -0.00000000000E+00 -0.21740032914E+04  0.21740032914E+04  0.00000000000E+00 0. -1.
         25    2    1    2    0    0  0.14269235123E+02 -0.74492523561E+02 -0.69101373477E+03  0.70631415128E+03  0.12500780582E+03 0.  0.
         24    2    1    2    0    0 -0.56416024553E+02 -0.12553464340E+02 -0.16688143490E+02  0.98324599142E+02  0.77774516199E+02 0.  0.
         24    2    1    2    0    0  0.17437470349E+03  0.44326463661E+02  0.34395548018E+03  0.39682078944E+03  0.82401419833E+02 0.  0.
        -13    1    4    4    0    0 -0.57138653787E+02 -0.28557022037E+02  0.12443999511E+02  0.65078278927E+02  0.00000000000E+00 0.  1.
         14    1    4    4    0    0  0.72262923347E+00  0.16003557697E+02 -0.29132143002E+02  0.33246320215E+02  0.00000000000E+00 0. -1.
        -13    1    5    5    0    0  0.53951190398E+02  0.44484128348E+02  0.18222718744E+03  0.19518277707E+03  0.00000000000E+00 0.  1.
         14    1    5    5    0    0  0.12042351309E+03 -0.15766468695E+00  0.16172829273E+03  0.20163801237E+03  0.00000000000E+00 0. -1.
          5    1    3    3  501    0  0.64623041678E+02 -0.68490381847E+02 -0.40771051708E+03  0.41846986230E+03  0.47000000000E+01 0.  1.
         -5    1    3    3    0  501 -0.50353806555E+02 -0.60021417148E+01 -0.28330321769E+03  0.28784428897E+03  0.47000000000E+01 0.  1.
          1    1    1    2  502    0 -0.59276832493E+01  0.32581213669E+02  0.71240216578E+03  0.71317145114E+03  0.00000000000E+00 0. -1.
          1    1    1    2  503    0 -0.12630023081E+03  0.10138310572E+02 -0.13881302821E+04  0.13939010775E+04  0.00000000000E+00 0. -1.
<mgrwt>
<rscale>  0 0.64900006E+02</rscale>
<asrwt>0</asrwt>
<pdfrwt beam="1">  1        2 0.16684247E+00 0.33116052E+02</pdfrwt>
<pdfrwt beam="2">  1        2 0.31970636E+00 0.12718940E+03</pdfrwt>
<totfact> 0.30175531E+01</totfact>
</mgrwt>
</event>
<event>
13    1  0.2742815E-008  0.6289315E+02  0.7546771E-02  0.1443377E+00
          2   -1    0    0  502    0  0.00000000000E+00  0.00000000000E+00  0.13106466439E+04  0.13106466439E+04  0.00000000000E+00 0. -1.
          2   -1    0    0  503    0 -0.00000000000E+00 -0.00000000000E+00 -0.17037617766E+04  0.17037617766E+04  0.00000000000E+00 0. -1.
         25    2    1    2    0    0 -0.36572140928E+01 -0.66557085919E+02 -0.41384349950E+03  0.43741808535E+03  0.12499967368E+03 0.  0.
         24    2    1    2    0    0 -0.57898507192E+02  0.63839387784E+02  0.18079333536E+02  0.12169731441E+03  0.83998032508E+02 0.  0.
         24    2    1    2    0    0  0.77638146477E+02 -0.17440817217E+02  0.84878739296E+03  0.85627236932E+03  0.80190199597E+02 0.  0.
        -11    1    4    4    0    0 -0.41286147266E+01  0.66232217125E+02  0.13128897287E+02  0.67647024981E+02  0.00000000000E+00 0.  1.
         12    1    4    4    0    0 -0.53769892465E+02 -0.23928293409E+01  0.49504362491E+01  0.54050289426E+02  0.00000000000E+00 0. -1.
        -13    1    5    5    0    0 -0.69304473431E+01 -0.12993222362E+02  0.33439834222E+02  0.36538711534E+02  0.00000000000E+00 0.  1.
         14    1    5    5    0    0  0.84568593820E+02 -0.44475948552E+01  0.81534755874E+03  0.81973365778E+03  0.00000000000E+00 0. -1.
          5    1    3    3  501    0 -0.31492325017E+02 -0.72458153147E+02 -0.13059996569E+03  0.15271015529E+03  0.47000000000E+01 0. -1.
         -5    1    3    3    0  501  0.27835110924E+02  0.59010672285E+01 -0.28324353381E+03  0.28470793006E+03  0.47000000000E+01 0. -1.
          1    1    1    2  502    0  0.13268601408E+01 -0.40312382412E+02  0.37454795834E+03  0.37671344791E+03  0.00000000000E+00 0. -1.
          1    1    1    2  503    0 -0.17409285333E+02  0.60470897764E+02 -0.12206863181E+04  0.12223072036E+04  0.00000000000E+00 0. -1.
<mgrwt>
<rscale>  0 0.50366116E+02</rscale>
<asrwt>0</asrwt>
<pdfrwt beam="1">  1        2 0.19274215E+00 0.40334213E+02</pdfrwt>
<pdfrwt beam="2">  1        2 0.25055320E+00 0.62893147E+02</pdfrwt>
<totfact> 0.43921852E+01</totfact>
</mgrwt>
</event>
<event>
13    1  0.2742815E-008  0.4235171E+02  0.7546771E-02  0.1494761E+00
          2   -1    0    0  503    0  0.00000000000E+00  0.00000000000E+00  0.13192294465E+04  0.13192294465E+04  0.00000000000E+00 0. -1.
          2   -1    0    0  502    0 -0.00000000000E+00 -0.00000000000E+00 -0.20111439645E+04  0.20111439645E+04  0.00000000000E+00 0. -1.
         25    2    1    2    0    0 -0.32351515111E+02  0.55707026390E+02 -0.39662361833E+03  0.42081523710E+03  0.12500110334E+03 0.  0.
         24    2    1    2    0    0  0.83065006335E+02 -0.13447713468E+02  0.45145493296E+03  0.46614482098E+03  0.79992508144E+02 0.  0.
         24    2    1    2    0    0 -0.21257796393E+02  0.85061738383E+00  0.17768196714E+03  0.19823327305E+03  0.85281484730E+02 0.  0.
        -13    1    4    4    0    0  0.18150080391E+02 -0.39400309583E+02  0.22501885723E+03  0.22916216075E+03  0.00000000000E+00 0.  1.
         14    1    4    4    0    0  0.64914925944E+02  0.25952596116E+02  0.22643607573E+03  0.23698266022E+03  0.00000000000E+00 0. -1.
        -13    1    5    5    0    0 -0.25633910798E+02  0.22219444978E+02  0.20693896659E+02  0.39737117118E+02  0.00000000000E+00 0.  1.
         14    1    5    5    0    0  0.43761144048E+01 -0.21368827594E+02  0.15698807048E+03  0.15849615593E+03  0.00000000000E+00 0. -1.
          5    1    3    3  501    0 -0.46438125550E+02  0.13407548654E+02 -0.44559326595E+02  0.65908159223E+02  0.47000000000E+01 0.  1.
         -5    1    3    3    0  501  0.14086610439E+02  0.42299477736E+02 -0.35206429174E+03  0.35490707788E+03  0.47000000000E+01 0.  1.
          1    1    1    2  502    0 -0.41356801327E+02 -0.24494229304E+01 -0.15838532841E+04  0.15843950297E+04  0.00000000000E+00 0. -1.
          1    1    1    2  503    0  0.11901106496E+02 -0.40660507376E+02  0.65942548430E+03  0.66078505017E+03  0.00000000000E+00 0. -1.
<mgrwt>
<rscale>  0 0.41887954E+02</rscale>
<asrwt>0</asrwt>
<pdfrwt beam="1">  1        2 0.19400433E+00 0.42351713E+02</pdfrwt>
<pdfrwt beam="2">  1        2 0.29575646E+00 0.41429273E+02</pdfrwt>
<totfact> 0.32558530E+01</totfact>
</mgrwt>
</event>
<event>
13    1  0.2742815E-008  0.1083896E+03  0.7546771E-02  0.1377739E+00
          2   -1    0    0  503    0  0.00000000000E+00  0.00000000000E+00  0.16349117261E+04  0.16349117261E+04  0.00000000000E+00 0. -1.
          2   -1    0    0  502    0 -0.00000000000E+00 -0.00000000000E+00 -0.53277794641E+03  0.53277794641E+03  0.00000000000E+00 0. -1.
         25    2    1    2    0    0  0.78179056060E+02  0.54646375613E+02  0.82693592477E+02  0.17766579544E+03  0.12501485295E+03 0.  0.
         24    2    1    2    0    0  0.10350192859E+02 -0.24250611918E+03  0.24220641793E+03  0.34882400434E+03  0.64014785669E+02 0.  0.
         24    2    1    2    0    0  0.19717235921E+02  0.19394100963E+03  0.55038734524E+03  0.58926548711E+03  0.79408437176E+02 0.  0.
        -13    1    4    4    0    0  0.42174472699E+01 -0.20558727129E+03  0.16730807334E+03  0.26509602860E+03  0.00000000000E+00 0.  1.
         14    1    4    4    0    0  0.61327455895E+01 -0.36918847892E+02  0.74898344592E+02  0.83727975736E+02  0.00000000000E+00 0. -1.
        -13    1    5    5    0    0 -0.63414415937E+01  0.10839423052E+03  0.19919445248E+03  0.22686549537E+03  0.00000000000E+00 0.  1.
         14    1    5    5    0    0  0.26058677514E+02  0.85546779109E+02  0.35119289275E+03  0.36239999174E+03  0.00000000000E+00 0. -1.
          5    1    3    3  501    0 -0.16097175038E+02 -0.22196569416E+02 -0.41736423338E+01  0.28130339998E+02  0.47000000000E+01 0. -1.
         -5    1    3    3    0  501  0.94276231098E+02  0.76842945030E+02  0.86867234811E+02  0.14953545544E+03  0.47000000000E+01 0. -1.
          1    1    1    2  502    0 -0.10340084135E+03  0.32670965935E+02 -0.40480447836E+03  0.41907730994E+03  0.00000000000E+00 0. -1.
          1    1    1    2  503    0 -0.48456434863E+01 -0.38752231995E+02  0.63165090237E+03  0.63285707566E+03  0.00000000000E+00 0. -1.
<mgrwt>
<rscale>  0 0.65061893E+02</rscale>
<asrwt>0</asrwt>
<pdfrwt beam="1">  1        2 0.24042819E+00 0.39054011E+02</pdfrwt>
<pdfrwt beam="2">  1        2 0.78349698E-01 0.10838964E+03</pdfrwt>
<totfact> 0.14377974E+02</totfact>
</mgrwt>
</event>
<event>
13    1  0.2742815E-008  0.1214386E+03  0.7546771E-02  0.1294666E+00
          2   -1    0    0  503    0  0.00000000000E+00  0.00000000000E+00  0.26310766013E+04  0.26310766013E+04  0.00000000000E+00 0. -1.
          2   -1    0    0  502    0 -0.00000000000E+00 -0.00000000000E+00 -0.19027239796E+04  0.19027239796E+04  0.00000000000E+00 0. -1.
         25    2    1    2    0    0 -0.12440281378E+03 -0.27564253817E+02  0.19422501908E+02  0.17954441565E+03  0.12499246156E+03 0.  0.
         24    2    1    2    0    0 -0.66323719311E+02  0.11310969285E+02  0.72816184532E+02  0.12766981283E+03  0.80440105726E+02 0.  0.
         24    2    1    2    0    0  0.21872174485E+02  0.61963143471E+02  0.39030262885E+03  0.40426491350E+03  0.82317404219E+02 0.  0.
        -13    1    5    5    0    0 -0.20172741915E+02 -0.30133568049E+01  0.33957709497E+02  0.39612445896E+02  0.00000000000E+00 0.  1.
         14    1    5    5    0    0  0.42044916401E+02  0.64976500276E+02  0.35634491935E+03  0.36465246761E+03  0.00000000000E+00 0. -1.
        -13    1    4    4    0    0 -0.37372324134E+01 -0.29558252878E+02  0.16304024031E+02  0.33962897682E+02  0.00000000000E+00 0.  1.
         14    1    4    4    0    0 -0.62586486897E+02  0.40869222164E+02  0.56512160501E+02  0.93706915150E+02  0.00000000000E+00 0. -1.
          5    1    3    3  501    0 -0.13809880604E+03 -0.50101766065E+02  0.31241004050E+02  0.15026495775E+03  0.47000000000E+01 0. -1.
         -5    1    3    3    0  501  0.13695992262E+02  0.22537512248E+02 -0.11818502142E+02  0.29279457906E+02  0.47000000000E+01 0. -1.
          1    1    1    2  502    0  0.12107567653E+03  0.80709839345E+01 -0.17855591294E+04  0.17896775868E+04  0.00000000000E+00 0. -1.
          1    1    1    2  503    0  0.47778682074E+02 -0.53780842875E+02  0.20313704358E+04  0.20326438520E+04  0.00000000000E+00 0. -1.
<mgrwt>
<rscale>  0 0.93467328E+02</rscale>
<asrwt>0</asrwt>
<pdfrwt beam="1">  1        2 0.38692303E+00 0.71938734E+02</pdfrwt>
<pdfrwt beam="2">  1        2 0.27981235E+00 0.12143863E+03</pdfrwt>
<totfact> 0.73355520E+00</totfact>
</mgrwt>
</event>
<event>
13    1  0.2742815E-008  0.7432345E+02  0.7546771E-02  0.1415561E+00
          2   -1    0    0  502    0  0.00000000000E+00  0.00000000000E+00  0.26244981112E+04  0.26244981112E+04  0.00000000000E+00 0. -1.
          2   -1    0    0  503    0 -0.00000000000E+00 -0.00000000000E+00 -0.22875762584E+04  0.22875762584E+04  0.00000000000E+00 0. -1.
         25    2    1    2    0    0  0.21492340221E+02  0.47110284034E+02 -0.11834451179E+03  0.17975533721E+03  0.12500103292E+03 0.  0.
         24    2    1    2    0    0 -0.13422996310E+03  0.36910745564E+01  0.68283514691E+03  0.70067065406E+03  0.81512088545E+02 0.  0.
         24    2    1    2    0    0  0.33396326501E+02  0.14536559912E+02  0.18337604621E+03  0.20295661669E+03  0.78980932731E+02 0.  0.
        -13    1    4    4    0    0 -0.13155336858E+03  0.16933123952E+02  0.66602742373E+03  0.67910643395E+03  0.00000000000E+00 0.  1.
         14    1    4    4    0    0 -0.26765945223E+01 -0.13242049396E+02  0.16807723179E+02  0.21564220109E+02  0.00000000000E+00 0. -1.
        -13    1    5    5    0    0 -0.19313744285E+02  0.24674069265E+02  0.89394216128E+02  0.94726745376E+02  0.00000000000E+00 0.  1.
         14    1    5    5    0    0  0.52710070786E+02 -0.10137509353E+02  0.93981830084E+02  0.10822987131E+03  0.00000000000E+00 0. -1.
          5    1    3    3  501    0 -0.10633069683E+02 -0.15392369181E+02 -0.10662364160E+03  0.10835440991E+03  0.47000000000E+01 0. -1.
         -5    1    3    3    0  501  0.32125409904E+02  0.62502653215E+02 -0.11720870198E+02  0.71400927295E+02  0.47000000000E+01 0. -1.
          1    1    1    2  502    0  0.90763742144E+01 -0.41161624239E+02  0.17079621767E+04  0.17084822086E+04  0.00000000000E+00 0. -1.
          1    1    1    2  503    0  0.70264922165E+02 -0.24176294263E+02 -0.21189070052E+04  0.21202095531E+04  0.00000000000E+00 0. -1.
<mgrwt>
<rscale>  0 0.55971119E+02</rscale>
<asrwt>0</asrwt>
<pdfrwt beam="1">  1        2 0.38595561E+00 0.42150443E+02</pdfrwt>
<pdfrwt beam="2">  1        2 0.33640827E+00 0.74323446E+02</pdfrwt>
<totfact> 0.55013556E+00</totfact>
</mgrwt>
</event>
<event>
13    1  0.2742815E-008  0.4937204E+02  0.7546771E-02  0.1493369E+00
          2   -1    0    0  503    0  0.00000000000E+00  0.00000000000E+00  0.11160171408E+04  0.11160171408E+04  0.00000000000E+00 0. -1.
          2   -1    0    0  502    0 -0.00000000000E+00 -0.00000000000E+00 -0.35567876678E+04  0.35567876678E+04  0.00000000000E+00 0. -1.
         25    2    1    2    0    0  0.37451536332E+03  0.53571311472E+03 -0.60961415557E+03  0.90250066618E+03  0.12501094011E+03 0.  0.
         24    2    1    2    0    0 -0.47912790665E+03 -0.10082960299E+04  0.56177186527E+01  0.11215843251E+04  0.10814529481E+03 0.  0.
         24    2    1    2    0    0  0.15165279107E+03  0.46650696654E+03  0.10405590334E+03  0.50816160768E+03  0.82299876256E+02 0.  0.
        -11    1    4    4    0    0 -0.16700700085E+03 -0.43693178739E+03 -0.36373973746E+02  0.46917351922E+03  0.00000000000E+00 0.  1.
         12    1    4    4    0    0 -0.31212090580E+03 -0.57136424250E+03  0.41991692399E+02  0.65241080592E+03  0.00000000000E+00 0. -1.
        -13    1    5    5    0    0  0.15163168307E+02  0.96338266475E+02 -0.84878607052E+01  0.97892936619E+02  0.00000000000E+00 0.  1.
         14    1    5    5    0    0  0.13648962276E+03  0.37016870007E+03  0.11254376405E+03  0.41026867106E+03  0.00000000000E+00 0. -1.
          5    1    3    3  501    0  0.35448667087E+03  0.44584323599E+03 -0.48923420765E+03  0.75087228663E+03  0.47000000000E+01 0.  1.
         -5    1    3    3    0  501  0.20028692454E+02  0.89869878732E+02 -0.12037994792E+03  0.15162837955E+03  0.47000000000E+01 0.  1.
          1    1    1    2  502    0 -0.70818363838E+01  0.35176901954E+02 -0.20344090205E+04  0.20347254433E+04  0.00000000000E+00 0. -1.
          1    1    1    2  503    0 -0.39958411355E+02 -0.29100953323E+02  0.93579027097E+02  0.10583276636E+03  0.00000000000E+00 0. -1.
<mgrwt>
<rscale>  0 0.42090393E+02</rscale>
<asrwt>0</asrwt>
<pdfrwt beam="1">  1        2 0.16412016E+00 0.49372041E+02</pdfrwt>
<pdfrwt beam="2">  1        2 0.52305702E+00 0.35882682E+02</pdfrwt>
<totfact> 0.70507611E+00</totfact>
</mgrwt>
</event>
<event>
13    1  0.2742815E-008  0.1064647E+03  0.7546771E-02  0.1334149E+00
         -1   -1    0    0    0  501 -0.00000000000E+00  0.00000000000E+00  0.31692277681E+03  0.31692277681E+03  0.00000000000E+00 0.  1.
          2   -1    0    0  503    0  0.00000000000E+00 -0.00000000000E+00 -0.11597046321E+04  0.11597046321E+04  0.00000000000E+00 0. -1.
         25    2    1    2    0    0  0.49182004296E+02 -0.22671244931E+02  0.29208882454E+02  0.13932348917E+03  0.12500008371E+03 0.  0.
         24    2    1    2    0    0 -0.67597052181E+02 -0.19272343034E+01 -0.23751766036E+03  0.25967830034E+03  0.80281411221E+02 0.  0.
         24    2    1    2    0    0  0.12022488990E+03 -0.63689645637E+02 -0.30686676410E+03  0.34526265288E+03  0.80800330761E+02 0.  0.
        -13    1    4    4    0    0 -0.73142654713E+01  0.29070792500E+02 -0.34817171659E+02  0.45943932117E+02  0.00000000000E+00 0.  1.
         14    1    4    4    0    0 -0.60282786709E+02 -0.30998026804E+02 -0.20270048870E+03  0.21373436822E+03  0.00000000000E+00 0. -1.
        -13    1    5    5    0    0  0.75206492902E+02 -0.39765669785E+02 -0.95775889938E+02  0.12810287335E+03  0.00000000000E+00 0.  1.
         14    1    5    5    0    0  0.45018396996E+02 -0.23923975852E+02 -0.21109087416E+03  0.21715977953E+03  0.00000000000E+00 0. -1.
          5    1    3    3  502    0  0.58849198637E+02 -0.65731681749E+02  0.43602045363E+01  0.88458937080E+02  0.47000000000E+01 0. -1.
         -5    1    3    3    0  502 -0.96671943410E+01  0.43060436817E+02  0.24848677918E+02  0.50864552093E+02  0.47000000000E+01 0. -1.
          1    1    1    2  503    0 -0.44804960164E+02  0.95693716113E+02 -0.52048418232E+03  0.53110126700E+03  0.00000000000E+00 0. -1.
         -2    1    1    2    0  501 -0.57004881849E+02 -0.74055912416E+01  0.19287786904E+03  0.20126169954E+03  0.00000000000E+00 0.  1.
<mgrwt>
<rscale>  0 0.78230469E+02</rscale>
<asrwt>0</asrwt>
<pdfrwt beam="2">  1        2 0.17054480E+00 0.10646469E+03</pdfrwt>
<pdfrwt beam="1">  1       -1 0.46606291E-01 0.57483905E+02</pdfrwt>
<totfact> 0.12904797E+02</totfact>
</mgrwt>
</event>
<event>
13    1  0.2742815E-008  0.6615129E+02  0.7546771E-02  0.1449071E+00
          2   -1    0    0  503    0  0.00000000000E+00  0.00000000000E+00  0.67435030746E+03  0.67435030746E+03  0.00000000000E+00 0. -1.
          2   -1    0    0  502    0 -0.00000000000E+00 -0.00000000000E+00 -0.20120963556E+04  0.20120963556E+04  0.00000000000E+00 0. -1.
         25    2    1    2    0    0 -0.59443963764E+01 -0.16613326955E+03 -0.70012574026E+03  0.73036658221E+03  0.12499477239E+03 0.  0.
         24    2    1    2    0    0  0.24104715406E+02  0.89392515903E+02 -0.42807304495E+03  0.44550308957E+03  0.81574578145E+02 0.  0.
         24    2    1    2    0    0 -0.36810679968E+02  0.81506003909E+01 -0.32784503908E+02  0.94189800044E+02  0.79846329217E+02 0.  0.
        -11    1    5    5    0    0 -0.33709345347E+02 -0.19309735732E+02 -0.48702203273E+02  0.62298398546E+02  0.00000000000E+00 0.  1.
         12    1    5    5    0    0 -0.31013346203E+01  0.27460336122E+02  0.15917699365E+02  0.31891401497E+02  0.00000000000E+00 0. -1.
        -13    1    4    4    0    0 -0.21043223195E+02  0.31025990363E+00 -0.45871073172E+02  0.50468493712E+02  0.00000000000E+00 0.  1.
         14    1    4    4    0    0  0.45147938601E+02  0.89082255999E+02 -0.38220197178E+03  0.39503459586E+03  0.00000000000E+00 0. -1.
          5    1    3    3  501    0 -0.47046307168E+01 -0.17129780648E+03 -0.70232304685E+03  0.72294178479E+03  0.47000000000E+01 0.  1.
         -5    1    3    3    0  501 -0.12397656597E+01  0.51645369229E+01  0.21973065860E+01  0.74247974216E+01  0.47000000000E+01 0.  1.
          1    1    1    2  502    0 -0.17805017688E+02  0.63837350060E+02 -0.79464918223E+03  0.79740801898E+03  0.00000000000E+00 0. -1.
          1    1    1    2  503    0  0.36455378626E+02  0.47528031987E+01  0.61788642318E+03  0.61897917228E+03  0.00000000000E+00 0. -1.
<mgrwt>
<rscale>  0 0.49315098E+02</rscale>
<asrwt>0</asrwt>
<pdfrwt beam="1">  1        2 0.99169165E-01 0.36763892E+02</pdfrwt>
<pdfrwt beam="2">  1        2 0.29589652E+00 0.66151291E+02</pdfrwt>
<totfact> 0.71789693E+01</totfact>
</mgrwt>
</event>
<event>
13    1  0.2742815E-008  0.1630835E+03  0.7546771E-02  0.1188751E+00
          2   -1    0    0  502    0  0.00000000000E+00  0.00000000000E+00  0.23007008489E+04  0.23007008489E+04  0.00000000000E+00 0. -1.
          2   -1    0    0  503    0 -0.00000000000E+00 -0.00000000000E+00 -0.38805800044E+04  0.38805800044E+04  0.00000000000E+00 0. -1.
         25    2    1    2    0    0  0.77434938536E+02  0.23028164229E+03 -0.12747235155E+04  0.13036759799E+04  0.12500086081E+03 0.  0.
         24    2    1    2    0    0 -0.78783766238E+02 -0.91990266799E+02  0.20977662316E+03  0.25374308324E+03  0.75566061575E+02 0.  0.
         24    2    1    2    0    0 -0.11801804292E+02 -0.17265765475E+03  0.37757852649E+03  0.42387471615E+03  0.84582994724E+02 0.  0.
        -11    1    4    4    0    0 -0.29021487637E+02 -0.74245635603E+02  0.76957013101E+02  0.11080181865E+03  0.00000000000E+00 0.  1.
         12    1    4    4    0    0 -0.49762278601E+02 -0.17744631196E+02  0.13281961006E+03  0.14294126459E+03  0.00000000000E+00 0. -1.
        -13    1    5    5    0    0 -0.42148108926E+02 -0.13015055657E+03  0.23353766081E+03  0.27065747631E+03  0.00000000000E+00 0.  1.
         14    1    5    5    0    0  0.30346304634E+02 -0.42507098176E+02  0.14404086568E+03  0.15321723984E+03  0.00000000000E+00 0. -1.
          5    1    3    3  501    0  0.10343024220E+03  0.18793031171E+03 -0.11397063190E+04  0.11597276407E+04  0.47000000000E+01 0. -1.
         -5    1    3    3    0  501 -0.25995303663E+02  0.42351330582E+02 -0.13501719654E+03  0.14394833926E+03  0.47000000000E+01 0. -1.
          1    1    1    2  502    0 -0.87955048769E+02  0.16228904083E+03  0.16459632831E+04  0.16562816646E+04  0.00000000000E+00 0. -1.
          1    1    1    2  503    0  0.10110568076E+03 -0.12792276158E+03 -0.25384740727E+04  0.25437054093E+04  0.00000000000E+00 0. -1.
<mgrwt>
<rscale>  0 0.15995185E+03</rscale>
<asrwt>0</asrwt>
<pdfrwt beam="1">  1        2 0.33833837E+00 0.15688033E+03</pdfrwt>
<pdfrwt beam="2">  1        2 0.57067352E+00 0.16308350E+03</pdfrwt>
<totfact> 0.77991259E-01</totfact>
</mgrwt>
</event>
<event>
13    1  0.2742815E-008  0.1220645E+03  0.7546771E-02  0.1254511E+00
          2   -1    0    0  503    0  0.00000000000E+00  0.00000000000E+00  0.18423451559E+04  0.18423451559E+04  0.00000000000E+00 0. -1.
          2   -1    0    0  502    0 -0.00000000000E+00 -0.00000000000E+00 -0.28595054338E+03  0.28595054338E+03  0.00000000000E+00 0. -1.
         25    2    1    2    0    0  0.12223485795E+03  0.85298943702E+01 -0.47234840644E+02  0.18129103094E+03  0.12498475161E+03 0.  0.
         24    2    1    2    0    0  0.95127418611E+02  0.48940586716E+02  0.25160434621E+03  0.28583767677E+03  0.83390788614E+02 0.  0.
         24    2    1    2    0    0  0.54412178904E+02  0.80515864221E+01  0.21172704865E+03  0.23276468636E+03  0.79533281259E+02 0.  0.
        -13    1    4    4    0    0  0.36588077721E+02  0.65302579756E+02  0.13777531649E+03  0.15679653117E+03  0.00000000000E+00 0.  1.
         14    1    4    4    0    0  0.58539340890E+02 -0.16361993040E+02  0.11382902972E+03  0.12904114559E+03  0.00000000000E+00 0. -1.
        -13    1    5    5    0    0  0.63035443494E+02  0.31955708668E+02  0.14350535991E+03  0.15996381708E+03  0.00000000000E+00 0.  1.
         14    1    5    5    0    0 -0.86232645895E+01 -0.23904122245E+02  0.68221688741E+02  0.72800869275E+02  0.00000000000E+00 0. -1.
          5    1    3    3  501    0  0.11296094419E+02 -0.69329512455E+00 -0.67016723725E+02  0.68127921340E+02  0.47000000000E+01 0.  1.
         -5    1    3    3    0  501  0.11093876353E+03  0.92231894948E+01  0.19781883081E+02  0.11316310960E+03  0.47000000000E+01 0.  1.
          1    1    1    2  502    0 -0.11800351882E+03 -0.33324967456E+02 -0.11213051989E+03  0.16615847074E+03  0.00000000000E+00 0. -1.
          1    1    1    2  503    0 -0.15377093664E+03 -0.32197100052E+02  0.12524285782E+04  0.12622438344E+04  0.00000000000E+00 0. -1.
<mgrwt>
<rscale>  0 0.11333744E+03</rscale>
<asrwt>0</asrwt>
<pdfrwt beam="1">  1        2 0.27093311E+00 0.10523434E+03</pdfrwt>
<pdfrwt beam="2">  1        2 0.42051551E-01 0.12206448E+03</pdfrwt>
<totfact> 0.20238184E+02</totfact>
</mgrwt>
</event>
<event>
13    1  0.2742815E-008  0.1418414E+03  0.7546771E-02  0.1212209E+00
          2   -1    0    0  503    0  0.00000000000E+00  0.00000000000E+00  0.20454090323E+04  0.20454090323E+04  0.00000000000E+00 0. -1.
         -1   -1    0    0    0  501 -0.00000000000E+00 -0.00000000000E+00 -0.12712813628E+04  0.12712813628E+04  0.00000000000E+00 0.  1.
         25    2    1    2    0    0  0.19956187118E+03  0.20366446688E+03 -0.98055762552E+03  0.10287964834E+04  0.12499916734E+03 0.  0.
         24    2    1    2    0    0 -0.18103863848E+02  0.44330415380E+02  0.35701831016E+02  0.10151241521E+03  0.82080534175E+02 0.  0.
         24    2    1    2    0    0  0.12050577253E+03 -0.31503496782E+03  0.53286343839E+03  0.63371237035E+03  0.62283643107E+02 0.  0.
        -11    1    4    4    0    0 -0.49374497323E+02  0.38763141388E+02  0.18770425501E+02  0.65519088743E+02  0.00000000000E+00 0.  1.
         12    1    4    4    0    0  0.31270633475E+02  0.55672739923E+01  0.16931405516E+02  0.35993326470E+02  0.00000000000E+00 0. -1.
        -11    1    5    5    0    0  0.52329406857E+02 -0.91303627394E+02  0.12360835019E+03  0.16233836095E+03  0.00000000000E+00 0.  1.
         12    1    5    5    0    0  0.68176365670E+02 -0.22373134042E+03  0.40925508820E+03  0.47137400940E+03  0.00000000000E+00 0. -1.
          5    1    3    3  502    0 -0.73658280877E+01  0.55700990026E+02 -0.15593794598E+03  0.16581793845E+03  0.47000000000E+01 0.  1.
         -5    1    3    3    0  502  0.20692769926E+03  0.14796347685E+03 -0.82461967954E+03  0.86297854497E+03  0.47000000000E+01 0.  1.
          1    1    1    2  503    0 -0.18993410578E+03 -0.18988000449E+02  0.13343399742E+04  0.13479238389E+04  0.00000000000E+00 0. -1.
         -2    1    1    2    0  501 -0.11202967408E+03  0.86028086008E+02 -0.14821994864E+03  0.20474528720E+03  0.00000000000E+00 0.  1.
<mgrwt>
<rscale>  0 0.14083583E+03</rscale>
<asrwt>0</asrwt>
<pdfrwt beam="1">  1        2 0.30079545E+00 0.13983736E+03</pdfrwt>
<pdfrwt beam="2">  1       -1 0.18695314E+00 0.14184143E+03</pdfrwt>
<totfact> 0.20947543E+00</totfact>
</mgrwt>
</event>
<event>
13    1  0.2742815E-008  0.5210853E+02  0.7546771E-02  0.1620601E+00
          2   -1    0    0  503    0  0.00000000000E+00  0.00000000000E+00  0.14738633698E+04  0.14738633698E+04  0.00000000000E+00 0. -1.
         -1   -1    0    0    0  501 -0.00000000000E+00 -0.00000000000E+00 -0.60552128526E+03  0.60552128526E+03  0.00000000000E+00 0.  1.
         25    2    1    2    0    0 -0.15244921969E+03 -0.20161676611E+02 -0.14264476253E+03  0.24416497854E+03  0.12498700204E+03 0.  0.
         24    2    1    2    0    0  0.88256105798E+02  0.60571791037E+02  0.42499144552E+03  0.44580583900E+03  0.81651915110E+02 0.  0.
         24    2    1    2    0    0  0.12584049609E+02  0.16809774171E+01  0.83043544157E+03  0.83451887197E+03  0.81471105773E+02 0.  0.
        -11    1    4    4    0    0 -0.12940590372E+02  0.14041745607E+02  0.11132555185E+03  0.11295135233E+03  0.00000000000E+00 0.  1.
         12    1    4    4    0    0  0.10119669617E+03  0.46530045429E+02  0.31366589368E+03  0.33285448668E+03  0.00000000000E+00 0. -1.
        -13    1    5    5    0    0  0.45630360958E+01  0.31306844228E+02  0.14567582930E+03  0.14907175130E+03  0.00000000000E+00 0.  1.
         14    1    5    5    0    0  0.80210135130E+01 -0.29625866811E+02  0.68475961226E+03  0.68544712067E+03  0.00000000000E+00 0. -1.
          5    1    3    3  502    0 -0.14868914277E+03  0.87957723504E+01 -0.67864598809E+02  0.16374834522E+03  0.47000000000E+01 0. -1.
         -5    1    3    3    0  502 -0.37600769155E+01 -0.28957448961E+02 -0.74780163720E+02  0.80416633321E+02  0.47000000000E+01 0. -1.
          1    1    1    2  503    0  0.13702752338E+02 -0.63631198868E+01  0.15315693068E+03  0.15390029283E+03  0.00000000000E+00 0. -1.
         -2    1    1    2    0  501  0.37906311944E+02 -0.35727971956E+02 -0.39759697069E+03  0.40099467274E+03  0.00000000000E+00 0.  1.
<mgrwt>
<rscale>  0 0.28058170E+02</rscale>
<asrwt>0</asrwt>
<pdfrwt beam="1">  1        2 0.21674461E+00 0.15108101E+02</pdfrwt>
<pdfrwt beam="2">  1       -1 0.89047248E-01 0.52108527E+02</pdfrwt>
<totfact> 0.30742458E+01</totfact>
</mgrwt>
</event>
<event>
13    1  0.2742815E-008  0.2297611E+03  0.7546771E-02  0.1207715E+00
          2   -1    0    0  503    0  0.00000000000E+00  0.00000000000E+00  0.19248816800E+04  0.19248816800E+04  0.00000000000E+00 0. -1.
          2   -1    0    0  502    0 -0.00000000000E+00 -0.00000000000E+00 -0.28582148910E+04  0.28582148910E+04  0.00000000000E+00 0. -1.
         25    2    1    2    0    0 -0.67721559621E+01  0.12055088405E+03 -0.63858105174E+03  0.66180648064E+03  0.12499472161E+03 0.  0.
         24    2    1    2    0    0  0.23386216706E+02  0.40268571173E+02 -0.35721730662E+03  0.36895223176E+03  0.79706161711E+02 0.  0.
         24    2    1    2    0    0 -0.17367278613E+03  0.45756787426E+02  0.13081638605E+03  0.23650727791E+03  0.81036074733E+02 0.  0.
        -11    1    5    5    0    0 -0.93529547964E+02  0.52360379352E+02  0.38057508685E+02  0.11374427298E+03  0.00000000000E+00 0.  1.
         12    1    5    5    0    0 -0.80143238164E+02 -0.66035919258E+01  0.92758877364E+02  0.12276300493E+03  0.00000000000E+00 0. -1.
        -11    1    4    4    0    0 -0.29533847428E+02  0.14752738428E+02 -0.14839170862E+03  0.15201970472E+03  0.00000000000E+00 0.  1.
         12    1    4    4    0    0  0.52920064134E+02  0.25515832745E+02 -0.20882559800E+03  0.21693252704E+03  0.00000000000E+00 0. -1.
          5    1    3    3  501    0 -0.47359721655E+02  0.11897589785E+03 -0.40871221542E+03  0.42832928050E+03  0.47000000000E+01 0. -1.
         -5    1    3    3    0  501  0.40587565693E+02  0.15749862003E+01 -0.22986883633E+03  0.23347720014E+03  0.47000000000E+01 0. -1.
          1    1    1    2  502    0 -0.44669176132E+02 -0.78789632982E+02 -0.17826654003E+04  0.17849647254E+04  0.00000000000E+00 0. -1.
          1    1    1    2  503    0  0.20172790152E+03 -0.12778660967E+03  0.17143141617E+04  0.17308658552E+04  0.00000000000E+00 0. -1.
<mgrwt>
<rscale>  0 0.14425579E+03</rscale>
<asrwt>0</asrwt>
<pdfrwt beam="1">  1        2 0.28307084E+00 0.22976105E+03</pdfrwt>
<pdfrwt beam="2">  1        2 0.42032571E+00 0.90571196E+02</pdfrwt>
<totfact> 0.49945576E+00</totfact>
</mgrwt>
</event>
<event>
13    1  0.2742815E-008  0.1027306E+03  0.7546771E-02  0.1385205E+00
         -1   -1    0    0    0  501 -0.00000000000E+00  0.00000000000E+00  0.10096551711E+03  0.10096551711E+03  0.00000000000E+00 0.  1.
          2   -1    0    0  503    0  0.00000000000E+00 -0.00000000000E+00 -0.38712057741E+04  0.38712057741E+04  0.00000000000E+00 0. -1.
         25    2    1    2    0    0  0.55947442163E+02 -0.13063355118E+00 -0.10851703069E+03  0.17473225571E+03  0.12500112754E+03 0.  0.
         24    2    1    2    0    0 -0.20395125841E+02  0.92193054706E+02 -0.45388500303E+03  0.47031548862E+03  0.79180441866E+02 0.  0.
         24    2    1    2    0    0 -0.30686971504E+02  0.61729244620E+01 -0.68079346461E+03  0.68668815169E+03  0.84149159225E+02 0.  0.
        -11    1    5    5    0    0 -0.14346299773E+02  0.35741069157E+02 -0.15153125124E+03  0.15634884216E+03  0.00000000000E+00 0.  1.
         12    1    5    5    0    0 -0.16340671732E+02 -0.29568144695E+02 -0.52926221337E+03  0.53033930953E+03  0.00000000000E+00 0. -1.
        -11    1    4    4    0    0  0.43252799008E+01  0.96836257954E+02 -0.38387575022E+03  0.39592494302E+03  0.00000000000E+00 0.  1.
         12    1    4    4    0    0 -0.24720405742E+02 -0.46432032479E+01 -0.70009252807E+02  0.74390545603E+02  0.00000000000E+00 0. -1.
          5    1    3    3  502    0  0.14922220745E+02 -0.60605118552E+02 -0.61248816885E+02  0.87573743990E+02  0.47000000000E+01 0.  1.
         -5    1    3    3    0  502  0.41025221418E+02  0.60474485001E+02 -0.47268213802E+02  0.87158511716E+02  0.47000000000E+01 0.  1.
          1    1    1    2  503    0 -0.43056130254E+02 -0.10494830576E+03 -0.25757122565E+04  0.25782089918E+04  0.00000000000E+00 0. -1.
         -2    1    1    2    0  501  0.38190785437E+02  0.67129601425E+01  0.48667497848E+02  0.62226403343E+02  0.00000000000E+00 0.  1.
<mgrwt>
<rscale>  0 0.63115059E+02</rscale>
<asrwt>0</asrwt>
<pdfrwt beam="2">  1        2 0.56929491E+00 0.10273060E+03</pdfrwt>
<pdfrwt beam="1">  1       -1 0.14847872E-01 0.38776280E+02</pdfrwt>
<totfact> 0.30175788E+01</totfact>
</mgrwt>
</event>
<event>
13    1  0.2742815E-008  0.1043462E+03  0.7546771E-02  0.1361612E+00
          2   -1    0    0  503    0  0.00000000000E+00  0.00000000000E+00  0.47938369094E+03  0.47938369094E+03  0.00000000000E+00 0. -1.
          2   -1    0    0  502    0 -0.00000000000E+00 -0.00000000000E+00 -0.19091291972E+04  0.19091291972E+04  0.00000000000E+00 0. -1.
         25    2    1    2    0    0  0.43932706669E+02 -0.20538004408E+03 -0.31089373242E+03  0.39546497598E+03  0.12500635642E+03 0.  0.
         24    2    1    2    0    0  0.48762929244E+02  0.12617411406E+03 -0.22951148977E+02  0.15668990438E+03  0.75678534391E+02 0.  0.
         24    2    1    2    0    0 -0.69262737827E+02  0.16517370920E+03  0.21203345427E+03  0.28894080389E+03  0.80305176438E+02 0.  0.
        -11    1    5    5    0    0 -0.17713867683E+02  0.13221964863E+03  0.12702209828E+03  0.18420214452E+03  0.00000000000E+00 0.  1.
         12    1    5    5    0    0 -0.51548870144E+02  0.32954060568E+02  0.85011355986E+02  0.10473865937E+03  0.00000000000E+00 0. -1.
        -13    1    4    4    0    0 -0.11800719030E+02 -0.26312681623E+01  0.17898038158E+01  0.12222272271E+02  0.00000000000E+00 0.  1.
         14    1    4    4    0    0  0.60563648274E+02  0.12880538222E+03 -0.24740952793E+02  0.14446763211E+03  0.00000000000E+00 0. -1.
          5    1    3    3  501    0 -0.34635177286E+02 -0.27413947159E+02 -0.94650989444E+02  0.10455629970E+03  0.47000000000E+01 0.  1.
         -5    1    3    3    0  501  0.78567883956E+02 -0.17796609692E+03 -0.21624274298E+03  0.29090867628E+03  0.47000000000E+01 0.  1.
          1    1    1    2  502    0  0.45911926021E+02 -0.64600000400E+01 -0.14039805229E+04  0.14047458650E+04  0.00000000000E+00 0. -1.
          1    1    1    2  503    0 -0.69344824108E+02 -0.79507779137E+02  0.96046443784E+02  0.14267133888E+03  0.00000000000E+00 0. -1.
<mgrwt>
<rscale>  0 0.69555210E+02</rscale>
<asrwt>0</asrwt>
<pdfrwt beam="1">  1        2 0.70497602E-01 0.10434624E+03</pdfrwt>
<pdfrwt beam="2">  1        2 0.28075429E+00 0.46364173E+02</pdfrwt>
<totfact> 0.11837659E+02</totfact>
</mgrwt>
</event>
<event>
13    1  0.2742815E-008  0.8268463E+02  0.7546771E-02  0.1333231E+00
          2   -1    0    0  502    0  0.00000000000E+00  0.00000000000E+00  0.15351300304E+04  0.15351300304E+04  0.00000000000E+00 0. -1.
          2   -1    0    0  503    0 -0.00000000000E+00 -0.00000000000E+00 -0.15663926870E+04  0.15663926870E+04  0.00000000000E+00 0. -1.
         25    2    1    2    0    0  0.52110679774E+02  0.82342823691E+02 -0.12458968503E+03  0.20160699648E+03  0.12500771118E+03 0.  0.
         24    2    1    2    0    0  0.53809701509E+02 -0.87042012920E+01 -0.30739267040E+02  0.10389872071E+03  0.82938498476E+02 0.  0.
         24    2    1    2    0    0 -0.16788503111E+02  0.20543952498E+02  0.19452149785E+03  0.21173874202E+03  0.79314399251E+02 0.  0.
        -11    1    5    5    0    0 -0.32047748759E+02 -0.40251525939E+01  0.17220455664E+03  0.17520750378E+03  0.00000000000E+00 0.  1.
         12    1    5    5    0    0  0.15259245647E+02  0.24569105092E+02  0.22316941209E+02  0.36531238244E+02  0.00000000000E+00 0. -1.
        -11    1    4    4    0    0 -0.13983422956E+02  0.20612456259E+02 -0.33915148041E+01  0.25137856775E+02  0.00000000000E+00 0.  1.
         12    1    4    4    0    0  0.67793124465E+02 -0.29316657551E+02 -0.27347752236E+02  0.78760863930E+02  0.00000000000E+00 0. -1.
          5    1    3    3  501    0  0.55109471821E+02 -0.16674001170E+01 -0.52869605204E+01  0.55586653605E+02  0.47000000000E+01 0.  1.
         -5    1    3    3    0  501 -0.29987920465E+01  0.84010223808E+02 -0.11930272451E+03  0.14602034288E+03  0.47000000000E+01 0.  1.
          1    1    1    2  502    0 -0.73449595247E+02 -0.13125038101E+02  0.12545182291E+04  0.12567350941E+04  0.00000000000E+00 0. -1.
          1    1    1    2  503    0 -0.15682282924E+02 -0.81057536796E+02 -0.13249734315E+04  0.13275431641E+04  0.00000000000E+00 0. -1.
<mgrwt>
<rscale>  0 0.78545232E+02</rscale>
<asrwt>0</asrwt>
<pdfrwt beam="1">  1        2 0.22575442E+00 0.74613066E+02</pdfrwt>
<pdfrwt beam="2">  1        2 0.23035186E+00 0.82684625E+02</pdfrwt>
<totfact> 0.37012402E+01</totfact>
</mgrwt>
</event>
<event>
13    1  0.2742815E-008  0.1609680E+03  0.7546771E-02  0.1402676E+00
          2   -1    0    0  502    0  0.00000000000E+00  0.00000000000E+00  0.20687239559E+04  0.20687239559E+04  0.00000000000E+00 0. -1.
          2   -1    0    0  503    0 -0.00000000000E+00 -0.00000000000E+00 -0.92892502561E+03  0.92892502561E+03  0.00000000000E+00 0. -1.
         25    2    1    2    0    0  0.78838673622E+02 -0.12118221102E+03 -0.84102649186E+02  0.20880166691E+03  0.12499686307E+03 0.  0.
         24    2    1    2    0    0 -0.34298123837E+03  0.13124795038E+03  0.72075329484E+03  0.81286983192E+03  0.80061834002E+02 0.  0.
         24    2    1    2    0    0  0.11157293810E+03 -0.77386663004E+02  0.10914032907E+03  0.19227553670E+03  0.81369862093E+02 0.  0.
        -11    1    4    4    0    0 -0.28515571286E+03  0.13130551136E+03  0.55942732091E+03  0.64149344912E+03  0.00000000000E+00 0.  1.
         12    1    4    4    0    0 -0.57825525510E+02 -0.57560980545E-01  0.16132597394E+03  0.17137638280E+03  0.00000000000E+00 0. -1.
        -13    1    5    5    0    0  0.11586597763E+03 -0.49434815331E+02  0.10438272279E+03  0.16359852859E+03  0.00000000000E+00 0.  1.
         14    1    5    5    0    0 -0.42930395318E+01 -0.27951847673E+02  0.47576062808E+01  0.28677008113E+02  0.00000000000E+00 0. -1.
          5    1    3    3  501    0  0.10535358280E+03 -0.53459416760E+02 -0.52220198112E+02  0.12925295254E+03  0.47000000000E+01 0. -1.
         -5    1    3    3    0  501 -0.26514909177E+02 -0.67722794262E+02 -0.31882451074E+02  0.79548714369E+02  0.47000000000E+01 0. -1.
          1    1    1    2  502    0  0.13779982729E+03  0.82977015170E+02  0.10827452797E+04  0.10946283927E+04  0.00000000000E+00 0. -1.
          1    1    1    2  503    0  0.14769799365E+02 -0.15656091525E+02 -0.68873732413E+03  0.68907355328E+03  0.00000000000E+00 0. -1.
<mgrwt>
<rscale>  0 0.58860787E+02</rscale>
<asrwt>0</asrwt>
<pdfrwt beam="1">  1        2 0.30422411E+00 0.16096804E+03</pdfrwt>
<pdfrwt beam="2">  1        2 0.13660662E+00 0.21523480E+02</pdfrwt>
<totfact> 0.43564934E+01</totfact>
</mgrwt>
</event>
<event>
13    1  0.2742815E-008  0.7425438E+02  0.7546771E-02  0.1424296E+00
          2   -1    0    0  502    0  0.00000000000E+00  0.00000000000E+00  0.28291707144E+04  0.28291707144E+04  0.00000000000E+00 0. -1.
          4   -1    0    0  503    0 -0.00000000000E+00 -0.00000000000E+00 -0.47336988793E+03  0.47336988793E+03  0.00000000000E+00 0. -1.
         25    2    1    2    0    0 -0.24179053878E+02 -0.55180850605E+02 -0.25723181789E+02  0.14113620954E+03  0.12501277792E+03 0.  0.
         24    2    1    2    0    0 -0.56054349110E+02 -0.63821893824E+02  0.59443621048E+03  0.60597635241E+03  0.81471511331E+02 0.  0.
         24    2    1    2    0    0 -0.31302894464E+01  0.54313562784E+02  0.91504399597E+03  0.92018545650E+03  0.80473585677E+02 0.  0.
        -11    1    5    5    0    0  0.29516413225E+02  0.45998220279E+01  0.50122184767E+03  0.50211126017E+03  0.00000000000E+00 0.  1.
         12    1    5    5    0    0 -0.32646702671E+02  0.49713740756E+02  0.41382214830E+03  0.41807419633E+03  0.00000000000E+00 0. -1.
        -11    1    4    4    0    0 -0.32776908351E+02 -0.81726678819E+02  0.42705864654E+03  0.43604204308E+03  0.00000000000E+00 0.  1.
         12    1    4    4    0    0 -0.23277440759E+02  0.17904784995E+02  0.16737756395E+03  0.16993430933E+03  0.00000000000E+00 0. -1.
          5    1    3    3  501    0 -0.22256527016E+02 -0.46559095445E+02 -0.74829942247E+02  0.91020396726E+02  0.47000000000E+01 0.  1.
         -5    1    3    3    0  501 -0.19225268625E+01 -0.86217551601E+01  0.49106760458E+02  0.50115812816E+02  0.47000000000E+01 0.  1.
          1    1    1    2  502    0  0.68329723126E+02  0.28217696057E+02  0.12515300015E+04  0.12537115035E+04  0.00000000000E+00 0. -1.
          3    1    1    2  503    0  0.15033969309E+02  0.36471485588E+02 -0.37948619970E+03  0.38153108033E+03  0.00000000000E+00 0. -1.
<mgrwt>
<rscale>  0 0.54122353E+02</rscale>
<asrwt>0</asrwt>
<pdfrwt beam="1">  1        2 0.41605451E+00 0.74254383E+02</pdfrwt>
<pdfrwt beam="2">  1        4 0.69613220E-01 0.39448568E+02</pdfrwt>
<totfact> 0.33767939E+00</totfact>
</mgrwt>
</event>
<event>
13    1  0.2742815E-008  0.2446718E+03  0.7546771E-02  0.1217536E+00
          2   -1    0    0  502    0  0.00000000000E+00  0.00000000000E+00  0.20217348986E+04  0.20217348986E+04  0.00000000000E+00 0. -1.
          2   -1    0    0  503    0 -0.00000000000E+00 -0.00000000000E+00 -0.11140013777E+04  0.11140013777E+04  0.00000000000E+00 0. -1.
         25    2    1    2    0    0 -0.10591762763E+03  0.20305290668E+03 -0.27405074119E+03  0.37839154374E+03  0.12500929915E+03 0.  0.
         24    2    1    2    0    0  0.21776762878E+03  0.76179165000E+02  0.23737674142E+03  0.34060402476E+03  0.80233278584E+02 0.  0.
         24    2    1    2    0    0  0.11649909310E+03 -0.17033192757E+03  0.11420942705E+03  0.24976420457E+03  0.82178831906E+02 0.  0.
        -11    1    4    4    0    0  0.25054731126E+02  0.39739991355E+02  0.59654847864E+02  0.75932254928E+02  0.00000000000E+00 0.  1.
         12    1    4    4    0    0  0.19271289766E+03  0.36439173645E+02  0.17772189355E+03  0.26467176983E+03  0.00000000000E+00 0. -1.
        -13    1    5    5    0    0  0.46891422188E+02 -0.22511753720E+02  0.55710430722E+02  0.76218348327E+02  0.00000000000E+00 0.  1.
         14    1    5    5    0    0  0.69607670916E+02 -0.14782017385E+03  0.58498996324E+02  0.17354585624E+03  0.00000000000E+00 0. -1.
          5    1    3    3  501    0 -0.58070669221E+02  0.20426104083E+03 -0.23146496645E+03  0.31415425529E+03  0.47000000000E+01 0. -1.
         -5    1    3    3    0  501 -0.47846958409E+02 -0.12081341487E+01 -0.42585774739E+02  0.64237288449E+02  0.47000000000E+01 0. -1.
          1    1    1    2  502    0 -0.47741889848E+02  0.59927449021E+02  0.14746971073E+04  0.14766862041E+04  0.00000000000E+00 0. -1.
          1    1    1    2  503    0 -0.18060720441E+03 -0.16882759313E+03 -0.64449901369E+03  0.69029029918E+03  0.00000000000E+00 0. -1.
<mgrwt>
<rscale>  0 0.13691856E+03</rscale>
<asrwt>0</asrwt>
<pdfrwt beam="1">  1        2 0.29731395E+00 0.76619757E+02</pdfrwt>
<pdfrwt beam="2">  1        2 0.16382373E+00 0.24467179E+03</pdfrwt>
<totfact> 0.34635035E+01</totfact>
</mgrwt>
</event>
<event>
13    1  0.2742815E-008  0.1388347E+03  0.7546771E-02  0.1279506E+00
          2   -1    0    0  503    0  0.00000000000E+00  0.00000000000E+00  0.44434915697E+04  0.44434915697E+04  0.00000000000E+00 0. -1.
          2   -1    0    0  502    0 -0.00000000000E+00 -0.00000000000E+00 -0.11020564776E+04  0.11020564776E+04  0.00000000000E+00 0. -1.
         25    2    1    2    0    0 -0.69173845033E+02 -0.30090821264E+02 -0.14607564033E+03  0.20652711704E+03  0.12499951606E+03 0.  0.
         24    2    1    2    0    0 -0.40305108957E+02 -0.13878778843E+03 -0.11208372782E+03  0.19404382897E+03  0.64835896670E+02 0.  0.
         24    2    1    2    0    0 -0.68870538291E+02  0.10059471199E+03  0.66141849249E+00  0.14467169738E+03  0.77891048422E+02 0.  0.
        -13    1    5    5    0    0  0.13127380762E+02  0.37778098225E+02 -0.87835904950E+01  0.40947091388E+02  0.00000000000E+00 0.  1.
         14    1    5    5    0    0 -0.81997919053E+02  0.62816613765E+02  0.94450089875E+01  0.10372460599E+03  0.00000000000E+00 0. -1.
        -13    1    4    4    0    0 -0.54190047824E+02 -0.12053746921E+03 -0.10816612245E+03  0.17077983726E+03  0.00000000000E+00 0.  1.
         14    1    4    4    0    0  0.13884938867E+02 -0.18250319214E+02 -0.39176053634E+01  0.23263991715E+02  0.00000000000E+00 0. -1.
          5    1    3    3  501    0 -0.13927641592E+02  0.52507048501E+01 -0.13958616400E+03  0.14045617210E+03  0.47000000000E+01 0. -1.
         -5    1    3    3    0  501 -0.55246203441E+02 -0.35341526114E+02 -0.64894763348E+01  0.66070944944E+02  0.47000000000E+01 0. -1.
          1    1    1    2  502    0  0.11711027811E+03  0.10722477667E+03 -0.69137991355E+03  0.70937871045E+03  0.00000000000E+00 0. -1.
          1    1    1    2  503    0  0.61239214171E+02 -0.38940878970E+02  0.42903129554E+04  0.42909266934E+04  0.00000000000E+00 0. -1.
<mgrwt>
<rscale>  0 0.10037655E+03</rscale>
<asrwt>0</asrwt>
<pdfrwt beam="1">  1        2 0.65345464E+00 0.72571574E+02</pdfrwt>
<pdfrwt beam="2">  1        2 0.16206713E+00 0.13883468E+03</pdfrwt>
<totfact> 0.15051523E+00</totfact>
</mgrwt>
</event>
<event>
13    1  0.2742815E-008  0.2143418E+02  0.7546771E-02  0.1831715E+00
          2   -1    0    0  503    0  0.00000000000E+00  0.00000000000E+00  0.13102527959E+04  0.13102527959E+04  0.00000000000E+00 0. -1.
          2   -1    0    0  502    0 -0.00000000000E+00 -0.00000000000E+00 -0.10357930039E+04  0.10357930039E+04  0.00000000000E+00 0. -1.
         25    2    1    2    0    0 -0.45348713292E+02  0.23857421087E+03 -0.50260306251E+03  0.57202808553E+03  0.12502852597E+03 0.  0.
         24    2    1    2    0    0 -0.19141004382E+02  0.86067522931E+02 -0.53109697944E+02  0.13129025003E+03  0.81501491924E+02 0.  0.
         24    2    1    2    0    0  0.60879876859E+02 -0.34022124719E+03  0.71045928752E+03  0.79437721834E+03  0.82619061598E+02 0.  0.
        -11    1    5    5    0    0  0.14696981890E+02 -0.26314573435E+03  0.49162193529E+03  0.55781162236E+03  0.00000000000E+00 0.  1.
         12    1    5    5    0    0  0.46182894969E+02 -0.77075512846E+02  0.21883735223E+03  0.23656559598E+03  0.00000000000E+00 0. -1.
        -13    1    4    4    0    0  0.15917551332E+02  0.73068620350E+02 -0.12033092277E+02  0.75744221100E+02  0.00000000000E+00 0.  1.
         14    1    4    4    0    0 -0.35058555714E+02  0.12998902581E+02 -0.41076605667E+02  0.55546028933E+02  0.00000000000E+00 0. -1.
          5    1    3    3  501    0 -0.55295340709E+02  0.23549878241E+03 -0.39074205768E+03  0.45958535319E+03  0.47000000000E+01 0. -1.
         -5    1    3    3    0  501  0.99466274174E+01  0.30754284609E+01 -0.11186100482E+03  0.11244273235E+03  0.47000000000E+01 0. -1.
          1    1    1    2  502    0 -0.79508681342E+01  0.19908382428E+02 -0.36392430684E+03  0.36455515510E+03  0.00000000000E+00 0. -1.
          1    1    1    2  503    0  0.11560708949E+02 -0.43288690335E+01  0.48363757175E+03  0.48379509082E+03  0.00000000000E+00 0. -1.
<mgrwt>
<rscale>  0 0.16266417E+02</rscale>
<asrwt>0</asrwt>
<pdfrwt beam="1">  1        2 0.19268424E+00 0.12344598E+02</pdfrwt>
<pdfrwt beam="2">  1        2 0.15232250E+00 0.21434180E+02</pdfrwt>
<totfact> 0.11008197E+02</totfact>
</mgrwt>
</event>
<event>
13    1  0.2742815E-008  0.7957373E+02  0.7546771E-02  0.1484345E+00
          2   -1    0    0  503    0  0.00000000000E+00  0.00000000000E+00  0.88423244651E+03  0.88423244651E+03  0.00000000000E+00 0. -1.
         -1   -1    0    0    0  501 -0.00000000000E+00 -0.00000000000E+00 -0.90312686138E+03  0.90312686138E+03  0.00000000000E+00 0.  1.
         25    2    1    2    0    0 -0.18264944762E+02  0.23661864517E+03  0.13420486124E+03  0.29993183399E+03  0.12500467517E+03 0.  0.
         24    2    1    2    0    0 -0.44874956641E+02 -0.13779290925E+03  0.32843030405E+03  0.36796169858E+03  0.80800367760E+02 0.  0.
         24    2    1    2    0    0  0.22046015699E+02 -0.42020367314E+01  0.31013199008E+02  0.90334300161E+02  0.81821655764E+02 0.  0.
        -11    1    4    4    0    0  0.19711784634E+02 -0.62066452223E+02  0.10819875383E+03  0.12628447757E+03  0.00000000000E+00 0.  1.
         12    1    4    4    0    0 -0.64586741275E+02 -0.75726457031E+02  0.22023155022E+03  0.24167722101E+03  0.00000000000E+00 0. -1.
        -13    1    5    5    0    0 -0.19730303272E+02 -0.17468241627E+02  0.37698131203E+02  0.45995363125E+02  0.00000000000E+00 0.  1.
         14    1    5    5    0    0  0.41776318971E+02  0.13266204895E+02 -0.66849321954E+01  0.44338937037E+02  0.00000000000E+00 0. -1.
          5    1    3    3  502    0  0.38065299081E+01  0.19985885188E+02  0.69722527602E+02  0.72782182791E+02  0.47000000000E+01 0.  1.
         -5    1    3    3    0  502 -0.22071474670E+02  0.21663275998E+03  0.64482333635E+02  0.22714965120E+03  0.47000000000E+01 0.  1.
          1    1    1    2  503    0  0.82536230644E+01 -0.22227512048E+02  0.25569478203E+03  0.25679175638E+03  0.00000000000E+00 0. -1.
         -2    1    1    2    0  501  0.32840262640E+02 -0.72396187133E+02 -0.76823756120E+03  0.77233971877E+03  0.00000000000E+00 0.  1.
<mgrwt>
<rscale>  0 0.43436477E+02</rscale>
<asrwt>0</asrwt>
<pdfrwt beam="1">  1        2 0.13003418E+00 0.23710432E+02</pdfrwt>
<pdfrwt beam="2">  1       -1 0.13281277E+00 0.79573732E+02</pdfrwt>
<totfact> 0.23383084E+01</totfact>
</mgrwt>
</event>
<event>
13    1  0.2742815E-008  0.2080343E+03  0.7546771E-02  0.1270365E+00
          2   -1    0    0  503    0  0.00000000000E+00  0.00000000000E+00  0.41369626732E+03  0.41369626732E+03  0.00000000000E+00 0. -1.
          2   -1    0    0  502    0 -0.00000000000E+00 -0.00000000000E+00 -0.14178895442E+04  0.14178895442E+04  0.00000000000E+00 0. -1.
         25    2    1    2    0    0 -0.65272721684E+02 -0.22068806121E+03  0.59959543869E+01  0.26195895535E+03  0.12499117673E+03 0.  0.
         24    2    1    2    0    0 -0.53946943307E+02  0.39309848758E+02 -0.76206746007E+02  0.12883220253E+03  0.79591025688E+02 0.  0.
         24    2    1    2    0    0 -0.55081061674E+02  0.13965940206E+01 -0.32161138160E+01  0.97529584180E+02  0.80410214353E+02 0.  0.
        -11    1    4    4    0    0  0.10356960142E+02  0.25658458823E+02 -0.51769197346E+02  0.58699854569E+02  0.00000000000E+00 0.  1.
         12    1    4    4    0    0 -0.64303903449E+02  0.13651389935E+02 -0.24437548660E+02  0.70132347960E+02  0.00000000000E+00 0. -1.
        -13    1    5    5    0    0 -0.55107709106E+02  0.78701208705E+00 -0.35294098308E+02  0.65445797164E+02  0.00000000000E+00 0.  1.
         14    1    5    5    0    0  0.26647432264E-01  0.60958193354E+00  0.32077984492E+02  0.32083787016E+02  0.00000000000E+00 0. -1.
          5    1    3    3  501    0 -0.73711457312E+02 -0.21686733192E+03  0.34442899133E+02  0.23167481929E+03  0.47000000000E+01 0. -1.
         -5    1    3    3    0  501  0.84387356279E+01 -0.38207292954E+01 -0.28446944746E+02  0.30284136058E+02  0.47000000000E+01 0. -1.
          1    1    1    2  502    0  0.12307254101E+03  0.16690664830E+03 -0.11239789244E+04  0.11429493874E+04  0.00000000000E+00 0. -1.
          1    1    1    2  503    0  0.51228185651E+02  0.13074970131E+02  0.19321255298E+03  0.20031568206E+03  0.00000000000E+00 0. -1.
<mgrwt>
<rscale>  0 0.10487546E+03</rscale>
<asrwt>0</asrwt>
<pdfrwt beam="1">  1        2 0.60837688E-01 0.52870425E+02</pdfrwt>
<pdfrwt beam="2">  1        2 0.20851316E+00 0.20803429E+03</pdfrwt>
<totfact> 0.21135875E+02</totfact>
</mgrwt>
</event>
<event>
13    1  0.2742815E-008  0.1322474E+03  0.7546771E-02  0.1233117E+00
          2   -1    0    0  502    0  0.00000000000E+00  0.00000000000E+00  0.15220884939E+04  0.15220884939E+04  0.00000000000E+00 0. -1.
          2   -1    0    0  503    0 -0.00000000000E+00 -0.00000000000E+00 -0.13740887536E+04  0.13740887536E+04  0.00000000000E+00 0. -1.
         25    2    1    2    0    0 -0.11203703854E+03 -0.59605029451E+02 -0.13842353685E+03  0.22559029066E+03  0.12499938457E+03 0.  0.
         24    2    1    2    0    0 -0.25488736030E+00 -0.17398364717E+02  0.47567526928E+02  0.94941486671E+02  0.80302230422E+02 0.  0.
         24    2    1    2    0    0 -0.59194684175E+02 -0.28106332364E+02  0.11569919729E+03  0.15483950377E+03  0.79340980080E+02 0.  0.
        -11    1    4    4    0    0  0.26879805494E+02 -0.33671141635E+02  0.46344436678E+02  0.63277772823E+02  0.00000000000E+00 0.  1.
         12    1    4    4    0    0 -0.27134692854E+02  0.16272776918E+02  0.12230902499E+01  0.31663713848E+02  0.00000000000E+00 0. -1.
        -13    1    5    5    0    0  0.72449262630E+01 -0.34954306864E+02  0.47051835890E+02  0.59060712708E+02  0.00000000000E+00 0.  1.
         14    1    5    5    0    0 -0.66439610438E+02  0.68479744995E+01  0.68647361402E+02  0.95778791062E+02  0.00000000000E+00 0. -1.
          5    1    3    3  501    0 -0.62965039000E+02 -0.58069743317E+02 -0.15191143433E+03  0.17445877766E+03  0.47000000000E+01 0.  1.
         -5    1    3    3    0  501 -0.49071999545E+02 -0.15352861337E+01  0.13487897474E+02  0.51131512994E+02  0.47000000000E+01 0.  1.
          1    1    1    2  502    0  0.10606344236E+03  0.21973793044E+03  0.12564149255E+04  0.12798877595E+04  0.00000000000E+00 0. -1.
          1    1    1    2  503    0  0.65423167721E+02 -0.11462820391E+03 -0.11332583725E+04  0.11409182069E+04  0.00000000000E+00 0. -1.
<mgrwt>
<rscale>  0 0.12625768E+03</rscale>
<asrwt>0</asrwt>
<pdfrwt beam="1">  1        2 0.22383654E+00 0.13224739E+03</pdfrwt>
<pdfrwt beam="2">  1        2 0.20207187E+00 0.12053925E+03</pdfrwt>
<totfact> 0.43507078E+01</totfact>
</mgrwt>
</event>
<event>
13    1  0.2742815E-008  0.2083300E+03  0.7546771E-02  0.1279056E+00
          2   -1    0    0  502    0  0.00000000000E+00  0.00000000000E+00  0.11755309039E+04  0.11755309039E+04  0.00000000000E+00 0. -1.
          2   -1    0    0  503    0 -0.00000000000E+00 -0.00000000000E+00 -0.19690641431E+04  0.19690641431E+04  0.00000000000E+00 0. -1.
         25    2    1    2    0    0  0.31289830846E+01  0.14703679814E+03 -0.28146904871E+03  0.34129025594E+03  0.12499841149E+03 0.  0.
         24    2    1    2    0    0  0.99474803542E+02 -0.12857669800E+03 -0.29273530789E+01  0.18031101416E+03  0.77950552420E+02 0.  0.
         24    2    1    2    0    0 -0.18446597674E+03  0.12058048895E+03 -0.36076939155E+02  0.23733628512E+03  0.80371735128E+02 0.  0.
        -11    1    4    4    0    0 -0.56943628839E+01 -0.17478839688E+02  0.18211014304E+02  0.25876179151E+02  0.00000000000E+00 0.  1.
         12    1    4    4    0    0  0.10516916643E+03 -0.11109785832E+03 -0.21138367383E+02  0.15443483501E+03  0.00000000000E+00 0. -1.
        -13    1    5    5    0    0 -0.56728288914E+01 -0.87328241497E+01  0.69565711604E+01  0.12523461485E+02  0.00000000000E+00 0.  1.
         14    1    5    5    0    0 -0.17879314785E+03  0.12931331310E+03 -0.43033510315E+02  0.22481282364E+03  0.00000000000E+00 0. -1.
          5    1    3    3  501    0 -0.31739797352E+02  0.15168075834E+03 -0.24821620232E+03  0.29265652270E+03  0.47000000000E+01 0.  1.
         -5    1    3    3    0  501  0.34868780436E+02 -0.46439601962E+01 -0.33252846388E+02  0.48633733235E+02  0.47000000000E+01 0.  1.
          1    1    1    2  502    0  0.11643970458E+03 -0.17315074327E+03  0.94449564923E+03  0.96727008437E+03  0.00000000000E+00 0. -1.
          1    1    1    2  503    0 -0.34577514464E+02  0.34110154184E+02 -0.14175555476E+04  0.14183874074E+04  0.00000000000E+00 0. -1.
<mgrwt>
<rscale>  0 0.10059185E+03</rscale>
<asrwt>0</asrwt>
<pdfrwt beam="1">  1        2 0.17287219E+00 0.20832996E+03</pdfrwt>
<pdfrwt beam="2">  1        2 0.28956825E+00 0.48570641E+02</pdfrwt>
<totfact> 0.35916246E+01</totfact>
</mgrwt>
</event>
<event>
13    1  0.2742815E-008  0.8760850E+02  0.7546771E-02  0.1375559E+00
          2   -1    0    0  502    0  0.00000000000E+00  0.00000000000E+00  0.17954823885E+04  0.17954823885E+04  0.00000000000E+00 0. -1.
          4   -1    0    0  503    0 -0.00000000000E+00 -0.00000000000E+00 -0.10967182200E+03  0.10967182200E+03  0.00000000000E+00 0. -1.
         25    2    1    2    0    0 -0.27799443459E+02 -0.16320849207E+02  0.13216052133E+03  0.18474413899E+03  0.12499925727E+03 0.  0.
         24    2    1    2    0    0 -0.29039669954E+01 -0.40613954817E+02  0.23890373747E+03  0.25529288924E+03  0.80259187437E+02 0.  0.
         24    2    1    2    0    0 -0.41984353823E+02 -0.38426208731E+02  0.69165386489E+03  0.69894934964E+03  0.83101534716E+02 0.  0.
        -11    1    4    4    0    0  0.38367794160E+02 -0.25184905475E+02  0.11806269802E+03  0.12666952182E+03  0.00000000000E+00 0.  1.
         12    1    4    4    0    0 -0.41271761155E+02 -0.15429049342E+02  0.12084103945E+03  0.12862336742E+03  0.00000000000E+00 0. -1.
        -11    1    5    5    0    0 -0.40772143770E+02 -0.63573250164E+02  0.51226873857E+03  0.51780612816E+03  0.00000000000E+00 0.  1.
         12    1    5    5    0    0 -0.12122100529E+01  0.25147041433E+02  0.17938512631E+03  0.18114322148E+03  0.00000000000E+00 0. -1.
          5    1    3    3  501    0  0.78524284888E+01  0.21142808930E+02 -0.15799719408E+02  0.27935642753E+02  0.47000000000E+01 0. -1.
         -5    1    3    3    0  501 -0.35651871948E+02 -0.37463658137E+02  0.14796024074E+03  0.15680849624E+03  0.47000000000E+01 0. -1.
          1    1    1    2  502    0  0.25355435956E+02  0.81974183949E+02  0.68316123417E+03  0.68852882063E+03  0.00000000000E+00 0. -1.
          3    1    1    2  503    0  0.47332328322E+02  0.13386828806E+02 -0.60068791350E+02  0.77639011998E+02  0.00000000000E+00 0. -1.
<mgrwt>
<rscale>  0 0.65645817E+02</rscale>
<asrwt>0</asrwt>
<pdfrwt beam="1">  1        2 0.26404151E+00 0.87608497E+02</pdfrwt>
<pdfrwt beam="2">  1        4 0.16128210E-01 0.49188987E+02</pdfrwt>
<totfact> 0.17014573E+02</totfact>
</mgrwt>
</event>
<event>
13    1  0.2742815E-008  0.7007613E+02  0.7546771E-02  0.1472482E+00
          2   -1    0    0  503    0  0.00000000000E+00  0.00000000000E+00  0.67220970917E+03  0.67220970917E+03  0.00000000000E+00 0. -1.
         -3   -1    0    0    0  501 -0.00000000000E+00 -0.00000000000E+00 -0.35357439503E+03  0.35357439503E+03  0.00000000000E+00 0.  1.
         25    2    1    2    0    0 -0.11702904779E+02  0.43323962689E+02 -0.27503076577E+02  0.13567828226E+03  0.12505300210E+03 0.  0.
         24    2    1    2    0    0  0.22955335912E+02  0.11999181869E+02  0.48468147527E+02  0.10080881608E+03  0.84512296513E+02 0.  0.
         24    2    1    2    0    0  0.31276534100E+02  0.14093272857E+01  0.26402268908E+03  0.27405211220E+03  0.66455790280E+02 0.  0.
        -11    1    5    5    0    0  0.36363099837E+01 -0.28515946401E+02  0.67750810138E+02  0.73597243317E+02  0.00000000000E+00 0.  1.
         12    1    5    5    0    0  0.27640224117E+02  0.29925273686E+02  0.19627187894E+03  0.20045486888E+03  0.00000000000E+00 0. -1.
        -11    1    4    4    0    0  0.40369085145E+02 -0.22883215679E+02  0.13220827708E+02  0.48250335549E+02  0.00000000000E+00 0.  1.
         12    1    4    4    0    0 -0.17413749233E+02  0.34882397548E+02  0.35247319819E+02  0.52558480529E+02  0.00000000000E+00 0. -1.
          5    1    3    3  502    0 -0.21307808495E+02 -0.27459793783E+02  0.28174407893E+02  0.44988334461E+02  0.47000000000E+01 0.  1.
         -5    1    3    3    0  502  0.96049037169E+01  0.70783756472E+02 -0.55677484470E+02  0.90689947803E+02  0.47000000000E+01 0.  1.
          1    1    1    2  503    0 -0.26670124334E+02  0.12090628640E+02  0.26845414500E+03  0.27004649007E+03  0.00000000000E+00 0. -1.
         -4    1    1    2    0  501 -0.15858840899E+02 -0.68823100484E+02 -0.23480659090E+03  0.24519840359E+03  0.00000000000E+00 0.  1.
<mgrwt>
<rscale>  0 0.45299240E+02</rscale>
<asrwt>0</asrwt>
<pdfrwt beam="1">  1        2 0.98854369E-01 0.29282740E+02</pdfrwt>
<pdfrwt beam="2">  1       -3 0.51996234E-01 0.70076134E+02</pdfrwt>
<totfact> 0.10693982E+02</totfact>
</mgrwt>
</event>
<event>
13    1  0.2742815E-008  0.4449677E+03  0.7546771E-02  0.1219142E+00
          2   -1    0    0  502    0  0.00000000000E+00  0.00000000000E+00  0.16935073806E+04  0.16935073806E+04  0.00000000000E+00 0. -1.
          2   -1    0    0  503    0 -0.00000000000E+00 -0.00000000000E+00 -0.31706232909E+04  0.31706232909E+04  0.00000000000E+00 0. -1.
         25    2    1    2    0    0 -0.14465505726E+03 -0.11803762573E+03 -0.82295840878E+03  0.85307843471E+03  0.12499722601E+03 0.  0.
         24    2    1    2    0    0 -0.53042260727E+02 -0.17561840184E+03 -0.80353044658E+03  0.82814213252E+03  0.80640613740E+02 0.  0.
         24    2    1    2    0    0 -0.14886415463E+03 -0.39476477263E+02 -0.13462298350E+03  0.22097893124E+03  0.83602700746E+02 0.  0.
        -11    1    4    4    0    0 -0.68554578182E+02 -0.15375582729E+03 -0.61150666219E+03  0.63425624358E+03  0.00000000000E+00 0.  1.
         12    1    4    4    0    0  0.15512317455E+02 -0.21862574548E+02 -0.19202378439E+03  0.19388588894E+03  0.00000000000E+00 0. -1.
        -13    1    5    5    0    0 -0.21914360377E+01 -0.27880825883E+02 -0.24822236554E+02  0.37393666193E+02  0.00000000000E+00 0.  1.
         14    1    5    5    0    0 -0.14667271860E+03 -0.11595651381E+02 -0.10980074695E+03  0.18358526504E+03  0.00000000000E+00 0. -1.
          5    1    3    3  501    0 -0.15931668142E+03 -0.85030457061E+02 -0.75107670886E+03  0.77249614640E+03  0.47000000000E+01 0.  1.
         -5    1    3    3    0  501  0.14661624162E+02 -0.33007168669E+02 -0.71881699920E+02  0.80582288314E+02  0.47000000000E+01 0.  1.
          1    1    1    2  502    0  0.30581635118E+03  0.32566234431E+03  0.15918863355E+04  0.16533849245E+04  0.00000000000E+00 0. -1.
          1    1    1    2  503    0  0.40745121446E+02  0.74701605263E+01 -0.13078904070E+04  0.13085462486E+04  0.00000000000E+00 0. -1.
<mgrwt>
<rscale>  0 0.13576617E+03</rscale>
<asrwt>0</asrwt>
<pdfrwt beam="1">  1        2 0.24904521E+00 0.44496771E+03</pdfrwt>
<pdfrwt beam="2">  1        2 0.46626812E+00 0.41424247E+02</pdfrwt>
<totfact> 0.48376583E+00</totfact>
</mgrwt>
</event>
<event>
13    1  0.2742815E-008  0.2690281E+02  0.7546771E-02  0.1748509E+00
          4   -1    0    0  503    0 -0.00000000000E+00  0.00000000000E+00  0.43174531730E+03  0.43174531730E+03  0.00000000000E+00 0. -1.
          2   -1    0    0  502    0  0.00000000000E+00 -0.00000000000E+00 -0.24207353430E+04  0.24207353430E+04  0.00000000000E+00 0. -1.
         25    2    1    2    0    0  0.13601195953E+03 -0.17919704540E+03 -0.72948959554E+03  0.77355717193E+03  0.12499917610E+03 0.  0.
         24    2    1    2    0    0 -0.13473761968E+03  0.23460090151E+03 -0.91480019820E+03  0.95717463568E+03  0.78307543849E+02 0.  0.
         24    2    1    2    0    0  0.50387597362E+01 -0.22982126713E+02 -0.39208753872E+03  0.40081187833E+03  0.79774410330E+02 0.  0.
        -11    1    5    5    0    0  0.40628594928E+02 -0.17480198376E+01 -0.22616488903E+03  0.22979185219E+03  0.00000000000E+00 0.  1.
         12    1    5    5    0    0 -0.35589835192E+02 -0.21234106876E+02 -0.16592264968E+03  0.17102002614E+03  0.00000000000E+00 0. -1.
        -13    1    4    4    0    0 -0.75026333525E+02  0.69607806367E+02 -0.41628371896E+03  0.42867975471E+03  0.00000000000E+00 0.  1.
         14    1    4    4    0    0 -0.59711286151E+02  0.16499309514E+03 -0.49851647924E+03  0.52849488097E+03  0.00000000000E+00 0. -1.
          5    1    3    3  501    0  0.15082926991E+03 -0.18590261730E+03 -0.69594019002E+03  0.73597832160E+03  0.47000000000E+01 0.  1.
         -5    1    3    3    0  501 -0.14817310379E+02  0.67055718961E+01 -0.33549405515E+02  0.37578850325E+02  0.47000000000E+01 0.  1.
          1    1    1    2  502    0 -0.13156799282E+02 -0.64046084333E+01 -0.33614448925E+03  0.33646283306E+03  0.00000000000E+00 0. -1.
          3    1    1    2  503    0  0.68436996931E+01 -0.26017120958E+02  0.38353179599E+03  0.38447414132E+03  0.00000000000E+00 0. -1.
<mgrwt>
<rscale>  0 0.19840991E+02</rscale>
<asrwt>0</asrwt>
<pdfrwt beam="2">  1        2 0.35599049E+00 0.14632853E+02</pdfrwt>
<pdfrwt beam="1">  1        4 0.63491959E-01 0.26902815E+02</pdfrwt>
<totfact> 0.78905139E+00</totfact>
</mgrwt>
</event>
<event>
13    1  0.2742815E-008  0.3119496E+02  0.7546771E-02  0.1794155E+00
          2   -1    0    0  502    0  0.00000000000E+00  0.00000000000E+00  0.13597673255E+04  0.13597673255E+04  0.00000000000E+00 0. -1.
          2   -1    0    0  503    0 -0.00000000000E+00 -0.00000000000E+00 -0.16206084512E+04  0.16206084512E+04  0.00000000000E+00 0. -1.
         25    2    1    2    0    0  0.74293572278E+02  0.13366481912E+03 -0.36872326926E+03  0.41829001598E+03  0.12499547760E+03 0.  0.
         24    2    1    2    0    0 -0.16609631841E+03  0.54150576804E+02  0.87190870299E+01  0.19368079742E+03  0.83162232140E+02 0.  0.
         24    2    1    2    0    0  0.10466013745E+03 -0.14987615060E+03  0.26406327991E+02  0.20373835859E+03  0.85996626178E+02 0.  0.
        -11    1    5    5    0    0  0.36619838297E+02 -0.10653651079E+02 -0.18521219109E+02  0.42397504590E+02  0.00000000000E+00 0.  1.
         12    1    5    5    0    0  0.68040299156E+02 -0.13922249952E+03  0.44927547099E+02  0.16134085400E+03  0.00000000000E+00 0. -1.
        -13    1    4    4    0    0 -0.10444608890E+03  0.38007188896E+02  0.45500604504E+02  0.12009927936E+03  0.00000000000E+00 0.  1.
         14    1    4    4    0    0 -0.61650229515E+02  0.16143387909E+02 -0.36781517475E+02  0.73581518061E+02  0.00000000000E+00 0. -1.
          5    1    3    3  501    0  0.64206076256E+02  0.27116171553E+02 -0.62016078711E+02  0.93411942526E+02  0.47000000000E+01 0. -1.
         -5    1    3    3    0  501  0.10087496022E+02  0.10654864757E+03 -0.30670719055E+03  0.32487807345E+03  0.47000000000E+01 0. -1.
          1    1    1    2  502    0  0.10839760320E+01 -0.10042061218E+02  0.11184563882E+04  0.11185019939E+04  0.00000000000E+00 0. -1.
          1    1    1    2  503    0 -0.13941367352E+02 -0.27897184110E+02 -0.10456996596E+04  0.10461646108E+04  0.00000000000E+00 0. -1.
<mgrwt>
<rscale>  0 0.17750533E+02</rscale>
<asrwt>0</asrwt>
<pdfrwt beam="1">  1        2 0.19996579E+00 0.10100396E+02</pdfrwt>
<pdfrwt beam="2">  1        2 0.23832477E+00 0.31194958E+02</pdfrwt>
<totfact> 0.54309392E+01</totfact>
</mgrwt>
</event>
<event>
13    1  0.2742815E-008  0.1332242E+03  0.7546771E-02  0.1333003E+00
          2   -1    0    0  503    0  0.00000000000E+00  0.00000000000E+00  0.24526547399E+04  0.24526547399E+04  0.00000000000E+00 0. -1.
         -3   -1    0    0    0  501 -0.00000000000E+00 -0.00000000000E+00 -0.61488583002E+03  0.61488583002E+03  0.00000000000E+00 0.  1.
         25    2    1    2    0    0 -0.31208471191E+02  0.42946930515E+02  0.18834033796E+02  0.13711129166E+03  0.12500551170E+03 0.  0.
         24    2    1    2    0    0 -0.15520269045E+02  0.11214553405E+03  0.17411530029E+02  0.14062283028E+03  0.81572786277E+02 0.  0.
         24    2    1    2    0    0  0.39212889576E+02  0.76383078097E+01  0.14489703988E+03  0.16908923255E+03  0.77459808556E+02 0.  0.
        -11    1    4    4    0    0  0.11418910618E+02 -0.69819802257E+01 -0.83834398941E+01  0.15793088109E+02  0.00000000000E+00 0.  1.
         12    1    4    4    0    0 -0.26939179663E+02  0.11912751428E+03  0.25794969923E+02  0.12482974218E+03  0.00000000000E+00 0. -1.
        -13    1    5    5    0    0  0.37795481139E+02  0.85235939076E+01  0.18949177730E+02  0.43130283842E+02  0.00000000000E+00 0.  1.
         14    1    5    5    0    0  0.14174084367E+01 -0.88528609790E+00  0.12594786215E+03  0.12595894870E+03  0.00000000000E+00 0. -1.
          5    1    3    3  502    0 -0.56199223666E+02  0.40591812210E+02 -0.34796724368E+02  0.77710681286E+02  0.47000000000E+01 0. -1.
         -5    1    3    3    0  502  0.24990752475E+02  0.23551183050E+01  0.53630758163E+02  0.59400610373E+02  0.47000000000E+01 0. -1.
          1    1    1    2  503    0 -0.26736167160E+02 -0.13142867974E+03  0.21354464112E+04  0.21396541065E+04  0.00000000000E+00 0. -1.
         -4    1    1    2    0  501  0.34252017820E+02 -0.31302092638E+02 -0.47882010504E+03  0.48106310888E+03  0.00000000000E+00 0.  1.
<mgrwt>
<rscale>  0 0.78623720E+02</rscale>
<asrwt>0</asrwt>
<pdfrwt beam="1">  1        2 0.36068452E+00 0.13322415E+03</pdfrwt>
<pdfrwt beam="2">  1       -3 0.90424388E-01 0.46400665E+02</pdfrwt>
<totfact> 0.36072545E+00</totfact>
</mgrwt>
</event>
<event>
13    1  0.2742815E-008  0.8538599E+02  0.7546771E-02  0.1341106E+00
          2   -1    0    0  502    0  0.00000000000E+00  0.00000000000E+00  0.10665651333E+04  0.10665651333E+04  0.00000000000E+00 0. -1.
          2   -1    0    0  503    0 -0.00000000000E+00 -0.00000000000E+00 -0.22234540057E+04  0.22234540057E+04  0.00000000000E+00 0. -1.
         25    2    1    2    0    0 -0.88837710768E+02  0.23065935993E+02 -0.46792240050E+03  0.49295048058E+03  0.12499850863E+03 0.  0.
         24    2    1    2    0    0  0.10676686681E+03  0.81458858067E+02  0.81934544628E+02  0.16835217939E+03  0.59953959797E+02 0.  0.
         24    2    1    2    0    0 -0.47538942343E+01  0.44953496022E+02  0.10746162035E+03  0.14149278849E+03  0.80179754509E+02 0.  0.
        -13    1    4    4    0    0  0.10503715938E+03  0.83409534168E+02  0.61156544955E+02  0.14741125545E+03  0.00000000000E+00 0.  1.
         14    1    4    4    0    0  0.17297074242E+01 -0.19506761018E+01  0.20777999674E+02  0.20940923940E+02  0.00000000000E+00 0. -1.
        -13    1    5    5    0    0 -0.39723840840E+02  0.23641566120E+02  0.33987160680E+02  0.57376251801E+02  0.00000000000E+00 0.  1.
         14    1    5    5    0    0  0.34969946605E+02  0.21311929902E+02  0.73474459668E+02  0.84116536693E+02  0.00000000000E+00 0. -1.
          5    1    3    3  501    0  0.19915053352E+02 -0.27585509154E+02 -0.12425806049E+03  0.12891751340E+03  0.47000000000E+01 0. -1.
         -5    1    3    3    0  501 -0.10875276412E+03  0.50651445147E+02 -0.34366434001E+03  0.36403296718E+03  0.47000000000E+01 0. -1.
          1    1    1    2  502    0 -0.52337571619E+02 -0.94539268524E+02  0.80012081817E+03  0.80738480191E+03  0.00000000000E+00 0. -1.
          1    1    1    2  503    0  0.39162309813E+02 -0.54939021558E+02 -0.16784834551E+04  0.16798388886E+04  0.00000000000E+00 0. -1.
<mgrwt>
<rscale>  0 0.75900296E+02</rscale>
<asrwt>0</asrwt>
<pdfrwt beam="1">  1        2 0.15684782E+00 0.85385994E+02</pdfrwt>
<pdfrwt beam="2">  1        2 0.32697852E+00 0.67468382E+02</pdfrwt>
<totfact> 0.31648573E+01</totfact>
</mgrwt>
</event>
<event>
13    1  0.2742815E-008  0.8972475E+02  0.7546771E-02  0.1501029E+00
          2   -1    0    0  503    0  0.00000000000E+00  0.00000000000E+00  0.39620988538E+03  0.39620988538E+03  0.00000000000E+00 0. -1.
          2   -1    0    0  502    0 -0.00000000000E+00 -0.00000000000E+00 -0.23800699926E+04  0.23800699926E+04  0.00000000000E+00 0. -1.
         25    2    1    2    0    0  0.91593076440E+02 -0.15361189356E+03 -0.13424464588E+04  0.13600635739E+04  0.12499809872E+03 0.  0.
         24    2    1    2    0    0 -0.10968682640E+03  0.23078809188E+03  0.62099006267E+02  0.27520508953E+03  0.81161638025E+02 0.  0.
         24    2    1    2    0    0  0.17813635553E+02  0.36679269131E+02  0.14580218163E+02  0.91596117907E+02  0.80712896481E+02 0.  0.
        -11    1    4    4    0    0 -0.10912392450E+03  0.16380830151E+03  0.24377486710E+02  0.19833167271E+03  0.00000000000E+00 0.  1.
         12    1    4    4    0    0 -0.56290190100E+00  0.66979790366E+02  0.37721519557E+02  0.76873416821E+02  0.00000000000E+00 0. -1.
        -11    1    5    5    0    0  0.24025815162E+02 -0.20391841307E+02  0.13215006508E+02  0.34171675158E+02  0.00000000000E+00 0.  1.
         12    1    5    5    0    0 -0.62121796098E+01  0.57071110438E+02  0.13652116555E+01  0.57424442749E+02  0.00000000000E+00 0. -1.
          5    1    3    3  501    0  0.67527410522E+01 -0.10609421397E+03 -0.94023537265E+03  0.94623793399E+03  0.47000000000E+01 0.  1.
         -5    1    3    3    0  501  0.84840335387E+02 -0.47517679593E+02 -0.40221108617E+03  0.41382563987E+03  0.47000000000E+01 0.  1.
          1    1    1    2  502    0  0.17097718360E+02 -0.76440818227E+01 -0.86619126762E+03  0.86639371884E+03  0.00000000000E+00 0. -1.
          1    1    1    2  503    0 -0.16817603952E+02 -0.10621138562E+03  0.14809839473E+03  0.18302137788E+03  0.00000000000E+00 0. -1.
<mgrwt>
<rscale>  0 0.40993016E+02</rscale>
<asrwt>0</asrwt>
<pdfrwt beam="1">  1        2 0.58266158E-01 0.89724751E+02</pdfrwt>
<pdfrwt beam="2">  1        2 0.35001030E+00 0.18728693E+02</pdfrwt>
<totfact> 0.99774141E+01</totfact>
</mgrwt>
</event>
<event>
13    1  0.2742815E-008  0.1410160E+03  0.7546771E-02  0.1268552E+00
          2   -1    0    0  503    0  0.00000000000E+00  0.00000000000E+00  0.17088112984E+04  0.17088112984E+04  0.00000000000E+00 0. -1.
          2   -1    0    0  502    0 -0.00000000000E+00 -0.00000000000E+00 -0.26484532255E+04  0.26484532255E+04  0.00000000000E+00 0. -1.
         25    2    1    2    0    0 -0.12810013326E+03  0.40196141883E+02 -0.85709722843E+03  0.87650535788E+03  0.12498243652E+03 0.  0.
         24    2    1    2    0    0  0.59464845315E+02 -0.37500693975E+02 -0.70487755617E+01  0.10523380018E+03  0.77987804085E+02 0.  0.
         24    2    1    2    0    0  0.22970278678E+02  0.47554620016E+02  0.52908120413E+03  0.53778857785E+03  0.80626039923E+02 0.  0.
        -11    1    4    4    0    0  0.59957248892E+02 -0.49376629659E+02 -0.26813873281E+02  0.82169988752E+02  0.00000000000E+00 0.  1.
         12    1    4    4    0    0 -0.49240357669E+00  0.11875935683E+02  0.19765097719E+02  0.23063811426E+02  0.00000000000E+00 0. -1.
        -13    1    5    5    0    0 -0.11918280767E+02 -0.74201163530E+01  0.27955432227E+03  0.27990663201E+03  0.00000000000E+00 0.  1.
         14    1    5    5    0    0  0.34888559446E+02  0.54974736369E+02  0.24952688186E+03  0.25788194584E+03  0.00000000000E+00 0. -1.
          5    1    3    3  501    0 -0.45076746281E+02 -0.23132780425E+01 -0.62028632516E+03  0.62194411284E+03  0.47000000000E+01 0.  1.
         -5    1    3    3    0  501 -0.83023386984E+02  0.42509419926E+02 -0.23681090327E+03  0.25456124504E+03  0.47000000000E+01 0.  1.
          1    1    1    2  502    0  0.10338610248E+03 -0.10474040122E+03 -0.17165935876E+04  0.17228908215E+04  0.00000000000E+00 0. -1.
          1    1    1    2  503    0 -0.57721093209E+02  0.54490333297E+02  0.11120164603E+04  0.11148459665E+04  0.00000000000E+00 0. -1.
<mgrwt>
<rscale>  0 0.10579987E+03</rscale>
<asrwt>0</asrwt>
<pdfrwt beam="1">  1        2 0.25129578E+00 0.79378341E+02</pdfrwt>
<pdfrwt beam="2">  1        2 0.38947841E+00 0.14101596E+03</pdfrwt>
<totfact> 0.84649619E+00</totfact>
</mgrwt>
</event>
<event>
13    1  0.2742815E-008  0.5997356E+02  0.7546771E-02  0.1478086E+00
          2   -1    0    0  503    0  0.00000000000E+00  0.00000000000E+00  0.13722303996E+04  0.13722303996E+04  0.00000000000E+00 0. -1.
          2   -1    0    0  502    0 -0.00000000000E+00 -0.00000000000E+00 -0.28357599810E+04  0.28357599810E+04  0.00000000000E+00 0. -1.
         25    2    1    2    0    0  0.20822243916E+03 -0.65333496671E+03 -0.17443298536E+04  0.18784342044E+04  0.12500103621E+03 0.  0.
         24    2    1    2    0    0  0.35634561071E+02  0.43098775080E+03  0.46010322602E+03  0.63430082239E+03  0.60185475118E+02 0.  0.
         24    2    1    2    0    0 -0.19005005140E+03  0.29665416849E+03  0.18372483013E+03  0.40539299990E+03  0.80411152474E+02 0.  0.
        -11    1    4    4    0    0  0.10580818557E+02  0.37532162053E+03  0.40064373929E+03  0.54908440006E+03  0.00000000000E+00 0.  1.
         12    1    4    4    0    0  0.25053742514E+02  0.55666130269E+02  0.59459486728E+02  0.85216422332E+02  0.00000000000E+00 0. -1.
        -13    1    5    5    0    0 -0.11387022926E+03  0.22695705288E+03  0.15771631619E+03  0.29891532138E+03  0.00000000000E+00 0.  1.
         14    1    5    5    0    0 -0.76179822137E+02  0.69697115614E+02  0.26008513939E+02  0.10647767852E+03  0.00000000000E+00 0. -1.
          5    1    3    3  501    0  0.95736524297E+02 -0.12934289046E+03 -0.39138166133E+03  0.42319825168E+03  0.47000000000E+01 0.  1.
         -5    1    3    3    0  501  0.11248591486E+03 -0.52399207625E+03 -0.13529481923E+04  0.14552359527E+04  0.47000000000E+01 0.  1.
          1    1    1    2  502    0 -0.40375017715E+02 -0.44296840444E+02 -0.82477305943E+03  0.82694797400E+03  0.00000000000E+00 0. -1.
          1    1    1    2  503    0 -0.13431931118E+02 -0.30010112134E+02  0.46174527556E+03  0.46291437989E+03  0.00000000000E+00 0. -1.
<mgrwt>
<rscale>  0 0.44405697E+02</rscale>
<asrwt>0</asrwt>
<pdfrwt beam="1">  1        2 0.20179859E+00 0.32878923E+02</pdfrwt>
<pdfrwt beam="2">  1        2 0.41702352E+00 0.59973556E+02</pdfrwt>
<totfact> 0.11965819E+01</totfact>
</mgrwt>
</event>
<event>
13    1  0.2742815E-008  0.5321273E+02  0.7546771E-02  0.1525790E+00
          2   -1    0    0  502    0  0.00000000000E+00  0.00000000000E+00  0.14455143600E+04  0.14455143600E+04  0.00000000000E+00 0. -1.
          2   -1    0    0  503    0 -0.00000000000E+00 -0.00000000000E+00 -0.18041695676E+04  0.18041695676E+04  0.00000000000E+00 0. -1.
         25    2    1    2    0    0  0.37861640249E+02  0.70811499523E+02 -0.15381993484E+04  0.15453585097E+04  0.12501166318E+03 0.  0.
         24    2    1    2    0    0  0.14350402685E+02 -0.11913319428E+02  0.73748588633E+02  0.11226387273E+03  0.82561865039E+02 0.  0.
         24    2    1    2    0    0 -0.12351555505E+02 -0.22693810470E+01  0.35177336964E+03  0.36104523419E+03  0.80320897220E+02 0.  0.
        -11    1    5    5    0    0 -0.46625376485E+02 -0.48721039466E+01  0.20886316512E+03  0.21405953581E+03  0.00000000000E+00 0.  1.
         12    1    5    5    0    0  0.34273820981E+02  0.26027228996E+01  0.14291020452E+03  0.14698569838E+03  0.00000000000E+00 0. -1.
        -11    1    4    4    0    0  0.48195568119E+02 -0.95655075212E+01  0.32756531659E+02  0.59053383364E+02  0.00000000000E+00 0.  1.
         12    1    4    4    0    0 -0.33845165433E+02 -0.23478119067E+01  0.40992056975E+02  0.53210489370E+02  0.00000000000E+00 0. -1.
          5    1    3    3  501    0  0.33191743083E+02  0.91678044922E+02 -0.14793776554E+04  0.14825946489E+04  0.47000000000E+01 0. -1.
         -5    1    3    3    0  501  0.46698971662E+01 -0.20866545399E+02 -0.58821693002E+02  0.62763860813E+02  0.47000000000E+01 0. -1.
          1    1    1    2  502    0 -0.13651123611E+02 -0.51426374680E+02  0.99105493744E+03  0.99248219844E+03  0.00000000000E+00 0. -1.
          1    1    1    2  503    0 -0.26209363819E+02 -0.52024243676E+01 -0.23703275490E+03  0.23853411259E+03  0.00000000000E+00 0. -1.
<mgrwt>
<rscale>  0 0.37707846E+02</rscale>
<asrwt>0</asrwt>
<pdfrwt beam="1">  1        2 0.21257564E+00 0.53212735E+02</pdfrwt>
<pdfrwt beam="2">  1        2 0.26531905E+00 0.26720703E+02</pdfrwt>
<totfact> 0.36245219E+01</totfact>
</mgrwt>
</event>
<event>
13    1  0.2742815E-008  0.6490209E+02  0.7546771E-02  0.1463639E+00
          2   -1    0    0  503    0  0.00000000000E+00  0.00000000000E+00  0.22705812174E+04  0.22705812174E+04  0.00000000000E+00 0. -1.
          2   -1    0    0  502    0 -0.00000000000E+00 -0.00000000000E+00 -0.17464029381E+04  0.17464029381E+04  0.00000000000E+00 0. -1.
         25    2    1    2    0    0 -0.71035910643E+00 -0.45081066656E+02 -0.26099551388E+03  0.29287309659E+03  0.12499274083E+03 0.  0.
         24    2    1    2    0    0  0.11377320133E+01  0.19554538652E+03  0.67673391680E+02  0.22129291509E+03  0.78431968644E+02 0.  0.
         24    2    1    2    0    0  0.57234105429E+02 -0.70633573766E+02  0.44107445335E+03  0.45746343779E+03  0.80382080999E+02 0.  0.
        -11    1    4    4    0    0  0.35722360502E+02  0.12591723077E+03  0.27349361076E+02  0.13371321399E+03  0.00000000000E+00 0.  1.
         12    1    4    4    0    0 -0.34584628489E+02  0.69628155751E+02  0.40324030604E+02  0.87579701102E+02  0.00000000000E+00 0. -1.
        -11    1    5    5    0    0 -0.24164737828E+01 -0.18596832286E+02  0.14767710900E+02  0.23869788475E+02  0.00000000000E+00 0.  1.
         12    1    5    5    0    0  0.59650579211E+02 -0.52036741480E+02  0.42630674245E+03  0.43359364932E+03  0.00000000000E+00 0. -1.
          5    1    3    3  501    0 -0.58365258046E+02 -0.27675526466E+02 -0.18363558244E+03  0.19472173800E+03  0.47000000000E+01 0.  1.
         -5    1    3    3    0  501  0.57654898939E+02 -0.17405540191E+02 -0.77359931440E+02  0.98151358592E+02  0.47000000000E+01 0.  1.
          1    1    1    2  502    0 -0.18421504733E+02 -0.28208133117E+02 -0.13836263511E+04  0.13840364627E+04  0.00000000000E+00 0. -1.
          1    1    1    2  503    0 -0.39239973602E+02 -0.51622612980E+02  0.16600522992E+04  0.16613182434E+04  0.00000000000E+00 0. -1.
<mgrwt>
<rscale>  0 0.46760931E+02</rscale>
<asrwt>0</asrwt>
<pdfrwt beam="1">  1        2 0.33390900E+00 0.64902091E+02</pdfrwt>
<pdfrwt beam="2">  1        2 0.25682396E+00 0.33690512E+02</pdfrwt>
<totfact> 0.14993165E+01</totfact>
</mgrwt>
</event>
<event>
13    1  0.2742815E-008  0.1268383E+03  0.7546771E-02  0.1308556E+00
          2   -1    0    0  502    0  0.00000000000E+00  0.00000000000E+00  0.10296341026E+04  0.10296341026E+04  0.00000000000E+00 0. -1.
          2   -1    0    0  503    0 -0.00000000000E+00 -0.00000000000E+00 -0.15039832673E+04  0.15039832673E+04  0.00000000000E+00 0. -1.
         25    2    1    2    0    0 -0.14840836405E+03  0.44662662452E+02 -0.75588005534E+03  0.78166646582E+03  0.12501203859E+03 0.  0.
         24    2    1    2    0    0  0.45868342030E+01  0.23507872546E+01 -0.31181038800E+02  0.82539775432E+02  0.76249538353E+02 0.  0.
         24    2    1    2    0    0  0.78112578868E+02 -0.57210206496E+02 -0.71032344986E+02  0.14535260797E+03  0.81897520754E+02 0.  0.
        -11    1    4    4    0    0  0.47265971111E+01  0.34834503562E+02  0.31276611730E+01  0.35292571783E+02  0.00000000000E+00 0.  1.
         12    1    4    4    0    0 -0.13976290812E+00 -0.32483716307E+02 -0.34308699973E+02  0.47247203649E+02  0.00000000000E+00 0. -1.
        -13    1    5    5    0    0  0.42128461576E+02 -0.66548224677E+02 -0.73982630920E+02  0.10805972034E+03  0.00000000000E+00 0.  1.
         14    1    5    5    0    0  0.35984117292E+02  0.93380181802E+01  0.29502859342E+01  0.37292887632E+02  0.00000000000E+00 0. -1.
          5    1    3    3  501    0 -0.11762241402E+03 -0.11004935502E+02 -0.31997434828E+03  0.34111847567E+03  0.47000000000E+01 0. -1.
         -5    1    3    3    0  501 -0.30785950033E+02  0.55667597954E+02 -0.43590570705E+03  0.44054799015E+03  0.47000000000E+01 0. -1.
          1    1    1    2  502    0  0.12632689386E+03  0.10250121362E+02  0.94806105970E+03  0.95649533298E+03  0.00000000000E+00 0. -1.
          1    1    1    2  503    0 -0.60617942874E+02 -0.53364572275E-01 -0.56431678527E+03  0.56756318766E+03  0.00000000000E+00 0. -1.
<mgrwt>
<rscale>  0 0.87685109E+02</rscale>
<asrwt>0</asrwt>
<pdfrwt beam="1">  1        2 0.15141678E+00 0.12683828E+03</pdfrwt>
<pdfrwt beam="2">  1        2 0.22117401E+00 0.60617966E+02</pdfrwt>
<totfact> 0.72115269E+01</totfact>
</mgrwt>
</event>
<event>
13    1  0.2742815E-008  0.8953012E+02  0.7546771E-02  0.1457099E+00
          2   -1    0    0  503    0  0.00000000000E+00  0.00000000000E+00  0.27773589228E+04  0.27773589228E+04  0.00000000000E+00 0. -1.
          2   -1    0    0  502    0 -0.00000000000E+00 -0.00000000000E+00 -0.74027977286E+03  0.74027977286E+03  0.00000000000E+00 0. -1.
         25    2    1    2    0    0  0.66535448925E+02  0.22232773827E+02 -0.50243305350E+02  0.15188244255E+03  0.12499049734E+03 0.  0.
         24    2    1    2    0    0 -0.70146160392E+01 -0.23778340162E+02  0.71067224633E+01  0.85435704700E+02  0.81450229185E+02 0.  0.
         24    2    1    2    0    0 -0.15742326888E+03  0.55435662132E+02  0.23000724032E+04  0.23075222809E+04  0.80441398264E+02 0.  0.
        -11    1    5    5    0    0  0.94609497694E+01  0.26792065962E+01  0.91988533226E+02  0.92512582731E+02  0.00000000000E+00 0.  1.
         12    1    5    5    0    0 -0.16688421865E+03  0.52756455536E+02  0.22080838700E+04  0.22150096982E+04  0.00000000000E+00 0. -1.
        -11    1    4    4    0    0 -0.13313126008E+02  0.25214511538E+02  0.19456692076E+02  0.34519179926E+02  0.00000000000E+00 0.  1.
         12    1    4    4    0    0  0.62985099687E+01 -0.48992851701E+02 -0.12349969613E+02  0.50916524774E+02  0.00000000000E+00 0. -1.
          5    1    3    3  501    0  0.43553135083E+01 -0.75033738223E+01 -0.77123802481E+02  0.77752429439E+02  0.47000000000E+01 0.  1.
         -5    1    3    3    0  501  0.62180135416E+02  0.29736147649E+02  0.26880497131E+02  0.74130013108E+02  0.47000000000E+01 0.  1.
          1    1    1    2  502    0  0.82881508239E+02 -0.33147158896E+02 -0.59254506690E+03  0.59923095285E+03  0.00000000000E+00 0. -1.
          1    1    1    2  503    0  0.15020927752E+02 -0.20742936901E+02  0.37268839647E+03  0.37356731463E+03  0.00000000000E+00 0. -1.
<mgrwt>
<rscale>  0 0.47884352E+02</rscale>
<asrwt>0</asrwt>
<pdfrwt beam="1">  1        2 0.40843513E+00 0.25610500E+02</pdfrwt>
<pdfrwt beam="2">  1        2 0.10886467E+00 0.89530120E+02</pdfrwt>
<totfact> 0.31282614E+01</totfact>
</mgrwt>
</event>
<event>
13    1  0.2742815E-008  0.1002324E+03  0.7546771E-02  0.1351528E+00
          2   -1    0    0  502    0  0.00000000000E+00  0.00000000000E+00  0.22756541292E+04  0.22756541292E+04  0.00000000000E+00 0. -1.
          2   -1    0    0  503    0 -0.00000000000E+00 -0.00000000000E+00 -0.16702426808E+04  0.16702426808E+04  0.00000000000E+00 0. -1.
         25    2    1    2    0    0 -0.24852677637E+02  0.27588325834E+01 -0.46583459037E+03  0.48296267658E+03  0.12500325852E+03 0.  0.
         24    2    1    2    0    0  0.12842022557E+02 -0.72769175168E+02 -0.36761248778E+03  0.38363494002E+03  0.81095965594E+02 0.  0.
         24    2    1    2    0    0 -0.25187070421E+02  0.22681586279E+02  0.45237367018E+02  0.95853115684E+02  0.77411611139E+02 0.  0.
        -13    1    5    5    0    0 -0.45103570586E+02  0.10410259707E+02  0.53771848117E+02  0.70951513280E+02  0.00000000000E+00 0.  1.
         14    1    5    5    0    0  0.19916500165E+02  0.12271326572E+02 -0.85344810988E+01  0.24901602404E+02  0.00000000000E+00 0. -1.
        -13    1    4    4    0    0 -0.44051699270E+01 -0.87696331257E+01  0.28121408997E+00  0.98178953248E+01  0.00000000000E+00 0.  1.
         14    1    4    4    0    0  0.17247192484E+02 -0.63999542043E+02 -0.36789370187E+03  0.37381704470E+03  0.00000000000E+00 0. -1.
          5    1    3    3  501    0 -0.13417981264E+02 -0.60340489949E+02 -0.26162655685E+03  0.26887090247E+03  0.47000000000E+01 0.  1.
         -5    1    3    3    0  501 -0.11434696372E+02  0.63099322533E+02 -0.20420803353E+03  0.21409177411E+03  0.47000000000E+01 0.  1.
          1    1    1    2  502    0  0.25783341007E+02  0.98633064957E+02  0.21864758248E+04  0.21888512499E+04  0.00000000000E+00 0. -1.
          1    1    1    2  503    0  0.11414384493E+02 -0.51304308651E+02 -0.79285466514E+03  0.79459482776E+03  0.00000000000E+00 0. -1.
<mgrwt>
<rscale>  0 0.72581603E+02</rscale>
<asrwt>0</asrwt>
<pdfrwt beam="1">  1        2 0.33465502E+00 0.10023242E+03</pdfrwt>
<pdfrwt beam="2">  1        2 0.24562392E+00 0.52558732E+02</pdfrwt>
<totfact> 0.14690127E+01</totfact>
</mgrwt>
</event>
<event>
13    1  0.2742815E-008  0.1991455E+03  0.7546771E-02  0.1275091E+00
         -3   -1    0    0    0  501 -0.00000000000E+00  0.00000000000E+00  0.28326351105E+03  0.28326351105E+03  0.00000000000E+00 0.  1.
          2   -1    0    0  503    0  0.00000000000E+00 -0.00000000000E+00 -0.40332881123E+04  0.40332881123E+04  0.00000000000E+00 0. -1.
         25    2    1    2    0    0  0.13815603286E+03 -0.33387336642E+02 -0.16583940223E+03  0.25165509918E+03  0.12500311176E+03 0.  0.
         24    2    1    2    0    0  0.67645817053E+02 -0.71351561130E+02 -0.23265384217E+03  0.26515194243E+03  0.80689159489E+02 0.  0.
         24    2    1    2    0    0  0.52969113913E+02  0.56434905896E+02 -0.15596845684E+03  0.19841779530E+03  0.95146394213E+02 0.  0.
        -11    1    4    4    0    0  0.64888509523E+02 -0.10011544366E+02 -0.12628292969E+03  0.14233105080E+03  0.00000000000E+00 0.  1.
         12    1    4    4    0    0  0.27573075293E+01 -0.61340016764E+02 -0.10637091248E+03  0.12282089164E+03  0.00000000000E+00 0. -1.
        -11    1    5    5    0    0 -0.17723875345E+02  0.45525801981E+02 -0.45171057301E+02  0.66536898191E+02  0.00000000000E+00 0.  1.
         12    1    5    5    0    0  0.70692989258E+02  0.10909103915E+02 -0.11079739954E+03  0.13188089711E+03  0.00000000000E+00 0. -1.
          5    1    3    3  502    0 -0.17859121339E+02  0.16844836749E+02 -0.27076281041E+02  0.36849853936E+02  0.47000000000E+01 0.  1.
         -5    1    3    3    0  502  0.15601515419E+03 -0.50232173391E+02 -0.13876312119E+03  0.21480524525E+03  0.47000000000E+01 0.  1.
          1    1    1    2  503    0 -0.51948631337E+02 -0.92966435504E+01 -0.33413798921E+04  0.33417966233E+04  0.00000000000E+00 0. -1.
         -4    1    1    2    0  501 -0.20682233248E+03  0.57600635427E+02  0.14581699209E+03  0.25953016317E+03  0.00000000000E+00 0.  1.
<mgrwt>
<rscale>  0 0.10251678E+03</rscale>
<asrwt>0</asrwt>
<pdfrwt beam="2">  1        2 0.59313056E+00 0.52773932E+02</pdfrwt>
<pdfrwt beam="1">  1       -3 0.41656402E-01 0.19914550E+03</pdfrwt>
<totfact> 0.28529114E+00</totfact>
</mgrwt>
</event>
<event>
13    1  0.2742815E-008  0.1014209E+03  0.7546771E-02  0.1295314E+00
          2   -1    0    0  502    0  0.00000000000E+00  0.00000000000E+00  0.17893424822E+04  0.17893424822E+04  0.00000000000E+00 0. -1.
          2   -1    0    0  503    0 -0.00000000000E+00 -0.00000000000E+00 -0.10981571612E+04  0.10981571612E+04  0.00000000000E+00 0. -1.
         25    2    1    2    0    0 -0.64708226796E+03 -0.23966809097E+03 -0.57177210589E+03  0.90482306423E+03  0.12500072459E+03 0.  0.
         24    2    1    2    0    0  0.35707859539E+03  0.15494109543E+03  0.93916150001E+02  0.40723324275E+03  0.74207846156E+02 0.  0.
         24    2    1    2    0    0  0.25736776045E+03 -0.52764789450E+02  0.42232079373E+03  0.50223392333E+03  0.69726421148E+02 0.  0.
        -11    1    5    5    0    0  0.63931355419E+02  0.16542245707E+02  0.92803833245E+02  0.11390090238E+03  0.00000000000E+00 0.  1.
         12    1    5    5    0    0  0.19343640503E+03 -0.69307035158E+02  0.32951696048E+03  0.38833302095E+03  0.00000000000E+00 0. -1.
        -13    1    4    4    0    0  0.22340734343E+03  0.65662790257E+02  0.78583623668E+02  0.24575969774E+03  0.00000000000E+00 0.  1.
         14    1    4    4    0    0  0.13367125195E+03  0.89278305178E+02  0.15332526333E+02  0.16147354501E+03  0.00000000000E+00 0. -1.
          5    1    3    3  501    0 -0.29710390036E+02 -0.19667128060E+02 -0.72447966829E+02  0.80872128078E+02  0.47000000000E+01 0. -1.
         -5    1    3    3    0  501 -0.61737187793E+03 -0.22000096291E+03 -0.49932413906E+03  0.82395093615E+03  0.47000000000E+01 0. -1.
          1    1    1    2  502    0 -0.45145867661E+02  0.72751022841E+02  0.89203156868E+03  0.89613122935E+03  0.00000000000E+00 0. -1.
          1    1    1    2  503    0  0.77781779788E+02  0.64740762143E+02 -0.14531108552E+03  0.17707818365E+03  0.00000000000E+00 0. -1.
<mgrwt>
<rscale>  0 0.93186397E+02</rscale>
<asrwt>0</asrwt>
<pdfrwt beam="1">  1        2 0.26313860E+00 0.85620446E+02</pdfrwt>
<pdfrwt beam="2">  1        2 0.16149370E+00 0.10142092E+03</pdfrwt>
<totfact> 0.47257973E+01</totfact>
</mgrwt>
</event>
<event>
13    1  0.2742815E-008  0.8102008E+02  0.7546771E-02  0.1389088E+00
         -3   -1    0    0    0  502 -0.00000000000E+00  0.00000000000E+00  0.17921306115E+04  0.17921306115E+04  0.00000000000E+00 0.  1.
         -1   -1    0    0    0  501  0.00000000000E+00 -0.00000000000E+00 -0.22118737973E+03  0.22118737973E+03  0.00000000000E+00 0.  1.
         25    2    1    2    0    0  0.38087766355E+02  0.96884119630E+02  0.12308460528E+04  0.12415490639E+04  0.12499944728E+03 0.  0.
         24    2    1    2    0    0 -0.70784018006E+01 -0.63712943632E+02  0.23988680432E+03  0.26110211536E+03  0.80741518433E+02 0.  0.
         24    2    1    2    0    0 -0.81388065531E+01 -0.58028645211E+02 -0.97624076292E+01  0.10307879920E+03  0.84239957298E+02 0.  0.
        -11    1    4    4    0    0 -0.21871667561E+02 -0.75303004254E+02  0.14987168947E+03  0.16914619593E+03  0.00000000000E+00 0.  1.
         12    1    4    4    0    0  0.14793265761E+02  0.11590060622E+02  0.90015114851E+02  0.91955919432E+02  0.00000000000E+00 0. -1.
        -13    1    5    5    0    0 -0.16605018906E+02 -0.76595982771E+02  0.39804028268E+01  0.78476205542E+02  0.00000000000E+00 0.  1.
         14    1    5    5    0    0  0.84662123533E+01  0.18567337560E+02 -0.13742810456E+02  0.24602593662E+02  0.00000000000E+00 0. -1.
          5    1    3    3  503    0 -0.42418861616E+02  0.26871760203E+02  0.55871011697E+03  0.56098176096E+03  0.47000000000E+01 0.  1.
         -5    1    3    3    0  503  0.80506627971E+02  0.70012359427E+02  0.67213593582E+03  0.68056730294E+03  0.47000000000E+01 0.  1.
         -2    1    1    2    0  501 -0.52305404656E+02  0.62329454005E+02 -0.13521672003E+03  0.15781120863E+03  0.00000000000E+00 0.  1.
         -4    1    1    2    0  502  0.29434846655E+02 -0.37471984792E+02  0.24518950235E+03  0.24977680417E+03  0.00000000000E+00 0.  1.
<mgrwt>
<rscale>  0 0.62134035E+02</rscale>
<asrwt>0</asrwt>
<pdfrwt beam="2">  1       -1 0.32527557E-01 0.81020075E+02</pdfrwt>
<pdfrwt beam="1">  1       -3 0.26354861E+00 0.47650392E+02</pdfrwt>
<totfact> 0.30512332E+00</totfact>
</mgrwt>
</event>
<event>
13    1  0.2742815E-008  0.1131337E+03  0.7546771E-02  0.1372238E+00
          2   -1    0    0  502    0  0.00000000000E+00  0.00000000000E+00  0.17192479914E+04  0.17192479914E+04  0.00000000000E+00 0. -1.
          2   -1    0    0  503    0 -0.00000000000E+00 -0.00000000000E+00 -0.18541310834E+04  0.18541310834E+04  0.00000000000E+00 0. -1.
         25    2    1    2    0    0  0.85818449304E+02 -0.84386348705E+01 -0.14443706453E+03  0.20958156317E+03  0.12500539673E+03 0.  0.
         24    2    1    2    0    0  0.44516642773E+02 -0.63182967178E+02  0.10019567821E+03  0.14933624421E+03  0.79298934914E+02 0.  0.
         24    2    1    2    0    0 -0.99684973245E+02 -0.57152519808E+01  0.36364957865E+03  0.38555405714E+03  0.80256818596E+02 0.  0.
        -13    1    4    4    0    0  0.50600998263E+02 -0.58081777639E+02  0.36667622738E+02  0.85313940691E+02  0.00000000000E+00 0.  1.
         14    1    4    4    0    0 -0.60843554896E+01 -0.51011895386E+01  0.63528055467E+02  0.64022303519E+02  0.00000000000E+00 0. -1.
        -13    1    5    5    0    0 -0.34222560776E+02  0.26457568677E+02  0.64656616413E+02  0.77792445985E+02  0.00000000000E+00 0.  1.
         14    1    5    5    0    0 -0.65462412469E+02 -0.32172820658E+02  0.29899296223E+03  0.30776161115E+03  0.00000000000E+00 0. -1.
          5    1    3    3  501    0  0.80151732745E+02  0.42528555985E+01 -0.18124246428E+02  0.82419447652E+02  0.47000000000E+01 0.  1.
         -5    1    3    3    0  501  0.56667165591E+01 -0.12691490469E+02 -0.12631281810E+03  0.12716211552E+03  0.47000000000E+01 0.  1.
          1    1    1    2  502    0 -0.66198653255E+02  0.93729890920E+02  0.11843010825E+04  0.11898473045E+04  0.00000000000E+00 0. -1.
          1    1    1    2  503    0  0.35548534422E+02 -0.16393036891E+02 -0.16385923668E+04  0.16390599057E+04  0.00000000000E+00 0. -1.
<mgrwt>
<rscale>  0 0.66548953E+02</rscale>
<asrwt>0</asrwt>
<pdfrwt beam="1">  1        2 0.25283059E+00 0.11313374E+03</pdfrwt>
<pdfrwt beam="2">  1        2 0.27266634E+00 0.39146264E+02</pdfrwt>
<totfact> 0.22836054E+01</totfact>
</mgrwt>
</event>
<event>
13    1  0.2742815E-008  0.1154842E+03  0.7546771E-02  0.1365083E+00
          2   -1    0    0  502    0  0.00000000000E+00  0.00000000000E+00  0.11236377446E+04  0.11236377446E+04  0.00000000000E+00 0. -1.
          2   -1    0    0  503    0 -0.00000000000E+00 -0.00000000000E+00 -0.28104736584E+04  0.28104736584E+04  0.00000000000E+00 0. -1.
         25    2    1    2    0    0 -0.59255072652E+02  0.20202633913E+03 -0.99848288736E+02  0.26442286791E+03  0.12499586783E+03 0.  0.
         24    2    1    2    0    0  0.89893623495E+02 -0.69851856032E+02  0.55579536296E+02  0.15002313136E+03  0.80359876513E+02 0.  0.
         24    2    1    2    0    0  0.40610128442E+01 -0.23240090944E+02  0.18068865479E+03  0.19693134306E+03  0.74679115278E+02 0.  0.
        -11    1    5    5    0    0  0.22654342898E+01 -0.43351238366E+02  0.16696941613E+03  0.17252028282E+03  0.00000000000E+00 0.  1.
         12    1    5    5    0    0  0.17955785545E+01  0.20111147422E+02  0.13719238660E+02  0.24411060247E+02  0.00000000000E+00 0. -1.
        -13    1    4    4    0    0  0.91825537841E+02 -0.26171091034E+02  0.34955001155E+02  0.10167943505E+03  0.00000000000E+00 0.  1.
         14    1    4    4    0    0 -0.19319143458E+01 -0.43680764997E+02  0.20624535141E+02  0.48343696317E+02  0.00000000000E+00 0. -1.
          5    1    3    3  501    0  0.26315657335E+02  0.13009792546E+02 -0.37231969697E+02  0.47645336504E+02  0.47000000000E+01 0. -1.
         -5    1    3    3    0  501 -0.85570729986E+02  0.18901654658E+03 -0.62616319039E+02  0.21677753141E+03  0.47000000000E+01 0. -1.
          1    1    1    2  502    0  0.36470278400E+02 -0.18054098467E+02  0.74789104922E+03  0.74899736527E+03  0.00000000000E+00 0. -1.
          1    1    1    2  503    0 -0.71169842088E+02 -0.90880293688E+02 -0.25711468653E+04  0.25737366954E+04  0.00000000000E+00 0. -1.
<mgrwt>
<rscale>  0 0.68553312E+02</rscale>
<asrwt>0</asrwt>
<pdfrwt beam="1">  1        2 0.16524085E+00 0.40694369E+02</pdfrwt>
<pdfrwt beam="2">  1        2 0.41330495E+00 0.11548420E+03</pdfrwt>
<totfact> 0.14636867E+01</totfact>
</mgrwt>
</event>
<event>
13    1  0.2742815E-008  0.7264564E+02  0.7546771E-02  0.1476906E+00
          2   -1    0    0  502    0  0.00000000000E+00  0.00000000000E+00  0.19517736425E+04  0.19517736425E+04  0.00000000000E+00 0. -1.
          2   -1    0    0  503    0 -0.00000000000E+00 -0.00000000000E+00 -0.14010255022E+04  0.14010255022E+04  0.00000000000E+00 0. -1.
         25    2    1    2    0    0  0.13551136746E+03  0.12985899434E+03 -0.38774336112E+03  0.44854818863E+03  0.12499549716E+03 0.  0.
         24    2    1    2    0    0 -0.17556493238E+03 -0.85394744983E+02  0.45637770712E+03  0.50286079527E+03  0.80455328690E+02 0.  0.
         24    2    1    2    0    0  0.87699259365E+02 -0.92102093271E+02  0.28877282660E+03  0.32543648989E+03  0.79656813248E+02 0.  0.
        -11    1    5    5    0    0  0.99037602503E+02 -0.83580814446E+02  0.28056729333E+03  0.30905048995E+03  0.00000000000E+00 0.  1.
         12    1    5    5    0    0 -0.11338343138E+02 -0.85212788248E+01  0.82055332638E+01  0.16385999941E+02  0.00000000000E+00 0. -1.
        -13    1    4    4    0    0 -0.14580868533E+03 -0.43134621926E+02  0.39096542019E+03  0.41949341844E+03  0.00000000000E+00 0.  1.
         14    1    4    4    0    0 -0.29756247049E+02 -0.42260123057E+02  0.65412286923E+02  0.83367376831E+02  0.00000000000E+00 0. -1.
          5    1    3    3  501    0  0.10346979185E+03  0.84462077641E+02 -0.36432700759E+03  0.38806713188E+03  0.47000000000E+01 0. -1.
         -5    1    3    3    0  501  0.32041575613E+02  0.45396916696E+02 -0.23416353531E+02  0.60481056753E+02  0.47000000000E+01 0. -1.
          1    1    1    2  502    0 -0.19398908531E+02 -0.19310331424E+02  0.11330795036E+04  0.11334100618E+04  0.00000000000E+00 0. -1.
          1    1    1    2  503    0 -0.28246785921E+02  0.66948175341E+02 -0.93973853600E+03  0.94254360914E+03  0.00000000000E+00 0. -1.
<mgrwt>
<rscale>  0 0.44591816E+02</rscale>
<asrwt>0</asrwt>
<pdfrwt beam="1">  1        2 0.28702554E+00 0.27371638E+02</pdfrwt>
<pdfrwt beam="2">  1        2 0.20603316E+00 0.72645638E+02</pdfrwt>
<totfact> 0.31870624E+01</totfact>
</mgrwt>
</event>
<event>
13    1  0.2742815E-008  0.1104641E+03  0.7546771E-02  0.1413187E+00
          2   -1    0    0  503    0  0.00000000000E+00  0.00000000000E+00  0.22999312858E+04  0.22999312858E+04  0.00000000000E+00 0. -1.
          2   -1    0    0  502    0 -0.00000000000E+00 -0.00000000000E+00 -0.13933404009E+04  0.13933404009E+04  0.00000000000E+00 0. -1.
         25    2    1    2    0    0  0.17542002236E+03  0.15129927211E+03 -0.59987588584E+03  0.65508677073E+03  0.12499577908E+03 0.  0.
         24    2    1    2    0    0 -0.17549835016E+03 -0.14923310807E+03  0.10824921629E+04  0.11096561202E+04  0.80481246735E+02 0.  0.
         24    2    1    2    0    0  0.10539885253E+03 -0.40181374131E+02  0.38585000861E+03  0.41026000272E+03  0.81912024427E+02 0.  0.
        -11    1    5    5    0    0  0.79876157435E+02 -0.35359404055E+02  0.15472750146E+03  0.17768254751E+03  0.00000000000E+00 0.  1.
         12    1    5    5    0    0  0.25522695097E+02 -0.48219700760E+01  0.23112250716E+03  0.23257745522E+03  0.00000000000E+00 0. -1.
        -13    1    4    4    0    0 -0.85875698179E+02 -0.23796292189E+02  0.35557895917E+03  0.36657508817E+03  0.00000000000E+00 0.  1.
         14    1    4    4    0    0 -0.89622651977E+02 -0.12543681588E+03  0.72691320369E+03  0.74308103207E+03  0.00000000000E+00 0. -1.
          5    1    3    3  501    0  0.16897491892E+03  0.17189421712E+03 -0.55311399326E+03  0.60337163063E+03  0.47000000000E+01 0. -1.
         -5    1    3    3    0  501  0.64451034313E+01 -0.20594945010E+02 -0.46761892573E+02  0.51715140097E+02  0.47000000000E+01 0. -1.
          1    1    1    2  502    0 -0.90717576953E+02  0.63039374547E+02 -0.73567864173E+03  0.74392654571E+03  0.00000000000E+00 0. -1.
          1    1    1    2  503    0 -0.14602947780E+02 -0.24924164462E+02  0.77380324102E+03  0.77434224725E+03  0.00000000000E+00 0. -1.
<mgrwt>
<rscale>  0 0.56488748E+02</rscale>
<asrwt>0</asrwt>
<pdfrwt beam="1">  1        2 0.33822519E+00 0.28887022E+02</pdfrwt>
<pdfrwt beam="2">  1        2 0.20490300E+00 0.11046409E+03</pdfrwt>
<totfact> 0.21558150E+01</totfact>
</mgrwt>
</event>
<event>
13    1  0.2742815E-008  0.1013274E+03  0.7546771E-02  0.1317980E+00
          2   -1    0    0  503    0  0.00000000000E+00  0.00000000000E+00  0.55702458104E+03  0.55702458104E+03  0.00000000000E+00 0. -1.
          2   -1    0    0  502    0 -0.00000000000E+00 -0.00000000000E+00 -0.28896418567E+04  0.28896418567E+04  0.00000000000E+00 0. -1.
         25    2    1    2    0    0 -0.46809306054E+02 -0.10440303009E+03 -0.15850064792E+03  0.23202823939E+03  0.12499417851E+03 0.  0.
         24    2    1    2    0    0  0.25153824566E+02  0.15181326683E+03 -0.26991718385E+03  0.32123155058E+03  0.81574751452E+02 0.  0.
         24    2    1    2    0    0  0.60871826558E+02 -0.83086638030E+02  0.11427647416E+03  0.17537543152E+03  0.84194184753E+02 0.  0.
        -11    1    5    5    0    0 -0.52141851442E+01 -0.43261581113E+02  0.79678536977E+02  0.90815314688E+02  0.00000000000E+00 0.  1.
         12    1    5    5    0    0  0.66086011702E+02 -0.39825056917E+02  0.34597937184E+02  0.84560116831E+02  0.00000000000E+00 0. -1.
        -11    1    4    4    0    0  0.42760855611E+02  0.14991429713E+03 -0.23381739365E+03  0.28102199350E+03  0.00000000000E+00 0.  1.
         12    1    4    4    0    0 -0.17607031045E+02  0.18989696984E+01 -0.36099790202E+02  0.40209557083E+02  0.00000000000E+00 0. -1.
          5    1    3    3  501    0 -0.13812004309E+02 -0.12773755578E+03 -0.11549459271E+03  0.17282576650E+03  0.47000000000E+01 0.  1.
         -5    1    3    3    0  501 -0.32997301746E+02  0.23334525698E+02 -0.43006055212E+02  0.59202472895E+02  0.47000000000E+01 0.  1.
          1    1    1    2  502    0 -0.14061450804E+02  0.10066913880E+03 -0.23636790438E+04  0.23658636102E+04  0.00000000000E+00 0. -1.
          1    1    1    2  503    0 -0.25154894265E+02 -0.64992737504E+02  0.34520312582E+03  0.35216760599E+03  0.00000000000E+00 0. -1.
<mgrwt>
<rscale>  0 0.84033317E+02</rscale>
<asrwt>0</asrwt>
<pdfrwt beam="1">  1        2 0.81915379E-01 0.69690922E+02</pdfrwt>
<pdfrwt beam="2">  1        2 0.42494733E+00 0.10132738E+03</pdfrwt>
<totfact> 0.30475606E+01</totfact>
</mgrwt>
</event>
<event>
13    1  0.2742815E-008  0.1091174E+03  0.7546771E-02  0.1375917E+00
          2   -1    0    0  502    0  0.00000000000E+00  0.00000000000E+00  0.11475910871E+04  0.11475910871E+04  0.00000000000E+00 0. -1.
          2   -1    0    0  503    0 -0.00000000000E+00 -0.00000000000E+00 -0.30726922631E+04  0.30726922631E+04  0.00000000000E+00 0. -1.
         25    2    1    2    0    0  0.20163208431E+03  0.24365736628E+02 -0.21260084284E+04  0.21393420972E+04  0.12499433816E+03 0.  0.
         24    2    1    2    0    0 -0.11704821685E+03  0.12127437026E+03 -0.69693985803E+02  0.19937923742E+03  0.80542353512E+02 0.  0.
         24    2    1    2    0    0 -0.11502493664E+02  0.43329771202E+02  0.38259086395E+02  0.98225881043E+02  0.78579829359E+02 0.  0.
        -11    1    5    5    0    0  0.89131071010E+01 -0.20324195628E+02  0.22769081666E+01  0.22309206999E+02  0.00000000000E+00 0.  1.
         12    1    5    5    0    0 -0.20415600765E+02  0.63653966831E+02  0.35982178228E+02  0.75916674044E+02  0.00000000000E+00 0. -1.
        -13    1    4    4    0    0 -0.11413774786E+03  0.12817358164E+03 -0.77718245525E+02  0.18840386993E+03  0.00000000000E+00 0.  1.
         14    1    4    4    0    0 -0.29104689902E+01 -0.68992113854E+01  0.80242597224E+01  0.10975367492E+02  0.00000000000E+00 0. -1.
          5    1    3    3  501    0  0.87445582143E+02  0.73248798178E+02 -0.10063329028E+04  0.10127882886E+04  0.47000000000E+01 0. -1.
         -5    1    3    3    0  501  0.11418650217E+03 -0.48883061550E+02 -0.11196755256E+04  0.11265538086E+04  0.47000000000E+01 0. -1.
          1    1    1    2  502    0 -0.56555111439E+02 -0.15322866683E+03  0.10007141688E+04  0.10139557942E+04  0.00000000000E+00 0. -1.
          1    1    1    2  503    0 -0.16526262354E+02 -0.35741211259E+02 -0.76837201703E+03  0.76938034033E+03  0.00000000000E+00 0. -1.
<mgrwt>
<rscale>  0 0.65549363E+02</rscale>
<asrwt>0</asrwt>
<pdfrwt beam="1">  1        2 0.16876339E+00 0.10911736E+03</pdfrwt>
<pdfrwt beam="2">  1        2 0.45186651E+00 0.39377043E+02</pdfrwt>
<totfact> 0.11657526E+01</totfact>
</mgrwt>
</event>
<event>
13    1  0.2742815E-008  0.8049159E+02  0.7546771E-02  0.1373269E+00
          2   -1    0    0  502    0  0.00000000000E+00  0.00000000000E+00  0.21314052605E+04  0.21314052605E+04  0.00000000000E+00 0. -1.
          4   -1    0    0  503    0 -0.00000000000E+00 -0.00000000000E+00 -0.88593963779E+03  0.88593963779E+03  0.00000000000E+00 0. -1.
         25    2    1    2    0    0 -0.23885338334E+03 -0.16898575262E+03 -0.55478840013E+03  0.63954880943E+03  0.12500154959E+03 0.  0.
         24    2    1    2    0    0  0.74653599220E+02  0.22920203190E+03  0.32526824349E+03  0.41232719494E+03  0.78150842355E+02 0.  0.
         24    2    1    2    0    0  0.48335892481E+02 -0.23575683202E+00  0.48477527320E+03  0.49360078388E+03  0.79361541465E+02 0.  0.
        -11    1    5    5    0    0  0.62338190268E+02 -0.14527878089E+01  0.46596935562E+03  0.47012296364E+03  0.00000000000E+00 0.  1.
         12    1    5    5    0    0 -0.14002297787E+02  0.12170309769E+01  0.18805917572E+02  0.23477820245E+02  0.00000000000E+00 0. -1.
        -13    1    4    4    0    0  0.59900232662E+02  0.11236753621E+03  0.22089376699E+03  0.25496775750E+03  0.00000000000E+00 0.  1.
         14    1    4    4    0    0  0.14753366558E+02  0.11683449569E+03  0.10437447649E+03  0.15735943744E+03  0.00000000000E+00 0. -1.
          5    1    3    3  501    0 -0.12081877744E+02 -0.24050057417E+02 -0.15628470083E+03  0.15865489197E+03  0.47000000000E+01 0.  1.
         -5    1    3    3    0  501 -0.22677150560E+03 -0.14493569520E+03 -0.39850369929E+03  0.48089391746E+03  0.47000000000E+01 0.  1.
          1    1    1    2  502    0  0.53750380920E+02 -0.93399148003E+01  0.12237475632E+04  0.12249630345E+04  0.00000000000E+00 0. -1.
          3    1    1    2  503    0  0.62113510723E+02 -0.50640607649E+02 -0.23353705700E+03  0.24690507559E+03  0.00000000000E+00 0. -1.
<mgrwt>
<rscale>  0 0.66266769E+02</rscale>
<asrwt>0</asrwt>
<pdfrwt beam="1">  1        2 0.31344195E+00 0.54555820E+02</pdfrwt>
<pdfrwt beam="2">  1        4 0.13028524E+00 0.80491590E+02</pdfrwt>
<totfact> 0.19858314E+00</totfact>
</mgrwt>
</event>
<event>
13    1  0.2742815E-008  0.5457458E+02  0.7546771E-02  0.1589571E+00
          2   -1    0    0  503    0  0.00000000000E+00  0.00000000000E+00  0.92550076174E+03  0.92550076174E+03  0.00000000000E+00 0. -1.
          2   -1    0    0  502    0 -0.00000000000E+00 -0.00000000000E+00 -0.15383326516E+04  0.15383326516E+04  0.00000000000E+00 0. -1.
         25    2    1    2    0    0  0.14921221148E+03  0.10140403631E+03 -0.65064847392E+03  0.68666941574E+03  0.12499754902E+03 0.  0.
         24    2    1    2    0    0  0.46258751256E+02  0.44319118216E+02  0.56372854285E+02  0.11964235092E+03  0.83859031276E+02 0.  0.
         24    2    1    2    0    0 -0.13952716703E+03 -0.14015098618E+03  0.60645769112E+03  0.64285360829E+03  0.79747735422E+02 0.  0.
        -11    1    4    4    0    0  0.34708790389E+02 -0.18619087190E+02  0.33438776138E+02  0.51667419982E+02  0.00000000000E+00 0.  1.
         12    1    4    4    0    0  0.11549960867E+02  0.62938205406E+02  0.22934078147E+02  0.67974930940E+02  0.00000000000E+00 0. -1.
        -13    1    5    5    0    0 -0.87015473068E+02 -0.96167675737E+02  0.27049518376E+03  0.29997926403E+03  0.00000000000E+00 0.  1.
         14    1    5    5    0    0 -0.52511693964E+02 -0.43983310439E+02  0.33596250736E+03  0.34287434426E+03  0.00000000000E+00 0. -1.
          5    1    3    3  501    0  0.13111573580E+03  0.10335998580E+03 -0.64608451662E+03  0.66732444542E+03  0.47000000000E+01 0.  1.
         -5    1    3    3    0  501  0.18096475679E+02 -0.19559494867E+01 -0.45639573003E+01  0.19344970318E+02  0.47000000000E+01 0.  1.
          1    1    1    2  502    0 -0.26095463790E+01 -0.17168248696E+02 -0.81592416312E+03  0.81610893786E+03  0.00000000000E+00 0. -1.
          1    1    1    2  503    0 -0.53334249322E+02  0.11596080347E+02  0.19091020181E+03  0.19855910048E+03  0.00000000000E+00 0. -1.
<mgrwt>
<rscale>  0 0.30784926E+02</rscale>
<asrwt>0</asrwt>
<pdfrwt beam="1">  1        2 0.13610305E+00 0.54574585E+02</pdfrwt>
<pdfrwt beam="2">  1        2 0.22622539E+00 0.17365440E+02</pdfrwt>
<totfact> 0.92762355E+01</totfact>
</mgrwt>
</event>
<event>
13    1  0.2742815E-008  0.6514845E+02  0.7546771E-02  0.1377488E+00
          2   -1    0    0  503    0  0.00000000000E+00  0.00000000000E+00  0.27747824070E+04  0.27747824070E+04  0.00000000000E+00 0. -1.
         -1   -1    0    0    0  501 -0.00000000000E+00 -0.00000000000E+00 -0.15661586765E+04  0.15661586765E+04  0.00000000000E+00 0.  1.
         25    2    1    2    0    0  0.64533346170E+01 -0.40872723354E+02 -0.28436628076E+03  0.31337156208E+03  0.12500131698E+03 0.  0.
         24    2    1    2    0    0 -0.21225672685E+02  0.23236153209E+01  0.14410601228E+03  0.17022601815E+03  0.88059219338E+02 0.  0.
         24    2    1    2    0    0  0.14510703901E+02 -0.25820318647E+02  0.80020989539E+03  0.80479639017E+03  0.80523931659E+02 0.  0.
        -11    1    4    4    0    0 -0.61123553298E+01 -0.34407532236E+02  0.11708069878E+03  0.12218481571E+03  0.00000000000E+00 0.  1.
         12    1    4    4    0    0 -0.15113317355E+02  0.36731147557E+02  0.27025313499E+02  0.48041202442E+02  0.00000000000E+00 0. -1.
        -11    1    5    5    0    0 -0.67092290790E+01 -0.50576611872E+02  0.57168245597E+03  0.57395456082E+03  0.00000000000E+00 0.  1.
         12    1    5    5    0    0  0.21219932980E+02  0.24756293225E+02  0.22852743942E+03  0.23084182935E+03  0.00000000000E+00 0. -1.
          5    1    3    3  502    0  0.15515821013E+02  0.38032581741E+01  0.72603443488E+01  0.18166124367E+02  0.47000000000E+01 0. -1.
         -5    1    3    3    0  502 -0.90624863964E+01 -0.44675981528E+02 -0.29162662511E+03  0.29520543771E+03  0.47000000000E+01 0. -1.
          1    1    1    2  503    0  0.56787018493E+02  0.32057732975E+02  0.17991729897E+04  0.18003543848E+04  0.00000000000E+00 0. -1.
         -2    1    1    2    0  501 -0.56525384326E+02  0.32311693706E+02 -0.12504988862E+04  0.12521927284E+04  0.00000000000E+00 0.  1.
<mgrwt>
<rscale>  0 0.65128654E+02</rscale>
<asrwt>0</asrwt>
<pdfrwt beam="1">  1        2 0.40805624E+00 0.65148446E+02</pdfrwt>
<pdfrwt beam="2">  1       -1 0.23031745E+00 0.65108867E+02</pdfrwt>
<totfact> 0.56790876E-01</totfact>
</mgrwt>
</event>
<event>
13    1  0.2742815E-008  0.2226895E+03  0.7546771E-02  0.1294866E+00
          2   -1    0    0  502    0  0.00000000000E+00  0.00000000000E+00  0.27776792892E+04  0.27776792892E+04  0.00000000000E+00 0. -1.
          2   -1    0    0  503    0 -0.00000000000E+00 -0.00000000000E+00 -0.26058735521E+04  0.26058735521E+04  0.00000000000E+00 0. -1.
         25    2    1    2    0    0 -0.12396245703E+03 -0.13430006288E+03 -0.37734452505E+03  0.43751186089E+03  0.12499816075E+03 0.  0.
         24    2    1    2    0    0  0.21845947057E+03  0.60605562156E+01  0.27925439906E+03  0.36500888994E+03  0.86528606360E+02 0.  0.
         24    2    1    2    0    0 -0.26936573841E+03  0.22861791782E+03  0.69161237882E+03  0.78074867024E+03  0.80104620091E+02 0.  0.
        -11    1    4    4    0    0  0.21213174380E+03  0.46139618172E+01  0.28569217364E+03  0.35586680577E+03  0.00000000000E+00 0.  1.
         12    1    4    4    0    0  0.63277267678E+01  0.14465943984E+01 -0.64377745799E+01  0.91420841685E+01  0.00000000000E+00 0. -1.
        -13    1    5    5    0    0 -0.21959214112E+03  0.20378253336E+03  0.51740756148E+03  0.59787842746E+03  0.00000000000E+00 0.  1.
         14    1    5    5    0    0 -0.49773597293E+02  0.24835384459E+02  0.17420481734E+03  0.18287024278E+03  0.00000000000E+00 0. -1.
          5    1    3    3  501    0 -0.14403275281E+03 -0.10245857655E+03 -0.34495692356E+03  0.38763457392E+03  0.47000000000E+01 0.  1.
         -5    1    3    3    0  501  0.20070295782E+02 -0.31841486332E+02 -0.32387601493E+02  0.49877286966E+02  0.47000000000E+01 0.  1.
          1    1    1    2  502    0  0.20823880457E+03 -0.79891403739E+02  0.16817384379E+04  0.16964640313E+04  0.00000000000E+00 0. -1.
          1    1    1    2  503    0 -0.33370079691E+02 -0.20487007424E+02 -0.21034549535E+04  0.21038193889E+04  0.00000000000E+00 0. -1.
<mgrwt>
<rscale>  0 0.93380289E+02</rscale>
<asrwt>0</asrwt>
<pdfrwt beam="1">  1        2 0.40848225E+00 0.22268950E+03</pdfrwt>
<pdfrwt beam="2">  1        2 0.38321670E+00 0.39157115E+02</pdfrwt>
<totfact> 0.27956434E+00</totfact>
</mgrwt>
</event>
<event>
13    1  0.2742815E-008  0.1041929E+03  0.7546771E-02  0.1309813E+00
          2   -1    0    0  503    0  0.00000000000E+00  0.00000000000E+00  0.49588776380E+04  0.49588776380E+04  0.00000000000E+00 0. -1.
          2   -1    0    0  502    0 -0.00000000000E+00 -0.00000000000E+00 -0.29428354163E+04  0.29428354163E+04  0.00000000000E+00 0. -1.
         25    2    1    2    0    0  0.34105253185E+02 -0.77218368488E+02 -0.24273064619E+03  0.28577797278E+03  0.12500015359E+03 0.  0.
         24    2    1    2    0    0 -0.82223503970E+03  0.17446385577E+04  0.82172801446E+03  0.20980820269E+04  0.82928307903E+02 0.  0.
         24    2    1    2    0    0  0.88431467942E+03 -0.16266327154E+04  0.86584686280E+03  0.20461607983E+04  0.95586503890E+02 0.  0.
        -11    1    4    4    0    0 -0.17914636151E+03  0.46409073316E+03  0.20550421713E+03  0.53824307772E+03  0.00000000000E+00 0.  1.
         12    1    4    4    0    0 -0.64308867819E+03  0.12805478246E+04  0.61622379733E+03  0.15598389492E+04  0.00000000000E+00 0. -1.
        -13    1    5    5    0    0  0.66344290249E+03 -0.12707885572E+04  0.63444659617E+03  0.15676678619E+04  0.00000000000E+00 0.  1.
         14    1    5    5    0    0  0.22087177693E+03 -0.35584415819E+03  0.23140026663E+03  0.47849293638E+03  0.00000000000E+00 0. -1.
          5    1    3    3  501    0  0.76879773593E+02 -0.69537356403E+02 -0.19609715271E+03  0.22186060224E+03  0.47000000000E+01 0. -1.
         -5    1    3    3    0  501 -0.42774520408E+02 -0.76810120854E+01 -0.46633493480E+02  0.63917370542E+02  0.47000000000E+01 0. -1.
          1    1    1    2  502    0 -0.50341129897E+02  0.52803333755E+02 -0.14479849603E+04  0.14498216672E+04  0.00000000000E+00 0. -1.
          1    1    1    2  503    0 -0.45843763005E+02 -0.93590807604E+02  0.20191829510E+04  0.20218705892E+04  0.00000000000E+00 0. -1.
<mgrwt>
<rscale>  0 0.87185914E+02</rscale>
<asrwt>0</asrwt>
<pdfrwt beam="1">  1        2 0.72924671E+00 0.10419288E+03</pdfrwt>
<pdfrwt beam="2">  1        2 0.43276991E+00 0.72954927E+02</pdfrwt>
<totfact> 0.63933536E-02</totfact>
</mgrwt>
</event>
<event>
13    1  0.2742815E-008  0.9660532E+02  0.7546771E-02  0.1405651E+00
          2   -1    0    0  503    0  0.00000000000E+00  0.00000000000E+00  0.18739421159E+04  0.18739421159E+04  0.00000000000E+00 0. -1.
          2   -1    0    0  502    0 -0.00000000000E+00 -0.00000000000E+00 -0.70631408425E+03  0.70631408425E+03  0.00000000000E+00 0. -1.
         25    2    1    2    0    0  0.34850315032E+02 -0.19307593681E+03  0.28526490913E+02  0.23438770545E+03  0.12502389352E+03 0.  0.
         24    2    1    2    0    0 -0.36518222093E+02  0.48106543672E+02  0.56223293887E+02  0.11308322316E+03  0.77323583054E+02 0.  0.
         24    2    1    2    0    0  0.15715205075E+02  0.42668657035E+02  0.11195855587E+03  0.14529603279E+03  0.80676123771E+02 0.  0.
        -13    1    4    4    0    0  0.43824896329E+01  0.55717888440E+02  0.38473743111E+02  0.67852179159E+02  0.00000000000E+00 0.  1.
         14    1    4    4    0    0 -0.40900711726E+02 -0.76113447687E+01  0.17749550777E+02  0.45231044003E+02  0.00000000000E+00 0. -1.
        -13    1    5    5    0    0 -0.32643081757E+02  0.12399566579E+02  0.34422368055E+02  0.49032840633E+02  0.00000000000E+00 0.  1.
         14    1    5    5    0    0  0.48358286833E+02  0.30269090456E+02  0.77536187819E+02  0.96263192155E+02  0.00000000000E+00 0. -1.
          5    1    3    3  501    0  0.93401703123E+01 -0.19843115767E+03  0.44266241192E+02  0.20357738879E+03  0.47000000000E+01 0. -1.
         -5    1    3    3    0  501  0.25510144720E+02  0.53552208621E+01 -0.15739750279E+02  0.30810316664E+02  0.47000000000E+01 0. -1.
          1    1    1    2  502    0  0.30608231273E+02  0.17043385995E+02 -0.55621879079E+03  0.55732098835E+03  0.00000000000E+00 0. -1.
          1    1    1    2  503    0 -0.44655529288E+02  0.85257350107E+02  0.15271384818E+04  0.15301682504E+04  0.00000000000E+00 0. -1.
<mgrwt>
<rscale>  0 0.58175726E+02</rscale>
<asrwt>0</asrwt>
<pdfrwt beam="1">  1        2 0.27557972E+00 0.96605318E+02</pdfrwt>
<pdfrwt beam="2">  1        2 0.10386972E+00 0.35033424E+02</pdfrwt>
<totfact> 0.76442717E+01</totfact>
</mgrwt>
</event>
<event>
13    1  0.2742815E-008  0.1274760E+03  0.7546771E-02  0.1376168E+00
          2   -1    0    0  503    0  0.00000000000E+00  0.00000000000E+00  0.10438286214E+04  0.10438286214E+04  0.00000000000E+00 0. -1.
          2   -1    0    0  502    0 -0.00000000000E+00 -0.00000000000E+00 -0.38258513670E+04  0.38258513670E+04  0.00000000000E+00 0. -1.
         25    2    1    2    0    0 -0.16176756226E+02  0.51235529719E+02 -0.63551888020E+03  0.64991807274E+03  0.12498994851E+03 0.  0.
         24    2    1    2    0    0  0.97526323875E+02  0.18191598073E+03  0.18346295284E+03  0.28781147767E+03  0.81067772390E+02 0.  0.
         24    2    1    2    0    0  0.19082931342E+02 -0.21689460374E+03  0.20396421778E+03  0.30908610629E+03  0.80779895836E+02 0.  0.
        -11    1    4    4    0    0 -0.13031549204E+02  0.37302000703E+02  0.28013923032E+02  0.48435941353E+02  0.00000000000E+00 0.  1.
         12    1    4    4    0    0  0.11055787308E+03  0.14461398003E+03  0.15544902981E+03  0.23937553632E+03  0.00000000000E+00 0. -1.
        -11    1    5    5    0    0  0.19331368178E+02 -0.60361719125E+01  0.27361019902E+02  0.34040601891E+02  0.00000000000E+00 0.  1.
         12    1    5    5    0    0 -0.24843683669E+00 -0.21085843182E+03  0.17660319788E+03  0.27504550440E+03  0.00000000000E+00 0. -1.
          5    1    3    3  501    0  0.15791900682E+01  0.57276704818E+01 -0.55876627312E+03  0.55881762502E+03  0.47000000000E+01 0. -1.
         -5    1    3    3    0  501 -0.17755946294E+02  0.45507859238E+02 -0.76752607083E+02  0.91100447722E+02  0.47000000000E+01 0. -1.
          1    1    1    2  502    0  0.19669567895E+02  0.27286289011E+02 -0.30708104977E+04  0.30709947160E+04  0.00000000000E+00 0. -1.
          1    1    1    2  503    0 -0.12010206689E+03 -0.43543195727E+02  0.53687946159E+03  0.55186961562E+03  0.00000000000E+00 0. -1.
<mgrwt>
<rscale>  0 0.65481929E+02</rscale>
<asrwt>0</asrwt>
<pdfrwt beam="1">  1        2 0.15350421E+00 0.12747600E+03</pdfrwt>
<pdfrwt beam="2">  1        2 0.56262520E+00 0.33636787E+02</pdfrwt>
<totfact> 0.51670273E+00</totfact>
</mgrwt>
</event>
<event>
13    1  0.2742815E-008  0.1168722E+03  0.7546771E-02  0.1435859E+00
          2   -1    0    0  503    0  0.00000000000E+00  0.00000000000E+00  0.28696903155E+04  0.28696903155E+04  0.00000000000E+00 0. -1.
          2   -1    0    0  502    0 -0.00000000000E+00 -0.00000000000E+00 -0.91395271051E+03  0.91395271051E+03  0.00000000000E+00 0. -1.
         25    2    1    2    0    0  0.11073475947E+03  0.22961775053E+02 -0.35636010114E+03  0.39421237303E+03  0.12498577237E+03 0.  0.
         24    2    1    2    0    0 -0.44418400385E+00 -0.16117199954E+03 -0.30736121254E+02  0.18312827363E+03  0.81330466113E+02 0.  0.
         24    2    1    2    0    0 -0.30151671357E+02  0.11972524853E+02  0.31765891249E+03  0.32920517656E+03  0.80102427881E+02 0.  0.
        -11    1    4    4    0    0 -0.25290672201E+01 -0.14706516425E+03 -0.53291293474E+02  0.15644334654E+03  0.00000000000E+00 0.  1.
         12    1    4    4    0    0  0.20848832163E+01 -0.14106835292E+02  0.22555172220E+02  0.26684927091E+02  0.00000000000E+00 0. -1.
        -11    1    5    5    0    0 -0.54587024826E+02 -0.76009012162E+01  0.20195152510E+03  0.20933689467E+03  0.00000000000E+00 0.  1.
         12    1    5    5    0    0  0.24435353469E+02  0.19573426069E+02  0.11570738739E+03  0.11986828189E+03  0.00000000000E+00 0. -1.
          5    1    3    3  501    0  0.17239308739E+02  0.39712420261E+02 -0.26635517061E+02  0.51047143484E+02  0.47000000000E+01 0.  1.
         -5    1    3    3    0  501  0.93495450732E+02 -0.16750645207E+02 -0.32972458408E+03  0.34316522954E+03  0.47000000000E+01 0.  1.
          1    1    1    2  502    0 -0.22658783808E+02  0.37083144866E+01 -0.42378188475E+03  0.42440341413E+03  0.00000000000E+00 0. -1.
          1    1    1    2  503    0 -0.57480120302E+02  0.12252938515E+03  0.24489567997E+04  0.24526937887E+04  0.00000000000E+00 0. -1.
<mgrwt>
<rscale>  0 0.51801672E+02</rscale>
<asrwt>0</asrwt>
<pdfrwt beam="1">  1        2 0.42201328E+00 0.11687223E+03</pdfrwt>
<pdfrwt beam="2">  1        2 0.13440481E+00 0.22960228E+02</pdfrwt>
<totfact> 0.18161884E+01</totfact>
</mgrwt>
</event>
<event>
13    1  0.2742815E-008  0.1175444E+03  0.7546771E-02  0.1347153E+00
          2   -1    0    0  503    0  0.00000000000E+00  0.00000000000E+00  0.10397337813E+04  0.10397337813E+04  0.00000000000E+00 0. -1.
          2   -1    0    0  502    0 -0.00000000000E+00 -0.00000000000E+00 -0.19134157040E+04  0.19134157040E+04  0.00000000000E+00 0. -1.
         25    2    1    2    0    0 -0.21591628959E+02  0.13481850460E+03 -0.34133771904E+03  0.38830206074E+03  0.12499929725E+03 0.  0.
         24    2    1    2    0    0  0.58763071281E+02 -0.22764109491E+02 -0.12965816152E+03  0.16467689088E+03  0.79598594919E+02 0.  0.
         24    2    1    2    0    0 -0.14149195829E+03  0.27075142691E+00  0.73299478363E+03  0.75080991464E+03  0.80088248423E+02 0.  0.
        -11    1    5    5    0    0 -0.11609546451E+02  0.52680441539E+01  0.99415798778E+01  0.16166906583E+02  0.00000000000E+00 0.  1.
         12    1    5    5    0    0 -0.12988241184E+03 -0.49972927270E+01  0.72305320375E+03  0.73464300806E+03  0.00000000000E+00 0. -1.
        -11    1    4    4    0    0  0.34842246050E+02  0.27002254766E+02 -0.74922240028E+02  0.86927820191E+02  0.00000000000E+00 0.  1.
         12    1    4    4    0    0  0.23920825231E+02 -0.49766364258E+02 -0.54735921494E+02  0.77749070689E+02  0.00000000000E+00 0. -1.
          5    1    3    3  501    0  0.40455156192E+02  0.14180980695E+02 -0.44856379444E+02  0.62224630596E+02  0.47000000000E+01 0.  1.
         -5    1    3    3    0  501 -0.62046785151E+02  0.12063752391E+03 -0.29648133959E+03  0.32607743014E+03  0.47000000000E+01 0.  1.
          1    1    1    2  502    0  0.95608675617E+02 -0.66624132785E+02 -0.13879519468E+04  0.13928353817E+04  0.00000000000E+00 0. -1.
          1    1    1    2  503    0  0.87118403555E+01 -0.45701013752E+02  0.25227112106E+03  0.25652523724E+03  0.00000000000E+00 0. -1.
<mgrwt>
<rscale>  0 0.73950188E+02</rscale>
<asrwt>0</asrwt>
<pdfrwt beam="1">  1        2 0.15290203E+00 0.46523960E+02</pdfrwt>
<pdfrwt beam="2">  1        2 0.28138466E+00 0.11754439E+03</pdfrwt>
<totfact> 0.44826080E+01</totfact>
</mgrwt>
</event>
<event>
13    1  0.2742815E-008  0.9450256E+02  0.7546771E-02  0.1377667E+00
          2   -1    0    0  502    0  0.00000000000E+00  0.00000000000E+00  0.25159716523E+04  0.25159716523E+04  0.00000000000E+00 0. -1.
          2   -1    0    0  503    0 -0.00000000000E+00 -0.00000000000E+00 -0.26463763716E+03  0.26463763716E+03  0.00000000000E+00 0. -1.
         25    2    1    2    0    0 -0.86160495433E+02  0.48320183281E+01 -0.51282504089E+02  0.16031915828E+03  0.12500143164E+03 0.  0.
         24    2    1    2    0    0  0.18364821450E+01  0.28654830584E+02  0.57500304123E+02  0.10316609043E+03  0.80699970625E+02 0.  0.
         24    2    1    2    0    0 -0.45084776851E+02  0.15567537245E+01  0.14973480860E+03  0.17257688967E+03  0.72987734287E+02 0.  0.
        -11    1    4    4    0    0  0.51161913096E+01  0.61651554632E+01  0.74408723570E+02  0.74838778042E+02  0.00000000000E+00 0.  1.
         12    1    4    4    0    0 -0.32797091647E+01  0.22489675121E+02 -0.16908419447E+02  0.28327312393E+02  0.00000000000E+00 0. -1.
        -13    1    5    5    0    0 -0.36734728356E+02  0.35176251476E+02  0.81866429332E+02  0.96379049523E+02  0.00000000000E+00 0.  1.
         14    1    5    5    0    0 -0.83500484953E+01 -0.33619497752E+02  0.67868379266E+02  0.76197840147E+02  0.00000000000E+00 0. -1.
          5    1    3    3  501    0  0.31428366266E+02  0.56517291317E+01 -0.86371681491E+00  0.32288082245E+02  0.47000000000E+01 0.  1.
         -5    1    3    3    0  501 -0.11758886170E+03 -0.81971080361E+00 -0.50418787274E+02  0.12803107604E+03  0.47000000000E+01 0.  1.
          1    1    1    2  502    0  0.85057795690E+02 -0.41506824975E+02  0.22148896823E+04  0.22169109025E+04  0.00000000000E+00 0. -1.
          1    1    1    2  503    0  0.44350994449E+02  0.64632223384E+01 -0.11950827580E+03  0.12763624852E+03  0.00000000000E+00 0. -1.
<mgrwt>
<rscale>  0 0.65081133E+02</rscale>
<asrwt>0</asrwt>
<pdfrwt beam="1">  1        2 0.36999582E+00 0.94502563E+02</pdfrwt>
<pdfrwt beam="2">  1        2 0.38917301E-01 0.44819460E+02</pdfrwt>
<totfact> 0.10300184E+02</totfact>
</mgrwt>
</event>
<event>
13    1  0.2742815E-008  0.1154201E+03  0.7546771E-02  0.1259443E+00
          2   -1    0    0  502    0  0.00000000000E+00  0.00000000000E+00  0.13500560164E+04  0.13500560164E+04  0.00000000000E+00 0. -1.
          2   -1    0    0  503    0 -0.00000000000E+00 -0.00000000000E+00 -0.24368197033E+04  0.24368197033E+04  0.00000000000E+00 0. -1.
         25    2    1    2    0    0 -0.19563026953E+03 -0.12261982591E+03 -0.97666595259E+03  0.10113392792E+04  0.12499572229E+03 0.  0.
         24    2    1    2    0    0 -0.11549111754E+02  0.12272536368E+02 -0.69287184850E+02  0.10710563874E+03  0.79918125198E+02 0.  0.
         24    2    1    2    0    0 -0.40745750763E+02 -0.33102213818E+02  0.56764902668E+02  0.11154109586E+03  0.80393961992E+02 0.  0.
        -11    1    5    5    0    0 -0.61412521094E+02 -0.67737024295E+01  0.43379856009E+02  0.75492997682E+02  0.00000000000E+00 0.  1.
         12    1    5    5    0    0  0.20666770330E+02 -0.26328511389E+02  0.13385046659E+02  0.36048098173E+02  0.00000000000E+00 0. -1.
        -11    1    4    4    0    0 -0.18685091350E+02 -0.30034460149E+02 -0.46804149132E+02  0.58667110131E+02  0.00000000000E+00 0.  1.
         12    1    4    4    0    0  0.71359795957E+01  0.42306996517E+02 -0.22483035719E+02  0.48438528613E+02  0.00000000000E+00 0. -1.
          5    1    3    3  501    0 -0.20887007820E+03 -0.94731523091E+02 -0.89429562483E+03  0.92324835533E+03  0.47000000000E+01 0.  1.
         -5    1    3    3    0  501  0.13239808673E+02 -0.27888302823E+02 -0.82370327765E+02  0.88090923846E+02  0.47000000000E+01 0.  1.
          1    1    1    2  502    0  0.14703712757E+03  0.78407726241E+02  0.12212734804E+04  0.12325893892E+04  0.00000000000E+00 0. -1.
          1    1    1    2  503    0  0.10088800447E+03  0.65041777124E+02 -0.13188489325E+04  0.13243003168E+04  0.00000000000E+00 0. -1.
<mgrwt>
<rscale>  0 0.11061076E+03</rscale>
<asrwt>0</asrwt>
<pdfrwt beam="1">  1        2 0.19853765E+00 0.10600185E+03</pdfrwt>
<pdfrwt beam="2">  1        2 0.35835584E+00 0.11542007E+03</pdfrwt>
<totfact> 0.16300985E+01</totfact>
</mgrwt>
</event>
<event>
13    1  0.2742815E-008  0.5040873E+02  0.7546771E-02  0.1481176E+00
          2   -1    0    0  502    0  0.00000000000E+00  0.00000000000E+00  0.19737500723E+04  0.19737500723E+04  0.00000000000E+00 0. -1.
          2   -1    0    0  503    0 -0.00000000000E+00 -0.00000000000E+00 -0.37937292129E+04  0.37937292129E+04  0.00000000000E+00 0. -1.
         25    2    1    2    0    0 -0.31395649789E+03 -0.14965987042E+03 -0.60432063270E+02  0.37449192366E+03  0.12500162894E+03 0.  0.
         24    2    1    2    0    0  0.44077045928E+03 -0.70241093239E+03 -0.53836266304E+03  0.99035242571E+03  0.57479165236E+02 0.  0.
         24    2    1    2    0    0 -0.86923564241E+02  0.85779406570E+03  0.12060453123E+04  0.14848224254E+04  0.82377026570E+02 0.  0.
        -11    1    5    5    0    0 -0.41225664153E+01  0.44268725574E+03  0.60405931923E+03  0.74891699346E+03  0.00000000000E+00 0.  1.
         12    1    5    5    0    0 -0.82800997826E+02  0.41510680996E+03  0.60198599303E+03  0.73590543191E+03  0.00000000000E+00 0. -1.
        -11    1    4    4    0    0  0.20451526413E+03 -0.27273417236E+03 -0.22117272308E+03  0.40635919514E+03  0.00000000000E+00 0.  1.
         12    1    4    4    0    0  0.23625519514E+03 -0.42967676003E+03 -0.31718993997E+03  0.58399323057E+03  0.00000000000E+00 0. -1.
          5    1    3    3  501    0 -0.30407977765E+03 -0.15369672333E+03 -0.81548622077E+02  0.35037046351E+03  0.47000000000E+01 0.  1.
         -5    1    3    3    0  501 -0.98767202339E+01  0.40368529086E+01  0.21116558807E+02  0.24121460151E+02  0.47000000000E+01 0.  1.
          1    1    1    2  502    0 -0.12072474890E+02  0.36318748855E+02  0.24355916423E+03  0.24654789119E+03  0.00000000000E+00 0. -1.
          1    1    1    2  503    0 -0.27817922259E+02 -0.42042011738E+02 -0.26707888907E+04  0.26712646193E+04  0.00000000000E+00 0. -1.
<mgrwt>
<rscale>  0 0.43923523E+02</rscale>
<asrwt>0</asrwt>
<pdfrwt beam="1">  1        2 0.29025736E+00 0.38272656E+02</pdfrwt>
<pdfrwt beam="2">  1        2 0.55790136E+00 0.50408727E+02</pdfrwt>
<totfact> 0.18879360E+00</totfact>
</mgrwt>
</event>
<event>
13    1  0.2742815E-008  0.2709487E+03  0.7546771E-02  0.1191105E+00
          2   -1    0    0  502    0  0.00000000000E+00  0.00000000000E+00  0.38932388007E+04  0.38932388007E+04  0.00000000000E+00 0. -1.
          2   -1    0    0  503    0 -0.00000000000E+00 -0.00000000000E+00 -0.65817914825E+03  0.65817914825E+03  0.00000000000E+00 0. -1.
         25    2    1    2    0    0  0.22809049273E+03  0.41467941659E+02  0.17586111234E+03  0.31670147392E+03  0.12501131825E+03 0.  0.
         24    2    1    2    0    0  0.28373189915E+02  0.13441426660E+03  0.16943314335E+03  0.23293965172E+03  0.81737741010E+02 0.  0.
         24    2    1    2    0    0  0.51469112808E+02 -0.30606331885E+02  0.66811952585E+02  0.11980234940E+03  0.79391112776E+02 0.  0.
        -11    1    4    4    0    0 -0.27656447300E+02  0.61408501649E+02  0.80559252251E+02  0.10500322031E+03  0.00000000000E+00 0.  1.
         12    1    4    4    0    0  0.56029637215E+02  0.73005764954E+02  0.88873891098E+02  0.12793643141E+03  0.00000000000E+00 0. -1.
        -13    1    5    5    0    0 -0.18786451901E+01 -0.39953723996E+02  0.98312720383E+01  0.41188387670E+02  0.00000000000E+00 0.  1.
         14    1    5    5    0    0  0.53347757998E+02  0.93473921113E+01  0.56980680547E+02  0.78613961726E+02  0.00000000000E+00 0. -1.
          5    1    3    3  501    0 -0.15269112116E+02  0.95038570192E+00  0.58087797770E+01  0.17025890294E+02  0.47000000000E+01 0. -1.
         -5    1    3    3    0  501  0.24335960485E+03  0.40517555957E+02  0.17005233257E+03  0.29967558363E+03  0.47000000000E+01 0. -1.
          1    1    1    2  502    0 -0.38136186107E+02 -0.83725475091E+02  0.33156268433E+04  0.33169030266E+04  0.00000000000E+00 0. -1.
          1    1    1    2  503    0 -0.26979660935E+03 -0.61550401286E+02 -0.49267339915E+03  0.56507144729E+03  0.00000000000E+00 0. -1.
<mgrwt>
<rscale>  0 0.15788526E+03</rscale>
<asrwt>0</asrwt>
<pdfrwt beam="1">  1        2 0.57253511E+00 0.92001760E+02</pdfrwt>
<pdfrwt beam="2">  1        2 0.96791053E-01 0.27094867E+03</pdfrwt>
<totfact> 0.65605617E+00</totfact>
</mgrwt>
</event>
<event>
13    1  0.2742815E-008  0.1183575E+03  0.7546771E-02  0.1338078E+00
          2   -1    0    0  503    0  0.00000000000E+00  0.00000000000E+00  0.27147520365E+04  0.27147520365E+04  0.00000000000E+00 0. -1.
         -1   -1    0    0    0  501 -0.00000000000E+00 -0.00000000000E+00 -0.43282690050E+03  0.43282690050E+03  0.00000000000E+00 0.  1.
         25    2    1    2    0    0 -0.35569205160E+02  0.86174411796E+02 -0.21871938462E+03  0.26861421719E+03  0.12499692342E+03 0.  0.
         24    2    1    2    0    0 -0.58487975213E+02 -0.10694843828E+03  0.66288043122E+02  0.16011711577E+03  0.79903531878E+02 0.  0.
         24    2    1    2    0    0  0.38174140232E+02 -0.48195621378E+02  0.22391398842E+03  0.24522555034E+03  0.78854381142E+02 0.  0.
        -13    1    4    4    0    0 -0.49195116711E+02 -0.99452134780E+02  0.83714544262E+02  0.13899284709E+03  0.00000000000E+00 0.  1.
         14    1    4    4    0    0 -0.92928585020E+01 -0.74963034972E+01 -0.17426501141E+02  0.21124268680E+02  0.00000000000E+00 0. -1.
        -13    1    5    5    0    0  0.13443008091E+02  0.11027933309E+02  0.13189255199E+03  0.13303373652E+03  0.00000000000E+00 0.  1.
         14    1    5    5    0    0  0.24731132141E+02 -0.59223554687E+02  0.92021436430E+02  0.11219181383E+03  0.00000000000E+00 0. -1.
          5    1    3    3  502    0 -0.71792149275E+01  0.10197724024E+03 -0.91668872484E+02  0.13739057768E+03  0.47000000000E+01 0.  1.
         -5    1    3    3    0  502 -0.28389990232E+02 -0.15802828441E+02 -0.12705051213E+03  0.13122363951E+03  0.47000000000E+01 0.  1.
          1    1    1    2  503    0  0.10573174660E+03  0.65525787118E+02  0.23355733699E+04  0.23388834510E+04  0.00000000000E+00 0. -1.
         -2    1    1    2    0  501 -0.49848706462E+02  0.34438607412E+01 -0.12513088086E+03  0.13473860270E+03  0.00000000000E+00 0.  1.
<mgrwt>
<rscale>  0 0.76902750E+02</rscale>
<asrwt>0</asrwt>
<pdfrwt beam="1">  1        2 0.39922823E+00 0.11835753E+03</pdfrwt>
<pdfrwt beam="2">  1       -1 0.63651016E-01 0.49967527E+02</pdfrwt>
<totfact> 0.12250138E+01</totfact>
</mgrwt>
</event>
<event>
13    1  0.2742815E-008  0.4197362E+02  0.7546771E-02  0.1524698E+00
          2   -1    0    0  502    0  0.00000000000E+00  0.00000000000E+00  0.76665437644E+03  0.76665437644E+03  0.00000000000E+00 0. -1.
          2   -1    0    0  503    0 -0.00000000000E+00 -0.00000000000E+00 -0.18428638942E+04  0.18428638942E+04  0.00000000000E+00 0. -1.
         25    2    1    2    0    0 -0.48756083194E+02 -0.53110251263E+02 -0.47552531181E+03  0.49693872036E+03  0.12500366069E+03 0.  0.
         24    2    1    2    0    0  0.59964172311E+02  0.28859202870E+03 -0.33801962288E+03  0.45163732980E+03  0.53272424625E+02 0.  0.
         24    2    1    2    0    0 -0.55528202326E+02 -0.23523785123E+03 -0.28257729582E+03  0.37728844261E+03  0.63846792476E+02 0.  0.
        -11    1    5    5    0    0 -0.36259878192E+02 -0.58146583813E+02 -0.10775006102E+03  0.12769447767E+03  0.00000000000E+00 0.  1.
         12    1    5    5    0    0 -0.19268324134E+02 -0.17709126742E+03 -0.17482723480E+03  0.24959396495E+03  0.00000000000E+00 0. -1.
        -13    1    4    4    0    0 -0.79826817427E+01  0.72888662401E+02 -0.86509851242E+02  0.11340385653E+03  0.00000000000E+00 0.  1.
         14    1    4    4    0    0  0.67946854054E+02  0.21570336630E+03 -0.25150977164E+03  0.33823347327E+03  0.00000000000E+00 0. -1.
          5    1    3    3  501    0  0.27032094205E+02  0.21100463784E+02 -0.17006759700E+03  0.17355414498E+03  0.47000000000E+01 0.  1.
         -5    1    3    3    0  501 -0.75788177399E+02 -0.74210715047E+02 -0.30545771481E+03  0.32338457539E+03  0.47000000000E+01 0.  1.
          1    1    1    2  502    0  0.15522056754E+02  0.30387327598E+02  0.65063632559E+03  0.65153046905E+03  0.00000000000E+00 0. -1.
          1    1    1    2  503    0  0.28798056455E+02 -0.30631253802E+02 -0.63072361284E+03  0.63212330883E+03  0.00000000000E+00 0. -1.
<mgrwt>
<rscale>  0 0.37844841E+02</rscale>
<asrwt>0</asrwt>
<pdfrwt beam="1">  1        2 0.11274329E+00 0.34122191E+02</pdfrwt>
<pdfrwt beam="2">  1        2 0.27100940E+00 0.41973624E+02</pdfrwt>
<totfact> 0.78605329E+01</totfact>
</mgrwt>
</event>
<event>
13    1  0.2742815E-008  0.9396318E+02  0.7546771E-02  0.1300347E+00
         -1   -1    0    0    0  501 -0.00000000000E+00  0.00000000000E+00  0.44407555891E+03  0.44407555891E+03  0.00000000000E+00 0.  1.
          2   -1    0    0  503    0  0.00000000000E+00 -0.00000000000E+00 -0.45517354835E+04  0.45517354835E+04  0.00000000000E+00 0. -1.
         25    2    1    2    0    0 -0.36532931975E+02 -0.12839007477E+03  0.11820447328E+03  0.21774763537E+03  0.12499227491E+03 0.  0.
         24    2    1    2    0    0  0.40810120086E+02 -0.53950763715E+02 -0.27096497697E+03  0.29121770220E+03  0.82520182520E+02 0.  0.
         24    2    1    2    0    0  0.41458241225E+02  0.37336503679E+02 -0.84584546029E+03  0.85153493850E+03  0.80897518566E+02 0.  0.
        -11    1    4    4    0    0  0.36919155665E+01  0.61586244797E+01  0.33703032652E+01  0.79320766594E+01  0.00000000000E+00 0.  1.
         12    1    4    4    0    0  0.37118204519E+02 -0.60109388195E+02 -0.27433528023E+03  0.28328562554E+03  0.00000000000E+00 0. -1.
        -11    1    5    5    0    0  0.45551372614E+02 -0.81685721154E+01 -0.57533546142E+03  0.57719368178E+03  0.00000000000E+00 0.  1.
         12    1    5    5    0    0 -0.40931313893E+01  0.45505075795E+02 -0.27050999887E+03  0.27434125672E+03  0.00000000000E+00 0. -1.
          5    1    3    3  502    0 -0.25075890332E+02 -0.15278205631E+03  0.10659143719E+03  0.18802920382E+03  0.47000000000E+01 0. -1.
         -5    1    3    3    0  502 -0.11457041643E+02  0.24391981538E+02  0.11613036088E+02  0.29718431549E+02  0.47000000000E+01 0. -1.
          1    1    1    2  503    0  0.25727057443E+02  0.84377060459E+02 -0.33632413091E+04  0.33643979362E+04  0.00000000000E+00 0. -1.
         -2    1    1    2    0  501 -0.71462486778E+02  0.60627274351E+02  0.25418734849E+03  0.27091283016E+03  0.00000000000E+00 0.  1.
<mgrwt>
<rscale>  0 0.91042224E+02</rscale>
<asrwt>0</asrwt>
<pdfrwt beam="2">  1        2 0.66937286E+00 0.88212073E+02</pdfrwt>
<pdfrwt beam="1">  1       -1 0.65305230E-01 0.93963177E+02</pdfrwt>
<totfact> 0.86916604E-01</totfact>
</mgrwt>
</event>
<event>
13    1  0.2742815E-008  0.1030807E+03  0.7546771E-02  0.1366473E+00
          2   -1    0    0  503    0  0.00000000000E+00  0.00000000000E+00  0.46479396608E+04  0.46479396608E+04  0.00000000000E+00 0. -1.
          2   -1    0    0  502    0 -0.00000000000E+00 -0.00000000000E+00 -0.46943036180E+04  0.46943036180E+04  0.00000000000E+00 0. -1.
         25    2    1    2    0    0 -0.14537761030E+03  0.41438410790E+02 -0.20178492296E+03  0.28141397489E+03  0.12499951467E+03 0.  0.
         24    2    1    2    0    0  0.14071799631E+03  0.17970567022E+02  0.68530772714E+03  0.70467089655E+03  0.82400823998E+02 0.  0.
         24    2    1    2    0    0 -0.43155089797E+02  0.41951476121E+02  0.52620360874E+03  0.53592908346E+03  0.81899063041E+02 0.  0.
        -11    1    5    5    0    0  0.15783256608E+02  0.39544279267E+02  0.21082709141E+03  0.21508352722E+03  0.00000000000E+00 0.  1.
         12    1    5    5    0    0 -0.58938346405E+02  0.24071968538E+01  0.31537651733E+03  0.32084555624E+03  0.00000000000E+00 0. -1.
        -13    1    4    4    0    0  0.84422053047E+01 -0.21469921006E+01  0.27669958924E+01  0.91398398102E+01  0.00000000000E+00 0.  1.
         14    1    4    4    0    0  0.13227579101E+03  0.20117559123E+02  0.68254073125E+03  0.69553105674E+03  0.00000000000E+00 0. -1.
          5    1    3    3  501    0 -0.94432029735E+02  0.80402109956E+02 -0.16769447509E+03  0.20862750178E+03  0.47000000000E+01 0.  1.
         -5    1    3    3    0  501 -0.50945580566E+02 -0.38963699167E+02 -0.34090447871E+02  0.72786473111E+02  0.47000000000E+01 0.  1.
          1    1    1    2  502    0 -0.37185816455E+02  0.25459174817E+02 -0.44363224090E+04  0.44365513038E+04  0.00000000000E+00 0. -1.
          1    1    1    2  503    0  0.85000520242E+02 -0.12681962875E+03  0.33802320389E+04  0.33836780200E+04  0.00000000000E+00 0. -1.
<mgrwt>
<rscale>  0 0.68157501E+02</rscale>
<asrwt>0</asrwt>
<pdfrwt beam="1">  1        2 0.68352054E+00 0.10308067E+03</pdfrwt>
<pdfrwt beam="2">  1        2 0.69033876E+00 0.45066113E+02</pdfrwt>
<totfact> 0.10233049E-02</totfact>
</mgrwt>
</event>
<event>
13    1  0.2742815E-008  0.1249441E+03  0.7546771E-02  0.1238948E+00
          2   -1    0    0  503    0  0.00000000000E+00  0.00000000000E+00  0.42588390981E+04  0.42588390981E+04  0.00000000000E+00 0. -1.
          2   -1    0    0  502    0 -0.00000000000E+00 -0.00000000000E+00 -0.42459545202E+04  0.42459545202E+04  0.00000000000E+00 0. -1.
         25    2    1    2    0    0  0.99849530911E+02 -0.49444540647E+03 -0.94799588667E+02  0.52825838914E+03  0.12499509940E+03 0.  0.
         24    2    1    2    0    0 -0.29304359685E+03  0.16317216619E+04  0.12214340258E+04  0.20609255692E+04  0.84397812334E+02 0.  0.
         24    2    1    2    0    0  0.25086985513E+03 -0.11233755708E+04  0.14181146065E+04  0.18282362266E+04  0.80562433542E+02 0.  0.
        -11    1    5    5    0    0  0.12791772755E+03 -0.62165073219E+03  0.72026247344E+03  0.95999510858E+03  0.00000000000E+00 0.  1.
         12    1    5    5    0    0  0.12295212759E+03 -0.50172483863E+03  0.69785213307E+03  0.86824111801E+03  0.00000000000E+00 0. -1.
        -13    1    4    4    0    0 -0.20494903606E+03  0.10659433211E+04  0.84620043821E+03  0.13763336996E+04  0.00000000000E+00 0.  1.
         14    1    4    4    0    0 -0.88094560786E+02  0.56577834080E+03  0.37523358764E+03  0.68459186955E+03  0.00000000000E+00 0. -1.
          5    1    3    3  501    0  0.10491602383E+03 -0.21774220558E+03 -0.61710145467E+02  0.24949804048E+03  0.47000000000E+01 0. -1.
         -5    1    3    3    0  501 -0.50664929172E+01 -0.27670320089E+03 -0.33089443201E+02  0.27876034866E+03  0.47000000000E+01 0. -1.
          1    1    1    2  502    0 -0.10656552562E+02 -0.12452496228E+03 -0.33037860139E+04  0.33061491276E+04  0.00000000000E+00 0. -1.
          1    1    1    2  503    0 -0.47019236630E+02  0.11062427768E+03  0.77192154817E+03  0.78122430579E+03  0.00000000000E+00 0. -1.
<mgrwt>
<rscale>  0 0.12255014E+03</rscale>
<asrwt>0</asrwt>
<pdfrwt beam="1">  1        2 0.62629987E+00 0.12020208E+03</pdfrwt>
<pdfrwt beam="2">  1        2 0.62440507E+00 0.12494407E+03</pdfrwt>
<totfact> 0.34593689E-02</totfact>
</mgrwt>
</event>
<event>
13    1  0.2742815E-008  0.1140774E+03  0.7546771E-02  0.1488173E+00
          2   -1    0    0  502    0  0.00000000000E+00  0.00000000000E+00  0.10152221415E+04  0.10152221415E+04  0.00000000000E+00 0. -1.
          2   -1    0    0  503    0 -0.00000000000E+00 -0.00000000000E+00 -0.13702499802E+04  0.13702499802E+04  0.00000000000E+00 0. -1.
         25    2    1    2    0    0  0.14352427071E+03  0.80025993198E+02 -0.71707949964E+03  0.74621105487E+03  0.12499821496E+03 0.  0.
         24    2    1    2    0    0 -0.21913151486E+02  0.41463789780E+01  0.20341522357E+02  0.85959180762E+02  0.80484933738E+02 0.  0.
         24    2    1    2    0    0  0.33610748258E+01 -0.17639156098E+02  0.58073458141E+02  0.10223310069E+03  0.82198805860E+02 0.  0.
        -11    1    4    4    0    0 -0.30955183849E+02  0.29571721902E+02  0.34957684608E+02  0.55269791537E+02  0.00000000000E+00 0.  1.
         12    1    4    4    0    0  0.90420323628E+01 -0.25425342924E+02 -0.14616162251E+02  0.30689389225E+02  0.00000000000E+00 0. -1.
        -13    1    5    5    0    0  0.15458940012E+02  0.30263254952E+02  0.17076405538E+02  0.38032184432E+02  0.00000000000E+00 0.  1.
         14    1    5    5    0    0 -0.12097865187E+02 -0.47902411050E+02  0.40997052604E+02  0.64200916260E+02  0.00000000000E+00 0. -1.
          5    1    3    3  501    0  0.13181001572E+03  0.12988990504E+02 -0.55000192460E+03  0.56574446633E+03  0.47000000000E+01 0. -1.
         -5    1    3    3    0  501  0.11714254989E+02  0.67037002694E+02 -0.16707757504E+03  0.18046658854E+03  0.47000000000E+01 0. -1.
          1    1    1    2  502    0 -0.11557713230E+03 -0.79609698040E+02  0.86156288863E+03  0.87291831725E+03  0.00000000000E+00 0. -1.
          1    1    1    2  503    0 -0.93950617508E+01  0.13076481961E+02 -0.57792620826E+03  0.57815046810E+03  0.00000000000E+00 0. -1.
<mgrwt>
<rscale>  0 0.42858236E+02</rscale>
<asrwt>0</asrwt>
<pdfrwt beam="1">  1        2 0.14929737E+00 0.11407737E+03</pdfrwt>
<pdfrwt beam="2">  1        2 0.20150735E+00 0.16101601E+02</pdfrwt>
<totfact> 0.95242240E+01</totfact>
</mgrwt>
</event>
<event>
13    1  0.2742815E-008  0.1050409E+03  0.7546771E-02  0.1279836E+00
          2   -1    0    0  502    0  0.00000000000E+00  0.00000000000E+00  0.11365290205E+04  0.11365290205E+04  0.00000000000E+00 0. -1.
          2   -1    0    0  503    0 -0.00000000000E+00 -0.00000000000E+00 -0.12293471869E+04  0.12293471869E+04  0.00000000000E+00 0. -1.
         25    2    1    2    0    0 -0.15924780142E+02  0.10976863798E+03 -0.55041043602E+03  0.57522121234E+03  0.12500017012E+03 0.  0.
         24    2    1    2    0    0 -0.80951281229E+02 -0.91014601049E+02 -0.51274797035E+02  0.15480861179E+03  0.80621547588E+02 0.  0.
         24    2    1    2    0    0  0.16831189559E+03 -0.11347238605E+03  0.29694901088E+03  0.37563979422E+03  0.10826663083E+03 0.  0.
        -11    1    4    4    0    0 -0.31354584739E+02 -0.61892729214E+02 -0.65657082425E+02  0.95523151048E+02  0.00000000000E+00 0.  1.
         12    1    4    4    0    0 -0.49596696489E+02 -0.29121871835E+02  0.14382285389E+02  0.59285460738E+02  0.00000000000E+00 0. -1.
        -13    1    5    5    0    0  0.59548379638E+01 -0.50332421219E+02  0.10395916515E+03  0.11565604497E+03  0.00000000000E+00 0.  1.
         14    1    5    5    0    0  0.16235705762E+03 -0.63139964828E+02  0.19298984573E+03  0.25998374925E+03  0.00000000000E+00 0. -1.
          5    1    3    3  501    0  0.42771073770E+02  0.25529975353E+02 -0.30625537109E+03  0.31031530210E+03  0.47000000000E+01 0.  1.
         -5    1    3    3    0  501 -0.58695853911E+02  0.84238662628E+02 -0.24415506493E+03  0.26490591024E+03  0.47000000000E+01 0.  1.
          1    1    1    2  502    0  0.23869530106E+02  0.10245137543E+03  0.72788866873E+03  0.73545085006E+03  0.00000000000E+00 0. -1.
          1    1    1    2  503    0 -0.95305364324E+02 -0.77330263113E+01 -0.51597061294E+03  0.52475573898E+03  0.00000000000E+00 0. -1.
<mgrwt>
<rscale>  0 0.10021905E+03</rscale>
<asrwt>0</asrwt>
<pdfrwt beam="1">  1        2 0.16713662E+00 0.10504087E+03</pdfrwt>
<pdfrwt beam="2">  1        2 0.18078635E+00 0.95618576E+02</pdfrwt>
<totfact> 0.84377403E+01</totfact>
</mgrwt>
</event>
<event>
13    1  0.2742815E-008  0.1081042E+03  0.7546771E-02  0.1385099E+00
          2   -1    0    0  503    0  0.00000000000E+00  0.00000000000E+00  0.27315959800E+03  0.27315959800E+03  0.00000000000E+00 0. -1.
          2   -1    0    0  502    0 -0.00000000000E+00 -0.00000000000E+00 -0.27713288907E+04  0.27713288907E+04  0.00000000000E+00 0. -1.
         25    2    1    2    0    0 -0.17130078055E+03 -0.15791232565E+02 -0.13563945016E+04  0.13729617790E+04  0.12499872878E+03 0.  0.
         24    2    1    2    0    0  0.70269656590E+02 -0.37361431096E+01 -0.11631180574E+03  0.15771707371E+03  0.79965341143E+02 0.  0.
         24    2    1    2    0    0 -0.70295089086E+01 -0.12881902800E+02 -0.77871801533E+02  0.11268892650E+03  0.80121278482E+02 0.  0.
        -11    1    4    4    0    0  0.69954051918E+02 -0.28393906816E+02 -0.10784410380E+03  0.13164396701E+03  0.00000000000E+00 0.  1.
         12    1    4    4    0    0  0.31560467156E+00  0.24657763707E+02 -0.84677019356E+01  0.26073106708E+02  0.00000000000E+00 0. -1.
        -11    1    5    5    0    0  0.47894414698E+00  0.25054777759E+02 -0.68439004056E+02  0.72882566861E+02  0.00000000000E+00 0.  1.
         12    1    5    5    0    0 -0.75084530556E+01 -0.37936680559E+02 -0.94327974765E+01  0.39806359635E+02  0.00000000000E+00 0. -1.
          5    1    3    3  501    0 -0.34471884806E+02  0.44815805191E+02 -0.53807184494E+03  0.54105468074E+03  0.47000000000E+01 0.  1.
         -5    1    3    3    0  501 -0.13682889575E+03 -0.60607037757E+02 -0.81832265669E+03  0.83190709829E+03  0.47000000000E+01 0.  1.
          1    1    1    2  502    0 -0.36575487215E+02 -0.47341999380E+01 -0.11494439666E+04  0.11500354826E+04  0.00000000000E+00 0. -1.
          1    1    1    2  503    0  0.14463612009E+03  0.37143478413E+02  0.20185278280E+03  0.25108522686E+03  0.00000000000E+00 0. -1.
<mgrwt>
<rscale>  0 0.63142276E+02</rscale>
<asrwt>0</asrwt>
<pdfrwt beam="1">  1        2 0.40170530E-01 0.10810417E+03</pdfrwt>
<pdfrwt beam="2">  1        2 0.40754836E+00 0.36880603E+02</pdfrwt>
<totfact> 0.86734297E+01</totfact>
</mgrwt>
</event>
<event>
13    1  0.2742815E-008  0.1771738E+03  0.7546771E-02  0.1284003E+00
          2   -1    0    0  502    0  0.00000000000E+00  0.00000000000E+00  0.23447716323E+04  0.23447716323E+04  0.00000000000E+00 0. -1.
          2   -1    0    0  503    0 -0.00000000000E+00 -0.00000000000E+00 -0.12221563111E+04  0.12221563111E+04  0.00000000000E+00 0. -1.
         25    2    1    2    0    0 -0.78944273348E+02 -0.13028290094E+03 -0.57576672779E+03  0.60855309988E+03  0.12499487179E+03 0.  0.
         24    2    1    2    0    0 -0.67675622019E+02 -0.12466484927E+03 -0.14348085473E+03  0.21739921172E+03  0.80958922433E+02 0.  0.
         24    2    1    2    0    0  0.69833513071E+02  0.15424999670E+03  0.66963797096E+02  0.20014236936E+03  0.83084516375E+02 0.  0.
        -11    1    5    5    0    0  0.83112883667E+02  0.11234864434E+03  0.69572222854E+02  0.15610978031E+03  0.00000000000E+00 0.  1.
         12    1    5    5    0    0 -0.13279370596E+02  0.41901352365E+02 -0.26084257588E+01  0.44032589050E+02  0.00000000000E+00 0. -1.
        -13    1    4    4    0    0 -0.80532904423E+02 -0.12594135451E+03 -0.12507772610E+03  0.19491334238E+03  0.00000000000E+00 0.  1.
         14    1    4    4    0    0  0.12857282404E+02  0.12765052412E+01 -0.18403128632E+02  0.22485869338E+02  0.00000000000E+00 0. -1.
          5    1    3    3  501    0 -0.44123455427E+02 -0.10973000604E+03 -0.21440942982E+03  0.24491028386E+03  0.47000000000E+01 0.  1.
         -5    1    3    3    0  501 -0.34820817921E+02 -0.20552894904E+02 -0.36135729796E+03  0.36364281602E+03  0.47000000000E+01 0.  1.
          1    1    1    2  502    0  0.87800269193E+02  0.15406500193E+03  0.21522627906E+04  0.21595555172E+04  0.00000000000E+00 0. -1.
          1    1    1    2  503    0 -0.11013886897E+02 -0.53367248420E+02 -0.37736368405E+03  0.38127774516E+03  0.00000000000E+00 0. -1.
<mgrwt>
<rscale>  0 0.98257530E+02</rscale>
<asrwt>0</asrwt>
<pdfrwt beam="1">  1        2 0.34481936E+00 0.17717384E+03</pdfrwt>
<pdfrwt beam="2">  1        2 0.17972887E+00 0.54491916E+02</pdfrwt>
<totfact> 0.20922895E+01</totfact>
</mgrwt>
</event>
<event>
13    1  0.2742815E-008  0.1184675E+03  0.7546771E-02  0.1533901E+00
          2   -1    0    0  503    0  0.00000000000E+00  0.00000000000E+00  0.13029281851E+04  0.13029281851E+04  0.00000000000E+00 0. -1.
          2   -1    0    0  502    0 -0.00000000000E+00 -0.00000000000E+00 -0.12542909551E+04  0.12542909551E+04  0.00000000000E+00 0. -1.
         25    2    1    2    0    0  0.64371623688E+02  0.17687262624E+02 -0.41821317841E+03  0.44156919677E+03  0.12499819097E+03 0.  0.
         24    2    1    2    0    0 -0.90758979893E+01  0.19982362305E+02 -0.16141696947E+02  0.77272270560E+02  0.72310322151E+02 0.  0.
         24    2    1    2    0    0  0.60622846951E+02 -0.32301449328E+02 -0.83072579294E+01  0.10587364871E+03  0.80135546150E+02 0.  0.
        -13    1    4    4    0    0  0.23603290368E+02 -0.13819396805E+02 -0.12626934055E+02  0.30125247018E+02  0.00000000000E+00 0.  1.
         14    1    4    4    0    0 -0.32679188357E+02  0.33801759110E+02 -0.35147628919E+01  0.47147023542E+02  0.00000000000E+00 0. -1.
        -13    1    5    5    0    0  0.21222653529E+02  0.24432277893E+02 -0.16482977043E+02  0.36318394211E+02  0.00000000000E+00 0.  1.
         14    1    5    5    0    0  0.39400193421E+02 -0.56733727221E+02  0.81757191136E+01  0.69555254504E+02  0.00000000000E+00 0. -1.
          5    1    3    3  501    0 -0.21427284770E+01  0.49387442541E+02 -0.28473055884E+03  0.28902818531E+03  0.47000000000E+01 0. -1.
         -5    1    3    3    0  501  0.66514352165E+02 -0.31700179917E+02 -0.13348261957E+03  0.15254101147E+03  0.47000000000E+01 0. -1.
          1    1    1    2  502    0  0.27866698007E+01 -0.11030269450E+02 -0.71764374037E+03  0.71773391342E+03  0.00000000000E+00 0. -1.
          1    1    1    2  503    0 -0.11870524245E+03  0.56620938492E+01  0.12089431037E+04  0.12147701107E+04  0.00000000000E+00 0. -1.
<mgrwt>
<rscale>  0 0.36712187E+02</rscale>
<asrwt>0</asrwt>
<pdfrwt beam="1">  1        2 0.19160709E+00 0.11846746E+03</pdfrwt>
<pdfrwt beam="2">  1        2 0.18445455E+00 0.11376835E+02</pdfrwt>
<totfact> 0.76959649E+01</totfact>
</mgrwt>
</event>
<event>
13    1  0.2742815E-008  0.1636234E+03  0.7546771E-02  0.1269500E+00
          2   -1    0    0  502    0  0.00000000000E+00  0.00000000000E+00  0.17135256867E+04  0.17135256867E+04  0.00000000000E+00 0. -1.
          2   -1    0    0  503    0 -0.00000000000E+00 -0.00000000000E+00 -0.28251685342E+04  0.28251685342E+04  0.00000000000E+00 0. -1.
         25    2    1    2    0    0 -0.93940733785E+02 -0.19083736431E+03 -0.32136276889E+03  0.40514652287E+03  0.12500365869E+03 0.  0.
         24    2    1    2    0    0 -0.56508060328E+02  0.10064508830E+03 -0.21647940204E+00  0.14074376764E+03  0.80536740582E+02 0.  0.
         24    2    1    2    0    0  0.11279513601E+03 -0.10884760107E+03  0.55833031624E+03  0.58469099348E+03  0.74567237114E+02 0.  0.
        -11    1    4    4    0    0 -0.13044178627E+02 -0.11983231381E+02  0.86158837442E+01  0.19697255724E+02  0.00000000000E+00 0.  1.
         12    1    4    4    0    0 -0.43463881701E+02  0.11262831968E+03 -0.88323631462E+01  0.12104651191E+03  0.00000000000E+00 0. -1.
        -13    1    5    5    0    0 -0.94660626744E+01 -0.11007710753E+02  0.82191655784E+02  0.83464030091E+02  0.00000000000E+00 0.  1.
         14    1    5    5    0    0  0.12226119869E+03 -0.97839890314E+02  0.47613866046E+03  0.50122696339E+03  0.00000000000E+00 0. -1.
          5    1    3    3  501    0 -0.22162426065E+02 -0.97318235237E+02 -0.55544165059E+02  0.11432084810E+03  0.47000000000E+01 0. -1.
         -5    1    3    3    0  501 -0.71778307720E+02 -0.93519129069E+02 -0.26581860384E+03  0.29082567477E+03  0.47000000000E+01 0. -1.
          1    1    1    2  502    0 -0.27043733801E+02  0.17881300053E+03  0.10214318450E+04  0.10373179197E+04  0.00000000000E+00 0. -1.
          1    1    1    2  503    0  0.64697391901E+02  0.20226876538E+02 -0.23698257604E+04  0.23707950172E+04  0.00000000000E+00 0. -1.
<mgrwt>
<rscale>  0 0.10531523E+03</rscale>
<asrwt>0</asrwt>
<pdfrwt beam="1">  1        2 0.25198907E+00 0.16362335E+03</pdfrwt>
<pdfrwt beam="2">  1        2 0.41546596E+00 0.67785537E+02</pdfrwt>
<totfact> 0.71213564E+00</totfact>
</mgrwt>
</event>
<event>
13    1  0.2742815E-008  0.1361574E+03  0.7546771E-02  0.1269568E+00
         -1   -1    0    0    0  501 -0.00000000000E+00  0.00000000000E+00  0.72860733705E+03  0.72860733705E+03  0.00000000000E+00 0.  1.
          2   -1    0    0  503    0  0.00000000000E+00 -0.00000000000E+00 -0.51655480923E+03  0.51655480923E+03  0.00000000000E+00 0. -1.
         25    2    1    2    0    0  0.44851143099E+02 -0.85221696939E+02  0.19903794464E+03  0.25399889560E+03  0.12499989158E+03 0.  0.
         24    2    1    2    0    0 -0.51238523512E+02 -0.11384595782E+03  0.33400030547E+02  0.15178411904E+03  0.79602564972E+02 0.  0.
         24    2    1    2    0    0 -0.48750052410E+02  0.34097161643E+01 -0.13874474314E+03  0.16863806535E+03  0.82465141505E+02 0.  0.
        -11    1    5    5    0    0 -0.37748645704E+02 -0.25778005973E+02 -0.28046253389E+02  0.53628893086E+02  0.00000000000E+00 0.  1.
         12    1    5    5    0    0 -0.11001406705E+02  0.29187722137E+02 -0.11069848975E+03  0.11500917227E+03  0.00000000000E+00 0. -1.
        -13    1    4    4    0    0  0.12854169232E+02 -0.68132436344E+02  0.15052903927E+02  0.70949619206E+02  0.00000000000E+00 0.  1.
         14    1    4    4    0    0 -0.64092692744E+02 -0.45713521471E+02  0.18347126621E+02  0.80834499836E+02  0.00000000000E+00 0. -1.
          5    1    3    3  502    0  0.81761691023E+02 -0.81705309473E+02  0.17423703993E+03  0.20914437071E+03  0.47000000000E+01 0. -1.
         -5    1    3    3    0  502 -0.36910547925E+02 -0.35163874658E+01  0.24800904704E+02  0.44854524889E+02  0.47000000000E+01 0. -1.
          1    1    1    2  503    0  0.74645679309E+02  0.32478243825E+02 -0.25239376994E+03  0.26519696240E+03  0.00000000000E+00 0. -1.
         -2    1    1    2    0  501 -0.19508246486E+02  0.16317969476E+03  0.37075306571E+03  0.40554410389E+03  0.00000000000E+00 0.  1.
<mgrwt>
<rscale>  0 0.10528024E+03</rscale>
<asrwt>0</asrwt>
<pdfrwt beam="2">  1        2 0.75963943E-01 0.81405244E+02</pdfrwt>
<pdfrwt beam="1">  1       -1 0.10714814E+00 0.13615742E+03</pdfrwt>
<totfact> 0.65845924E+01</totfact>
</mgrwt>
</event>
<event>
13    1  0.2742815E-008  0.4562053E+02  0.7546771E-02  0.1548385E+00
          2   -1    0    0  503    0  0.00000000000E+00  0.00000000000E+00  0.20484972819E+04  0.20484972819E+04  0.00000000000E+00 0. -1.
         -1   -1    0    0    0  501 -0.00000000000E+00 -0.00000000000E+00 -0.72704374284E+03  0.72704374284E+03  0.00000000000E+00 0.  1.
         25    2    1    2    0    0 -0.42914611312E+02  0.96878809858E+02 -0.29104485264E+03  0.33401078068E+03  0.12501570981E+03 0.  0.
         24    2    1    2    0    0  0.99567445660E+02 -0.26819862098E+02  0.39836293859E+03  0.42087443337E+03  0.88370111384E+02 0.  0.
         24    2    1    2    0    0 -0.87677959676E+02 -0.70531142470E+02  0.61266721106E+03  0.62799746396E+03  0.79734788873E+02 0.  0.
        -11    1    4    4    0    0  0.88744110677E+02 -0.54536370869E+02  0.33603159619E+03  0.35180529639E+03  0.00000000000E+00 0.  1.
         12    1    4    4    0    0  0.10823334983E+02  0.27716508770E+02  0.62331342397E+02  0.69069136983E+02  0.00000000000E+00 0. -1.
        -11    1    5    5    0    0  0.18856262498E+01  0.42165223428E+01  0.31208569076E+00  0.46294756182E+01  0.00000000000E+00 0.  1.
         12    1    5    5    0    0 -0.89563585926E+02 -0.74747664813E+02  0.61235512537E+03  0.62336798834E+03  0.00000000000E+00 0. -1.
          5    1    3    3  502    0  0.27073043814E+02 -0.15262406316E+02 -0.50013599649E+02  0.59070643282E+02  0.47000000000E+01 0.  1.
         -5    1    3    3    0  502 -0.69987655126E+02  0.11214121617E+03 -0.24103125299E+03  0.27494013740E+03  0.47000000000E+01 0.  1.
          1    1    1    2  503    0 -0.68056829259E+01  0.26013697512E+02  0.99556444857E+03  0.99592750792E+03  0.00000000000E+00 0. -1.
         -2    1    1    2    0  501  0.37830808254E+02 -0.25541502802E+02 -0.39409620655E+03  0.39673083878E+03  0.00000000000E+00 0.  1.
<mgrwt>
<rscale>  0 0.35024278E+02</rscale>
<asrwt>0</asrwt>
<pdfrwt beam="1">  1        2 0.30124960E+00 0.26889213E+02</pdfrwt>
<pdfrwt beam="2">  1       -1 0.10691820E+00 0.45620526E+02</pdfrwt>
<totfact> 0.10959811E+01</totfact>
</mgrwt>
</event>
<event>
13    1  0.2742815E-008  0.1557211E+03  0.7546771E-02  0.1257043E+00
          2   -1    0    0  503    0  0.00000000000E+00  0.00000000000E+00  0.14251274678E+04  0.14251274678E+04  0.00000000000E+00 0. -1.
          2   -1    0    0  502    0 -0.00000000000E+00 -0.00000000000E+00 -0.19828231067E+04  0.19828231067E+04  0.00000000000E+00 0. -1.
         25    2    1    2    0    0  0.22425599066E+03  0.39840122275E+02 -0.45908523463E+03  0.52750525150E+03  0.12499821205E+03 0.  0.
         24    2    1    2    0    0 -0.20488483200E+03  0.12708986232E+03 -0.34960727272E+03  0.43222283961E+03  0.80384765049E+02 0.  0.
         24    2    1    2    0    0  0.12920036652E+03 -0.67011148096E+02  0.15901020977E+03  0.22971736287E+03  0.79388861396E+02 0.  0.
        -11    1    4    4    0    0 -0.56361473894E+02  0.79295317694E+02 -0.15160934435E+03  0.18013815932E+03  0.00000000000E+00 0.  1.
         12    1    4    4    0    0 -0.14852335811E+03  0.47794544628E+02 -0.19799792837E+03  0.25208468029E+03  0.00000000000E+00 0. -1.
        -11    1    5    5    0    0  0.64737715189E+01 -0.33819658398E+02  0.57526436637E+02  0.67044536869E+02  0.00000000000E+00 0.  1.
         12    1    5    5    0    0  0.12272659500E+03 -0.33191489699E+02  0.10148377313E+03  0.16267282600E+03  0.00000000000E+00 0. -1.
          5    1    3    3  501    0  0.86005900827E+02  0.35064337582E+02 -0.75742436832E+02  0.11993969103E+03  0.47000000000E+01 0.  1.
         -5    1    3    3    0  501  0.13825008983E+03  0.47757846922E+01 -0.38334279780E+03  0.40756556047E+03  0.47000000000E+01 0.  1.
          1    1    1    2  502    0 -0.72093663884E+02  0.35699599358E+02 -0.10564770947E+04  0.10595356575E+04  0.00000000000E+00 0. -1.
          1    1    1    2  503    0 -0.76477861296E+02 -0.13561843586E+03  0.11484637534E+04  0.11589694631E+04  0.00000000000E+00 0. -1.
<mgrwt>
<rscale>  0 0.11192644E+03</rscale>
<asrwt>0</asrwt>
<pdfrwt beam="1">  1        2 0.20957757E+00 0.15572112E+03</pdfrwt>
<pdfrwt beam="2">  1        2 0.29159163E+00 0.80448479E+02</pdfrwt>
<totfact> 0.25155431E+01</totfact>
</mgrwt>
</event>
<event>
13    1  0.2742815E-008  0.5444463E+02  0.7546771E-02  0.1439811E+00
          2   -1    0    0  503    0  0.00000000000E+00  0.00000000000E+00  0.22021638480E+04  0.22021638480E+04  0.00000000000E+00 0. -1.
          2   -1    0    0  502    0 -0.00000000000E+00 -0.00000000000E+00 -0.22100247280E+04  0.22100247280E+04  0.00000000000E+00 0. -1.
         25    2    1    2    0    0  0.26222324862E+03 -0.26058776419E+02 -0.10383518545E+04  0.10785367219E+04  0.12500717925E+03 0.  0.
         24    2    1    2    0    0  0.25120836765E+03 -0.29412822191E+03 -0.22224715584E+03  0.45336792124E+03  0.80818431221E+02 0.  0.
         24    2    1    2    0    0 -0.56286283038E+03  0.40930452517E+03  0.41202493623E+03  0.81316755132E+03  0.84452106534E+02 0.  0.
        -11    1    4    4    0    0  0.23397701727E+03 -0.23968510857E+03 -0.16850371348E+03  0.37495025981E+03  0.00000000000E+00 0.  1.
         12    1    4    4    0    0  0.17231350386E+02 -0.54443113347E+02 -0.53743442353E+02  0.78417661422E+02  0.00000000000E+00 0. -1.
        -13    1    5    5    0    0 -0.10506781394E+03  0.61966580013E+02  0.10866465992E+03  0.16336190155E+03  0.00000000000E+00 0.  1.
         14    1    5    5    0    0 -0.45779501644E+03  0.34733794516E+03  0.30336027631E+03  0.64980564976E+03  0.00000000000E+00 0. -1.
          5    1    3    3  501    0  0.14452575919E+03 -0.75530353390E+02 -0.54327464150E+03  0.56724065039E+03  0.47000000000E+01 0. -1.
         -5    1    3    3    0  501  0.11769748943E+03  0.49471576971E+02 -0.49507721301E+03  0.51129607156E+03  0.47000000000E+01 0. -1.
          1    1    1    2  502    0  0.26901968705E+02 -0.39569443605E+02 -0.61175767242E+03  0.61362603152E+03  0.00000000000E+00 0. -1.
          1    1    1    2  503    0  0.22529245404E+02 -0.49548083236E+02  0.14524708665E+04  0.14534903500E+04  0.00000000000E+00 0. -1.
<mgrwt>
<rscale>  0 0.51039997E+02</rscale>
<asrwt>0</asrwt>
<pdfrwt beam="1">  1        2 0.32384763E+00 0.54444631E+02</pdfrwt>
<pdfrwt beam="2">  1        2 0.32500363E+00 0.47848268E+02</pdfrwt>
<totfact> 0.97065497E+00</totfact>
</mgrwt>
</event>
<event>
13    1  0.2742815E-008  0.8762851E+02  0.7546771E-02  0.1468924E+00
          2   -1    0    0  502    0  0.00000000000E+00  0.00000000000E+00  0.88610131690E+03  0.88610131690E+03  0.00000000000E+00 0. -1.
          2   -1    0    0  503    0 -0.00000000000E+00 -0.00000000000E+00 -0.20458219013E+04  0.20458219013E+04  0.00000000000E+00 0. -1.
         25    2    1    2    0    0 -0.65252047675E+02 -0.60351585275E+01 -0.41550520113E+03  0.43882133968E+03  0.12500137251E+03 0.  0.
         24    2    1    2    0    0  0.11706017764E+03  0.17160255799E+03 -0.32349951722E+03  0.38852267143E+03  0.56101742188E+02 0.  0.
         24    2    1    2    0    0 -0.12891686987E+03 -0.98505361449E+02  0.59958071766E+03  0.62619063252E+03  0.79339811498E+02 0.  0.
        -11    1    4    4    0    0  0.71599623459E+02  0.13370524343E+03 -0.19492739722E+03  0.24698236453E+03  0.00000000000E+00 0.  1.
         12    1    4    4    0    0  0.45460554179E+02  0.37897314556E+02 -0.12857211999E+03  0.14154030690E+03  0.00000000000E+00 0. -1.
        -13    1    5    5    0    0 -0.40058606139E+02  0.13981869209E+01  0.77383192853E+02  0.87148180639E+02  0.00000000000E+00 0.  1.
         14    1    5    5    0    0 -0.88858263726E+02 -0.99903548370E+02  0.52219752481E+03  0.53904245188E+03  0.00000000000E+00 0. -1.
          5    1    3    3  501    0  0.33191052696E+02  0.49822851975E+01 -0.52296620380E+02  0.62317699316E+02  0.47000000000E+01 0. -1.
         -5    1    3    3    0  501 -0.98443100371E+02 -0.11017443725E+02 -0.36320858075E+03  0.37650364037E+03  0.47000000000E+01 0. -1.
          1    1    1    2  502    0  0.82038493078E+00 -0.24007121909E+02  0.22687562499E+03  0.22814373572E+03  0.00000000000E+00 0. -1.
          1    1    1    2  503    0  0.76288354971E+02 -0.43054916103E+02 -0.12471722087E+04  0.12502448389E+04  0.00000000000E+00 0. -1.
<mgrwt>
<rscale>  0 0.45879585E+02</rscale>
<asrwt>0</asrwt>
<pdfrwt beam="1">  1        2 0.13030902E+00 0.24021135E+02</pdfrwt>
<pdfrwt beam="2">  1        2 0.30085615E+00 0.87628513E+02</pdfrwt>
<totfact> 0.50093683E+01</totfact>
</mgrwt>
</event>
<event>
13    1  0.2742815E-008  0.5570211E+02  0.7546771E-02  0.1468399E+00
          2   -1    0    0  503    0  0.00000000000E+00  0.00000000000E+00  0.27548794964E+04  0.27548794964E+04  0.00000000000E+00 0. -1.
         -3   -1    0    0    0  501 -0.00000000000E+00 -0.00000000000E+00 -0.34395478998E+03  0.34395478998E+03  0.00000000000E+00 0.  1.
         25    2    1    2    0    0  0.51597621628E+02 -0.16965465830E+02  0.13909616622E+03  0.19473614442E+03  0.12499712357E+03 0.  0.
         24    2    1    2    0    0 -0.21934130183E+02 -0.71683181117E+02  0.17319490406E+03  0.20407092534E+03  0.77645883678E+02 0.  0.
         24    2    1    2    0    0 -0.28881371458E+02  0.34166409959E+02  0.77144623240E+03  0.77700251068E+03  0.81253522598E+02 0.  0.
        -11    1    5    5    0    0 -0.10424223498E+02 -0.85533500602E+01  0.20025833411E+02  0.24142457137E+02  0.00000000000E+00 0.  1.
         12    1    5    5    0    0 -0.18457147959E+02  0.42719760019E+02  0.75142039899E+03  0.75286005354E+03  0.00000000000E+00 0. -1.
        -11    1    4    4    0    0  0.28263690846E+02 -0.14261544739E+02  0.50551420888E+02  0.59646240723E+02  0.00000000000E+00 0.  1.
         12    1    4    4    0    0 -0.50197821029E+02 -0.57421636377E+02  0.12264348318E+03  0.14442468461E+03  0.00000000000E+00 0. -1.
          5    1    3    3  502    0  0.51916339477E+01  0.37047190510E+02  0.11237696711E+03  0.11853320263E+03  0.47000000000E+01 0.  1.
         -5    1    3    3    0  502  0.46405987681E+02 -0.54012656340E+02  0.26719199105E+02  0.76202941796E+02  0.47000000000E+01 0.  1.
          1    1    1    2  503    0  0.35827771574E+02  0.12457670757E+02  0.16222757063E+04  0.16227191039E+04  0.00000000000E+00 0. -1.
         -4    1    1    2    0  501 -0.36609891562E+02  0.42024566231E+02 -0.29508830256E+03  0.30030560207E+03  0.00000000000E+00 0.  1.
<mgrwt>
<rscale>  0 0.45966098E+02</rscale>
<asrwt>0</asrwt>
<pdfrwt beam="1">  1        2 0.40512933E+00 0.37931817E+02</pdfrwt>
<pdfrwt beam="2">  1       -3 0.50581588E-01 0.55702108E+02</pdfrwt>
<totfact> 0.10179692E+01</totfact>
</mgrwt>
</event>
<event>
13    1  0.2742815E-008  0.1279746E+03  0.7546771E-02  0.1246383E+00
          2   -1    0    0  503    0  0.00000000000E+00  0.00000000000E+00  0.35859696206E+04  0.35859696206E+04  0.00000000000E+00 0. -1.
          2   -1    0    0  502    0 -0.00000000000E+00 -0.00000000000E+00 -0.13518235972E+04  0.13518235972E+04  0.00000000000E+00 0. -1.
         25    2    1    2    0    0 -0.13179346156E+03  0.36569414227E+02 -0.46828219820E+02  0.19114329029E+03  0.12504413894E+03 0.  0.
         24    2    1    2    0    0  0.44487388620E+03 -0.18025144207E+03  0.18820329587E+03  0.52172987855E+03  0.79863812852E+02 0.  0.
         24    2    1    2    0    0 -0.88471204284E+02  0.20599833259E+03  0.49119675318E+02  0.23756790808E+03  0.61345753112E+02 0.  0.
        -11    1    4    4    0    0  0.30181241129E+03 -0.12708710506E+03  0.87796740436E+02  0.33904296411E+03  0.00000000000E+00 0.  1.
         12    1    4    4    0    0  0.14306147491E+03 -0.53164337006E+02  0.10040655543E+03  0.18268691444E+03  0.00000000000E+00 0. -1.
        -11    1    5    5    0    0 -0.79549998933E+02  0.19162305146E+03  0.26268689697E+02  0.20913545907E+03  0.00000000000E+00 0.  1.
         12    1    5    5    0    0 -0.89212053502E+01  0.14375281130E+02  0.22850985621E+02  0.28432449003E+02  0.00000000000E+00 0. -1.
          5    1    3    3  501    0 -0.11490331540E+03  0.38649237108E+01 -0.80986703714E+02  0.14070766043E+03  0.47000000000E+01 0. -1.
         -5    1    3    3    0  501 -0.16890146163E+02  0.32704490516E+02  0.34158483895E+02  0.50435629859E+02  0.47000000000E+01 0. -1.
          1    1    1    2  502    0 -0.12625740894E+03 -0.15659042275E+02 -0.96669869138E+03  0.97503461418E+03  0.00000000000E+00 0. -1.
          1    1    1    2  503    0 -0.98351811414E+02 -0.46657262478E+02  0.30103499634E+04  0.30123175266E+04  0.00000000000E+00 0. -1.
<mgrwt>
<rscale>  0 0.11802969E+03</rscale>
<asrwt>0</asrwt>
<pdfrwt beam="1">  1        2 0.52734847E+00 0.10885761E+03</pdfrwt>
<pdfrwt beam="2">  1        2 0.19879759E+00 0.12797459E+03</pdfrwt>
<totfact> 0.38719863E+00</totfact>
</mgrwt>
</event>
<event>
13    1  0.2742815E-008  0.8797364E+02  0.7546771E-02  0.1356974E+00
          2   -1    0    0  503    0  0.00000000000E+00  0.00000000000E+00  0.14502066161E+04  0.14502066161E+04  0.00000000000E+00 0. -1.
          2   -1    0    0  502    0 -0.00000000000E+00 -0.00000000000E+00 -0.14925985332E+04  0.14925985332E+04  0.00000000000E+00 0. -1.
         25    2    1    2    0    0  0.14413572443E+03 -0.13099996460E+03  0.10699810089E+03  0.25497168923E+03  0.12500348369E+03 0.  0.
         24    2    1    2    0    0  0.16921005985E+03 -0.12257916929E+02  0.21522889043E+03  0.28561741460E+03  0.80445828758E+02 0.  0.
         24    2    1    2    0    0 -0.19491114703E+03  0.19174000303E+03  0.71513985802E+03  0.76985863600E+03  0.80639437659E+02 0.  0.
        -11    1    4    4    0    0  0.11291147539E+03  0.29042586998E+02  0.15078115264E+03  0.19059755803E+03  0.00000000000E+00 0.  1.
         12    1    4    4    0    0  0.56298584455E+02 -0.41300503927E+02  0.64447737796E+02  0.95019856573E+02  0.00000000000E+00 0. -1.
        -13    1    5    5    0    0 -0.20619653871E+02  0.22605562754E+02  0.17465837264E+03  0.17731815678E+03  0.00000000000E+00 0.  1.
         14    1    5    5    0    0 -0.17429149316E+03  0.16913444027E+03  0.54048148538E+03  0.59254047922E+03  0.00000000000E+00 0. -1.
          5    1    3    3  501    0  0.61069304651E+02 -0.80625164299E+02 -0.11236019042E+02  0.10187352557E+03  0.47000000000E+01 0.  1.
         -5    1    3    3    0  501  0.83066419774E+02 -0.50374800298E+02  0.11823411993E+03  0.15309816365E+03  0.47000000000E+01 0.  1.
          1    1    1    2  502    0 -0.87936395502E+02 -0.11351677651E+00 -0.13516555260E+04  0.13545130061E+04  0.00000000000E+00 0. -1.
          1    1    1    2  503    0 -0.30498241743E+02 -0.48368604725E+02  0.27189675954E+03  0.27784440343E+03  0.00000000000E+00 0. -1.
<mgrwt>
<rscale>  0 0.70925447E+02</rscale>
<asrwt>0</asrwt>
<pdfrwt beam="1">  1        2 0.21326568E+00 0.57180982E+02</pdfrwt>
<pdfrwt beam="2">  1        2 0.21949979E+00 0.87973638E+02</pdfrwt>
<totfact> 0.44954415E+01</totfact>
</mgrwt>
</event>
<event>
13    1  0.2742815E-008  0.3446797E+02  0.7546771E-02  0.1650817E+00
          4   -1    0    0  503    0 -0.00000000000E+00  0.00000000000E+00  0.27142156210E+04  0.27142156210E+04  0.00000000000E+00 0. -1.
          2   -1    0    0  502    0  0.00000000000E+00 -0.00000000000E+00 -0.21343568387E+04  0.21343568387E+04  0.00000000000E+00 0. -1.
         25    2    1    2    0    0  0.80371858633E+02  0.10060946721E+03  0.38482048240E+03  0.42461303757E+03  0.12501010937E+03 0.  0.
         24    2    1    2    0    0  0.65973934730E+02 -0.14525440668E+02 -0.15893622647E+03  0.19094622945E+03  0.81462813408E+02 0.  0.
         24    2    1    2    0    0 -0.11360389249E+03 -0.67976824981E+02 -0.10976574592E+04  0.11084865839E+04  0.79774156043E+02 0.  0.
        -13    1    4    4    0    0  0.23007163835E+02  0.26741404340E+02 -0.21902575359E+02  0.41522946682E+02  0.00000000000E+00 0.  1.
         14    1    4    4    0    0  0.42966770895E+02 -0.41266845008E+02 -0.13703365111E+03  0.14942328277E+03  0.00000000000E+00 0. -1.
        -13    1    5    5    0    0 -0.20145462141E+02 -0.47598578212E+02 -0.23944895811E+03  0.24496380923E+03  0.00000000000E+00 0.  1.
         14    1    5    5    0    0 -0.93458430348E+02 -0.20378246769E+02 -0.85820850107E+03  0.86352277472E+03  0.00000000000E+00 0. -1.
          5    1    3    3  501    0  0.43594410786E+02 -0.21043302337E+02  0.71578940536E+02  0.86538592277E+02  0.47000000000E+01 0. -1.
         -5    1    3    3    0  501  0.36777447847E+02  0.12165276955E+03  0.31324154187E+03  0.33807444529E+03  0.47000000000E+01 0. -1.
          1    1    1    2  502    0 -0.34454931276E+02  0.10142896905E+01 -0.83605189366E+03  0.83676217647E+03  0.00000000000E+00 0. -1.
          3    1    1    2  503    0  0.17130304024E+01 -0.19121491252E+02  0.22876838792E+04  0.22877644322E+04  0.00000000000E+00 0. -1.
<mgrwt>
<rscale>  0 0.25723889E+02</rscale>
<asrwt>0</asrwt>
<pdfrwt beam="2">  1        2 0.31387601E+00 0.34467967E+02</pdfrwt>
<pdfrwt beam="1">  1        4 0.39914935E+00 0.19198070E+02</pdfrwt>
<totfact> 0.56810123E-02</totfact>
</mgrwt>
</event>
<event>
13    1  0.2742815E-008  0.5356460E+02  0.7546771E-02  0.1447905E+00
          2   -1    0    0  503    0  0.00000000000E+00  0.00000000000E+00  0.38447889650E+03  0.38447889650E+03  0.00000000000E+00 0. -1.
         -3   -1    0    0    0  501 -0.00000000000E+00 -0.00000000000E+00 -0.77219226883E+03  0.77219226883E+03  0.00000000000E+00 0.  1.
         25    2    1    2    0    0  0.89445085429E+02 -0.13316010356E+03 -0.47811300339E+03  0.51956635697E+03  0.12500047521E+03 0.  0.
         24    2    1    2    0    0  0.15982721664E+02  0.94218954508E+02 -0.24560860343E+02  0.12670641888E+03  0.79489759990E+02 0.  0.
         24    2    1    2    0    0 -0.89035201374E+02  0.61241106893E+01  0.22194229049E+03  0.25283534613E+03  0.81869164709E+02 0.  0.
        -11    1    4    4    0    0 -0.10943388968E+02  0.51224531190E+02  0.22963650326E+02  0.57193003017E+02  0.00000000000E+00 0.  1.
         12    1    4    4    0    0  0.26926110632E+02  0.42994423318E+02 -0.47524510669E+02  0.69513415860E+02  0.00000000000E+00 0. -1.
        -11    1    5    5    0    0  0.18789195609E+01  0.27488645594E+02  0.45185021218E+02  0.52922982888E+02  0.00000000000E+00 0.  1.
         12    1    5    5    0    0 -0.90914120935E+02 -0.21364534905E+02  0.17675726927E+03  0.19991236324E+03  0.00000000000E+00 0. -1.
          5    1    3    3  502    0 -0.22975075596E+01 -0.42988236713E+02 -0.28385073535E+02  0.51779044374E+02  0.47000000000E+01 0.  1.
         -5    1    3    3    0  502  0.91742592989E+02 -0.90171866843E+02 -0.44972792985E+03  0.46778731260E+03  0.47000000000E+01 0.  1.
          1    1    1    2  503    0  0.27216322735E+02  0.46798252730E+02  0.62102715554E+02  0.82386600616E+02  0.00000000000E+00 0. -1.
         -4    1    1    2    0  501 -0.43608928455E+02 -0.13981214371E+02 -0.16908451465E+03  0.17517644274E+03  0.00000000000E+00 0.  1.
<mgrwt>
<rscale>  0 0.49527862E+02</rscale>
<asrwt>0</asrwt>
<pdfrwt beam="1">  1        2 0.56541014E-01 0.53564603E+02</pdfrwt>
<pdfrwt beam="2">  1       -3 0.11355769E+00 0.45795338E+02</pdfrwt>
<totfact> 0.35800735E+01</totfact>
</mgrwt>
</event>
<event>
13    1  0.2742815E-008  0.5011037E+02  0.7546771E-02  0.1500808E+00
          2   -1    0    0  502    0  0.00000000000E+00  0.00000000000E+00  0.13321537027E+04  0.13321537027E+04  0.00000000000E+00 0. -1.
          4   -1    0    0  503    0 -0.00000000000E+00 -0.00000000000E+00 -0.37297679363E+03  0.37297679363E+03  0.00000000000E+00 0. -1.
         25    2    1    2    0    0  0.15746368566E+02  0.58302854333E+02 -0.38831966237E+02  0.14415474261E+03  0.12500198906E+03 0.  0.
         24    2    1    2    0    0  0.40971066665E+02 -0.25013280175E+01  0.10753861668E+03  0.14233574912E+03  0.83725900740E+02 0.  0.
         24    2    1    2    0    0 -0.23945484692E+02  0.20580167847E+02  0.26092715567E+03  0.27491732487E+03  0.80620254273E+02 0.  0.
        -11    1    5    5    0    0 -0.64515462754E+01 -0.22564388964E+02  0.18024452068E+03  0.18176595207E+03  0.00000000000E+00 0.  1.
         12    1    5    5    0    0 -0.17493938417E+02  0.43144556811E+02  0.80682634996E+02  0.93151372795E+02  0.00000000000E+00 0. -1.
        -13    1    4    4    0    0  0.22993341183E+02 -0.39325203452E+02  0.82703249135E+02  0.94419239474E+02  0.00000000000E+00 0.  1.
         14    1    4    4    0    0  0.17977725481E+02  0.36823875435E+02  0.24835367541E+02  0.47916509643E+02  0.00000000000E+00 0. -1.
          5    1    3    3  501    0  0.27541997088E+02  0.26527223461E+02 -0.81091453555E+02  0.89778444116E+02  0.47000000000E+01 0.  1.
         -5    1    3    3    0  501 -0.11795628522E+02  0.31775630873E+02  0.42259487319E+02  0.54376298495E+02  0.47000000000E+01 0.  1.
          1    1    1    2  502    0 -0.23212054993E+02 -0.44185610667E+02  0.88482971338E+03  0.88623630560E+03  0.00000000000E+00 0. -1.
          3    1    1    2  503    0 -0.95598955463E+01 -0.32196083495E+02 -0.25528661043E+03  0.25748637413E+03  0.00000000000E+00 0. -1.
<mgrwt>
<rscale>  0 0.41024101E+02</rscale>
<asrwt>0</asrwt>
<pdfrwt beam="1">  1        2 0.19590495E+00 0.50110366E+02</pdfrwt>
<pdfrwt beam="2">  1        4 0.54849529E-01 0.33585404E+02</pdfrwt>
<totfact> 0.29590879E+01</totfact>
</mgrwt>
</event>
<event>
13    1  0.2742815E-008  0.4304092E+02  0.7546771E-02  0.1519682E+00
          2   -1    0    0  503    0  0.00000000000E+00  0.00000000000E+00  0.10717185474E+04  0.10717185474E+04  0.00000000000E+00 0. -1.
          2   -1    0    0  502    0 -0.00000000000E+00 -0.00000000000E+00 -0.19509269338E+04  0.19509269338E+04  0.00000000000E+00 0. -1.
         25    2    1    2    0    0  0.32050154420E+02  0.71779834010E+02 -0.73342163040E+03  0.74813934290E+03  0.12500252594E+03 0.  0.
         24    2    1    2    0    0 -0.15191510462E+02  0.12684062799E+02  0.93864550872E+02  0.12471736029E+03  0.79700681356E+02 0.  0.
         24    2    1    2    0    0 -0.55856624651E+02 -0.25817538843E+02  0.38129511374E+03  0.39424270336E+03  0.79087531034E+02 0.  0.
        -11    1    4    4    0    0 -0.40533628222E+02  0.29598257922E+02  0.69377290913E+02  0.85628502167E+02  0.00000000000E+00 0.  1.
         12    1    4    4    0    0  0.25342117760E+02 -0.16914195123E+02  0.24487259959E+02  0.39088858125E+02  0.00000000000E+00 0. -1.
        -11    1    5    5    0    0 -0.64214207685E+02 -0.27938387970E+02  0.37886736947E+03  0.38528496160E+03  0.00000000000E+00 0.  1.
         12    1    5    5    0    0  0.83575830335E+01  0.21208491273E+01  0.24277442710E+01  0.89577417594E+01  0.00000000000E+00 0. -1.
          5    1    3    3  501    0  0.35400026949E+02  0.32938499246E+02 -0.80399328198E+02  0.93937471838E+02  0.47000000000E+01 0. -1.
         -5    1    3    3    0  501 -0.33498725288E+01  0.38841334765E+02 -0.65302230220E+03  0.65420187106E+03  0.47000000000E+01 0. -1.
          1    1    1    2  502    0  0.35887709001E+01 -0.34219944319E+02 -0.11871811668E+04  0.11876796734E+04  0.00000000000E+00 0. -1.
          1    1    1    2  503    0  0.35409209792E+02 -0.24426413648E+02  0.56623474616E+03  0.56786640117E+03  0.00000000000E+00 0. -1.
<mgrwt>
<rscale>  0 0.38482924E+02</rscale>
<asrwt>0</asrwt>
<pdfrwt beam="1">  1        2 0.15760567E+00 0.43040923E+02</pdfrwt>
<pdfrwt beam="2">  1        2 0.28690102E+00 0.34407613E+02</pdfrwt>
<totfact> 0.47319187E+01</totfact>
</mgrwt>
</event>
<event>
13    1  0.2742815E-008  0.1128254E+03  0.7546771E-02  0.1444672E+00
         -3   -1    0    0    0  501 -0.00000000000E+00  0.00000000000E+00  0.40502700071E+03  0.40502700071E+03  0.00000000000E+00 0.  1.
          2   -1    0    0  503    0  0.00000000000E+00 -0.00000000000E+00 -0.54005549829E+03  0.54005549829E+03  0.00000000000E+00 0. -1.
         25    2    1    2    0    0  0.93260173222E+01  0.29286888730E+02  0.13472374635E+03  0.18633517349E+03  0.12500245037E+03 0.  0.
         24    2    1    2    0    0 -0.10049207372E+02  0.13929351482E+02 -0.30654396722E+02  0.87825647942E+02  0.80489993146E+02 0.  0.
         24    2    1    2    0    0  0.68965335110E+02  0.33446579778E+02 -0.95022912736E+02  0.15147684246E+03  0.89671560217E+02 0.  0.
        -11    1    4    4    0    0 -0.79516721323E+00  0.28339020926E+02 -0.52740902289E+02  0.59877668393E+02  0.00000000000E+00 0.  1.
         12    1    4    4    0    0 -0.92540401588E+01 -0.14409669444E+02  0.22086505567E+02  0.27947979549E+02  0.00000000000E+00 0. -1.
        -13    1    5    5    0    0  0.21237415742E+01  0.49166742050E+02 -0.42562679497E+02  0.65065048129E+02  0.00000000000E+00 0.  1.
         14    1    5    5    0    0  0.66841593536E+02 -0.15720162272E+02 -0.52460233239E+02  0.86411794333E+02  0.00000000000E+00 0. -1.
          5    1    3    3  502    0  0.43318555613E+01  0.40426134637E+02 -0.90917660065E+01  0.41925976953E+02  0.47000000000E+01 0.  1.
         -5    1    3    3    0  502  0.49941617609E+01 -0.11139245907E+02  0.14381551235E+03  0.14440919654E+03  0.47000000000E+01 0.  1.
          1    1    1    2  503    0 -0.59332972903E+02 -0.97071496632E+02 -0.32128903812E+03  0.34083709181E+03  0.00000000000E+00 0. -1.
         -4    1    1    2    0  501 -0.89091721575E+01  0.20408676641E+02  0.17721410366E+03  0.17860774330E+03  0.00000000000E+00 0.  1.
<mgrwt>
<rscale>  0 0.50124393E+02</rscale>
<asrwt>0</asrwt>
<pdfrwt beam="2">  1        2 0.79419926E-01 0.11282535E+03</pdfrwt>
<pdfrwt beam="1">  1       -3 0.59562794E-01 0.22268530E+02</pdfrwt>
<totfact> 0.92450782E+01</totfact>
</mgrwt>
</event>
<event>
13    1  0.2742815E-008  0.4209858E+03  0.7546771E-02  0.1193674E+00
          2   -1    0    0  502    0  0.00000000000E+00  0.00000000000E+00  0.10712819460E+04  0.10712819460E+04  0.00000000000E+00 0. -1.
          2   -1    0    0  503    0 -0.00000000000E+00 -0.00000000000E+00 -0.12135779663E+04  0.12135779663E+04  0.00000000000E+00 0. -1.
         25    2    1    2    0    0 -0.11875343702E+03  0.13274547553E+02 -0.19054826386E+03  0.25731979183E+03  0.12500496788E+03 0.  0.
         24    2    1    2    0    0  0.11500275430E+03 -0.41134227333E+02 -0.13930341338E+03  0.19678428672E+03  0.66339704292E+02 0.  0.
         24    2    1    2    0    0 -0.32379170074E+03 -0.18267031023E+03 -0.92676721646E+02  0.39221058271E+03  0.83849023550E+02 0.  0.
        -11    1    4    4    0    0  0.38004349712E+02  0.83492220006E+01 -0.76359463161E+02  0.85701853652E+02  0.00000000000E+00 0.  1.
         12    1    4    4    0    0  0.76998404593E+02 -0.49483449333E+02 -0.62943950218E+02  0.11108243307E+03  0.00000000000E+00 0. -1.
        -13    1    5    5    0    0 -0.55820564694E+02 -0.15024621125E+02 -0.43435257624E+02  0.72306958777E+02  0.00000000000E+00 0.  1.
         14    1    5    5    0    0 -0.26797113604E+03 -0.16764568910E+03 -0.49241464023E+02  0.31990362393E+03  0.00000000000E+00 0. -1.
          5    1    3    3  501    0 -0.12712565767E+03 -0.61822936444E+01 -0.93819907968E+02  0.15818792218E+03  0.47000000000E+01 0.  1.
         -5    1    3    3    0  501  0.83722206528E+01  0.19456841198E+02 -0.96728355888E+02  0.99131869653E+02  0.47000000000E+01 0.  1.
          1    1    1    2  502    0  0.34111110623E+03  0.26647070793E+03  0.80320443138E+03  0.91241480893E+03  0.00000000000E+00 0. -1.
          1    1    1    2  503    0 -0.13568722781E+02 -0.55940717929E+02 -0.52297205274E+03  0.52613044211E+03  0.00000000000E+00 0. -1.
<mgrwt>
<rscale>  0 0.15566989E+03</rscale>
<asrwt>0</asrwt>
<pdfrwt beam="1">  1        2 0.15754146E+00 0.42098582E+03</pdfrwt>
<pdfrwt beam="2">  1        2 0.17846735E+00 0.57562785E+02</pdfrwt>
<totfact> 0.89968395E+01</totfact>
</mgrwt>
</event>
<event>
13    1  0.3140711E-008  0.3125698E+02  0.7546771E-02  0.1695068E+00
          2   -1    0    0  502    0  0.00000000000E+00  0.00000000000E+00  0.18997943982E+04  0.18997943982E+04  0.00000000000E+00 0. -1.
          2   -1    0    0  503    0 -0.00000000000E+00 -0.00000000000E+00 -0.25346518338E+04  0.25346518338E+04  0.00000000000E+00 0. -1.
         25    2    1    2    0    0  0.14014308573E+03  0.53437410918E+02 -0.19616558417E+03  0.27676957271E+03  0.12499927440E+03 0.  0.
         24    2    1    2    0    0 -0.78789957089E+03 -0.13935409809E+04 -0.13723610154E+03  0.16100981068E+04  0.10411515996E+03 0.  0.
         24    2    1    2    0    0  0.60520526362E+03  0.13528944942E+04 -0.46152633156E+03  0.15543636970E+04  0.80268450433E+02 0.  0.
        -11    1    4    4    0    0 -0.27350248128E+03 -0.39106387986E+03 -0.27241718292E+02  0.47799233949E+03  0.00000000000E+00 0.  1.
         12    1    4    4    0    0 -0.51439708961E+03 -0.10024771010E+04 -0.10999438325E+03  0.11321057673E+04  0.00000000000E+00 0. -1.
        -13    1    5    5    0    0  0.39220313506E+03  0.92072224390E+03 -0.27676371965E+03  0.10383404577E+04  0.00000000000E+00 0.  1.
         14    1    5    5    0    0  0.21300212857E+03  0.43217225032E+03 -0.18476261191E+03  0.51602323928E+03  0.00000000000E+00 0. -1.
          5    1    3    3  501    0  0.13395372581E+03  0.57007543933E+01 -0.18251135291E+03  0.22651398015E+03  0.47000000000E+01 0. -1.
         -5    1    3    3    0  501  0.61893599147E+01  0.47736656525E+02 -0.13654231259E+02  0.50255592561E+02  0.47000000000E+01 0. -1.
          1    1    1    2  502    0  0.11305693143E+02 -0.12161592961E+02  0.57593675005E+03  0.57617606953E+03  0.00000000000E+00 0. -1.
          1    1    1    2  503    0  0.31245528397E+02 -0.62933127402E+00 -0.41586616833E+03  0.41703878604E+03  0.00000000000E+00 0. -1.
<mgrwt>
<rscale>  0 0.22781996E+02</rscale>
<asrwt>0</asrwt>
<pdfrwt beam="1">  1        2 0.27938153E+00 0.16604910E+02</pdfrwt>
<pdfrwt beam="2">  1        2 0.37274292E+00 0.31256981E+02</pdfrwt>
<totfact> 0.11510172E+01</totfact>
</mgrwt>
</event>
<event>
13    1  0.2742815E-008  0.9212919E+02  0.7546771E-02  0.1487704E+00
         -3   -1    0    0    0  501 -0.00000000000E+00  0.00000000000E+00  0.56864080451E+03  0.56864080451E+03  0.00000000000E+00 0.  1.
          2   -1    0    0  503    0  0.00000000000E+00 -0.00000000000E+00 -0.11731697656E+04  0.11731697656E+04  0.00000000000E+00 0. -1.
         25    2    1    2    0    0  0.11780781338E+03  0.22113955813E+03  0.30603337997E+03  0.41480461516E+03  0.12500021617E+03 0.  0.
         24    2    1    2    0    0 -0.10517535896E+03 -0.12560408703E+03 -0.46121844183E+02  0.18790891601E+03  0.79651072767E+02 0.  0.
         24    2    1    2    0    0 -0.48525560793E+02 -0.78736015293E+01 -0.64678065583E+02  0.11406920022E+03  0.80073757374E+02 0.  0.
        -11    1    4    4    0    0 -0.96029612011E+02 -0.98880693154E+02 -0.66538931577E+02  0.15305720263E+03  0.00000000000E+00 0.  1.
         12    1    4    4    0    0 -0.91457469467E+01 -0.26723393877E+02  0.20417087395E+02  0.34851713376E+02  0.00000000000E+00 0. -1.
        -11    1    5    5    0    0  0.17057433607E+02  0.80010824457E+01  0.23168360016E+01  0.18982652360E+02  0.00000000000E+00 0.  1.
         12    1    5    5    0    0 -0.65582994399E+02 -0.15874683975E+02 -0.66994901585E+02  0.95086547861E+02  0.00000000000E+00 0. -1.
          5    1    3    3  502    0  0.78528022527E+02  0.87888765665E+02  0.22464848749E+03  0.25373237552E+03  0.47000000000E+01 0. -1.
         -5    1    3    3    0  502  0.39279790853E+02  0.13325079246E+03  0.81384892478E+02  0.16107223965E+03  0.47000000000E+01 0. -1.
          1    1    1    2  503    0  0.16123028671E+02 -0.90704970698E+02 -0.90916041181E+03  0.91381617307E+03  0.00000000000E+00 0. -1.
         -4    1    1    2    0  501  0.19770077699E+02  0.30431011298E+01  0.10939798051E+03  0.11121166565E+03  0.00000000000E+00 0.  1.
<mgrwt>
<rscale>  0 0.42928452E+02</rscale>
<asrwt>0</asrwt>
<pdfrwt beam="2">  1        2 0.17252496E+00 0.92129193E+02</pdfrwt>
<pdfrwt beam="1">  1       -3 0.83623649E-01 0.20002911E+02</pdfrwt>
<totfact> 0.17953419E+01</totfact>
</mgrwt>
</event>
<event>
13    1  0.2742815E-008  0.1124428E+03  0.7546771E-02  0.1282535E+00
          2   -1    0    0  502    0  0.00000000000E+00  0.00000000000E+00  0.65942995249E+03  0.65942995249E+03  0.00000000000E+00 0. -1.
          2   -1    0    0  503    0 -0.00000000000E+00 -0.00000000000E+00 -0.16696302277E+04  0.16696302277E+04  0.00000000000E+00 0. -1.
         25    2    1    2    0    0  0.15576941334E+03 -0.11971820814E+03 -0.48385403310E+03  0.53696924599E+03  0.12499874518E+03 0.  0.
         24    2    1    2    0    0 -0.14505378692E+03  0.10783071040E+03 -0.93849966621E+01  0.19887178917E+03  0.82424797001E+02 0.  0.
         24    2    1    2    0    0  0.51497463088E+02 -0.80866197723E+02  0.29524907951E+02  0.12765869544E+03  0.78953731341E+02 0.  0.
        -11    1    5    5    0    0  0.15666658374E+02 -0.84245193821E+02  0.32269817160E+02  0.91564392457E+02  0.00000000000E+00 0.  1.
         12    1    5    5    0    0  0.35830804714E+02  0.33789960980E+01 -0.27449092085E+01  0.36094302980E+02  0.00000000000E+00 0. -1.
        -13    1    4    4    0    0 -0.14232983266E+02  0.41957532086E+02  0.21397701639E+02  0.49202377451E+02  0.00000000000E+00 0.  1.
         14    1    4    4    0    0 -0.13082080366E+03  0.65873178312E+02 -0.30782698301E+02  0.14966941172E+03  0.00000000000E+00 0. -1.
          5    1    3    3  501    0  0.12911403332E+03 -0.94534363913E+02 -0.47158224516E+03  0.49801514385E+03  0.47000000000E+01 0.  1.
         -5    1    3    3    0  501  0.26655380011E+02 -0.25183844225E+02 -0.12271787944E+02  0.38954102131E+02  0.47000000000E+01 0.  1.
          1    1    1    2  502    0 -0.11090620358E+03  0.20580233796E+02  0.45068965579E+03  0.46459110824E+03  0.00000000000E+00 0. -1.
          1    1    1    2  503    0  0.48693114077E+02  0.72173461666E+02 -0.99717580921E+03  0.10009693414E+04  0.00000000000E+00 0. -1.
<mgrwt>
<rscale>  0 0.98942648E+02</rscale>
<asrwt>0</asrwt>
<pdfrwt beam="1">  1        2 0.96974995E-01 0.11244280E+03</pdfrwt>
<pdfrwt beam="2">  1        2 0.24553385E+00 0.87063356E+02</pdfrwt>
<totfact> 0.10141587E+02</totfact>
</mgrwt>
</event>
<event>
13    1  0.2742815E-008  0.1659601E+03  0.7546771E-02  0.1323490E+00
          2   -1    0    0  503    0  0.00000000000E+00  0.00000000000E+00  0.15456534155E+04  0.15456534155E+04  0.00000000000E+00 0. -1.
          2   -1    0    0  502    0 -0.00000000000E+00 -0.00000000000E+00 -0.93737652780E+03  0.93737652780E+03  0.00000000000E+00 0. -1.
         25    2    1    2    0    0 -0.54195346979E+02 -0.12128243024E+03 -0.45360416518E+03  0.48890614385E+03  0.12500366119E+03 0.  0.
         24    2    1    2    0    0 -0.50294662526E+02 -0.13218232866E+02  0.89991975808E+01  0.96596552406E+02  0.80905090204E+02 0.  0.
         24    2    1    2    0    0  0.24964112019E+03  0.20100302754E+03  0.92742470313E+03  0.98449235036E+03  0.79910587304E+02 0.  0.
        -11    1    5    5    0    0  0.38910745378E+02  0.44490369393E+02  0.97207461096E+02  0.11376611784E+03  0.00000000000E+00 0.  1.
         12    1    5    5    0    0  0.21073037481E+03  0.15651265815E+03  0.83021724203E+03  0.87072623252E+03  0.00000000000E+00 0. -1.
        -13    1    4    4    0    0 -0.65595307681E+02  0.61792059278E+01  0.20971513187E+02  0.69142832897E+02  0.00000000000E+00 0.  1.
         14    1    4    4    0    0  0.15300645155E+02 -0.19397438794E+02 -0.11972315607E+02  0.27453719510E+02  0.00000000000E+00 0. -1.
          5    1    3    3  501    0 -0.76113130943E+01 -0.64325987600E+02 -0.37711661326E+03  0.38266799548E+03  0.47000000000E+01 0. -1.
         -5    1    3    3    0  501 -0.46584033884E+02 -0.56956442640E+02 -0.76487551916E+02  0.10623814837E+03  0.47000000000E+01 0. -1.
          1    1    1    2  502    0 -0.16609300459E+02  0.36946794164E+02 -0.37957608614E+03  0.38173150202E+03  0.00000000000E+00 0. -1.
          1    1    1    2  503    0 -0.12854181023E+03 -0.10344915860E+03  0.50503323835E+03  0.53130339471E+03  0.00000000000E+00 0. -1.
<mgrwt>
<rscale>  0 0.81992609E+02</rscale>
<asrwt>0</asrwt>
<pdfrwt beam="1">  1        2 0.22730197E+00 0.16596014E+03</pdfrwt>
<pdfrwt beam="2">  1        2 0.13784949E+00 0.40508449E+02</pdfrwt>
<totfact> 0.75759972E+01</totfact>
</mgrwt>
</event>
<event>
13    1  0.2742815E-008  0.1386315E+03  0.7546771E-02  0.1264305E+00
          2   -1    0    0  503    0  0.00000000000E+00  0.00000000000E+00  0.13811319659E+04  0.13811319659E+04  0.00000000000E+00 0. -1.
          2   -1    0    0  502    0 -0.00000000000E+00 -0.00000000000E+00 -0.27008650496E+04  0.27008650496E+04  0.00000000000E+00 0. -1.
         25    2    1    2    0    0 -0.13706675423E+03 -0.59735757278E+02 -0.28560911681E+03  0.34576689583E+03  0.12500609118E+03 0.  0.
         24    2    1    2    0    0 -0.32040706550E+02  0.58304854132E+02 -0.14119922688E+03  0.17645767705E+03  0.82304478779E+02 0.  0.
         24    2    1    2    0    0  0.10197413258E+03  0.53763427801E+02  0.65047760763E+03  0.66634025747E+03  0.87172190564E+02 0.  0.
        -11    1    4    4    0    0  0.16159969543E+02 -0.11426359364E+02 -0.17016454074E+02  0.26101073028E+02  0.00000000000E+00 0.  1.
         12    1    4    4    0    0 -0.48200676093E+02  0.69731213496E+02 -0.12418277280E+03  0.15035660402E+03  0.00000000000E+00 0. -1.
        -13    1    5    5    0    0  0.10261783517E+03  0.35719643076E+02  0.62884344498E+03  0.63816172816E+03  0.00000000000E+00 0.  1.
         14    1    5    5    0    0 -0.64370259044E+00  0.18043784725E+02  0.21634162655E+02  0.28178529309E+02  0.00000000000E+00 0. -1.
          5    1    3    3  501    0 -0.13168207648E+02 -0.62331801563E+02 -0.56661586320E+02  0.85388995445E+02  0.47000000000E+01 0. -1.
         -5    1    3    3    0  501 -0.12389854658E+03  0.25960442851E+01 -0.22894753049E+03  0.26037790038E+03  0.47000000000E+01 0. -1.
          1    1    1    2  502    0  0.20760711113E+02  0.81547179544E+02 -0.22101730550E+04  0.22117743743E+04  0.00000000000E+00 0. -1.
          1    1    1    2  503    0  0.46372617081E+02 -0.13387970420E+03  0.66677070742E+03  0.68165781084E+03  0.00000000000E+00 0. -1.
<mgrwt>
<rscale>  0 0.10800746E+03</rscale>
<asrwt>0</asrwt>
<pdfrwt beam="1">  1        2 0.20310764E+00 0.13863146E+03</pdfrwt>
<pdfrwt beam="2">  1        2 0.39718603E+00 0.84148379E+02</pdfrwt>
<totfact> 0.11866503E+01</totfact>
</mgrwt>
</event>
<event>
13    1  0.2742815E-008  0.1281897E+03  0.7546771E-02  0.1328815E+00
          2   -1    0    0  502    0  0.00000000000E+00  0.00000000000E+00  0.16784899711E+04  0.16784899711E+04  0.00000000000E+00 0. -1.
          2   -1    0    0  503    0 -0.00000000000E+00 -0.00000000000E+00 -0.31386153824E+04  0.31386153824E+04  0.00000000000E+00 0. -1.
         25    2    1    2    0    0 -0.28462895334E+03 -0.47050298627E+03 -0.89212061791E+03  0.10554103455E+04  0.12500039730E+03 0.  0.
         24    2    1    2    0    0  0.58803415257E+02  0.80297671141E+03  0.21034519730E+03  0.83604164566E+03  0.80567304326E+02 0.  0.
         24    2    1    2    0    0  0.48849251350E+02 -0.32465794084E+03  0.38918752446E+03  0.52069010184E+03  0.10891384236E+03 0.  0.
        -11    1    5    5    0    0  0.27527576623E+02 -0.11801007721E+03  0.70274835620E+02  0.14008104197E+03  0.00000000000E+00 0.  1.
         12    1    5    5    0    0  0.21321674727E+02 -0.20664786362E+03  0.31891268884E+03  0.38060905987E+03  0.00000000000E+00 0. -1.
        -13    1    4    4    0    0  0.16333176918E+02  0.19888778497E+03  0.88616357090E+02  0.21834830529E+03  0.00000000000E+00 0.  1.
         14    1    4    4    0    0  0.42470238338E+02  0.60408892644E+03  0.12172884021E+03  0.61769334037E+03  0.00000000000E+00 0. -1.
          5    1    3    3  501    0 -0.14666878702E+03 -0.12895168104E+03 -0.29647797332E+03  0.35505147203E+03  0.47000000000E+01 0.  1.
         -5    1    3    3    0  501 -0.13796016633E+03 -0.34155130523E+03 -0.59564264459E+03  0.70035887347E+03  0.47000000000E+01 0.  1.
          1    1    1    2  502    0  0.12725330091E+03 -0.13350242154E+02  0.61174229496E+03  0.62498021329E+03  0.00000000000E+00 0. -1.
          1    1    1    2  503    0  0.49722985830E+02  0.55344578446E+01 -0.17792798102E+04  0.17799830472E+04  0.00000000000E+00 0. -1.
<mgrwt>
<rscale>  0 0.80083320E+02</rscale>
<asrwt>0</asrwt>
<pdfrwt beam="1">  1        2 0.24683676E+00 0.12818973E+03</pdfrwt>
<pdfrwt beam="2">  1        2 0.46156108E+00 0.50030046E+02</pdfrwt>
<totfact> 0.54670078E+00</totfact>
</mgrwt>
</event>
<event>
13    1  0.2742815E-008  0.1392165E+03  0.7546771E-02  0.1457535E+00
          2   -1    0    0  502    0  0.00000000000E+00  0.00000000000E+00  0.71802680441E+03  0.71802680441E+03  0.00000000000E+00 0. -1.
          2   -1    0    0  503    0 -0.00000000000E+00 -0.00000000000E+00 -0.60602941646E+03  0.60602941646E+03  0.00000000000E+00 0. -1.
         25    2    1    2    0    0 -0.56870875332E+02  0.17722472065E+03  0.51856129482E+02  0.23012155206E+03  0.12499588987E+03 0.  0.
         24    2    1    2    0    0  0.21928736278E+02 -0.45459797108E+02  0.23070187986E+00  0.91059653573E+02  0.75791455044E+02 0.  0.
         24    2    1    2    0    0  0.75858128624E+01  0.53361106960E+01 -0.12000151884E+02  0.80226653599E+02  0.78780033436E+02 0.  0.
        -11    1    4    4    0    0 -0.10216903440E+02 -0.19667109114E+01 -0.28129283679E+02  0.29991826686E+02  0.00000000000E+00 0.  1.
         12    1    4    4    0    0  0.32145639718E+02 -0.43493086197E+02  0.28359985559E+02  0.61067826887E+02  0.00000000000E+00 0. -1.
        -13    1    5    5    0    0  0.23608227602E+02  0.36311249487E+02 -0.13364614827E+02  0.45326241619E+02  0.00000000000E+00 0.  1.
         14    1    5    5    0    0 -0.16022414739E+02 -0.30975138791E+02  0.13644629429E+01  0.34900411980E+02  0.00000000000E+00 0. -1.
          5    1    3    3  501    0 -0.76532652777E+02  0.14792959436E+03  0.79919045053E+02  0.18479598369E+03  0.47000000000E+01 0. -1.
         -5    1    3    3    0  501  0.19661777445E+02  0.29295126296E+02 -0.28062915570E+02  0.45325568362E+02  0.47000000000E+01 0. -1.
          1    1    1    2  502    0 -0.14313009385E+02 -0.80424918324E+01  0.48632779044E+03  0.48660483317E+03  0.00000000000E+00 0. -1.
          1    1    1    2  503    0  0.41669335576E+02 -0.12905854241E+03 -0.41441708197E+03  0.43604352847E+03  0.00000000000E+00 0. -1.
<mgrwt>
<rscale>  0 0.47808233E+02</rscale>
<asrwt>0</asrwt>
<pdfrwt beam="1">  1        2 0.10559218E+00 0.16417793E+02</pdfrwt>
<pdfrwt beam="2">  1        2 0.89121973E-01 0.13921647E+03</pdfrwt>
<totfact> 0.38626105E+02</totfact>
</mgrwt>
</event>
<event>
13    1  0.2742815E-008  0.2572307E+03  0.7546771E-02  0.1238240E+00
          2   -1    0    0  503    0  0.00000000000E+00  0.00000000000E+00  0.16574310412E+04  0.16574310412E+04  0.00000000000E+00 0. -1.
          2   -1    0    0  502    0 -0.00000000000E+00 -0.00000000000E+00 -0.34657546944E+04  0.34657546944E+04  0.00000000000E+00 0. -1.
         25    2    1    2    0    0 -0.91273464271E+02  0.12108388674E+03 -0.12380726574E+04  0.12535718327E+04  0.12500512666E+03 0.  0.
         24    2    1    2    0    0  0.29612669424E+02 -0.44174568341E+02 -0.27857240647E+02  0.99708323166E+02  0.79607921550E+02 0.  0.
         24    2    1    2    0    0 -0.13293433048E+03  0.15331196951E+03  0.41093244064E+02  0.22077187463E+03  0.76651612550E+02 0.  0.
        -13    1    4    4    0    0  0.18612567659E+02 -0.66568856271E+02 -0.12028217037E+02  0.70160660667E+02  0.00000000000E+00 0.  1.
         14    1    4    4    0    0  0.11000101766E+02  0.22394287930E+02 -0.15829023610E+02  0.29547662500E+02  0.00000000000E+00 0. -1.
        -13    1    5    5    0    0  0.74695387731E+01  0.11093937408E+02 -0.71753278043E+01  0.15177443322E+02  0.00000000000E+00 0.  1.
         14    1    5    5    0    0 -0.14040386926E+03  0.14221803210E+03  0.48268571868E+02  0.20559443131E+03  0.00000000000E+00 0. -1.
          5    1    3    3  501    0 -0.16436713210E+02 -0.63175960764E+01 -0.52601061017E+03  0.52632625772E+03  0.47000000000E+01 0. -1.
         -5    1    3    3    0  501 -0.74836751061E+02  0.12740148282E+03 -0.71206204727E+03  0.72724557496E+03  0.47000000000E+01 0. -1.
          1    1    1    2  502    0  0.58731693227E+02 -0.29915821314E+01 -0.20540688108E+04  0.20549104702E+04  0.00000000000E+00 0. -1.
          1    1    1    2  503    0  0.13586343210E+03 -0.22722970577E+03  0.14705818115E+04  0.14942232349E+04  0.00000000000E+00 0. -1.
<mgrwt>
<rscale>  0 0.12299259E+03</rscale>
<asrwt>0</asrwt>
<pdfrwt beam="1">  1        2 0.24373986E+00 0.25723065E+03</pdfrwt>
<pdfrwt beam="2">  1        2 0.50966981E+00 0.58807834E+02</pdfrwt>
<totfact> 0.33940753E+00</totfact>
</mgrwt>
</event>
<event>
13    1  0.2742815E-008  0.3774383E+03  0.7546771E-02  0.1343049E+00
         -1   -1    0    0    0  501 -0.00000000000E+00  0.00000000000E+00  0.87079863227E+03  0.87079863227E+03  0.00000000000E+00 0.  1.
          2   -1    0    0  503    0  0.00000000000E+00 -0.00000000000E+00 -0.34893637507E+04  0.34893637507E+04  0.00000000000E+00 0. -1.
         25    2    1    2    0    0  0.17895333371E+02  0.24294963577E+02  0.12691783491E+03  0.18067575168E+03  0.12500040886E+03 0.  0.
         24    2    1    2    0    0 -0.31748978739E+02  0.13977364549E+02 -0.44014512133E+02  0.10296305896E+03  0.86375632338E+02 0.  0.
         24    2    1    2    0    0 -0.35498897974E+03 -0.15525722145E+03 -0.10454018381E+04  0.11175545573E+04  0.77079211581E+02 0.  0.
        -13    1    4    4    0    0 -0.55508910518E+02  0.98322209570E+01 -0.43491841254E+01  0.56540490964E+02  0.00000000000E+00 0.  1.
         14    1    4    4    0    0  0.23759931779E+02  0.41451435920E+01 -0.39665328008E+02  0.46422567998E+02  0.00000000000E+00 0. -1.
        -13    1    5    5    0    0 -0.55182312179E+02 -0.26662944271E+02 -0.25944552186E+03  0.26658578167E+03  0.00000000000E+00 0.  1.
         14    1    5    5    0    0 -0.29980666756E+03 -0.12859427718E+03 -0.78595631620E+03  0.85096877558E+03  0.00000000000E+00 0. -1.
          5    1    3    3  502    0  0.41149689481E+02  0.45524540344E+02  0.13679999546E+02  0.63047704998E+02  0.47000000000E+01 0. -1.
         -5    1    3    3    0  502 -0.23254356110E+02 -0.21229576767E+02  0.11323783537E+03  0.11762804668E+03  0.47000000000E+01 0. -1.
          1    1    1    2  503    0  0.35404398087E+03  0.11948942502E+03 -0.22923015526E+04  0.23225570545E+04  0.00000000000E+00 0. -1.
         -2    1    1    2    0  501  0.14798644230E+02 -0.25045316968E+01  0.63623494952E+03  0.63641196056E+03  0.00000000000E+00 0.  1.
<mgrwt>
<rscale>  0 0.75266208E+02</rscale>
<asrwt>0</asrwt>
<pdfrwt beam="2">  1        2 0.51314172E+00 0.37743827E+03</pdfrwt>
<pdfrwt beam="1">  1       -1 0.12805862E+00 0.15009082E+02</pdfrwt>
<totfact> 0.95162579E-01</totfact>
</mgrwt>
</event>
<event>
13    1  0.2742815E-008  0.4917183E+02  0.7546771E-02  0.1476969E+00
          4   -1    0    0  503    0 -0.00000000000E+00  0.00000000000E+00  0.40786623894E+03  0.40786623894E+03  0.00000000000E+00 0. -1.
          2   -1    0    0  502    0  0.00000000000E+00 -0.00000000000E+00 -0.10635290100E+04  0.10635290100E+04  0.00000000000E+00 0. -1.
         25    2    1    2    0    0 -0.36029733351E+02  0.20052495929E+02  0.51852183951E+01  0.13172635675E+03  0.12499880917E+03 0.  0.
         24    2    1    2    0    0  0.60760808676E+02  0.57595596240E+01  0.58900872545E+02  0.11726766678E+03  0.80977431969E+02 0.  0.
         24    2    1    2    0    0 -0.51165558559E+02 -0.16212248044E+01 -0.80903761765E+02  0.11943293747E+03  0.71402136757E+02 0.  0.
        -11    1    5    5    0    0 -0.67151727618E+02  0.92131973416E+01 -0.56019265917E+02  0.87934041652E+02  0.00000000000E+00 0.  1.
         12    1    5    5    0    0  0.15986169059E+02 -0.10834422146E+02 -0.24884495847E+02  0.31498895822E+02  0.00000000000E+00 0. -1.
        -11    1    4    4    0    0 -0.10124270570E+02  0.16754591516E+02  0.37680173418E+02  0.42461896569E+02  0.00000000000E+00 0.  1.
         12    1    4    4    0    0  0.70885079246E+02 -0.10995031892E+02  0.21220699128E+02  0.74805770215E+02  0.00000000000E+00 0. -1.
          5    1    3    3  501    0 -0.14910342462E+02  0.51624420484E+02 -0.43855189743E+02  0.69518103901E+02  0.47000000000E+01 0.  1.
         -5    1    3    3    0  501 -0.21119390890E+02 -0.31571924555E+02  0.49040408138E+02  0.62208252845E+02  0.47000000000E+01 0.  1.
          1    1    1    2  502    0  0.31695616820E+02  0.25083636468E+02 -0.86778541916E+03  0.86872627142E+03  0.00000000000E+00 0. -1.
          3    1    1    2  503    0 -0.52611335857E+01 -0.49274467217E+02  0.22894031896E+03  0.23424201649E+03  0.00000000000E+00 0. -1.
<mgrwt>
<rscale>  0 0.44581840E+02</rscale>
<asrwt>0</asrwt>
<pdfrwt beam="2">  1        2 0.15640132E+00 0.40420304E+02</pdfrwt>
<pdfrwt beam="1">  1        4 0.59980330E-01 0.49171833E+02</pdfrwt>
<totfact> 0.35868396E+01</totfact>
</mgrwt>
</event>
<event>
13    1  0.2742815E-008  0.1280708E+03  0.7546771E-02  0.1502705E+00
         -1   -1    0    0    0  501 -0.00000000000E+00  0.00000000000E+00  0.12325867791E+04  0.12325867791E+04  0.00000000000E+00 0.  1.
          2   -1    0    0  503    0  0.00000000000E+00 -0.00000000000E+00 -0.36226542750E+04  0.36226542750E+04  0.00000000000E+00 0. -1.
         25    2    1    2    0    0  0.21023269594E+03  0.87241370789E+02  0.61481931848E+03  0.66741118867E+03  0.12500422861E+03 0.  0.
         24    2    1    2    0    0  0.68467984393E+02 -0.19489691976E+03 -0.25596505816E+03  0.33789087114E+03  0.77326939597E+02 0.  0.
         24    2    1    2    0    0 -0.26017258326E+03 -0.77195767119E+01 -0.17391182987E+04  0.17603473754E+04  0.80876821820E+02 0.  0.
        -11    1    4    4    0    0 -0.46338330746E+00 -0.11490673119E+03 -0.12909600463E+03  0.17282809380E+03  0.00000000000E+00 0.  1.
         12    1    4    4    0    0  0.68931367701E+02 -0.79990188568E+02 -0.12686905353E+03  0.16506277734E+03  0.00000000000E+00 0. -1.
        -13    1    5    5    0    0 -0.98486957285E+02 -0.79405371548E+01 -0.42579676415E+03  0.43711053207E+03  0.00000000000E+00 0.  1.
         14    1    5    5    0    0 -0.16168562597E+03  0.22096044285E+00 -0.13133215345E+04  0.13232368433E+04  0.00000000000E+00 0. -1.
          5    1    3    3  502    0  0.10674106572E+03  0.39557157605E+02  0.14750474050E+03  0.18638176493E+03  0.47000000000E+01 0.  1.
         -5    1    3    3    0  502  0.10349163022E+03  0.47684213185E+02  0.46731457798E+03  0.48102942374E+03  0.47000000000E+01 0.  1.
          1    1    1    2  503    0 -0.13632482218E+02  0.12738693501E+03 -0.15469712922E+04  0.15522671982E+04  0.00000000000E+00 0. -1.
         -2    1    1    2    0  501 -0.48956148644E+01 -0.12011809334E+02  0.53716783458E+03  0.53732442073E+03  0.00000000000E+00 0.  1.
<mgrwt>
<rscale>  0 0.40758129E+02</rscale>
<asrwt>0</asrwt>
<pdfrwt beam="2">  1        2 0.53274327E+00 0.12807081E+03</pdfrwt>
<pdfrwt beam="1">  1       -1 0.18126276E+00 0.12971145E+02</pdfrwt>
<totfact> 0.40721083E-01</totfact>
</mgrwt>
</event>
<event>
13    1  0.2742815E-008  0.1027702E+03  0.7546771E-02  0.1284381E+00
          2   -1    0    0  503    0  0.00000000000E+00  0.00000000000E+00  0.24358345525E+04  0.24358345525E+04  0.00000000000E+00 0. -1.
          2   -1    0    0  502    0 -0.00000000000E+00 -0.00000000000E+00 -0.23538339083E+04  0.23538339083E+04  0.00000000000E+00 0. -1.
         25    2    1    2    0    0 -0.39377451613E+01 -0.13363599087E+03 -0.47591850192E+03  0.50989921901E+03  0.12499883674E+03 0.  0.
         24    2    1    2    0    0  0.49003506703E+02 -0.56319483831E+02 -0.59619935222E+01  0.11123242258E+03  0.82242802345E+02 0.  0.
         24    2    1    2    0    0  0.27982672964E+01  0.10239554259E+01  0.34392884945E+03  0.35298127087E+03  0.79371564906E+02 0.  0.
        -11    1    5    5    0    0  0.13256830440E+02  0.35272750451E+02  0.10878736807E+03  0.11512863210E+03  0.00000000000E+00 0.  1.
         12    1    5    5    0    0 -0.10458563143E+02 -0.34248795025E+02  0.23514148138E+03  0.23785263877E+03  0.00000000000E+00 0. -1.
        -13    1    4    4    0    0  0.49527542987E+02 -0.64475931806E+02 -0.29365042006E+02  0.86443212507E+02  0.00000000000E+00 0.  1.
         14    1    4    4    0    0 -0.52403628350E+00  0.81564479752E+01  0.23403048483E+02  0.24789210070E+02  0.00000000000E+00 0. -1.
          5    1    3    3  501    0  0.30424103486E+02 -0.12785769606E+03 -0.26246904914E+03  0.29357334394E+03  0.47000000000E+01 0. -1.
         -5    1    3    3    0  501 -0.34361848648E+02 -0.57782948027E+01 -0.21344945278E+03  0.21632587507E+03  0.47000000000E+01 0. -1.
          1    1    1    2  502    0 -0.62868356583E+02  0.81298255942E+02 -0.17948673828E+04  0.17978072083E+04  0.00000000000E+00 0. -1.
          1    1    1    2  503    0  0.15004327745E+02  0.10763326333E+03  0.20148196729E+04  0.20177483400E+04  0.00000000000E+00 0. -1.
<mgrwt>
<rscale>  0 0.98082362E+02</rscale>
<asrwt>0</asrwt>
<pdfrwt beam="1">  1        2 0.35821097E+00 0.93608394E+02</pdfrwt>
<pdfrwt beam="2">  1        2 0.34615204E+00 0.10277016E+03</pdfrwt>
<totfact> 0.54331229E+00</totfact>
</mgrwt>
</event>
<event>
13    1  0.2742815E-008  0.3488234E+02  0.7546771E-02  0.1592368E+00
          2   -1    0    0  502    0  0.00000000000E+00  0.00000000000E+00  0.10582678847E+04  0.10582678847E+04  0.00000000000E+00 0. -1.
          4   -1    0    0  503    0 -0.00000000000E+00 -0.00000000000E+00 -0.72295896027E+03  0.72295896027E+03  0.00000000000E+00 0. -1.
         25    2    1    2    0    0  0.66728339818E+02  0.41198256288E+02 -0.15791424393E+03  0.21612579027E+03  0.12499392436E+03 0.  0.
         24    2    1    2    0    0 -0.12800879625E+02 -0.37778468174E+02  0.95952048832E+02  0.13012772297E+03  0.78328496947E+02 0.  0.
         24    2    1    2    0    0 -0.59562017012E+02  0.12023020247E+02  0.18150379484E+03  0.20764739815E+03  0.80508555638E+02 0.  0.
        -13    1    4    4    0    0  0.16073876523E+02  0.18562448706E+02  0.25156062347E+02  0.35153399284E+02  0.00000000000E+00 0.  1.
         14    1    4    4    0    0 -0.28874756148E+02 -0.56340916879E+02  0.70795986485E+02  0.94974323687E+02  0.00000000000E+00 0. -1.
        -13    1    5    5    0    0 -0.65884878569E+02 -0.19247574705E+02  0.11596498668E+03  0.13475594418E+03  0.00000000000E+00 0.  1.
         14    1    5    5    0    0  0.63228615569E+01  0.31270594952E+02  0.65538808163E+02  0.72891453973E+02  0.00000000000E+00 0. -1.
          5    1    3    3  501    0  0.79428546637E+02  0.73708142694E+02 -0.95749654267E+02  0.14467850778E+03  0.47000000000E+01 0.  1.
         -5    1    3    3    0  501 -0.12700206819E+02 -0.32509886406E+02 -0.62164589666E+02  0.71447282493E+02  0.47000000000E+01 0.  1.
          1    1    1    2  502    0  0.21706825584E+02  0.15564146017E+02  0.72069603406E+03  0.72119082248E+03  0.00000000000E+00 0. -1.
          3    1    1    2  503    0 -0.16072268765E+02 -0.31006954378E+02 -0.50492870942E+03  0.50613511105E+03  0.00000000000E+00 0. -1.
<mgrwt>
<rscale>  0 0.30523932E+02</rscale>
<asrwt>0</asrwt>
<pdfrwt beam="1">  1        2 0.15562763E+00 0.26710090E+02</pdfrwt>
<pdfrwt beam="2">  1        4 0.10631749E+00 0.34882340E+02</pdfrwt>
<totfact> 0.10468983E+01</totfact>
</mgrwt>
</event>
<event>
13    1  0.2742815E-008  0.8394945E+02  0.7546771E-02  0.1361821E+00
          2   -1    0    0  503    0  0.00000000000E+00  0.00000000000E+00  0.79485115774E+03  0.79485115774E+03  0.00000000000E+00 0. -1.
          2   -1    0    0  502    0 -0.00000000000E+00 -0.00000000000E+00 -0.34487995490E+04  0.34487995490E+04  0.00000000000E+00 0. -1.
         25    2    1    2    0    0  0.60687559689E+02 -0.12497151260E+03 -0.62003750801E+03  0.64758963861E+03  0.12499987935E+03 0.  0.
         24    2    1    2    0    0  0.23826914348E+02  0.85167661401E+02 -0.10335448138E+03  0.15821710164E+03  0.80803774880E+02 0.  0.
         24    2    1    2    0    0  0.54713369972E+02  0.19672996429E+02  0.32759656696E+02  0.10432452836E+03  0.80186236155E+02 0.  0.
        -11    1    5    5    0    0  0.26259414548E+02 -0.29754635409E+02  0.25048450431E+01  0.39763921203E+02  0.00000000000E+00 0.  1.
         12    1    5    5    0    0  0.28453955424E+02  0.49427631839E+02  0.30254811652E+02  0.64560607158E+02  0.00000000000E+00 0. -1.
        -11    1    4    4    0    0  0.70434176723E+01  0.80220962963E+02 -0.35260189454E+02  0.87910713747E+02  0.00000000000E+00 0.  1.
         12    1    4    4    0    0  0.16783496676E+02  0.49466984379E+01 -0.68094291923E+02  0.70306387893E+02  0.00000000000E+00 0. -1.
          5    1    3    3  501    0 -0.38082959430E+02 -0.38522619111E+02 -0.15019129434E+03  0.15973045695E+03  0.47000000000E+01 0. -1.
         -5    1    3    3    0  501  0.98770519119E+02 -0.86448893492E+02 -0.46984621366E+03  0.48785918165E+03  0.47000000000E+01 0. -1.
          1    1    1    2  502    0 -0.52283562962E+02 -0.23998871620E+02 -0.26446342502E+04  0.26452598802E+04  0.00000000000E+00 0. -1.
          1    1    1    2  503    0 -0.86944281047E+02  0.44129726392E+02  0.68131819162E+03  0.68825955787E+03  0.00000000000E+00 0. -1.
<mgrwt>
<rscale>  0 0.69494442E+02</rscale>
<asrwt>0</asrwt>
<pdfrwt beam="1">  1        2 0.11688987E+00 0.83949450E+02</pdfrwt>
<pdfrwt beam="2">  1        2 0.50717642E+00 0.57528400E+02</pdfrwt>
<totfact> 0.11082337E+01</totfact>
</mgrwt>
</event>
<event>
13    1  0.2742815E-008  0.1179480E+03  0.7546771E-02  0.1287106E+00
          2   -1    0    0  503    0  0.00000000000E+00  0.00000000000E+00  0.15607992513E+04  0.15607992513E+04  0.00000000000E+00 0. -1.
          2   -1    0    0  502    0 -0.00000000000E+00 -0.00000000000E+00 -0.23281688913E+04  0.23281688913E+04  0.00000000000E+00 0. -1.
         25    2    1    2    0    0 -0.29487350076E+03 -0.22424672216E+03 -0.53197484367E+03  0.66019728151E+03  0.12500496933E+03 0.  0.
         24    2    1    2    0    0  0.30837176909E+03  0.18687842698E+03  0.35597304914E+02  0.37086589746E+03  0.79105318017E+02 0.  0.
         24    2    1    2    0    0  0.43444593191E+02  0.11598230487E+03  0.71124258773E+02  0.16432540947E+03  0.81270242354E+02 0.  0.
        -11    1    4    4    0    0  0.16804423407E+03  0.94192475615E+02 -0.20148994349E+02  0.19369323437E+03  0.00000000000E+00 0.  1.
         12    1    4    4    0    0  0.14032753502E+03  0.92685951364E+02  0.55746299263E+02  0.17717266309E+03  0.00000000000E+00 0. -1.
        -11    1    5    5    0    0  0.38654798881E+02  0.12627695593E+03  0.75543891819E+02  0.15214119319E+03  0.00000000000E+00 0.  1.
         12    1    5    5    0    0  0.47897943094E+01 -0.10294651063E+02 -0.44196330456E+01  0.12184216277E+02  0.00000000000E+00 0. -1.
          5    1    3    3  501    0 -0.30440746167E+03 -0.19970440857E+03 -0.49977176670E+03  0.61833620492E+03  0.47000000000E+01 0. -1.
         -5    1    3    3    0  501  0.95339609031E+01 -0.24542313587E+02 -0.32203076968E+02  0.41861076586E+02  0.47000000000E+01 0. -1.
          1    1    1    2  502    0 -0.69355251142E+02  0.38847436588E+02 -0.15138359497E+04  0.15159216856E+04  0.00000000000E+00 0. -1.
          1    1    1    2  503    0  0.12412389623E+02 -0.11746144627E+03  0.11717195897E+04  0.11776578686E+04  0.00000000000E+00 0. -1.
<mgrwt>
<rscale>  0 0.96830497E+02</rscale>
<asrwt>0</asrwt>
<pdfrwt beam="1">  1        2 0.22952930E+00 0.11794804E+03</pdfrwt>
<pdfrwt beam="2">  1        2 0.34237778E+00 0.79493863E+02</pdfrwt>
<totfact> 0.15011670E+01</totfact>
</mgrwt>
</event>
<event>
13    1  0.2742815E-008  0.1121144E+03  0.7546771E-02  0.1401627E+00
          2   -1    0    0  503    0  0.00000000000E+00  0.00000000000E+00  0.40008090140E+04  0.40008090140E+04  0.00000000000E+00 0. -1.
          2   -1    0    0  502    0 -0.00000000000E+00 -0.00000000000E+00 -0.11274606915E+04  0.11274606915E+04  0.00000000000E+00 0. -1.
         25    2    1    2    0    0 -0.14786835327E+02 -0.28219955089E+03 -0.78556405233E+03  0.84415132132E+03  0.12500134376E+03 0.  0.
         24    2    1    2    0    0  0.77409469009E+02  0.39231051307E+02  0.43863689933E+03  0.45420966905E+03  0.79829773424E+02 0.  0.
         24    2    1    2    0    0  0.55443397174E+02  0.30820327044E+03  0.25529263359E+04  0.25733058924E+04  0.80044447214E+02 0.  0.
        -13    1    4    4    0    0 -0.47469087719E+01 -0.71434862342E+01  0.40214605233E+01  0.94728392368E+01  0.00000000000E+00 0.  1.
         14    1    4    4    0    0  0.82156377781E+02  0.46374537541E+02  0.43461543881E+03  0.44473682982E+03  0.00000000000E+00 0. -1.
        -13    1    5    5    0    0  0.45293570380E+02  0.22086294796E+03  0.15180937526E+04  0.15347444709E+04  0.00000000000E+00 0.  1.
         14    1    5    5    0    0  0.10149826794E+02  0.87340322479E+02  0.10348325832E+04  0.10385614215E+04  0.00000000000E+00 0. -1.
          5    1    3    3  501    0  0.27108680608E+02 -0.52264953920E+01 -0.55235747071E+02  0.61929593676E+02  0.47000000000E+01 0.  1.
         -5    1    3    3    0  501 -0.41895515934E+02 -0.27697305550E+03 -0.73032830526E+03  0.78222172764E+03  0.47000000000E+01 0.  1.
          1    1    1    2  502    0 -0.22491910632E+02  0.21563863832E+02 -0.28945512498E+03  0.29112738732E+03  0.00000000000E+00 0. -1.
          1    1    1    2  503    0 -0.95574120225E+02 -0.86798634686E+02  0.95680426461E+03  0.96547543533E+03  0.00000000000E+00 0. -1.
<mgrwt>
<rscale>  0 0.59104802E+02</rscale>
<asrwt>0</asrwt>
<pdfrwt beam="1">  1        2 0.58835426E+00 0.11211439E+03</pdfrwt>
<pdfrwt beam="2">  1        2 0.16580304E+00 0.31159048E+02</pdfrwt>
<totfact> 0.29929888E+00</totfact>
</mgrwt>
</event>
<event>
13    1  0.2742815E-008  0.1126803E+03  0.7546771E-02  0.1462109E+00
          2   -1    0    0  503    0  0.00000000000E+00  0.00000000000E+00  0.64903886458E+03  0.64903886458E+03  0.00000000000E+00 0. -1.
          2   -1    0    0  502    0 -0.00000000000E+00 -0.00000000000E+00 -0.16433505337E+04  0.16433505337E+04  0.00000000000E+00 0. -1.
         25    2    1    2    0    0 -0.16446492987E+03 -0.26374498915E+02 -0.52189013178E+03  0.56190570904E+03  0.12499755538E+03 0.  0.
         24    2    1    2    0    0  0.18182033269E+02  0.17594798123E+02 -0.25014715608E+02  0.87705876186E+02  0.80164964079E+02 0.  0.
         24    2    1    2    0    0  0.24269869002E+02  0.55258314709E+02  0.13704751342E+03  0.16832519922E+03  0.76869004636E+02 0.  0.
        -11    1    5    5    0    0 -0.21306005559E+02  0.32444277477E+02  0.27706130283E+02  0.47688642978E+02  0.00000000000E+00 0.  1.
         12    1    5    5    0    0  0.45575874560E+02  0.22814037232E+02  0.10934138314E+03  0.12063655625E+03  0.00000000000E+00 0. -1.
        -11    1    4    4    0    0 -0.56291355426E+01  0.13222444364E+02 -0.50529623610E+02  0.52533447098E+02  0.00000000000E+00 0.  1.
         12    1    4    4    0    0  0.23811168812E+02  0.43723537592E+01  0.25514908001E+02  0.35172429087E+02  0.00000000000E+00 0. -1.
          5    1    3    3  501    0 -0.17125660527E+03  0.92694088335E+01 -0.42366430956E+03  0.45708673574E+03  0.47000000000E+01 0. -1.
         -5    1    3    3    0  501  0.67916753977E+01 -0.35643907748E+02 -0.98225822216E+02  0.10481897330E+03  0.47000000000E+01 0. -1.
          1    1    1    2  502    0  0.16508525192E+02  0.10604591236E+02 -0.10212734161E+04  0.10214618834E+04  0.00000000000E+00 0. -1.
          1    1    1    2  503    0  0.10550450241E+03 -0.57083205153E+02  0.43681908098E+03  0.45299073042E+03  0.00000000000E+00 0. -1.
<mgrwt>
<rscale>  0 0.47020357E+02</rscale>
<asrwt>0</asrwt>
<pdfrwt beam="1">  1        2 0.95446893E-01 0.11268026E+03</pdfrwt>
<pdfrwt beam="2">  1        2 0.24166919E+00 0.19621130E+02</pdfrwt>
<totfact> 0.12228575E+02</totfact>
</mgrwt>
</event>
<event>
13    1  0.2742815E-008  0.1055787E+03  0.7546771E-02  0.1357546E+00
         -3   -1    0    0    0  501 -0.00000000000E+00  0.00000000000E+00  0.60238962869E+03  0.60238962869E+03  0.00000000000E+00 0.  1.
          2   -1    0    0  503    0  0.00000000000E+00 -0.00000000000E+00 -0.14684460942E+04  0.14684460942E+04  0.00000000000E+00 0. -1.
         25    2    1    2    0    0 -0.78845207224E+02 -0.25216999899E+02  0.30608617163E+03  0.34083250744E+03  0.12500235949E+03 0.  0.
         24    2    1    2    0    0 -0.37691138977E+02  0.19110060282E+02  0.52707565544E+02  0.10539945692E+03  0.80902049987E+02 0.  0.
         24    2    1    2    0    0  0.15230786651E+03  0.13589566563E+03 -0.11383414465E+03  0.24766560503E+03  0.81943402968E+02 0.  0.
        -11    1    5    5    0    0  0.10331772992E+03  0.37604568720E+02 -0.61997373583E+02  0.12622333871E+03  0.00000000000E+00 0.  1.
         12    1    5    5    0    0  0.48990136593E+02  0.98291096906E+02 -0.51836771068E+02  0.12144226632E+03  0.00000000000E+00 0. -1.
        -13    1    4    4    0    0 -0.35429932482E+00  0.25890559298E+02 -0.13414883944E+02  0.29161716342E+02  0.00000000000E+00 0.  1.
         14    1    4    4    0    0 -0.37336839652E+02 -0.67804990162E+01  0.66122449488E+02  0.76237740578E+02  0.00000000000E+00 0. -1.
          5    1    3    3  502    0 -0.14124820136E+02  0.40485760086E+02  0.38709081184E+02  0.57957659371E+02  0.47000000000E+01 0. -1.
         -5    1    3    3    0  502 -0.64720387088E+02 -0.65702759985E+02  0.26737709045E+03  0.28287484807E+03  0.47000000000E+01 0. -1.
          1    1    1    2  503    0 -0.58107555198E+02 -0.87962206065E+02 -0.12374358747E+04  0.12419184279E+04  0.00000000000E+00 0. -1.
         -4    1    1    2    0  501  0.22336034889E+02 -0.41826519945E+02  0.12641981671E+03  0.13501972553E+03  0.00000000000E+00 0.  1.
<mgrwt>
<rscale>  0 0.70754561E+02</rscale>
<asrwt>0</asrwt>
<pdfrwt beam="2">  1        2 0.21594796E+00 0.10557870E+03</pdfrwt>
<pdfrwt beam="1">  1       -3 0.88586710E-01 0.47416835E+02</pdfrwt>
<totfact> 0.11724710E+01</totfact>
</mgrwt>
</event>
<event>
13    1  0.2742815E-008  0.1360149E+03  0.7546771E-02  0.1475477E+00
          2   -1    0    0  503    0  0.00000000000E+00  0.00000000000E+00  0.11144236354E+04  0.11144236354E+04  0.00000000000E+00 0. -1.
         -1   -1    0    0    0  501 -0.00000000000E+00 -0.00000000000E+00 -0.93711303647E+03  0.93711303647E+03  0.00000000000E+00 0.  1.
         25    2    1    2    0    0 -0.12018513516E+02  0.51468435224E+02 -0.12207224282E+03  0.18254140724E+03  0.12500515349E+03 0.  0.
         24    2    1    2    0    0 -0.24444578411E+01 -0.43072843787E+02 -0.38435294158E+01  0.92194746234E+02  0.81387058361E+02 0.  0.
         24    2    1    2    0    0 -0.11563806476E+03  0.30037193072E+01  0.71549726820E+02  0.15764288737E+03  0.79691481219E+02 0.  0.
        -11    1    4    4    0    0 -0.13105591104E+02  0.19269886732E+02 -0.15354843725E+02  0.27907996680E+02  0.00000000000E+00 0.  1.
         12    1    4    4    0    0  0.10661133263E+02 -0.62342730520E+02  0.11511314309E+02  0.64286749554E+02  0.00000000000E+00 0. -1.
        -11    1    5    5    0    0 -0.13088323754E+02 -0.28896305507E+02  0.25876499340E+02  0.40937683236E+02  0.00000000000E+00 0.  1.
         12    1    5    5    0    0 -0.10254974100E+03  0.31900024814E+02  0.45673227480E+02  0.11670520413E+03  0.00000000000E+00 0. -1.
          5    1    3    3  502    0 -0.66618242202E+02  0.27703516734E+02 -0.87567827733E+02  0.11355918936E+03  0.47000000000E+01 0.  1.
         -5    1    3    3    0  502  0.54599728686E+02  0.23764918490E+02 -0.34504415088E+02  0.68982217882E+02  0.47000000000E+01 0.  1.
          1    1    1    2  503    0  0.13638714745E+03 -0.24763011004E+02  0.92014669316E+03  0.93052920300E+03  0.00000000000E+00 0. -1.
         -2    1    1    2    0  501 -0.62861113355E+01  0.13363700260E+02 -0.68847004885E+03  0.68862842799E+03  0.00000000000E+00 0.  1.
<mgrwt>
<rscale>  0 0.44818676E+02</rscale>
<asrwt>0</asrwt>
<pdfrwt beam="1">  1        2 0.16388583E+00 0.13601492E+03</pdfrwt>
<pdfrwt beam="2">  1       -1 0.13781074E+00 0.14768334E+02</pdfrwt>
<totfact> 0.16192965E+01</totfact>
</mgrwt>
</event>
<event>
13    1  0.2742815E-008  0.2380941E+03  0.7546771E-02  0.1253561E+00
          2   -1    0    0  502    0  0.00000000000E+00  0.00000000000E+00  0.39863781767E+03  0.39863781767E+03  0.00000000000E+00 0. -1.
          2   -1    0    0  503    0 -0.00000000000E+00 -0.00000000000E+00 -0.28725636842E+04  0.28725636842E+04  0.00000000000E+00 0. -1.
         25    2    1    2    0    0  0.13694942772E+03  0.25421836258E+03 -0.34367470385E+03  0.46596282631E+03  0.12500772699E+03 0.  0.
         24    2    1    2    0    0 -0.44939450631E+02 -0.19837966777E+02 -0.13560074329E+03  0.16863499603E+03  0.87390509539E+02 0.  0.
         24    2    1    2    0    0  0.33026474230E+02 -0.45810418765E+02 -0.74769059661E+01  0.93432825265E+02  0.74057047246E+02 0.  0.
        -11    1    5    5    0    0  0.50962052058E+02 -0.41081083112E+02 -0.22860125601E+02  0.69335210983E+02  0.00000000000E+00 0.  1.
         12    1    5    5    0    0 -0.17935577828E+02 -0.47293356532E+01  0.15383219635E+02  0.24097614282E+02  0.00000000000E+00 0. -1.
        -13    1    4    4    0    0  0.92391443258E+01 -0.41036857702E+02 -0.57976274179E+02  0.71628442993E+02  0.00000000000E+00 0.  1.
         14    1    4    4    0    0 -0.54178594956E+02  0.21198890925E+02 -0.77624469108E+02  0.97006553037E+02  0.00000000000E+00 0. -1.
          5    1    3    3  501    0  0.13982691576E+03  0.15578476097E+03 -0.18635646632E+03  0.28030569145E+03  0.47000000000E+01 0.  1.
         -5    1    3    3    0  501 -0.28774880373E+01  0.98433601614E+02 -0.15731823753E+03  0.18565713486E+03  0.47000000000E+01 0.  1.
          1    1    1    2  502    0  0.46330474918E+02 -0.28628330943E+02  0.26920000429E+03  0.27465384860E+03  0.00000000000E+00 0. -1.
          1    1    1    2  503    0 -0.17136692624E+03 -0.15994164610E+03 -0.22563735177E+04  0.22685170057E+04  0.00000000000E+00 0. -1.
<mgrwt>
<rscale>  0 0.11387293E+03</rscale>
<asrwt>0</asrwt>
<pdfrwt beam="1">  1        2 0.58623207E-01 0.54461860E+02</pdfrwt>
<pdfrwt beam="2">  1        2 0.42243585E+00 0.23809405E+03</pdfrwt>
<totfact> 0.39282209E+01</totfact>
</mgrwt>
</event>
<event>
13    1  0.2742815E-008  0.9603246E+02  0.7546771E-02  0.1395595E+00
          2   -1    0    0  503    0  0.00000000000E+00  0.00000000000E+00  0.21596039583E+04  0.21596039583E+04  0.00000000000E+00 0. -1.
          2   -1    0    0  502    0 -0.00000000000E+00 -0.00000000000E+00 -0.12202197179E+04  0.12202197179E+04  0.00000000000E+00 0. -1.
         25    2    1    2    0    0 -0.44703889960E+02 -0.95103778783E+01 -0.10289151930E+03  0.16822519818E+03  0.12499666993E+03 0.  0.
         24    2    1    2    0    0  0.27609747327E+02  0.58239451600E+02  0.16240138159E+03  0.19300679834E+03  0.81995631546E+02 0.  0.
         24    2    1    2    0    0 -0.12008922627E+01  0.50039555410E+02  0.65578804520E+02  0.11441627090E+03  0.79278649059E+02 0.  0.
        -13    1    5    5    0    0  0.16367340786E+02 -0.17355088502E+02  0.20499942175E+02  0.31453721092E+02  0.00000000000E+00 0.  1.
         14    1    5    5    0    0 -0.17568233049E+02  0.67394643912E+02  0.45078862345E+02  0.82962549809E+02  0.00000000000E+00 0. -1.
        -13    1    4    4    0    0 -0.15161115763E+02 -0.10234165707E+02  0.10783967590E+02  0.21234206740E+02  0.00000000000E+00 0.  1.
         14    1    4    4    0    0  0.42770863090E+02  0.68473617307E+02  0.15161741400E+03  0.17177259160E+03  0.00000000000E+00 0. -1.
          5    1    3    3  501    0 -0.70721567229E+02  0.12276452634E+02 -0.11169452984E+03  0.13285333777E+03  0.47000000000E+01 0.  1.
         -5    1    3    3    0  501  0.26017677269E+02 -0.21786830513E+02  0.88030105420E+01  0.35371860410E+02  0.47000000000E+01 0.  1.
          1    1    1    2  502    0 -0.19633167838E+02 -0.94565052187E+02 -0.10425117449E+04  0.10469760020E+04  0.00000000000E+00 0. -1.
          1    1    1    2  503    0  0.37928202734E+02 -0.42035769450E+01  0.18568073185E+04  0.18571994068E+04  0.00000000000E+00 0. -1.
<mgrwt>
<rscale>  0 0.60536272E+02</rscale>
<asrwt>0</asrwt>
<pdfrwt beam="1">  1        2 0.31758882E+00 0.38160433E+02</pdfrwt>
<pdfrwt beam="2">  1        2 0.17944408E+00 0.96032462E+02</pdfrwt>
<totfact> 0.29869378E+01</totfact>
</mgrwt>
</event>
<event>
13    1  0.2742815E-008  0.6015477E+02  0.7546771E-02  0.1566401E+00
          2   -1    0    0  503    0  0.00000000000E+00  0.00000000000E+00  0.52425465152E+03  0.52425465152E+03  0.00000000000E+00 0. -1.
          2   -1    0    0  502    0 -0.00000000000E+00 -0.00000000000E+00 -0.27671247795E+04  0.27671247795E+04  0.00000000000E+00 0. -1.
         25    2    1    2    0    0 -0.22846076874E+02 -0.38225223437E+03 -0.14939020740E+04  0.15472579910E+04  0.12500068053E+03 0.  0.
         24    2    1    2    0    0  0.28835664774E+02  0.34555303722E+03 -0.13882987293E+03  0.38216913361E+03  0.80877165943E+02 0.  0.
         24    2    1    2    0    0  0.77516478367E+01 -0.40284580641E+02 -0.34937750846E+02  0.96793617738E+02  0.80407851103E+02 0.  0.
        -13    1    5    5    0    0 -0.33720732189E+02 -0.15518779315E+02 -0.30940438530E+02  0.48324228160E+02  0.00000000000E+00 0.  1.
         14    1    5    5    0    0  0.41472380026E+02 -0.24765801326E+02 -0.39973123157E+01  0.48469389578E+02  0.00000000000E+00 0. -1.
        -13    1    4    4    0    0  0.31554454106E+02  0.18527928533E+03 -0.34986687505E+02  0.19117574493E+03  0.00000000000E+00 0.  1.
         14    1    4    4    0    0 -0.27187893320E+01  0.16027375188E+03 -0.10384318543E+03  0.19099338868E+03  0.00000000000E+00 0. -1.
          5    1    3    3  501    0  0.34220823339E+02 -0.27869882111E+03 -0.95035211935E+03  0.99097696158E+03  0.47000000000E+01 0.  1.
         -5    1    3    3    0  501 -0.57066900213E+02 -0.10355341325E+03 -0.54354995468E+03  0.55628102945E+03  0.47000000000E+01 0.  1.
          1    1    1    2  502    0 -0.11592881942E+02  0.58926637222E+02 -0.91895908391E+03  0.92091940005E+03  0.00000000000E+00 0. -1.
          1    1    1    2  503    0 -0.21483537942E+01  0.18057140568E+02  0.34375865376E+03  0.34423928856E+03  0.00000000000E+00 0. -1.
<mgrwt>
<rscale>  0 0.33073915E+02</rscale>
<asrwt>0</asrwt>
<pdfrwt beam="1">  1        2 0.77096271E-01 0.18184492E+02</pdfrwt>
<pdfrwt beam="2">  1        2 0.40693012E+00 0.60154766E+02</pdfrwt>
<totfact> 0.41206082E+01</totfact>
</mgrwt>
</event>
<event>
13    1  0.2742815E-008  0.1044961E+03  0.7546771E-02  0.1290246E+00
          2   -1    0    0  503    0  0.00000000000E+00  0.00000000000E+00  0.12526084796E+04  0.12526084796E+04  0.00000000000E+00 0. -1.
          2   -1    0    0  502    0 -0.00000000000E+00 -0.00000000000E+00 -0.37333374010E+04  0.37333374010E+04  0.00000000000E+00 0. -1.
         25    2    1    2    0    0 -0.15205544889E+03 -0.29367389946E+02 -0.38768099746E+03  0.43577940605E+03  0.12499532720E+03 0.  0.
         24    2    1    2    0    0  0.54455701082E+02 -0.43080922382E+02 -0.28486853131E+02  0.11289973150E+03  0.84341326271E+02 0.  0.
         24    2    1    2    0    0 -0.48814863364E+02 -0.34698551852E+02  0.86838994864E+02  0.12931964974E+03  0.74804280590E+02 0.  0.
        -13    1    5    5    0    0 -0.32373202041E+02  0.13916246655E+02  0.64186180974E+02  0.73222619179E+02  0.00000000000E+00 0.  1.
         14    1    5    5    0    0 -0.16441661323E+02 -0.48614798507E+02  0.22652813890E+02  0.56097030564E+02  0.00000000000E+00 0. -1.
        -13    1    4    4    0    0  0.55524939588E+02 -0.65977540257E+02 -0.20597074853E+02  0.88658300385E+02  0.00000000000E+00 0.  1.
         14    1    4    4    0    0 -0.10692385057E+01  0.22896617875E+02 -0.78897782784E+01  0.24241431112E+02  0.00000000000E+00 0. -1.
          5    1    3    3  501    0 -0.89980965377E+02 -0.65751052644E+02 -0.14699457506E+03  0.18452444324E+03  0.47000000000E+01 0. -1.
         -5    1    3    3    0  501 -0.62074483508E+02  0.36383662698E+02 -0.24068642239E+03  0.25125496282E+03  0.47000000000E+01 0. -1.
          1    1    1    2  502    0  0.10281006567E+03 -0.46906825347E+01 -0.32255095392E+04  0.32271510190E+04  0.00000000000E+00 0. -1.
          1    1    1    2  503    0  0.43604545501E+02  0.11183754671E+03  0.10741094735E+04  0.10807960743E+04  0.00000000000E+00 0. -1.
<mgrwt>
<rscale>  0 0.95413973E+02</rscale>
<asrwt>0</asrwt>
<pdfrwt beam="1">  1        2 0.18420713E+00 0.87121194E+02</pdfrwt>
<pdfrwt beam="2">  1        2 0.54902020E+00 0.10449611E+03</pdfrwt>
<totfact> 0.36572584E+00</totfact>
</mgrwt>
</event>
<event>
13    1  0.2742815E-008  0.1811441E+03  0.7546771E-02  0.1296726E+00
          2   -1    0    0  503    0  0.00000000000E+00  0.00000000000E+00  0.13355301748E+04  0.13355301748E+04  0.00000000000E+00 0. -1.
          2   -1    0    0  502    0 -0.00000000000E+00 -0.00000000000E+00 -0.11206987698E+04  0.11206987698E+04  0.00000000000E+00 0. -1.
         25    2    1    2    0    0 -0.27582611060E+02 -0.11323712916E+03 -0.69706083608E+03  0.71770700155E+03  0.12500433199E+03 0.  0.
         24    2    1    2    0    0 -0.42137748793E+02  0.68494582357E+02 -0.12493929483E+03  0.16809263521E+03  0.78601583546E+02 0.  0.
         24    2    1    2    0    0  0.68758910253E+02 -0.10303461956E+03  0.43947077444E+02  0.15408292807E+03  0.80413198791E+02 0.  0.
        -11    1    5    5    0    0 -0.12727288684E+02 -0.43483122790E+02  0.38104417225E+01  0.45467409327E+02  0.00000000000E+00 0.  1.
         12    1    5    5    0    0  0.81486198936E+02 -0.59551496767E+02  0.40136635722E+02  0.10861551874E+03  0.00000000000E+00 0. -1.
        -13    1    4    4    0    0  0.18944891110E+02  0.27473334809E+02 -0.16978322316E+02  0.37442708948E+02  0.00000000000E+00 0.  1.
         14    1    4    4    0    0 -0.61082639903E+02  0.41021247548E+02 -0.10796097251E+03  0.13064992627E+03  0.00000000000E+00 0. -1.
          5    1    3    3  501    0 -0.43713051113E+02 -0.45663161824E+02 -0.56378770092E+03  0.56733994826E+03  0.47000000000E+01 0. -1.
         -5    1    3    3    0  501  0.16130440052E+02 -0.67573967336E+02 -0.13327313516E+03  0.15036705329E+03  0.47000000000E+01 0. -1.
          1    1    1    2  502    0 -0.36513532185E+02 -0.30090127060E+02 -0.20212621970E+03  0.20759013096E+03  0.00000000000E+00 0. -1.
          1    1    1    2  503    0  0.37474981786E+02  0.17786729342E+03  0.11950106781E+04  0.12087562489E+04  0.00000000000E+00 0. -1.
<mgrwt>
<rscale>  0 0.92578219E+02</rscale>
<asrwt>0</asrwt>
<pdfrwt beam="1">  1        2 0.19640150E+00 0.18114409E+03</pdfrwt>
<pdfrwt beam="2">  1        2 0.16480864E+00 0.47314414E+02</pdfrwt>
<totfact> 0.76079995E+01</totfact>
</mgrwt>
</event>
<event>
13    1  0.2742815E-008  0.1046911E+03  0.7546771E-02  0.1327385E+00
          4   -1    0    0  503    0 -0.00000000000E+00  0.00000000000E+00  0.39345366533E+03  0.39345366533E+03  0.00000000000E+00 0. -1.
          2   -1    0    0  502    0  0.00000000000E+00 -0.00000000000E+00 -0.15763963438E+04  0.15763963438E+04  0.00000000000E+00 0. -1.
         25    2    1    2    0    0 -0.46446068233E+02  0.72565018050E+02  0.19930934328E+03  0.25054370476E+03  0.12500005832E+03 0.  0.
         24    2    1    2    0    0 -0.38831410542E+02 -0.55909898422E+02 -0.19397628454E+03  0.22131797392E+03  0.81982018954E+02 0.  0.
         24    2    1    2    0    0 -0.61604387749E+01 -0.11039554857E+02 -0.30958662682E+03  0.31992152557E+03  0.79662288721E+02 0.  0.
        -13    1    4    4    0    0 -0.21234855524E+02  0.19418430852E+02 -0.61765663812E+02  0.68139502288E+02  0.00000000000E+00 0.  1.
         14    1    4    4    0    0 -0.17596555018E+02 -0.75328329274E+02 -0.13221062073E+03  0.15317847164E+03  0.00000000000E+00 0. -1.
        -13    1    5    5    0    0 -0.20066328317E+02  0.30259527012E+02 -0.11896796968E+03  0.12438518528E+03  0.00000000000E+00 0.  1.
         14    1    5    5    0    0  0.13905889542E+02 -0.41299081869E+02 -0.19061865714E+03  0.19553634029E+03  0.00000000000E+00 0. -1.
          5    1    3    3  501    0 -0.76466159440E+00  0.56594059201E+02  0.19339850558E+03  0.20156523560E+03  0.47000000000E+01 0.  1.
         -5    1    3    3    0  501 -0.45681406638E+02  0.15970958849E+02  0.59108377022E+01  0.48978469161E+02  0.47000000000E+01 0.  1.
          1    1    1    2  502    0  0.12692926321E+03 -0.56498013679E+02 -0.10170176888E+04  0.10264638536E+04  0.00000000000E+00 0. -1.
          3    1    1    2  503    0 -0.35491345662E+02  0.50882448909E+02  0.13832857842E+03  0.15160295126E+03  0.00000000000E+00 0. -1.
<mgrwt>
<rscale>  0 0.80590218E+02</rscale>
<asrwt>0</asrwt>
<pdfrwt beam="2">  1        2 0.23182299E+00 0.10469114E+03</pdfrwt>
<pdfrwt beam="1">  1        4 0.57860834E-01 0.62037563E+02</pdfrwt>
<totfact> 0.20364522E+01</totfact>
</mgrwt>
</event>
<event>
13    1  0.2742815E-008  0.1762152E+03  0.7546771E-02  0.1335067E+00
          2   -1    0    0  502    0  0.00000000000E+00  0.00000000000E+00  0.92858746445E+03  0.92858746445E+03  0.00000000000E+00 0. -1.
          2   -1    0    0  503    0 -0.00000000000E+00 -0.00000000000E+00 -0.34816493330E+04  0.34816493330E+04  0.00000000000E+00 0. -1.
         25    2    1    2    0    0 -0.58894248340E+02 -0.21380158704E+02 -0.17911457181E+04  0.17965947237E+04  0.12499589684E+03 0.  0.
         24    2    1    2    0    0  0.88593751330E+02  0.39212318210E+02 -0.22699323152E+03  0.25967210486E+03  0.80729277292E+02 0.  0.
         24    2    1    2    0    0 -0.12202135647E+03 -0.23158086316E+03  0.50241176988E+03  0.57080053534E+03  0.69833781312E+02 0.  0.
        -13    1    5    5    0    0 -0.40012122728E+02 -0.10519561270E+03  0.28378993856E+03  0.30529300046E+03  0.00000000000E+00 0.  1.
         14    1    5    5    0    0 -0.82009233740E+02 -0.12638525045E+03  0.21862183132E+03  0.26550753488E+03  0.00000000000E+00 0. -1.
        -13    1    4    4    0    0  0.10821462341E+02  0.46568437301E+02 -0.79504857521E+02  0.92772548576E+02  0.00000000000E+00 0.  1.
         14    1    4    4    0    0  0.77772288989E+02 -0.73561190914E+01 -0.14748837399E+03  0.16689955628E+03  0.00000000000E+00 0. -1.
          5    1    3    3  501    0  0.43116463277E+01  0.18749157928E+02 -0.12622659409E+04  0.12624212913E+04  0.47000000000E+01 0. -1.
         -5    1    3    3    0  501 -0.63205894668E+02 -0.40129316632E+02 -0.52887977722E+03  0.53417343244E+03  0.47000000000E+01 0. -1.
          1    1    1    2  502    0 -0.13309238694E+02  0.31778712013E+02  0.36425189519E+03  0.36587766469E+03  0.00000000000E+00 0. -1.
          1    1    1    2  503    0  0.10563109217E+03  0.18196999164E+03 -0.14015865841E+04  0.14172917689E+04  0.00000000000E+00 0. -1.
<mgrwt>
<rscale>  0 0.77917753E+02</rscale>
<asrwt>0</asrwt>
<pdfrwt beam="1">  1        2 0.13655698E+00 0.34453191E+02</pdfrwt>
<pdfrwt beam="2">  1        2 0.51200726E+00 0.17621521E+03</pdfrwt>
<totfact> 0.74649344E+00</totfact>
</mgrwt>
</event>
<event>
13    1  0.2742815E-008  0.1082076E+03  0.7546771E-02  0.1372141E+00
          2   -1    0    0  502    0  0.00000000000E+00  0.00000000000E+00  0.91101341538E+03  0.91101341538E+03  0.00000000000E+00 0. -1.
          2   -1    0    0  503    0 -0.00000000000E+00 -0.00000000000E+00 -0.77064597198E+03  0.77064597198E+03  0.00000000000E+00 0. -1.
         25    2    1    2    0    0 -0.57209865905E+02 -0.91529871561E+02 -0.24740382842E+03  0.29746407306E+03  0.12500213719E+03 0.  0.
         24    2    1    2    0    0 -0.95553734816E+02  0.24751676217E+03  0.12103903625E+03  0.30751852323E+03  0.97581402131E+02 0.  0.
         24    2    1    2    0    0  0.52935177638E+02 -0.23222022677E+03  0.30841404742E+03  0.39566310269E+03  0.68568939237E+02 0.  0.
        -11    1    4    4    0    0 -0.17240134861E+01  0.42819720561E+01 -0.13412985178E+02  0.14185051236E+02  0.00000000000E+00 0.  1.
         12    1    4    4    0    0 -0.93829721330E+02  0.24323479012E+03  0.13445202143E+03  0.29333347200E+03  0.00000000000E+00 0. -1.
        -11    1    5    5    0    0  0.26622924467E+02 -0.73594366120E+02  0.15393438086E+03  0.17268672341E+03  0.00000000000E+00 0.  1.
         12    1    5    5    0    0  0.26312253171E+02 -0.15862586065E+03  0.15447966656E+03  0.22297637928E+03  0.00000000000E+00 0. -1.
          5    1    3    3  501    0 -0.40495559582E+02 -0.97465260695E+02 -0.25619091580E+03  0.27711954592E+03  0.47000000000E+01 0.  1.
         -5    1    3    3    0  501 -0.16714306323E+02  0.59353891345E+01  0.87870873862E+01  0.20344527145E+02  0.47000000000E+01 0.  1.
          1    1    1    2  502    0  0.60943793521E+02  0.89109436669E+02  0.30932620041E+03  0.32762377193E+03  0.00000000000E+00 0. -1.
          1    1    1    2  503    0  0.38884629562E+02 -0.12876100508E+02 -0.35100801226E+03  0.35338991645E+03  0.00000000000E+00 0. -1.
<mgrwt>
<rscale>  0 0.66575515E+02</rscale>
<asrwt>0</asrwt>
<pdfrwt beam="1">  1        2 0.13397256E+00 0.10820763E+03</pdfrwt>
<pdfrwt beam="2">  1        2 0.11333029E+00 0.40961059E+02</pdfrwt>
<totfact> 0.21560550E+02</totfact>
</mgrwt>
</event>
<event>
13    1  0.2742815E-008  0.8194751E+02  0.7546771E-02  0.1368070E+00
          2   -1    0    0  503    0  0.00000000000E+00  0.00000000000E+00  0.15001749694E+04  0.15001749694E+04  0.00000000000E+00 0. -1.
         -1   -1    0    0    0  501 -0.00000000000E+00 -0.00000000000E+00 -0.12604846543E+04  0.12604846543E+04  0.00000000000E+00 0.  1.
         25    2    1    2    0    0 -0.10545855190E+03 -0.16430179867E+02 -0.40614560679E+02  0.16930632381E+03  0.12499452694E+03 0.  0.
         24    2    1    2    0    0  0.76720570961E+02 -0.10551734657E+03  0.92264420085E+02  0.18096565515E+03  0.84946387174E+02 0.  0.
         24    2    1    2    0    0 -0.69235949148E+02  0.57174938143E+02  0.16591654889E+03  0.20529626798E+03  0.80967068894E+02 0.  0.
        -11    1    5    5    0    0 -0.36711588440E+02 -0.70916302711E+01  0.19609843093E+02  0.42220586114E+02  0.00000000000E+00 0.  1.
         12    1    5    5    0    0 -0.32524360708E+02  0.64266568414E+02  0.14630670579E+03  0.16307568186E+03  0.00000000000E+00 0. -1.
        -11    1    4    4    0    0  0.13268136855E+02  0.34949688871E+01  0.43702770270E+02  0.45806008256E+02  0.00000000000E+00 0.  1.
         12    1    4    4    0    0  0.63452434106E+02 -0.10901231546E+03  0.48561649815E+02  0.13515964689E+03  0.00000000000E+00 0. -1.
          5    1    3    3  502    0 -0.12092276554E+03 -0.43944850487E+01  0.31396611728E+01  0.12113452933E+03  0.47000000000E+01 0.  1.
         -5    1    3    3    0  502  0.15464213644E+02 -0.12035694818E+02 -0.43754221852E+02  0.48171794478E+02  0.47000000000E+01 0.  1.
          1    1    1    2  503    0  0.42273672390E+02  0.69950092993E+02  0.11113892801E+04  0.11143905109E+04  0.00000000000E+00 0. -1.
         -2    1    1    2    0  501  0.55700257694E+02 -0.51775046992E+01 -0.10892653734E+04  0.10907008659E+04  0.00000000000E+00 0.  1.
<mgrwt>
<rscale>  0 0.67706529E+02</rscale>
<asrwt>0</asrwt>
<pdfrwt beam="1">  1        2 0.22061397E+00 0.81947506E+02</pdfrwt>
<pdfrwt beam="2">  1       -1 0.18536539E+00 0.55940372E+02</pdfrwt>
<totfact> 0.44765335E+00</totfact>
</mgrwt>
</event>
<event>
13    1  0.2742815E-008  0.1308230E+03  0.7546771E-02  0.1297266E+00
         -3   -1    0    0    0  501 -0.00000000000E+00  0.00000000000E+00  0.11122227202E+04  0.11122227202E+04  0.00000000000E+00 0.  1.
          2   -1    0    0  503    0  0.00000000000E+00 -0.00000000000E+00 -0.25470770505E+04  0.25470770505E+04  0.00000000000E+00 0. -1.
         25    2    1    2    0    0 -0.23014573466E+02 -0.95621243974E+02  0.46070793721E+03  0.48739151716E+03  0.12500237879E+03 0.  0.
         24    2    1    2    0    0  0.24765025121E+03  0.14376981329E+03 -0.27647964702E+03  0.40590856004E+03  0.79500677691E+02 0.  0.
         24    2    1    2    0    0 -0.20846145437E+03  0.81889329865E+02 -0.99726775634E+03  0.10252353154E+04  0.80015209582E+02 0.  0.
        -13    1    5    5    0    0 -0.95661486696E+02  0.76602376067E+02 -0.44669136888E+03  0.46319782284E+03  0.00000000000E+00 0.  1.
         14    1    5    5    0    0 -0.11279996768E+03  0.52869537972E+01 -0.55057638746E+03  0.56203749254E+03  0.00000000000E+00 0. -1.
        -13    1    4    4    0    0  0.45296028413E+02  0.10002491761E+02 -0.85136685802E+02  0.96953779198E+02  0.00000000000E+00 0.  1.
         14    1    4    4    0    0  0.20235422280E+03  0.13376732153E+03 -0.19134296122E+03  0.30895478084E+03  0.00000000000E+00 0. -1.
          5    1    3    3  502    0  0.24174758025E+02 -0.76449638262E+02  0.13043343022E+03  0.15317942366E+03  0.47000000000E+01 0.  1.
         -5    1    3    3    0  502 -0.47189331491E+02 -0.19171605713E+02  0.33027450699E+03  0.33421209350E+03  0.47000000000E+01 0.  1.
          1    1    1    2  503    0 -0.76785772850E+02 -0.10604706350E+03 -0.11757447081E+04  0.11830121104E+04  0.00000000000E+00 0. -1.
         -4    1    1    2    0  501  0.60611549477E+02 -0.23990835678E+02  0.55392984397E+03  0.55775226774E+03  0.00000000000E+00 0.  1.
<mgrwt>
<rscale>  0 0.92346812E+02</rscale>
<asrwt>0</asrwt>
<pdfrwt beam="2">  1        2 0.37457015E+00 0.13082299E+03</pdfrwt>
<pdfrwt beam="1">  1       -3 0.16356217E+00 0.65186809E+02</pdfrwt>
<totfact> 0.82664561E-01</totfact>
</mgrwt>
</event>
<event>
13    1  0.2742815E-008  0.1319397E+03  0.7546771E-02  0.1249946E+00
          2   -1    0    0  502    0  0.00000000000E+00  0.00000000000E+00  0.13032401574E+04  0.13032401574E+04  0.00000000000E+00 0. -1.
          2   -1    0    0  503    0 -0.00000000000E+00 -0.00000000000E+00 -0.12117151401E+04  0.12117151401E+04  0.00000000000E+00 0. -1.
         25    2    1    2    0    0 -0.54911925100E+01  0.71361122385E+01 -0.11930569614E+03  0.17303203099E+03  0.12500062929E+03 0.  0.
         24    2    1    2    0    0 -0.19449250457E+03 -0.56066233283E+02  0.30867209794E+02  0.21898627569E+03  0.77662394062E+02 0.  0.
         24    2    1    2    0    0  0.15828393565E+02 -0.16451038371E+02  0.10769311813E+03  0.13582748951E+03  0.79562079587E+02 0.  0.
        -11    1    4    4    0    0 -0.10819998058E+03 -0.70436206229E+02  0.23151159040E+02  0.13116581532E+03  0.00000000000E+00 0.  1.
         12    1    4    4    0    0 -0.86292523995E+02  0.14369972945E+02  0.77160507537E+01  0.87820460367E+02  0.00000000000E+00 0. -1.
        -13    1    5    5    0    0 -0.26137111413E+02  0.41622306212E+01  0.72875793738E+02  0.77532922489E+02  0.00000000000E+00 0.  1.
         14    1    5    5    0    0  0.41965504978E+02 -0.20613268992E+02  0.34817324393E+02  0.58294567023E+02  0.00000000000E+00 0. -1.
          5    1    3    3  501    0 -0.36215255589E+02  0.35633628165E+02 -0.12048891795E+03  0.13084712279E+03  0.47000000000E+01 0. -1.
         -5    1    3    3    0  501  0.30724063079E+02 -0.28497515926E+02  0.11832218040E+01  0.42184908200E+02  0.47000000000E+01 0. -1.
          1    1    1    2  502    0  0.19847130184E+03 -0.35534766020E+02  0.10170521662E+04  0.10368455459E+04  0.00000000000E+00 0. -1.
          1    1    1    2  503    0 -0.14315998324E+02  0.10091592544E+03 -0.94478178073E+03  0.95026395544E+03  0.00000000000E+00 0. -1.
<mgrwt>
<rscale>  0 0.11594161E+03</rscale>
<asrwt>0</asrwt>
<pdfrwt beam="1">  1        2 0.19165296E+00 0.13193967E+03</pdfrwt>
<pdfrwt beam="2">  1        2 0.17819340E+00 0.10188336E+03</pdfrwt>
<totfact> 0.69058665E+01</totfact>
</mgrwt>
</event>
<event>
13    1  0.2742815E-008  0.6423617E+02  0.7546771E-02  0.1510680E+00
          2   -1    0    0  503    0  0.00000000000E+00  0.00000000000E+00  0.12696362811E+04  0.12696362811E+04  0.00000000000E+00 0. -1.
          2   -1    0    0  502    0 -0.00000000000E+00 -0.00000000000E+00 -0.21826967498E+04  0.21826967498E+04  0.00000000000E+00 0. -1.
         25    2    1    2    0    0 -0.28843653984E+03  0.39361602148E+01 -0.92382897413E+03  0.97585540030E+03  0.12499063156E+03 0.  0.
         24    2    1    2    0    0 -0.21327823124E+02  0.24561998805E+03 -0.20352165065E+03  0.32778314096E+03  0.72364843966E+02 0.  0.
         24    2    1    2    0    0  0.27819443960E+03 -0.28619387133E+03  0.40142708990E+03  0.57150278062E+03  0.78566160305E+02 0.  0.
        -11    1    4    4    0    0  0.14114042235E+02  0.14768945058E+03 -0.89099439038E+02  0.17306094313E+03  0.00000000000E+00 0.  1.
         12    1    4    4    0    0 -0.35441865359E+02  0.97930537475E+02 -0.11442221161E+03  0.15472219783E+03  0.00000000000E+00 0. -1.
        -13    1    5    5    0    0  0.14915708001E+03 -0.12349386340E+03  0.24060437097E+03  0.30885114885E+03  0.00000000000E+00 0.  1.
         14    1    5    5    0    0  0.12903735958E+03 -0.16270000793E+03  0.16082271892E+03  0.26265163177E+03  0.00000000000E+00 0. -1.
          5    1    3    3  501    0 -0.14692076871E+03  0.63399470233E+02 -0.50445903581E+03  0.52925061541E+03  0.47000000000E+01 0. -1.
         -5    1    3    3    0  501 -0.14151577113E+03 -0.59463310019E+02 -0.41936993833E+03  0.44660478489E+03  0.47000000000E+01 0. -1.
          1    1    1    2  502    0 -0.24076585305E+02  0.45055411924E+01 -0.88050844214E+03  0.88084907819E+03  0.00000000000E+00 0. -1.
          1    1    1    2  503    0  0.55646508673E+02  0.32132181868E+02  0.69337150829E+03  0.69634263086E+03  0.00000000000E+00 0. -1.
<mgrwt>
<rscale>  0 0.39666541E+02</rscale>
<asrwt>0</asrwt>
<pdfrwt beam="1">  1        2 0.18671122E+00 0.64236165E+02</pdfrwt>
<pdfrwt beam="2">  1        2 0.32098481E+00 0.24494527E+02</pdfrwt>
<totfact> 0.29892631E+01</totfact>
</mgrwt>
</event>
<event>
13    1  0.2742815E-008  0.7176521E+02  0.7546771E-02  0.1419392E+00
          2   -1    0    0  503    0  0.00000000000E+00  0.00000000000E+00  0.22712128716E+03  0.22712128716E+03  0.00000000000E+00 0. -1.
         -3   -1    0    0    0  501 -0.00000000000E+00 -0.00000000000E+00 -0.13250678832E+04  0.13250678832E+04  0.00000000000E+00 0.  1.
         25    2    1    2    0    0  0.11976239611E+02 -0.30900910241E+02 -0.84623435600E+03  0.85605835855E+03  0.12500012559E+03 0.  0.
         24    2    1    2    0    0  0.71442262725E+02 -0.27052915672E+02 -0.11889439458E+03  0.16225734057E+03  0.79722709165E+02 0.  0.
         24    2    1    2    0    0 -0.12076538364E+03 -0.29828188575E+02  0.10381337179E+02  0.14881941629E+03  0.81027450813E+02 0.  0.
        -11    1    4    4    0    0  0.22082770440E+02 -0.46718818822E+02 -0.84225549236E+02  0.98814168652E+02  0.00000000000E+00 0.  1.
         12    1    4    4    0    0  0.49359492286E+02  0.19665903150E+02 -0.34668845342E+02  0.63443171916E+02  0.00000000000E+00 0. -1.
        -13    1    5    5    0    0 -0.12222773173E+03 -0.46720361508E+02  0.46981256917E+01  0.13093694272E+03  0.00000000000E+00 0.  1.
         14    1    5    5    0    0  0.14623480931E+01  0.16892172932E+02  0.56832114875E+01  0.17882473574E+02  0.00000000000E+00 0. -1.
          5    1    3    3  502    0 -0.29319586928E+02 -0.55379351239E+02 -0.68195828354E+03  0.68484721013E+03  0.47000000000E+01 0. -1.
         -5    1    3    3    0  502  0.41295826538E+02  0.24478440998E+02 -0.16427607245E+03  0.17121114842E+03  0.47000000000E+01 0. -1.
          1    1    1    2  503    0 -0.18185485817E+01  0.71588479988E+02  0.10839560572E+03  0.12991468326E+03  0.00000000000E+00 0. -1.
         -4    1    1    2    0  501  0.39165429884E+02  0.16193534500E+02 -0.25159478833E+03  0.25513937166E+03  0.00000000000E+00 0.  1.
<mgrwt>
<rscale>  0 0.55149723E+02</rscale>
<asrwt>0</asrwt>
<pdfrwt beam="1">  1        2 0.33400191E-01 0.71765214E+02</pdfrwt>
<pdfrwt beam="2">  1       -3 0.19486291E+00 0.42381145E+02</pdfrwt>
<totfact> 0.16829034E+01</totfact>
</mgrwt>
</event>
<event>
13    1  0.2742815E-008  0.2495014E+03  0.7546771E-02  0.1192980E+00
          2   -1    0    0  502    0  0.00000000000E+00  0.00000000000E+00  0.13583638061E+04  0.13583638061E+04  0.00000000000E+00 0. -1.
          2   -1    0    0  503    0 -0.00000000000E+00 -0.00000000000E+00 -0.35254412438E+04  0.35254412438E+04  0.00000000000E+00 0. -1.
         25    2    1    2    0    0 -0.75999943843E+02 -0.92010808349E+02 -0.14346761454E+04  0.14450475766E+04  0.12499950445E+03 0.  0.
         24    2    1    2    0    0 -0.75781658921E+00 -0.16833254274E+03  0.29348200065E+02  0.18798659132E+03  0.78365952030E+02 0.  0.
         24    2    1    2    0    0  0.14540707218E+03  0.38761821533E+03 -0.14326481548E+03  0.44976932231E+03  0.10186529553E+03 0.  0.
        -13    1    5    5    0    0 -0.19635582794E+00  0.62818587340E+02  0.73990604945E+01  0.63253138793E+02  0.00000000000E+00 0.  1.
         14    1    5    5    0    0  0.14560342801E+03  0.32479962799E+03 -0.15066387598E+03  0.38651618351E+03  0.00000000000E+00 0. -1.
        -13    1    4    4    0    0 -0.21598229823E+02 -0.38238745825E+02 -0.18718974658E+02  0.47739765668E+02  0.00000000000E+00 0.  1.
         14    1    4    4    0    0  0.20840413234E+02 -0.13009379691E+03  0.48067174723E+02  0.14024682565E+03  0.00000000000E+00 0. -1.
          5    1    3    3  501    0 -0.78937469438E+02 -0.27571248402E+02 -0.41745436152E+03  0.42577168972E+03  0.47000000000E+01 0.  1.
         -5    1    3    3    0  501  0.29375255951E+01 -0.64439559947E+02 -0.10172217839E+04  0.10192758869E+04  0.47000000000E+01 0.  1.
          1    1    1    2  502    0 -0.12204070542E+03 -0.20929840392E+03  0.10763816074E+04  0.11033118872E+04  0.00000000000E+00 0. -1.
          1    1    1    2  503    0  0.53391393675E+02  0.82023539670E+02 -0.16948662843E+04  0.16976896724E+04  0.00000000000E+00 0. -1.
<mgrwt>
<rscale>  0 0.15626470E+03</rscale>
<asrwt>0</asrwt>
<pdfrwt beam="1">  1        2 0.19975939E+00 0.24950140E+03</pdfrwt>
<pdfrwt beam="2">  1        2 0.51844723E+00 0.97869822E+02</pdfrwt>
<totfact> 0.40749338E+00</totfact>
</mgrwt>
</event>
<event>
13    1  0.2742815E-008  0.1733294E+03  0.7546771E-02  0.1208803E+00
          2   -1    0    0  503    0  0.00000000000E+00  0.00000000000E+00  0.12822010955E+04  0.12822010955E+04  0.00000000000E+00 0. -1.
          2   -1    0    0  502    0 -0.00000000000E+00 -0.00000000000E+00 -0.31766746181E+04  0.31766746181E+04  0.00000000000E+00 0. -1.
         25    2    1    2    0    0 -0.11380587850E+03  0.71587154983E+02 -0.32873642266E+03  0.37652379445E+03  0.12500413380E+03 0.  0.
         24    2    1    2    0    0  0.22088180867E+03 -0.34040201063E+02  0.13355368381E+03  0.27249396572E+03  0.80429262129E+02 0.  0.
         24    2    1    2    0    0 -0.22022225349E+03  0.18194322915E+03  0.22655208700E+03  0.37381524826E+03  0.82527644722E+02 0.  0.
        -11    1    4    4    0    0  0.29389328403E+02  0.23761076926E+01  0.54864808295E+02  0.62285838687E+02  0.00000000000E+00 0.  1.
         12    1    4    4    0    0  0.19149248027E+03 -0.36416308756E+02  0.78688875515E+02  0.21020812704E+03  0.00000000000E+00 0. -1.
        -11    1    5    5    0    0 -0.19926116813E+03  0.15470277138E+03  0.15948017780E+03  0.29844913756E+03  0.00000000000E+00 0.  1.
         12    1    5    5    0    0 -0.20961085361E+02  0.27240457765E+02  0.67071909200E+02  0.75366110703E+02  0.00000000000E+00 0. -1.
          5    1    3    3  501    0 -0.68743767641E+02  0.91961557523E+02 -0.29468347845E+03  0.31629586801E+03  0.47000000000E+01 0.  1.
         -5    1    3    3    0  501 -0.45062110857E+02 -0.20374402540E+02 -0.34052944210E+02  0.60227926439E+02  0.47000000000E+01 0.  1.
          1    1    1    2  502    0  0.11005729671E+03 -0.44378061818E+02 -0.26694513247E+04  0.26720876475E+04  0.00000000000E+00 0. -1.
          1    1    1    2  503    0  0.30890266085E+01 -0.17511212125E+03  0.74360845405E+03  0.76395505760E+03  0.00000000000E+00 0. -1.
<mgrwt>
<rscale>  0 0.14341759E+03</rscale>
<asrwt>0</asrwt>
<pdfrwt beam="1">  1        2 0.18855899E+00 0.17332945E+03</pdfrwt>
<pdfrwt beam="2">  1        2 0.46715802E+00 0.11866769E+03</pdfrwt>
<totfact> 0.70092684E+00</totfact>
</mgrwt>
</event>
<event>
13    1  0.2742815E-008  0.4307191E+02  0.7546771E-02  0.1531189E+00
          2   -1    0    0  503    0  0.00000000000E+00  0.00000000000E+00  0.34348200319E+04  0.34348200319E+04  0.00000000000E+00 0. -1.
          2   -1    0    0  502    0 -0.00000000000E+00 -0.00000000000E+00 -0.28610968813E+04  0.28610968813E+04  0.00000000000E+00 0. -1.
         25    2    1    2    0    0  0.88858407723E+02  0.10757646878E+01 -0.64252136565E+03  0.66057303676E+03  0.12500423068E+03 0.  0.
         24    2    1    2    0    0 -0.56191500925E+03 -0.92239417280E+03  0.63728644153E+03  0.12566279372E+04  0.80126626859E+02 0.  0.
         24    2    1    2    0    0  0.52336374452E+03  0.87923844833E+03  0.89082900489E+03  0.13596651225E+04  0.90238968282E+02 0.  0.
        -11    1    5    5    0    0  0.41264270723E+03  0.68773939871E+03  0.74542721369E+03  0.10949526087E+04  0.00000000000E+00 0.  1.
         12    1    5    5    0    0  0.11072103729E+03  0.19149904962E+03  0.14540179120E+03  0.26471251385E+03  0.00000000000E+00 0. -1.
        -11    1    4    4    0    0 -0.14635867916E+03 -0.20267123054E+03  0.17997853536E+03  0.30804019843E+03  0.00000000000E+00 0.  1.
         12    1    4    4    0    0 -0.41555633009E+03 -0.71972294225E+03  0.45730790616E+03  0.94858773876E+03  0.00000000000E+00 0. -1.
          5    1    3    3  501    0  0.14555647407E+02 -0.40177469046E+02 -0.42217805405E+03  0.42436127912E+03  0.47000000000E+01 0. -1.
         -5    1    3    3    0  501  0.74302760316E+02  0.41253233734E+02 -0.22034331160E+03  0.23621175765E+03  0.47000000000E+01 0. -1.
          1    1    1    2  502    0 -0.87936315998E+01  0.30616641868E+02 -0.16649659206E+04  0.16652706157E+04  0.00000000000E+00 0. -1.
          1    1    1    2  503    0 -0.41513511397E+02  0.11463317907E+02  0.13530949905E+04  0.13537802010E+04  0.00000000000E+00 0. -1.
<mgrwt>
<rscale>  0 0.37040958E+02</rscale>
<asrwt>0</asrwt>
<pdfrwt beam="1">  1        2 0.50512059E+00 0.43071912E+02</pdfrwt>
<pdfrwt beam="2">  1        2 0.42074954E+00 0.31854461E+02</pdfrwt>
<totfact> 0.12435787E+00</totfact>
</mgrwt>
</event>
<event>
13    1  0.2742815E-008  0.1112632E+03  0.7546771E-02  0.1380126E+00
          2   -1    0    0  502    0  0.00000000000E+00  0.00000000000E+00  0.17673028198E+04  0.17673028198E+04  0.00000000000E+00 0. -1.
          2   -1    0    0  503    0 -0.00000000000E+00 -0.00000000000E+00 -0.17402218513E+04  0.17402218513E+04  0.00000000000E+00 0. -1.
         25    2    1    2    0    0  0.17287056558E+03  0.65182445592E+02 -0.16367505254E+03  0.27667164814E+03  0.12499877762E+03 0.  0.
         24    2    1    2    0    0 -0.85299202413E+01 -0.53397503282E+01  0.59970695224E+02  0.10020811038E+03  0.79648657405E+02 0.  0.
         24    2    1    2    0    0 -0.22111573701E+02 -0.10517200953E+02  0.17312276647E+03  0.19295233241E+03  0.81606232010E+02 0.  0.
        -11    1    4    4    0    0  0.89130038408E+01 -0.18972380560E+02  0.72016289367E+02  0.75004925143E+02  0.00000000000E+00 0.  1.
         12    1    4    4    0    0 -0.17442924082E+02  0.13632630232E+02 -0.12045594143E+02  0.25203185232E+02  0.00000000000E+00 0. -1.
        -11    1    5    5    0    0  0.26029526266E+02  0.14672375257E+02  0.76034498315E+02  0.81694918859E+02  0.00000000000E+00 0.  1.
         12    1    5    5    0    0 -0.48141099967E+02 -0.25189576210E+02  0.97088268159E+02  0.11125741355E+03  0.00000000000E+00 0. -1.
          5    1    3    3  501    0  0.11715442027E+03  0.10163868432E+03 -0.12696472529E+03  0.20049367024E+03  0.47000000000E+01 0. -1.
         -5    1    3    3    0  501  0.55716145311E+02 -0.36456238728E+02 -0.36710327252E+02  0.76177977903E+02  0.47000000000E+01 0. -1.
          1    1    1    2  502    0 -0.11878762372E+03 -0.20298012441E+02  0.14449353020E+04  0.14499519081E+04  0.00000000000E+00 0. -1.
          1    1    1    2  503    0 -0.23441447910E+02 -0.29027481870E+02 -0.14872727427E+04  0.14877406721E+04  0.00000000000E+00 0. -1.
<mgrwt>
<rscale>  0 0.64430737E+02</rscale>
<asrwt>0</asrwt>
<pdfrwt beam="1">  1        2 0.25989747E+00 0.11126321E+03</pdfrwt>
<pdfrwt beam="2">  1        2 0.25591498E+00 0.37310805E+02</pdfrwt>
<totfact> 0.24562507E+01</totfact>
</mgrwt>
</event>
<event>
13    1  0.2742815E-008  0.5742033E+02  0.7546771E-02  0.1521390E+00
          2   -1    0    0  503    0  0.00000000000E+00  0.00000000000E+00  0.22283976004E+04  0.22283976004E+04  0.00000000000E+00 0. -1.
         -1   -1    0    0    0  501 -0.00000000000E+00 -0.00000000000E+00 -0.35154410985E+03  0.35154410985E+03  0.00000000000E+00 0.  1.
         25    2    1    2    0    0  0.36744955606E+02 -0.10064053001E+03  0.20429587957E+02  0.16589538927E+03  0.12500081629E+03 0.  0.
         24    2    1    2    0    0 -0.10857966632E+03  0.84256044786E+00  0.19566140122E+03  0.23738843942E+03  0.79244137938E+02 0.  0.
         24    2    1    2    0    0  0.29109240331E+02  0.68345380284E+02  0.74009908979E+03  0.74815640137E+03  0.80454330742E+02 0.  0.
        -11    1    5    5    0    0 -0.21594047217E+02  0.16128033047E+02  0.36925666523E+03  0.37023897842E+03  0.00000000000E+00 0.  1.
         12    1    5    5    0    0  0.50703287548E+02  0.52217347237E+02  0.37084242455E+03  0.37791742295E+03  0.00000000000E+00 0. -1.
        -13    1    4    4    0    0 -0.88252274305E+01  0.27222286151E+02  0.25205453544E+02  0.38134661279E+02  0.00000000000E+00 0.  1.
         14    1    4    4    0    0 -0.99754438891E+02 -0.26379725703E+02  0.17045594768E+03  0.19925377815E+03  0.00000000000E+00 0. -1.
          5    1    3    3  502    0  0.33937989189E+02 -0.94876991929E+02 -0.37353817700E+02  0.10756778516E+03  0.47000000000E+01 0.  1.
         -5    1    3    3    0  502  0.28069664175E+01 -0.57635380812E+01  0.57783405657E+02  0.58327604108E+02  0.47000000000E+01 0.  1.
          1    1    1    2  503    0  0.26423445356E+02  0.51059057430E+02  0.11732366575E+04  0.11746444059E+04  0.00000000000E+00 0. -1.
         -2    1    1    2    0  501  0.16302025029E+02 -0.19606468152E+02 -0.25257324592E+03  0.25385707429E+03  0.00000000000E+00 0.  1.
<mgrwt>
<rscale>  0 0.38263923E+02</rscale>
<asrwt>0</asrwt>
<pdfrwt beam="1">  1        2 0.32770552E+00 0.57420326E+02</pdfrwt>
<pdfrwt beam="2">  1       -1 0.51697664E-01 0.25498424E+02</pdfrwt>
<totfact> 0.34173860E+01</totfact>
</mgrwt>
</event>
<event>
13    1  0.2742815E-008  0.7630280E+02  0.7546771E-02  0.1498846E+00
          2   -1    0    0  503    0  0.00000000000E+00  0.00000000000E+00  0.12716338227E+04  0.12716338227E+04  0.00000000000E+00 0. -1.
          2   -1    0    0  502    0 -0.00000000000E+00 -0.00000000000E+00 -0.11630625962E+04  0.11630625962E+04  0.00000000000E+00 0. -1.
         25    2    1    2    0    0 -0.50363279829E+01 -0.11523746369E+03 -0.38560122269E+03  0.42144647098E+03  0.12499514920E+03 0.  0.
         24    2    1    2    0    0 -0.48665474837E+02  0.93327340701E+02  0.10118508629E+03  0.16666744459E+03  0.80382177345E+02 0.  0.
         24    2    1    2    0    0 -0.13755528380E+02  0.21355261103E+02  0.58062608538E+02  0.10191876083E+03  0.79817952625E+02 0.  0.
        -11    1    5    5    0    0 -0.48153402407E+01  0.51803668556E+02  0.36388803882E+02  0.63489783630E+02  0.00000000000E+00 0.  1.
         12    1    5    5    0    0 -0.89401881389E+01 -0.30448407453E+02  0.21673804656E+02  0.38428977200E+02  0.00000000000E+00 0. -1.
        -11    1    4    4    0    0 -0.17943717779E+02  0.14891806640E+02 -0.11481356852E+02  0.25991623033E+02  0.00000000000E+00 0.  1.
         12    1    4    4    0    0 -0.30721757058E+02  0.78435534062E+02  0.11266644314E+03  0.14067582155E+03  0.00000000000E+00 0. -1.
          5    1    3    3  501    0 -0.76243822751E+01 -0.11555737881E+03 -0.16984651956E+03  0.20562482634E+03  0.47000000000E+01 0.  1.
         -5    1    3    3    0  501  0.25880542921E+01  0.31991512020E+00 -0.21575470313E+03  0.21582164464E+03  0.47000000000E+01 0.  1.
          1    1    1    2  502    0 -0.55806807593E+01 -0.21648254005E+02 -0.70329051226E+03  0.70364574577E+03  0.00000000000E+00 0. -1.
          1    1    1    2  503    0  0.73038011958E+02  0.22203115887E+02  0.10382152667E+04  0.10410179967E+04  0.00000000000E+00 0. -1.
<mgrwt>
<rscale>  0 0.41301643E+02</rscale>
<asrwt>0</asrwt>
<pdfrwt beam="1">  1        2 0.18700497E+00 0.76302800E+02</pdfrwt>
<pdfrwt beam="2">  1        2 0.17103862E+00 0.22356004E+02</pdfrwt>
<totfact> 0.86570668E+01</totfact>
</mgrwt>
</event>
<event>
13    1  0.2742815E-008  0.1128188E+03  0.7546771E-02  0.1346400E+00
          2   -1    0    0  502    0  0.00000000000E+00  0.00000000000E+00  0.20999517344E+04  0.20999517344E+04  0.00000000000E+00 0. -1.
          2   -1    0    0  503    0 -0.00000000000E+00 -0.00000000000E+00 -0.12045152747E+04  0.12045152747E+04  0.00000000000E+00 0. -1.
         25    2    1    2    0    0  0.20497736738E+03  0.27164270724E+03 -0.11186097498E+04  0.11758910060E+04  0.12500561706E+03 0.  0.
         24    2    1    2    0    0 -0.18687828788E+03 -0.94375393366E+02  0.63113798682E+03  0.67004121168E+03  0.82400592186E+02 0.  0.
         24    2    1    2    0    0  0.50907385121E+02 -0.41962226861E+02  0.49951133728E+03  0.51034292897E+03  0.81153796791E+02 0.  0.
        -13    1    5    5    0    0  0.44769652441E+02 -0.65437252222E+02  0.41031462904E+03  0.41790483434E+03  0.00000000000E+00 0.  1.
         14    1    5    5    0    0  0.61377326795E+01  0.23475025361E+02  0.89196708234E+02  0.92438094625E+02  0.00000000000E+00 0. -1.
        -13    1    4    4    0    0 -0.31095090153E+02  0.79728997246E+01  0.16354836328E+03  0.16666895000E+03  0.00000000000E+00 0.  1.
         14    1    4    4    0    0 -0.15578319773E+03 -0.10234829309E+03  0.46758962354E+03  0.50337226169E+03  0.00000000000E+00 0. -1.
          5    1    3    3  501    0  0.11550201591E+02  0.64515904045E+02 -0.10923793161E+03  0.12747833044E+03  0.47000000000E+01 0.  1.
         -5    1    3    3    0  501  0.19342716579E+03  0.20712680319E+03 -0.10093718181E+04  0.10484126756E+04  0.47000000000E+01 0.  1.
          1    1    1    2  502    0 -0.38171464317E+02 -0.97498501371E+02  0.89245108049E+03  0.89857217268E+03  0.00000000000E+00 0. -1.
          1    1    1    2  503    0 -0.30835000305E+02 -0.37806585639E+02 -0.90541952017E+01  0.49619689763E+02  0.00000000000E+00 0. -1.
<mgrwt>
<rscale>  0 0.74189283E+02</rscale>
<asrwt>0</asrwt>
<pdfrwt beam="1">  1        2 0.30881643E+00 0.11281881E+03</pdfrwt>
<pdfrwt beam="2">  1        2 0.17713460E+00 0.48786629E+02</pdfrwt>
<totfact> 0.29864618E+01</totfact>
</mgrwt>
</event>
<event>
13    1  0.2742815E-008  0.5935493E+02  0.7546771E-02  0.1457705E+00
          2   -1    0    0  503    0  0.00000000000E+00  0.00000000000E+00  0.21639057378E+04  0.21639057378E+04  0.00000000000E+00 0. -1.
         -1   -1    0    0    0  501 -0.00000000000E+00 -0.00000000000E+00 -0.67125048394E+03  0.67125048394E+03  0.00000000000E+00 0.  1.
         25    2    1    2    0    0 -0.39102364759E+02  0.19982968116E+02 -0.29640817368E+03  0.32466152239E+03  0.12497593667E+03 0.  0.
         24    2    1    2    0    0  0.55166815200E+02 -0.96736639282E+02  0.68775178265E+02  0.15369230565E+03  0.80560193591E+02 0.  0.
         24    2    1    2    0    0 -0.58505491750E+02  0.54552750362E+01  0.19835499458E+03  0.22187007603E+03  0.80180884079E+02 0.  0.
        -11    1    5    5    0    0 -0.53043582489E+02  0.25515535740E+02  0.19092392439E+03  0.19979141401E+03  0.00000000000E+00 0.  1.
         12    1    5    5    0    0 -0.54619092615E+01 -0.20060260704E+02  0.74310701847E+01  0.22078662015E+02  0.00000000000E+00 0. -1.
        -11    1    4    4    0    0  0.50825016681E+02 -0.10309698266E+03  0.36633169600E+02  0.12064062032E+03  0.00000000000E+00 0.  1.
         12    1    4    4    0    0  0.43417985189E+01  0.63603433830E+01  0.32142008665E+02  0.33051685333E+02  0.00000000000E+00 0. -1.
          5    1    3    3  502    0 -0.74634036008E+02  0.20274165653E+02 -0.10826136242E+03  0.13313111476E+03  0.47000000000E+01 0. -1.
         -5    1    3    3    0  502  0.35531671248E+02 -0.29119753704E+00 -0.18814681126E+03  0.19153040762E+03  0.47000000000E+01 0. -1.
          1    1    1    2  503    0  0.59898808937E+01  0.59030841824E+02  0.18267427005E+04  0.18277060521E+04  0.00000000000E+00 0. -1.
         -2    1    1    2    0  501  0.36451160417E+02  0.12267554305E+02 -0.30480944583E+03  0.30722626557E+03  0.00000000000E+00 0.  1.
<mgrwt>
<rscale>  0 0.47778625E+02</rscale>
<asrwt>0</asrwt>
<pdfrwt beam="1">  1        2 0.31822143E+00 0.59354928E+02</pdfrwt>
<pdfrwt beam="2">  1       -1 0.98713307E-01 0.38460109E+02</pdfrwt>
<totfact> 0.10525946E+01</totfact>
</mgrwt>
</event>
<event>
13    1  0.2742815E-008  0.7772754E+02  0.7546771E-02  0.1408844E+00
          2   -1    0    0  502    0  0.00000000000E+00  0.00000000000E+00  0.18649977920E+04  0.18649977920E+04  0.00000000000E+00 0. -1.
          2   -1    0    0  503    0 -0.00000000000E+00 -0.00000000000E+00 -0.17129448966E+04  0.17129448966E+04  0.00000000000E+00 0. -1.
         25    2    1    2    0    0  0.15901410246E+03 -0.92481649014E+01 -0.39362888500E+03  0.44265307934E+03  0.12500814457E+03 0.  0.
         24    2    1    2    0    0  0.74840886502E+02 -0.32802205046E+03 -0.95192979099E+02  0.36445101399E+03  0.10277749970E+03 0.  0.
         24    2    1    2    0    0 -0.24378208951E+03  0.21861253995E+03  0.10987801088E+04  0.11509084077E+04  0.10025610030E+03 0.  0.
        -11    1    5    5    0    0 -0.11887437880E+03  0.15470355599E+03  0.52088223909E+03  0.55622173202E+03  0.00000000000E+00 0.  1.
         12    1    5    5    0    0 -0.12490771071E+03  0.63908983960E+02  0.57789786974E+03  0.59468667572E+03  0.00000000000E+00 0. -1.
        -11    1    4    4    0    0  0.28451937351E+01 -0.10135622722E+03  0.14713721926E+02  0.10245815505E+03  0.00000000000E+00 0.  1.
         12    1    4    4    0    0  0.71995692767E+02 -0.22666582324E+03 -0.10990670102E+03  0.26199285894E+03  0.00000000000E+00 0. -1.
          5    1    3    3  501    0  0.98103891560E+01 -0.45388743914E+02 -0.66299339784E+02  0.81080665176E+02  0.47000000000E+01 0.  1.
         -5    1    3    3    0  501  0.14920371330E+03  0.36140579013E+02 -0.32732954521E+03  0.36157241416E+03  0.47000000000E+01 0.  1.
          1    1    1    2  502    0 -0.41522011324E+01  0.42262826643E+02  0.57878132981E+03  0.58033715634E+03  0.00000000000E+00 0. -1.
          1    1    1    2  503    0  0.14079301683E+02  0.76394848775E+02 -0.10366866792E+04  0.10395930312E+04  0.00000000000E+00 0. -1.
<mgrwt>
<rscale>  0 0.57452602E+02</rscale>
<asrwt>0</asrwt>
<pdfrwt beam="1">  1        2 0.27426438E+00 0.42466308E+02</pdfrwt>
<pdfrwt beam="2">  1        2 0.25190366E+00 0.77727535E+02</pdfrwt>
<totfact> 0.23304235E+01</totfact>
</mgrwt>
</event>
<event>
13    1  0.2742815E-008  0.6322429E+02  0.7546771E-02  0.1429865E+00
          4   -1    0    0  503    0 -0.00000000000E+00  0.00000000000E+00  0.22017872105E+04  0.22017872105E+04  0.00000000000E+00 0. -1.
          2   -1    0    0  502    0  0.00000000000E+00 -0.00000000000E+00 -0.13459787094E+04  0.13459787094E+04  0.00000000000E+00 0. -1.
         25    2    1    2    0    0 -0.35850551187E+02 -0.65769652492E+02  0.10667792043E+04  0.10766862449E+04  0.12499795987E+03 0.  0.
         24    2    1    2    0    0 -0.13500937231E+03  0.63438687770E+02 -0.22555361327E+02  0.17056934141E+03  0.79581142158E+02 0.  0.
         24    2    1    2    0    0  0.22486247139E+03  0.73640922339E+02 -0.63374960989E+03  0.68094707297E+03  0.77873176851E+02 0.  0.
        -11    1    4    4    0    0 -0.13474075859E+03  0.55221710482E+02  0.99932670960E+00  0.14562111106E+03  0.00000000000E+00 0.  1.
         12    1    4    4    0    0 -0.26861372485E+00  0.82169772880E+01 -0.23554688036E+02  0.24948230350E+02  0.00000000000E+00 0. -1.
        -13    1    5    5    0    0  0.14396377174E+03  0.45501041068E+02 -0.29319918030E+03  0.32979034498E+03  0.00000000000E+00 0.  1.
         14    1    5    5    0    0  0.80898699648E+02  0.28139881271E+02 -0.34055042958E+03  0.35115672799E+03  0.00000000000E+00 0. -1.
          5    1    3    3  501    0 -0.56933839001E+02 -0.38067900571E+02  0.25297231568E+03  0.26212155497E+03  0.47000000000E+01 0.  1.
         -5    1    3    3    0  501  0.21083287815E+02 -0.27701751921E+02  0.81380688866E+03  0.81456468995E+03  0.47000000000E+01 0.  1.
          1    1    1    2  502    0 -0.10514511953E+02 -0.62320087948E+02 -0.58493397012E+03  0.58833842109E+03  0.00000000000E+00 0. -1.
          3    1    1    2  503    0 -0.43488035934E+02 -0.89898696684E+01  0.10302682382E+04  0.10312248395E+04  0.00000000000E+00 0. -1.
<mgrwt>
<rscale>  0 0.52987105E+02</rscale>
<asrwt>0</asrwt>
<pdfrwt beam="2">  1        2 0.19793804E+00 0.63224288E+02</pdfrwt>
<pdfrwt beam="1">  1        4 0.32379224E+00 0.44407511E+02</pdfrwt>
<totfact> 0.31613573E-01</totfact>
</mgrwt>
</event>
<event>
13    1  0.2742815E-008  0.1297751E+03  0.7546771E-02  0.1433047E+00
          2   -1    0    0  503    0  0.00000000000E+00  0.00000000000E+00  0.18751863332E+04  0.18751863332E+04  0.00000000000E+00 0. -1.
          2   -1    0    0  502    0 -0.00000000000E+00 -0.00000000000E+00 -0.26007129273E+04  0.26007129273E+04  0.00000000000E+00 0. -1.
         25    2    1    2    0    0 -0.91906417193E+02 -0.17663280659E+03 -0.21889423422E+03  0.32122486626E+03  0.12499916417E+03 0.  0.
         24    2    1    2    0    0 -0.29488487176E+02  0.97873935449E+02 -0.34566651478E+01  0.12919774877E+03  0.78938150710E+02 0.  0.
         24    2    1    2    0    0  0.74906437458E+02 -0.67306958952E+02  0.16292763722E+03  0.20726533909E+03  0.79197883312E+02 0.  0.
        -11    1    5    5    0    0  0.69014233170E+02 -0.17017665653E+02  0.61884751261E+02  0.94245889899E+02  0.00000000000E+00 0.  1.
         12    1    5    5    0    0  0.58922042878E+01 -0.50289293299E+02  0.10104288596E+03  0.11301944919E+03  0.00000000000E+00 0. -1.
        -13    1    4    4    0    0 -0.51673393992E+02  0.82397291644E+02  0.12074215178E+02  0.98006326271E+02  0.00000000000E+00 0.  1.
         14    1    4    4    0    0  0.22184906817E+02  0.15476643805E+02 -0.15530880326E+02  0.31191422501E+02  0.00000000000E+00 0. -1.
          5    1    3    3  501    0 -0.87096866081E+02 -0.95286256653E+02 -0.59664219041E+02  0.14229281016E+03  0.47000000000E+01 0. -1.
         -5    1    3    3    0  501 -0.48095511119E+01 -0.81346549941E+02 -0.15923001518E+03  0.17893205610E+03  0.47000000000E+01 0. -1.
          1    1    1    2  502    0  0.39917789168E+01  0.20739337685E+02 -0.22393295004E+04  0.22394290937E+04  0.00000000000E+00 0. -1.
          1    1    1    2  503    0  0.42496687994E+02  0.12532649241E+03  0.15732261684E+04  0.15787822127E+04  0.00000000000E+00 0. -1.
<mgrwt>
<rscale>  0 0.52353128E+02</rscale>
<asrwt>0</asrwt>
<pdfrwt beam="1">  1        2 0.27576270E+00 0.12977509E+03</pdfrwt>
<pdfrwt beam="2">  1        2 0.38245778E+00 0.21120001E+02</pdfrwt>
<totfact> 0.93871949E+00</totfact>
</mgrwt>
</event>
<event>
13    1  0.2742815E-008  0.5429197E+02  0.7546771E-02  0.1523572E+00
          2   -1    0    0  502    0  0.00000000000E+00  0.00000000000E+00  0.19436839621E+04  0.19436839621E+04  0.00000000000E+00 0. -1.
          2   -1    0    0  503    0 -0.00000000000E+00 -0.00000000000E+00 -0.22720877767E+04  0.22720877767E+04  0.00000000000E+00 0. -1.
         25    2    1    2    0    0 -0.52137462165E+03 -0.85580547140E+03 -0.74983070170E+03  0.12578187369E+04  0.12500957078E+03 0.  0.
         24    2    1    2    0    0  0.88637399185E+02  0.41518836737E+03  0.14898934716E+03  0.45669685235E+03  0.78334031212E+02 0.  0.
         24    2    1    2    0    0  0.47478878175E+03  0.38760584741E+03  0.27717097383E+03  0.68024796742E+03  0.10124657138E+03 0.  0.
        -11    1    5    5    0    0  0.43709220397E+03  0.34489684517E+03  0.21750739282E+03  0.59775655121E+03  0.00000000000E+00 0.  1.
         12    1    5    5    0    0  0.37696577775E+02  0.42709002246E+02  0.59663581013E+02  0.82491416208E+02  0.00000000000E+00 0. -1.
        -13    1    4    4    0    0  0.90264313282E+02  0.24131891563E+03  0.95514382513E+02  0.27478257325E+03  0.00000000000E+00 0.  1.
         14    1    4    4    0    0 -0.16269140976E+01  0.17386945174E+03  0.53474964645E+02  0.18191427910E+03  0.00000000000E+00 0. -1.
          5    1    3    3  501    0 -0.91093783116E+02 -0.24681759203E+03 -0.17048260220E+03  0.31353374413E+03  0.47000000000E+01 0.  1.
         -5    1    3    3    0  501 -0.43028083853E+03 -0.60898787937E+03 -0.57934809949E+03  0.94428499279E+03  0.47000000000E+01 0.  1.
          1    1    1    2  502    0 -0.15491257513E+02  0.52029675426E+02  0.90713227560E+03  0.90875520995E+03  0.00000000000E+00 0. -1.
          1    1    1    2  503    0 -0.26560301771E+02  0.98158118911E+00 -0.91186570951E+03  0.91225297221E+03  0.00000000000E+00 0. -1.
<mgrwt>
<rscale>  0 0.37986782E+02</rscale>
<asrwt>0</asrwt>
<pdfrwt beam="1">  1        2 0.28583588E+00 0.54291973E+02</pdfrwt>
<pdfrwt beam="2">  1        2 0.33413055E+00 0.26578434E+02</pdfrwt>
<totfact> 0.12987953E+01</totfact>
</mgrwt>
</event>
<event>
13    1  0.2742815E-008  0.1127923E+03  0.7546771E-02  0.1323720E+00
          2   -1    0    0  503    0  0.00000000000E+00  0.00000000000E+00  0.17789726349E+04  0.17789726349E+04  0.00000000000E+00 0. -1.
          2   -1    0    0  502    0 -0.00000000000E+00 -0.00000000000E+00 -0.93333006947E+03  0.93333006947E+03  0.00000000000E+00 0. -1.
         25    2    1    2    0    0  0.90077580140E+02 -0.67491944772E+02 -0.21148771168E+03  0.27022406235E+03  0.12499943452E+03 0.  0.
         24    2    1    2    0    0 -0.29118468920E+02  0.16816588430E+02 -0.10213145080E+03  0.13636104675E+03  0.83861904034E+02 0.  0.
         24    2    1    2    0    0 -0.46179316859E+02 -0.89751226401E+01  0.95495273563E+02  0.13254370102E+03  0.78964569753E+02 0.  0.
        -13    1    5    5    0    0 -0.51413367979E+02  0.14072796155E+02  0.26332326622E+02  0.59453926900E+02  0.00000000000E+00 0.  1.
         14    1    5    5    0    0  0.52340511202E+01 -0.23047918795E+02  0.69162946941E+02  0.73089774123E+02  0.00000000000E+00 0. -1.
        -13    1    4    4    0    0 -0.21098126801E+02 -0.20387869758E+02 -0.21932990600E+01  0.29421195566E+02  0.00000000000E+00 0.  1.
         14    1    4    4    0    0 -0.80203421190E+01  0.37204458188E+02 -0.99938151742E+02  0.10693985118E+03  0.00000000000E+00 0. -1.
          5    1    3    3  501    0  0.23792796387E+01 -0.65120113648E+01 -0.14301250377E+03  0.14325757745E+03  0.47000000000E+01 0.  1.
         -5    1    3    3    0  501  0.87698300502E+02 -0.60979933408E+02 -0.68475207915E+02  0.12696648490E+03  0.47000000000E+01 0.  1.
          1    1    1    2  502    0 -0.62268047722E+02  0.95468551877E+02 -0.54829424676E+03  0.56001619190E+03  0.00000000000E+00 0. -1.
          1    1    1    2  503    0  0.47488253360E+02 -0.35818072894E+02  0.16120607011E+04  0.16131577023E+04  0.00000000000E+00 0. -1.
<mgrwt>
<rscale>  0 0.81908940E+02</rscale>
<asrwt>0</asrwt>
<pdfrwt beam="1">  1        2 0.26161362E+00 0.59481666E+02</pdfrwt>
<pdfrwt beam="2">  1        2 0.13725442E+00 0.11279231E+03</pdfrwt>
<totfact> 0.61225673E+01</totfact>
</mgrwt>
</event>
<event>
13    1  0.2742815E-008  0.2133842E+03  0.7546771E-02  0.1192503E+00
          2   -1    0    0  503    0  0.00000000000E+00  0.00000000000E+00  0.13444490614E+04  0.13444490614E+04  0.00000000000E+00 0. -1.
          2   -1    0    0  502    0 -0.00000000000E+00 -0.00000000000E+00 -0.63137685773E+03  0.63137685773E+03  0.00000000000E+00 0. -1.
         25    2    1    2    0    0  0.81260675050E+02  0.52623602571E+02 -0.34061860431E+02  0.16173261979E+03  0.12499875644E+03 0.  0.
         24    2    1    2    0    0 -0.21761369243E+03  0.11355862930E+03 -0.80363146513E+02  0.27058160148E+03  0.80652875457E+02 0.  0.
         24    2    1    2    0    0  0.40139276585E+03 -0.11199049617E+03  0.69749965955E+03  0.81625365991E+03  0.78142424729E+02 0.  0.
        -11    1    4    4    0    0 -0.14739226388E+03  0.76222402758E+02 -0.13152494434E+02  0.16645516587E+03  0.00000000000E+00 0.  1.
         12    1    4    4    0    0 -0.70221428542E+02  0.37336226544E+02 -0.67210652079E+02  0.10412643561E+03  0.00000000000E+00 0. -1.
        -13    1    5    5    0    0  0.20743802580E+02 -0.21368449920E+02  0.78411965979E+02  0.83877007613E+02  0.00000000000E+00 0.  1.
         14    1    5    5    0    0  0.38064896327E+03 -0.90622046250E+02  0.61908769357E+03  0.73237665230E+03  0.00000000000E+00 0. -1.
          5    1    3    3  501    0  0.75521719121E+02  0.91294360127E+02 -0.22472955290E+02  0.12068684257E+03  0.47000000000E+01 0.  1.
         -5    1    3    3    0  501  0.57389559294E+01 -0.38670757556E+02 -0.11588905141E+02  0.41045777219E+02  0.47000000000E+01 0.  1.
          1    1    1    2  502    0 -0.52894566874E+02 -0.10215482611E+03 -0.25798453918E+03  0.28247029253E+03  0.00000000000E+00 0. -1.
          1    1    1    2  503    0 -0.21214518160E+03  0.47963090405E+02  0.38798209022E+03  0.44478774539E+03  0.00000000000E+00 0. -1.
<mgrwt>
<rscale>  0 0.15667486E+03</rscale>
<asrwt>0</asrwt>
<pdfrwt beam="1">  1        2 0.19771310E+00 0.21338416E+03</pdfrwt>
<pdfrwt beam="2">  1        2 0.92849537E-01 0.11503671E+03</pdfrwt>
<totfact> 0.14505729E+02</totfact>
</mgrwt>
</event>
<event>
13    1  0.2742815E-008  0.6124879E+02  0.7546771E-02  0.1425384E+00
         -1   -1    0    0    0  501 -0.00000000000E+00  0.00000000000E+00  0.69842443099E+03  0.69842443099E+03  0.00000000000E+00 0.  1.
          2   -1    0    0  503    0  0.00000000000E+00 -0.00000000000E+00 -0.24042849681E+04  0.24042849681E+04  0.00000000000E+00 0. -1.
         25    2    1    2    0    0  0.79708470472E+02  0.72654849689E+02  0.66690906483E+02  0.17805954701E+03  0.12500143130E+03 0.  0.
         24    2    1    2    0    0  0.15991053373E+03  0.35875096286E+01 -0.23253613759E+03  0.29354741960E+03  0.80701816867E+02 0.  0.
         24    2    1    2    0    0 -0.17720216949E+03 -0.25497824096E+02 -0.48396672108E+03  0.52217189741E+03  0.79930941602E+02 0.  0.
        -13    1    5    5    0    0 -0.16544581016E+03 -0.41268197779E+02 -0.46310385461E+03  0.49349828815E+03  0.00000000000E+00 0.  1.
         14    1    5    5    0    0 -0.11756359332E+02  0.15770373684E+02 -0.20862866465E+02  0.28673609260E+02  0.00000000000E+00 0. -1.
        -13    1    4    4    0    0  0.22493112167E+02  0.22170521211E+02 -0.13589403816E+02  0.34382321064E+02  0.00000000000E+00 0.  1.
         14    1    4    4    0    0  0.13741742156E+03 -0.18583011583E+02 -0.21894673377E+03  0.25916509853E+03  0.00000000000E+00 0. -1.
          5    1    3    3  502    0  0.61522647296E+02  0.97713436495E+02  0.83446031384E+02  0.14254221114E+03  0.47000000000E+01 0.  1.
         -5    1    3    3    0  502  0.18185823176E+02 -0.25058586807E+02 -0.16755124900E+02  0.35517335876E+02  0.47000000000E+01 0.  1.
          1    1    1    2  503    0 -0.61144612738E+02 -0.33322442726E+01 -0.15808272916E+04  0.15820128613E+04  0.00000000000E+00 0. -1.
         -2    1    1    2    0  501 -0.12722219741E+01 -0.47412290949E+02  0.52477870670E+03  0.52691767373E+03  0.00000000000E+00 0.  1.
<mgrwt>
<rscale>  0 0.53897964E+02</rscale>
<asrwt>0</asrwt>
<pdfrwt beam="2">  1        2 0.35357132E+00 0.61248786E+02</pdfrwt>
<pdfrwt beam="1">  1       -1 0.10270948E+00 0.47429357E+02</pdfrwt>
<totfact> 0.73349142E+00</totfact>
</mgrwt>
</event>
<event>
13    1  0.2742815E-008  0.1080605E+03  0.7546771E-02  0.1268262E+00
          2   -1    0    0  503    0  0.00000000000E+00  0.00000000000E+00  0.23809083924E+04  0.23809083924E+04  0.00000000000E+00 0. -1.
          2   -1    0    0  502    0 -0.00000000000E+00 -0.00000000000E+00 -0.30413407807E+04  0.30413407807E+04  0.00000000000E+00 0. -1.
         25    2    1    2    0    0  0.11643305528E+03  0.13669110649E+03 -0.39577827236E+03  0.45222496139E+03  0.12500343943E+03 0.  0.
         24    2    1    2    0    0 -0.12468243916E+03 -0.22064869259E+02  0.50977095811E+03  0.53157751967E+03  0.81704715857E+02 0.  0.
         24    2    1    2    0    0  0.10001053721E+03 -0.66508138423E+02  0.29341366088E+03  0.32839109038E+03  0.85578571031E+02 0.  0.
        -11    1    4    4    0    0 -0.10110246489E+03 -0.32687111107E+02  0.48222901397E+03  0.49379649407E+03  0.00000000000E+00 0.  1.
         12    1    4    4    0    0 -0.23579974269E+02  0.10622241848E+02  0.27541944145E+02  0.37781025604E+02  0.00000000000E+00 0. -1.
        -13    1    5    5    0    0  0.33837362937E+02 -0.63497770430E+02  0.20932137101E+03  0.22134220190E+03  0.00000000000E+00 0.  1.
         14    1    5    5    0    0  0.66173174277E+02 -0.30103679927E+01  0.84092289869E+02  0.10704888848E+03  0.00000000000E+00 0. -1.
          5    1    3    3  501    0  0.34404980680E+02  0.12016983623E+03 -0.29955076312E+03  0.32461860994E+03  0.47000000000E+01 0.  1.
         -5    1    3    3    0  501  0.82028074598E+02  0.16521270262E+02 -0.96227509240E+02  0.12760635144E+03  0.47000000000E+01 0.  1.
          1    1    1    2  502    0 -0.68213408079E+01 -0.10791634686E+03 -0.25860425230E+04  0.25883022233E+04  0.00000000000E+00 0. -1.
          1    1    1    2  503    0 -0.84939812524E+02  0.59798248059E+02  0.15182037881E+04  0.15217533783E+04  0.00000000000E+00 0. -1.
<mgrwt>
<rscale>  0 0.10594852E+03</rscale>
<asrwt>0</asrwt>
<pdfrwt beam="1">  1        2 0.35013359E+00 0.10387782E+03</pdfrwt>
<pdfrwt beam="2">  1        2 0.44725600E+00 0.10806049E+03</pdfrwt>
<totfact> 0.25208824E+00</totfact>
</mgrwt>
</event>
<event>
13    1  0.2742815E-008  0.1421605E+03  0.7546771E-02  0.1334830E+00
          2   -1    0    0  502    0  0.00000000000E+00  0.00000000000E+00  0.90764264055E+03  0.90764264055E+03  0.00000000000E+00 0. -1.
          2   -1    0    0  503    0 -0.00000000000E+00 -0.00000000000E+00 -0.32685369932E+04  0.32685369932E+04  0.00000000000E+00 0. -1.
         25    2    1    2    0    0 -0.11376207813E+03 -0.23412571230E+02 -0.81185422795E+03  0.82959132504E+03  0.12499808093E+03 0.  0.
         24    2    1    2    0    0 -0.39089319005E+02  0.92833675299E+02 -0.15125636646E+02  0.13205196733E+03  0.84040889220E+02 0.  0.
         24    2    1    2    0    0  0.62572552801E+02 -0.11441523755E+03  0.23239745974E+02  0.15562205650E+03  0.81682113887E+02 0.  0.
        -11    1    4    4    0    0 -0.13961763229E+02 -0.11144016574E+02 -0.17565578508E+02  0.25053332835E+02  0.00000000000E+00 0.  1.
         12    1    4    4    0    0 -0.25127555776E+02  0.10397769187E+03  0.24399418617E+01  0.10699863449E+03  0.00000000000E+00 0. -1.
        -11    1    5    5    0    0  0.12784930050E+02  0.11384522660E+02 -0.40777981128E+01  0.17598017787E+02  0.00000000000E+00 0.  1.
         12    1    5    5    0    0  0.49787622751E+02 -0.12579976021E+03  0.27317544087E+02  0.13802403871E+03  0.00000000000E+00 0. -1.
          5    1    3    3  501    0 -0.23592337665E+01  0.16815002745E+01 -0.45178173041E+03  0.45181546604E+03  0.47000000000E+01 0. -1.
         -5    1    3    3    0  501 -0.11140284436E+03 -0.25094071504E+02 -0.36007249754E+03  0.37777585900E+03  0.47000000000E+01 0. -1.
          1    1    1    2  502    0  0.13236347257E+03  0.52757905122E+02  0.74391938293E+03  0.75744275937E+03  0.00000000000E+00 0. -1.
          1    1    1    2  503    0 -0.42084628241E+02 -0.77637716445E+01 -0.23010736170E+04  0.23014715255E+04  0.00000000000E+00 0. -1.
<mgrwt>
<rscale>  0 0.77998236E+02</rscale>
<asrwt>0</asrwt>
<pdfrwt beam="1">  1        2 0.13347686E+00 0.14216049E+03</pdfrwt>
<pdfrwt beam="2">  1        2 0.48066721E+00 0.42794767E+02</pdfrwt>
<totfact> 0.12267783E+01</totfact>
</mgrwt>
</event>
<event>
13    1  0.2742815E-008  0.1905510E+03  0.7546771E-02  0.1461910E+00
         -1   -1    0    0    0  501 -0.00000000000E+00  0.00000000000E+00  0.77682436361E+03  0.77682436361E+03  0.00000000000E+00 0.  1.
          2   -1    0    0  503    0  0.00000000000E+00 -0.00000000000E+00 -0.14454068606E+04  0.14454068606E+04  0.00000000000E+00 0. -1.
         25    2    1    2    0    0 -0.21242051506E+03  0.11934219991E+03 -0.35641154865E+02  0.27614978599E+03  0.12499350576E+03 0.  0.
         24    2    1    2    0    0  0.89910936953E+02  0.60399661570E+02 -0.41070659761E+03  0.43211965159E+03  0.79469417201E+02 0.  0.
         24    2    1    2    0    0 -0.48238441984E+01 -0.36949897501E+02 -0.72272990500E+03  0.72805589883E+03  0.79613515467E+02 0.  0.
        -11    1    5    5    0    0 -0.32935045331E+01 -0.61412634611E+02 -0.57829089007E+03  0.58155198598E+03  0.00000000000E+00 0.  1.
         12    1    5    5    0    0 -0.15303396653E+01  0.24462737110E+02 -0.14443901493E+03  0.14650391285E+03  0.00000000000E+00 0. -1.
        -13    1    4    4    0    0  0.32188263310E+02  0.28828467168E+02 -0.52854780540E+02  0.68269998096E+02  0.00000000000E+00 0.  1.
         14    1    4    4    0    0  0.57722673643E+02  0.31571194402E+02 -0.35785181707E+03  0.36384965350E+03  0.00000000000E+00 0. -1.
          5    1    3    3  502    0 -0.30559036072E+02 -0.21908690440E+02  0.14255568749E+02  0.40486499513E+02  0.47000000000E+01 0.  1.
         -5    1    3    3    0  502 -0.18186147899E+03  0.14125089035E+03 -0.49896723614E+02  0.23566328648E+03  0.47000000000E+01 0.  1.
          1    1    1    2  503    0  0.10917494621E+02  0.39776205112E+01 -0.12879790957E+03  0.12932097535E+03  0.00000000000E+00 0. -1.
         -2    1    1    2    0  501  0.11641592769E+03 -0.14676958449E+03  0.62929307009E+03  0.65658491242E+03  0.00000000000E+00 0.  1.
<mgrwt>
<rscale>  0 0.47054334E+02</rscale>
<asrwt>0</asrwt>
<pdfrwt beam="2">  1        2 0.21255983E+00 0.11619516E+02</pdfrwt>
<pdfrwt beam="1">  1       -1 0.11423888E+00 0.19055100E+03</pdfrwt>
<totfact> 0.17793898E+01</totfact>
</mgrwt>
</event>
<event>
13    1  0.2742815E-008  0.1370627E+03  0.7546771E-02  0.1231898E+00
          2   -1    0    0  502    0  0.00000000000E+00  0.00000000000E+00  0.77152462283E+03  0.77152462283E+03  0.00000000000E+00 0. -1.
          2   -1    0    0  503    0 -0.00000000000E+00 -0.00000000000E+00 -0.11369170370E+04  0.11369170370E+04  0.00000000000E+00 0. -1.
         25    2    1    2    0    0  0.81676473233E+02 -0.58644494526E+02 -0.37480876000E+03  0.40769768618E+03  0.12500229487E+03 0.  0.
         24    2    1    2    0    0  0.15011082307E+03  0.12787890965E+03  0.89319136559E+02  0.23103215596E+03  0.80694945300E+02 0.  0.
         24    2    1    2    0    0 -0.26009772484E+03 -0.66493628192E+02  0.59746955706E+02  0.29558934789E+03  0.10831036336E+03 0.  0.
        -13    1    4    4    0    0  0.64532873471E+02  0.10697169079E+03  0.50082179117E+02  0.13459442431E+03  0.00000000000E+00 0.  1.
         14    1    4    4    0    0  0.85577949598E+02  0.20907218862E+02  0.39236957442E+02  0.96437731658E+02  0.00000000000E+00 0. -1.
        -13    1    5    5    0    0 -0.25700130998E+03 -0.36916729372E+02  0.56068624258E+02  0.26562418727E+03  0.00000000000E+00 0.  1.
         14    1    5    5    0    0 -0.30964148682E+01 -0.29576898821E+02  0.36783314476E+01  0.29965160622E+02  0.00000000000E+00 0. -1.
          5    1    3    3  501    0  0.68107835539E+02 -0.38651407829E+00 -0.72869207949E+02  0.99854084153E+02  0.47000000000E+01 0.  1.
         -5    1    3    3    0  501  0.13568637694E+02 -0.58257980448E+02 -0.30193955205E+03  0.30784360202E+03  0.47000000000E+01 0.  1.
          1    1    1    2  502    0  0.11943417961E+03  0.71868722026E+02  0.39905255100E+03  0.42269678840E+03  0.00000000000E+00 0. -1.
          1    1    1    2  503    0 -0.91123751069E+02 -0.74609508961E+02 -0.53870229747E+03  0.55142568142E+03  0.00000000000E+00 0. -1.
<mgrwt>
<rscale>  0 0.12705145E+03</rscale>
<asrwt>0</asrwt>
<pdfrwt beam="1">  1        2 0.11345950E+00 0.13706267E+03</pdfrwt>
<pdfrwt beam="2">  1        2 0.16719368E+00 0.11777146E+03</pdfrwt>
<totfact> 0.15290580E+02</totfact>
</mgrwt>
</event>
<event>
13    1  0.2742815E-008  0.8821480E+02  0.7546771E-02  0.1379135E+00
          2   -1    0    0  503    0  0.00000000000E+00  0.00000000000E+00  0.23990976308E+04  0.23990976308E+04  0.00000000000E+00 0. -1.
          2   -1    0    0  502    0 -0.00000000000E+00 -0.00000000000E+00 -0.27912275733E+04  0.27912275733E+04  0.00000000000E+00 0. -1.
         25    2    1    2    0    0 -0.98719330744E+02  0.17666959932E+01 -0.31880608277E+03  0.35638384616E+03  0.12499399952E+03 0.  0.
         24    2    1    2    0    0  0.75156843953E+02 -0.12990964820E+03  0.23964605914E+03  0.29390220151E+03  0.80144884470E+02 0.  0.
         24    2    1    2    0    0 -0.57582244668E+02  0.69406482628E+02  0.20157919026E+03  0.23492649555E+03  0.80145577744E+02 0.  0.
        -11    1    4    4    0    0  0.40536315918E+02 -0.12865044994E+03  0.18009552375E+03  0.22500784176E+03  0.00000000000E+00 0.  1.
         12    1    4    4    0    0  0.34620528034E+02 -0.12591982651E+01  0.59550535387E+02  0.68894359759E+02  0.00000000000E+00 0. -1.
        -13    1    5    5    0    0  0.10182428661E+02  0.48645653770E+02  0.87215259085E+02  0.10038218418E+03  0.00000000000E+00 0.  1.
         14    1    5    5    0    0 -0.67764673329E+02  0.20760828858E+02  0.11436393118E+03  0.13454431137E+03  0.00000000000E+00 0. -1.
          5    1    3    3  501    0  0.68104035767E+01 -0.33791963698E+02 -0.15084640668E+03  0.15480635263E+03  0.47000000000E+01 0. -1.
         -5    1    3    3    0  501 -0.10552973432E+03  0.35558659691E+02 -0.16795967609E+03  0.20157749353E+03  0.47000000000E+01 0. -1.
          1    1    1    2  502    0  0.38439553132E+02  0.79399266808E+02 -0.24087264774E+04  0.24103412799E+04  0.00000000000E+00 0. -1.
          1    1    1    2  503    0  0.42705178328E+02 -0.20662797227E+02  0.18941773683E+04  0.18947713809E+04  0.00000000000E+00 0. -1.
<mgrwt>
<rscale>  0 0.64691816E+02</rscale>
<asrwt>0</asrwt>
<pdfrwt beam="1">  1        2 0.35280847E+00 0.47441369E+02</pdfrwt>
<pdfrwt beam="2">  1        2 0.41047464E+00 0.88214804E+02</pdfrwt>
<totfact> 0.38154068E+00</totfact>
</mgrwt>
</event>
<event>
13    1  0.2742815E-008  0.7711446E+02  0.7546771E-02  0.1490509E+00
          2   -1    0    0  502    0  0.00000000000E+00  0.00000000000E+00  0.26386114878E+04  0.26386114878E+04  0.00000000000E+00 0. -1.
          2   -1    0    0  503    0 -0.00000000000E+00 -0.00000000000E+00 -0.12364399948E+04  0.12364399948E+04  0.00000000000E+00 0. -1.
         25    2    1    2    0    0  0.11332940886E+03  0.13825512455E+02 -0.36556392051E+03  0.40286156388E+03  0.12500303983E+03 0.  0.
         24    2    1    2    0    0 -0.73493156952E+02  0.45931602559E+02 -0.14211344801E+03  0.18520216358E+03  0.81195154154E+02 0.  0.
         24    2    1    2    0    0  0.28818061090E+01 -0.12715571726E+01  0.11285142430E+03  0.13610737413E+03  0.76025335658E+02 0.  0.
        -11    1    4    4    0    0 -0.40963400647E+02 -0.19619073493E+02 -0.59156544351E+02  0.74581532411E+02  0.00000000000E+00 0.  1.
         12    1    4    4    0    0 -0.32529756305E+02  0.65550676052E+02 -0.82956903659E+02  0.11062063117E+03  0.00000000000E+00 0. -1.
        -11    1    5    5    0    0  0.16026181495E+02  0.29753314027E+02  0.25061706568E+02  0.42073594154E+02  0.00000000000E+00 0.  1.
         12    1    5    5    0    0 -0.13144375386E+02 -0.31024871200E+02  0.87789717731E+02  0.94033779976E+02  0.00000000000E+00 0. -1.
          5    1    3    3  501    0 -0.36470980240E+01  0.21047418086E+02 -0.33465946333E+01  0.22126563848E+02  0.47000000000E+01 0. -1.
         -5    1    3    3    0  501  0.11697650688E+03 -0.72219056316E+01 -0.36221732588E+03  0.38073500003E+03  0.47000000000E+01 0. -1.
          1    1    1    2  502    0 -0.18213953878E+02  0.14745698148E+02  0.24716808986E+04  0.24717919913E+04  0.00000000000E+00 0. -1.
          1    1    1    2  503    0 -0.24504104134E+02 -0.73231255989E+02 -0.67468346138E+03  0.67908838971E+03  0.00000000000E+00 0. -1.
<mgrwt>
<rscale>  0 0.42510610E+02</rscale>
<asrwt>0</asrwt>
<pdfrwt beam="1">  1        2 0.38803110E+00 0.23434669E+02</pdfrwt>
<pdfrwt beam="2">  1        2 0.18182941E+00 0.77114465E+02</pdfrwt>
<totfact> 0.19124472E+01</totfact>
</mgrwt>
</event>
<event>
13    1  0.2742815E-008  0.2460233E+03  0.7546771E-02  0.1204715E+00
          2   -1    0    0  503    0  0.00000000000E+00  0.00000000000E+00  0.85472341008E+03  0.85472341008E+03  0.00000000000E+00 0. -1.
          2   -1    0    0  502    0 -0.00000000000E+00 -0.00000000000E+00 -0.36511183096E+04  0.36511183096E+04  0.00000000000E+00 0. -1.
         25    2    1    2    0    0  0.40562973750E+02  0.61647428617E+03 -0.19212875431E+04  0.20220428733E+04  0.12500263165E+03 0.  0.
         24    2    1    2    0    0  0.20242128519E+02 -0.19454093511E+03 -0.11411123644E+03  0.25094058773E+03  0.10813826840E+03 0.  0.
         24    2    1    2    0    0  0.55088988687E+02 -0.16578550333E+03  0.33871407064E+03  0.38820872281E+03  0.73886135518E+02 0.  0.
        -11    1    5    5    0    0 -0.15447712537E+02 -0.59204113494E+02  0.12553043960E+03  0.13964830878E+03  0.00000000000E+00 0.  1.
         12    1    5    5    0    0  0.70536701223E+02 -0.10658138984E+03  0.21318363104E+03  0.24856041403E+03  0.00000000000E+00 0. -1.
        -11    1    4    4    0    0  0.10707923538E+02 -0.10859852243E+02 -0.56016526322E+02  0.58055553037E+02  0.00000000000E+00 0.  1.
         12    1    4    4    0    0  0.95342049807E+01 -0.18368108286E+03 -0.58094710114E+02  0.19288503470E+03  0.00000000000E+00 0. -1.
          5    1    3    3  501    0  0.83949689798E+02  0.42530186730E+03 -0.12779013446E+04  0.13494380924E+04  0.47000000000E+01 0. -1.
         -5    1    3    3    0  501 -0.43386716048E+02  0.19117241887E+03 -0.64338619851E+03  0.67260478091E+03  0.47000000000E+01 0. -1.
          1    1    1    2  502    0 -0.34343310026E+02 -0.80320839240E+02 -0.14455578684E+04  0.14481948940E+04  0.00000000000E+00 0. -1.
          1    1    1    2  503    0 -0.81550780930E+02 -0.17582700849E+03  0.34584767777E+03  0.39645464180E+03  0.00000000000E+00 0. -1.
<mgrwt>
<rscale>  0 0.14659935E+03</rscale>
<asrwt>0</asrwt>
<pdfrwt beam="1">  1        2 0.12569462E+00 0.24602326E+03</pdfrwt>
<pdfrwt beam="2">  1        2 0.53692914E+00 0.87355024E+02</pdfrwt>
<totfact> 0.68403635E+00</totfact>
</mgrwt>
</event>
<event>
13    1  0.2742815E-008  0.1207959E+03  0.7546771E-02  0.1324539E+00
          2   -1    0    0  502    0  0.00000000000E+00  0.00000000000E+00  0.23929835824E+04  0.23929835824E+04  0.00000000000E+00 0. -1.
          2   -1    0    0  503    0 -0.00000000000E+00 -0.00000000000E+00 -0.32877160946E+04  0.32877160946E+04  0.00000000000E+00 0. -1.
         25    2    1    2    0    0 -0.33915001995E+03 -0.15228913067E+03 -0.34651578391E+03  0.52336640736E+03  0.12499796998E+03 0.  0.
         24    2    1    2    0    0  0.23235963250E+03  0.81118411915E+03 -0.33619447118E+03  0.91032792792E+03  0.60494131385E+02 0.  0.
         24    2    1    2    0    0  0.18711782413E+02 -0.81093475523E+03  0.33010735892E+03  0.87930913805E+03  0.79046719096E+02 0.  0.
        -13    1    4    4    0    0  0.45639222694E+02  0.98013081300E+02 -0.55078221005E+02  0.12133883625E+03  0.00000000000E+00 0.  1.
         14    1    4    4    0    0  0.18672040980E+03  0.71317103785E+03 -0.28111625018E+03  0.78898909167E+03  0.00000000000E+00 0. -1.
        -13    1    5    5    0    0  0.39854092229E+02 -0.68175585270E+03  0.25932174452E+03  0.73049788401E+03  0.00000000000E+00 0.  1.
         14    1    5    5    0    0 -0.21142309817E+02 -0.12917890253E+03  0.70785614395E+02  0.14881125404E+03  0.00000000000E+00 0. -1.
          5    1    3    3  501    0 -0.10653982524E+03 -0.11456134207E+03 -0.13635846984E+03  0.20758313456E+03  0.47000000000E+01 0.  1.
         -5    1    3    3    0  501 -0.23261019471E+03 -0.37727788597E+02 -0.21015731408E+03  0.31578327279E+03  0.47000000000E+01 0.  1.
          1    1    1    2  502    0  0.57895598954E+02  0.10589670117E+03  0.14098157425E+04  0.14149722398E+04  0.00000000000E+00 0. -1.
          1    1    1    2  503    0  0.30183006086E+02  0.46143065583E+02 -0.19519453585E+04  0.19527239639E+04  0.00000000000E+00 0. -1.
<mgrwt>
<rscale>  0 0.81611513E+02</rscale>
<asrwt>0</asrwt>
<pdfrwt beam="1">  1        2 0.35190935E+00 0.12079586E+03</pdfrwt>
<pdfrwt beam="2">  1        2 0.48348766E+00 0.55137976E+02</pdfrwt>
<totfact> 0.20093014E+00</totfact>
</mgrwt>
</event>
<event>
13    1  0.2742815E-008  0.1108686E+03  0.7546771E-02  0.1440503E+00
          2   -1    0    0  503    0  0.00000000000E+00  0.00000000000E+00  0.34237546587E+04  0.34237546587E+04  0.00000000000E+00 0. -1.
         -1   -1    0    0    0  501 -0.00000000000E+00 -0.00000000000E+00 -0.34437058594E+03  0.34437058594E+03  0.00000000000E+00 0.  1.
         25    2    1    2    0    0 -0.11027875334E+03 -0.84301973926E+01  0.35235176572E+02  0.17058525648E+03  0.12500136156E+03 0.  0.
         24    2    1    2    0    0 -0.60326040494E+02  0.29586107535E+02  0.10341336899E+03  0.14743849356E+03  0.80803561652E+02 0.  0.
         24    2    1    2    0    0  0.35698297593E+02  0.60382530656E+01  0.82832319139E+03  0.83268061043E+03  0.76986106802E+02 0.  0.
        -11    1    5    5    0    0 -0.22095791236E+02 -0.65697582613E+01  0.14725312836E+03  0.14904653477E+03  0.00000000000E+00 0.  1.
         12    1    5    5    0    0  0.57794088829E+02  0.12608011327E+02  0.68107006303E+03  0.68363407566E+03  0.00000000000E+00 0. -1.
        -11    1    4    4    0    0 -0.64954852820E+02  0.51354565467E+02  0.80032196459E+02  0.11515891962E+03  0.00000000000E+00 0.  1.
         12    1    4    4    0    0  0.46288123260E+01 -0.21768457932E+02  0.23381172531E+02  0.32279573931E+02  0.00000000000E+00 0. -1.
          5    1    3    3  502    0 -0.80908695978E+02  0.43799926001E+02  0.55025019964E+02  0.10730560761E+03  0.47000000000E+01 0.  1.
         -5    1    3    3    0  502 -0.29370057366E+02 -0.52230123394E+02 -0.19789843392E+02  0.63279648868E+02  0.47000000000E+01 0.  1.
          1    1    1    2  503    0  0.11341787446E+03 -0.17992144486E+02  0.23629782076E+04  0.23657669668E+04  0.00000000000E+00 0. -1.
         -2    1    1    2    0  501  0.21488621784E+02 -0.92020187214E+01 -0.25056587181E+03  0.25165391738E+03  0.00000000000E+00 0.  1.
<mgrwt>
<rscale>  0 0.50908399E+02</rscale>
<asrwt>0</asrwt>
<pdfrwt beam="1">  1        2 0.50349331E+00 0.11086857E+03</pdfrwt>
<pdfrwt beam="2">  1       -1 0.50642735E-01 0.23376014E+02</pdfrwt>
<totfact> 0.77115112E+00</totfact>
</mgrwt>
</event>
<event>
13    1  0.2742815E-008  0.1360792E+03  0.7546771E-02  0.1338641E+00
         -3   -1    0    0    0  501 -0.00000000000E+00  0.00000000000E+00  0.36304406004E+03  0.36304406004E+03  0.00000000000E+00 0.  1.
          2   -1    0    0  503    0  0.00000000000E+00 -0.00000000000E+00 -0.20026316378E+04  0.20026316378E+04  0.00000000000E+00 0. -1.
         25    2    1    2    0    0  0.16188328374E+02 -0.73647118210E+02 -0.48400238359E+02  0.15376095460E+03  0.12495554446E+03 0.  0.
         24    2    1    2    0    0 -0.10367074968E+03  0.24280792914E+02 -0.51944886176E+03  0.53633967700E+03  0.80597443531E+02 0.  0.
         24    2    1    2    0    0  0.22514278141E+02  0.11886414843E+03 -0.87191864771E+03  0.88393035258E+03  0.80344019563E+02 0.  0.
        -11    1    5    5    0    0 -0.30147365972E+02  0.42054691488E+02 -0.28247992531E+03  0.28718002882E+03  0.00000000000E+00 0.  1.
         12    1    5    5    0    0  0.52661644113E+02  0.76809456944E+02 -0.58943872240E+03  0.59675032376E+03  0.00000000000E+00 0. -1.
        -13    1    4    4    0    0 -0.11926948235E+02 -0.24655246382E+02 -0.73717704196E+02  0.78641167211E+02  0.00000000000E+00 0.  1.
         14    1    4    4    0    0 -0.91743801441E+02  0.48936039297E+02 -0.44573115756E+03  0.45769850979E+03  0.00000000000E+00 0. -1.
          5    1    3    3  502    0 -0.40236799833E+02 -0.76000889095E+02 -0.13414009340E+02  0.87161693711E+02  0.47000000000E+01 0.  1.
         -5    1    3    3    0  502  0.56425128207E+02  0.23537708845E+01 -0.34986229019E+02  0.66599260893E+02  0.47000000000E+01 0.  1.
          1    1    1    2  503    0 -0.38679633251E+02  0.19346591133E+02 -0.47896127692E+03  0.48090987659E+03  0.00000000000E+00 0. -1.
         -4    1    1    2    0  501  0.10364777641E+03 -0.88844414270E+02  0.27914144702E+03  0.31073483703E+03  0.00000000000E+00 0.  1.
<mgrwt>
<rscale>  0 0.76714907E+02</rscale>
<asrwt>0</asrwt>
<pdfrwt beam="2">  1        2 0.29450464E+00 0.43248175E+02</pdfrwt>
<pdfrwt beam="1">  1       -3 0.53388834E-01 0.13607920E+03</pdfrwt>
<totfact> 0.21311000E+01</totfact>
</mgrwt>
</event>
<event>
13    1  0.2742815E-008  0.1060314E+03  0.7546771E-02  0.1335143E+00
         -1   -1    0    0    0  501 -0.00000000000E+00  0.00000000000E+00  0.61525269985E+03  0.61525269985E+03  0.00000000000E+00 0.  1.
          4   -1    0    0  503    0  0.00000000000E+00 -0.00000000000E+00 -0.42870010708E+03  0.42870010708E+03  0.00000000000E+00 0. -1.
         25    2    1    2    0    0 -0.24529003795E+02 -0.90683228372E+02  0.40368102005E+03  0.43290718901E+03  0.12500059364E+03 0.  0.
         24    2    1    2    0    0  0.79756179839E+02 -0.56050910069E+02  0.60583509703E+01  0.12420411608E+03  0.76728131041E+02 0.  0.
         24    2    1    2    0    0  0.13018512578E+02  0.10154721626E+02 -0.75321297477E+02  0.11298905584E+03  0.82587098536E+02 0.  0.
        -13    1    5    5    0    0  0.22456295641E+02  0.40989381336E+02 -0.63055678062E+02  0.78488426739E+02  0.00000000000E+00 0.  1.
         14    1    5    5    0    0 -0.94377830631E+01 -0.30834659710E+02 -0.12265619415E+02  0.34500629099E+02  0.00000000000E+00 0. -1.
        -13    1    4    4    0    0 -0.76004864243E+01  0.10905273924E+02  0.47975334218E+01  0.14131833574E+02  0.00000000000E+00 0.  1.
         14    1    4    4    0    0  0.87356666264E+02 -0.66956183992E+02  0.12608175485E+01  0.11007228251E+03  0.00000000000E+00 0. -1.
          5    1    3    3  502    0 -0.71257966980E+02 -0.30997827278E+02  0.16519111197E+03  0.18261641938E+03  0.47000000000E+01 0. -1.
         -5    1    3    3    0  502  0.46728963185E+02 -0.59685401093E+02  0.23848990808E+03  0.25029076963E+03  0.47000000000E+01 0. -1.
          3    1    1    2  503    0 -0.11445482785E+02  0.12966088617E+03 -0.23556595896E+03  0.26913614677E+03  0.00000000000E+00 0. -1.
         -2    1    1    2    0  501 -0.56800205838E+02  0.69185306440E+01  0.87700478185E+02  0.10471629922E+03  0.00000000000E+00 0.  1.
<mgrwt>
<rscale>  0 0.77891697E+02</rscale>
<asrwt>0</asrwt>
<pdfrwt beam="2">  1        4 0.63044133E-01 0.10603138E+03</pdfrwt>
<pdfrwt beam="1">  1       -1 0.90478338E-01 0.57220009E+02</pdfrwt>
<totfact> 0.11949908E+01</totfact>
</mgrwt>
</event>
<event>
13    1  0.2742815E-008  0.9241538E+02  0.7546771E-02  0.1302481E+00
          2   -1    0    0  502    0  0.00000000000E+00  0.00000000000E+00  0.19746710535E+04  0.19746710535E+04  0.00000000000E+00 0. -1.
          2   -1    0    0  503    0 -0.00000000000E+00 -0.00000000000E+00 -0.29415814421E+04  0.29415814421E+04  0.00000000000E+00 0. -1.
         25    2    1    2    0    0 -0.13368732515E+03  0.83200743741E+02 -0.47937686033E+02  0.20668143866E+03  0.12499812270E+03 0.  0.
         24    2    1    2    0    0 -0.85645028956E+02 -0.98756608245E+02  0.21262564935E+03  0.26229205164E+03  0.80619569183E+02 0.  0.
         24    2    1    2    0    0  0.49127247662E+02  0.56901846187E+02  0.33066403930E+03  0.34629626783E+03  0.70221732143E+02 0.  0.
        -11    1    4    4    0    0 -0.20193732535E+02  0.10597488842E+02  0.15563889051E+02  0.27610292389E+02  0.00000000000E+00 0.  1.
         12    1    4    4    0    0 -0.65451296421E+02 -0.10935409709E+03  0.19706176030E+03  0.23468175925E+03  0.00000000000E+00 0. -1.
        -13    1    5    5    0    0  0.85202357824E+01  0.58340569466E+02  0.15117476816E+03  0.16226529818E+03  0.00000000000E+00 0.  1.
         14    1    5    5    0    0  0.40607011880E+02 -0.14387232792E+01  0.17948927113E+03  0.18403096965E+03  0.00000000000E+00 0. -1.
          5    1    3    3  501    0 -0.94189869084E+02  0.98790640790E+02 -0.75288335695E+02  0.15595430625E+03  0.47000000000E+01 0.  1.
         -5    1    3    3    0  501 -0.39497456067E+02 -0.15589897049E+02  0.27350649662E+02  0.50727132411E+02  0.47000000000E+01 0.  1.
          1    1    1    2  502    0  0.87944356507E+02  0.56957138144E+00  0.13171272562E+04  0.13200601286E+04  0.00000000000E+00 0. -1.
          1    1    1    2  503    0  0.82260749938E+02 -0.41915553064E+02 -0.27793896474E+04  0.27809226089E+04  0.00000000000E+00 0. -1.
<mgrwt>
<rscale>  0 0.90153102E+02</rscale>
<asrwt>0</asrwt>
<pdfrwt beam="1">  1        2 0.29039281E+00 0.87946201E+02</pdfrwt>
<pdfrwt beam="2">  1        2 0.43258550E+00 0.92415382E+02</pdfrwt>
<totfact> 0.46770149E+00</totfact>
</mgrwt>
</event>
<event>
13    1  0.2742815E-008  0.5599488E+02  0.7546771E-02  0.1462039E+00
          2   -1    0    0  502    0  0.00000000000E+00  0.00000000000E+00  0.20478170759E+04  0.20478170759E+04  0.00000000000E+00 0. -1.
          4   -1    0    0  503    0 -0.00000000000E+00 -0.00000000000E+00 -0.76894274449E+03  0.76894274449E+03  0.00000000000E+00 0. -1.
         25    2    1    2    0    0  0.31480512891E+02 -0.54799666538E+02 -0.33137824232E+02  0.14393193290E+03  0.12499703904E+03 0.  0.
         24    2    1    2    0    0 -0.83994462220E+01  0.18945689686E+03  0.78309012794E+02  0.22056339210E+03  0.80940978411E+02 0.  0.
         24    2    1    2    0    0 -0.14901521445E+02 -0.15343035458E+03  0.44305200175E+03  0.47738387041E+03  0.88528833866E+02 0.  0.
        -11    1    4    4    0    0  0.89299409415E+01 -0.52410817687E+01  0.11504564488E+01  0.10418077239E+02  0.00000000000E+00 0.  1.
         12    1    4    4    0    0 -0.17329387163E+02  0.19469797863E+03  0.77158556345E+02  0.21014531486E+03  0.00000000000E+00 0. -1.
        -13    1    5    5    0    0 -0.30652877679E+02 -0.46397540072E+02  0.24975848531E+03  0.25587424962E+03  0.00000000000E+00 0.  1.
         14    1    5    5    0    0  0.15751356234E+02 -0.10703281451E+03  0.19329351643E+03  0.22150962078E+03  0.00000000000E+00 0. -1.
          5    1    3    3  501    0  0.15723271324E+02  0.35036568694E+02  0.14014279914E+02  0.41149391836E+02  0.47000000000E+01 0.  1.
         -5    1    3    3    0  501  0.15757241567E+02 -0.89836235232E+02 -0.47152104146E+02  0.10278254107E+03  0.47000000000E+01 0.  1.
          1    1    1    2  502    0 -0.44614424486E+02  0.34040273789E+02  0.13815367094E+04  0.13826759804E+04  0.00000000000E+00 0. -1.
          3    1    1    2  503    0  0.36434879262E+02 -0.15267149530E+02 -0.59088556833E+03  0.59220464464E+03  0.00000000000E+00 0. -1.
<mgrwt>
<rscale>  0 0.47032287E+02</rscale>
<asrwt>0</asrwt>
<pdfrwt beam="1">  1        2 0.30114957E+00 0.55994878E+02</pdfrwt>
<pdfrwt beam="2">  1        4 0.11307982E+00 0.39504257E+02</pdfrwt>
<totfact> 0.29140151E+00</totfact>
</mgrwt>
</event>
<event>
13    1  0.2742815E-008  0.1605933E+03  0.7546771E-02  0.1432123E+00
          2   -1    0    0  502    0  0.00000000000E+00  0.00000000000E+00  0.32731606457E+04  0.32731606457E+04  0.00000000000E+00 0. -1.
          2   -1    0    0  503    0 -0.00000000000E+00 -0.00000000000E+00 -0.38009833312E+03  0.38009833312E+03  0.00000000000E+00 0. -1.
         25    2    1    2    0    0 -0.20300095811E+03  0.35074974558E+02  0.48257623712E+02  0.24575044439E+03  0.12499935934E+03 0.  0.
         24    2    1    2    0    0  0.24051284134E+03 -0.13535867070E+03  0.11200738085E+04  0.11548404172E+04  0.54061595193E+02 0.  0.
         24    2    1    2    0    0  0.67363776064E+02 -0.40169681758E+02  0.14442062323E+04  0.14483270721E+04  0.75948564839E+02 0.  0.
        -13    1    5    5    0    0  0.35941569859E+02  0.20064341329E+02  0.51877187954E+03  0.52040238013E+03  0.00000000000E+00 0.  1.
         14    1    5    5    0    0  0.31422206205E+02 -0.60234023088E+02  0.92543435279E+03  0.92792469194E+03  0.00000000000E+00 0. -1.
        -13    1    4    4    0    0  0.19421167621E+03 -0.13196204407E+03  0.93306759539E+03  0.96215762421E+03  0.00000000000E+00 0.  1.
         14    1    4    4    0    0  0.46301165133E+02 -0.33966266217E+01  0.18700621315E+03  0.19268279301E+03  0.00000000000E+00 0. -1.
          5    1    3    3  501    0 -0.86384126671E+02  0.36227160990E+02 -0.37401724918E+02  0.10097328142E+03  0.47000000000E+01 0.  1.
         -5    1    3    3    0  501 -0.11661683144E+03 -0.11521864320E+01  0.85659348630E+02  0.14477716297E+03  0.47000000000E+01 0.  1.
          1    1    1    2  502    0 -0.13586817142E+00  0.17186117420E+02  0.51730093395E+03  0.51758635739E+03  0.00000000000E+00 0. -1.
          1    1    1    2  503    0 -0.10473979112E+03  0.12326726048E+03 -0.23677628597E+03  0.28675468775E+03  0.00000000000E+00 0. -1.
<mgrwt>
<rscale>  0 0.52536280E+02</rscale>
<asrwt>0</asrwt>
<pdfrwt beam="1">  1        2 0.48134714E+00 0.17186654E+02</pdfrwt>
<pdfrwt beam="2">  1        2 0.55896815E-01 0.16059325E+03</pdfrwt>
<totfact> 0.39654408E+01</totfact>
</mgrwt>
</event>
<event>
13    1  0.2742815E-008  0.3251920E+02  0.7546771E-02  0.1642238E+00
          2   -1    0    0  502    0  0.00000000000E+00  0.00000000000E+00  0.13794695008E+04  0.13794695008E+04  0.00000000000E+00 0. -1.
          2   -1    0    0  503    0 -0.00000000000E+00 -0.00000000000E+00 -0.16690762460E+04  0.16690762460E+04  0.00000000000E+00 0. -1.
         25    2    1    2    0    0 -0.97269325897E+01 -0.19742076576E+02 -0.27401117459E+03  0.30197941634E+03  0.12500032515E+03 0.  0.
         24    2    1    2    0    0 -0.15902407434E+02  0.53879152711E+02  0.22521989004E+02  0.10607771465E+03  0.87117115986E+02 0.  0.
         24    2    1    2    0    0  0.44213348132E+02  0.66833049423E+01  0.29328700940E+03  0.31118847323E+03  0.93922890014E+02 0.  0.
        -11    1    5    5    0    0  0.20617115718E+02  0.24009284662E+02  0.22514984404E+02  0.38838585624E+02  0.00000000000E+00 0.  1.
         12    1    5    5    0    0  0.23596232414E+02 -0.17325979720E+02  0.27077202500E+03  0.27234988760E+03  0.00000000000E+00 0. -1.
        -13    1    4    4    0    0  0.32221509691E+02  0.43872175029E+02  0.98530093421E+01  0.55317946650E+02  0.00000000000E+00 0.  1.
         14    1    4    4    0    0 -0.48123917125E+02  0.10006977683E+02  0.12668979662E+02  0.50759768000E+02  0.00000000000E+00 0. -1.
          5    1    3    3  501    0 -0.48474625296E+02 -0.66906681939E+01 -0.37277390409E+02  0.61694798599E+02  0.47000000000E+01 0.  1.
         -5    1    3    3    0  501  0.38747692707E+02 -0.13051408382E+02 -0.23673378418E+03  0.24028461774E+03  0.47000000000E+01 0.  1.
          1    1    1    2  502    0  0.10899499032E+01 -0.32494943660E+02  0.99859742878E+03  0.99912658564E+03  0.00000000000E+00 0. -1.
          1    1    1    2  503    0 -0.19673958012E+02 -0.83254374172E+01 -0.13300019978E+04  0.13301735569E+04  0.00000000000E+00 0. -1.
<mgrwt>
<rscale>  0 0.26357305E+02</rscale>
<asrwt>0</asrwt>
<pdfrwt beam="1">  1        2 0.20286316E+00 0.32519201E+02</pdfrwt>
<pdfrwt beam="2">  1        2 0.24545239E+00 0.21362994E+02</pdfrwt>
<totfact> 0.47683136E+01</totfact>
</mgrwt>
</event>
<event>
13    1  0.2742815E-008  0.1546020E+03  0.7546771E-02  0.1335939E+00
          2   -1    0    0  502    0  0.00000000000E+00  0.00000000000E+00  0.13226769273E+04  0.13226769273E+04  0.00000000000E+00 0. -1.
          2   -1    0    0  503    0 -0.00000000000E+00 -0.00000000000E+00 -0.42976221775E+04  0.42976221775E+04  0.00000000000E+00 0. -1.
         25    2    1    2    0    0  0.11513004207E+03  0.33015016000E+03 -0.19499035257E+04  0.19849438300E+04  0.12499677494E+03 0.  0.
         24    2    1    2    0    0 -0.11357217081E+03 -0.13268067657E+03 -0.27093629015E+03  0.33222685038E+03  0.80407753840E+02 0.  0.
         24    2    1    2    0    0  0.17660918126E+02 -0.62580915062E+02 -0.24568205328E+03  0.26455679319E+03  0.73500656855E+02 0.  0.
        -11    1    5    5    0    0 -0.63464244669E+01 -0.71950027631E+02 -0.17479210673E+03  0.18912790422E+03  0.00000000000E+00 0.  1.
         12    1    5    5    0    0  0.24007342593E+02  0.93691125698E+01 -0.70889946556E+02  0.75428888971E+02  0.00000000000E+00 0. -1.
        -13    1    4    4    0    0 -0.10577164323E+03 -0.88247012377E+02 -0.15256942495E+03  0.20555438486E+03  0.00000000000E+00 0.  1.
         14    1    4    4    0    0 -0.78005275727E+01 -0.44433664190E+02 -0.11836686520E+03  0.12667246552E+03  0.00000000000E+00 0. -1.
          5    1    3    3  501    0  0.66910087207E+02  0.69133790924E+02 -0.34343455444E+03  0.35668729162E+03  0.47000000000E+01 0.  1.
         -5    1    3    3    0  501  0.48219954861E+02  0.26101636907E+03 -0.16064689713E+04  0.16282565383E+04  0.47000000000E+01 0.  1.
          1    1    1    2  502    0 -0.57213943604E+02 -0.14355975135E+03  0.12601390012E+04  0.12695799069E+04  0.00000000000E+00 0. -1.
          1    1    1    2  503    0  0.37995154217E+02  0.86711829875E+01 -0.17685623822E+04  0.17689917244E+04  0.00000000000E+00 0. -1.
<mgrwt>
<rscale>  0 0.77621888E+02</rscale>
<asrwt>0</asrwt>
<pdfrwt beam="1">  1        2 0.19451131E+00 0.15460199E+03</pdfrwt>
<pdfrwt beam="2">  1        2 0.63200325E+00 0.38972056E+02</pdfrwt>
<totfact> 0.17032190E+00</totfact>
</mgrwt>
</event>
<event>
13    1  0.2742815E-008  0.7660437E+02  0.7546771E-02  0.1459584E+00
          2   -1    0    0  502    0  0.00000000000E+00  0.00000000000E+00  0.12656953229E+04  0.12656953229E+04  0.00000000000E+00 0. -1.
          2   -1    0    0  503    0 -0.00000000000E+00 -0.00000000000E+00 -0.16114421536E+04  0.16114421536E+04  0.00000000000E+00 0. -1.
         25    2    1    2    0    0 -0.13123807455E+02  0.38808504694E+03 -0.11188787162E+04  0.11909227786E+04  0.12500097961E+03 0.  0.
         24    2    1    2    0    0  0.75799157709E+02 -0.26138787703E+03  0.35779637868E+03  0.45594806943E+03  0.76165995419E+02 0.  0.
         24    2    1    2    0    0 -0.54666730363E+01 -0.44353340109E+02  0.37321050725E+03  0.38442805444E+03  0.80633386536E+02 0.  0.
        -11    1    5    5    0    0  0.71546920776E+01 -0.61787068844E+02  0.33358817887E+03  0.33933744941E+03  0.00000000000E+00 0.  1.
         12    1    5    5    0    0 -0.12621365114E+02  0.17433728735E+02  0.39622328387E+02  0.45090605028E+02  0.00000000000E+00 0. -1.
        -11    1    4    4    0    0  0.85946508489E+02 -0.17950393738E+03  0.27054454692E+03  0.33586130728E+03  0.00000000000E+00 0.  1.
         12    1    4    4    0    0 -0.10147350780E+02 -0.81883939656E+02  0.87251831751E+02  0.12008676216E+03  0.00000000000E+00 0. -1.
          5    1    3    3  501    0  0.45049533665E+01  0.16465533290E+03 -0.30420376678E+03  0.34596776581E+03  0.47000000000E+01 0. -1.
         -5    1    3    3    0  501 -0.17628760822E+02  0.22342971404E+03 -0.81467494947E+03  0.84495501278E+03  0.47000000000E+01 0. -1.
          1    1    1    2  502    0 -0.30420995793E+02 -0.70240424885E+02  0.44013654048E+03  0.44674302293E+03  0.00000000000E+00 0. -1.
          1    1    1    2  503    0 -0.26787681425E+02 -0.12103404915E+02 -0.39801154082E+03  0.39909555111E+03  0.00000000000E+00 0. -1.
<mgrwt>
<rscale>  0 0.47453069E+02</rscale>
<asrwt>0</asrwt>
<pdfrwt beam="1">  1        2 0.18613167E+00 0.76604374E+02</pdfrwt>
<pdfrwt beam="2">  1        2 0.23697678E+00 0.29395107E+02</pdfrwt>
<totfact> 0.52489900E+01</totfact>
</mgrwt>
</event>
<event>
13    1  0.2742815E-008  0.6828857E+02  0.7546771E-02  0.1366110E+00
         -1   -1    0    0    0  501  0.00000000000E+00  0.00000000000E+00  0.16401566450E+03  0.16401566450E+03  0.00000000000E+00 0.  1.
         -1   -1    0    0    0  502 -0.00000000000E+00 -0.00000000000E+00 -0.12819722812E+04  0.12819722812E+04  0.00000000000E+00 0.  1.
         25    2    1    2    0    0 -0.88977006410E+02  0.10757747356E+03 -0.38095784786E+03  0.42455109158E+03  0.12499970813E+03 0.  0.
         24    2    1    2    0    0  0.34959989493E+02 -0.12750820759E+03 -0.14156933908E+03  0.20925892546E+03  0.79163604337E+02 0.  0.
         24    2    1    2    0    0  0.56487093471E+02  0.23289412836E+02 -0.10410723116E+03  0.14387805323E+03  0.78290421771E+02 0.  0.
        -11    1    4    4    0    0  0.32798152216E+01 -0.10470623135E+03 -0.13299040942E+03  0.16929442126E+03  0.00000000000E+00 0.  1.
         12    1    4    4    0    0  0.31680174271E+02 -0.22801976244E+02 -0.85789296542E+01  0.39964504207E+02  0.00000000000E+00 0. -1.
        -13    1    5    5    0    0  0.30115029111E+02 -0.27513568526E+02 -0.54893888981E+02  0.68390426807E+02  0.00000000000E+00 0.  1.
         14    1    5    5    0    0  0.26372064359E+02  0.50802981362E+02 -0.49213342178E+02  0.75487626418E+02  0.00000000000E+00 0. -1.
          5    1    3    3  503    0 -0.10861288426E+03  0.11446691902E+03 -0.28068112649E+03  0.32203015223E+03  0.47000000000E+01 0.  1.
         -5    1    3    3    0  503  0.19635877848E+02 -0.68894454589E+01 -0.10027672137E+03  0.10252093935E+03  0.47000000000E+01 0.  1.
         -2    1    1    2    0  501  0.37483967066E+02 -0.58670191556E+02  0.72411241734E+02  0.10045211344E+03  0.00000000000E+00 0.  1.
         -2    1    1    2    0  502 -0.39954043619E+02  0.55311512749E+02 -0.56373344030E+03  0.56784776196E+03  0.00000000000E+00 0.  1.
<mgrwt>
<rscale>  0 0.68260582E+02</rscale>
<asrwt>0</asrwt>
<pdfrwt beam="1">  1       -1 0.24119951E-01 0.68288566E+02</pdfrwt>
<pdfrwt beam="2">  1       -1 0.18852534E+00 0.68232610E+02</pdfrwt>
<totfact> 0.27068745E+01</totfact>
</mgrwt>
</event>
<event>
13    1  0.2742815E-008  0.1472825E+03  0.7546771E-02  0.1310081E+00
         -1   -1    0    0    0  501  0.00000000000E+00  0.00000000000E+00  0.13560733900E+04  0.13560733900E+04  0.00000000000E+00 0.  1.
         -1   -1    0    0    0  502 -0.00000000000E+00 -0.00000000000E+00 -0.13115527586E+04  0.13115527586E+04  0.00000000000E+00 0.  1.
         25    2    1    2    0    0 -0.40508682764E+02  0.16377170871E+03 -0.24448655167E+03  0.32227359672E+03  0.12499788496E+03 0.  0.
         24    2    1    2    0    0 -0.15154881249E+01 -0.32450797926E+02  0.61367345303E+02  0.11106559342E+03  0.86684854395E+02 0.  0.
         24    2    1    2    0    0 -0.76117449154E+02  0.57135419010E+02 -0.89486235053E+00  0.12978431476E+03  0.88231770969E+02 0.  0.
        -11    1    5    5    0    0 -0.44785136523E+02 -0.39350029421E+01 -0.31230452862E+02  0.54740605472E+02  0.00000000000E+00 0.  1.
         12    1    5    5    0    0 -0.31332312632E+02  0.61070421952E+02  0.30335590511E+02  0.75043709290E+02  0.00000000000E+00 0. -1.
        -11    1    4    4    0    0 -0.12169615369E+02 -0.59159610709E+02  0.54835898480E+02  0.81577783983E+02  0.00000000000E+00 0.  1.
         12    1    4    4    0    0  0.10654127244E+02  0.26708812784E+02  0.65314468229E+01  0.29487809434E+02  0.00000000000E+00 0. -1.
          5    1    3    3  503    0 -0.64386498871E+02  0.10830733641E+03 -0.22626231791E+03  0.25902283078E+03  0.47000000000E+01 0. -1.
         -5    1    3    3    0  503  0.23877816107E+02  0.55464372296E+02 -0.18224233757E+02  0.63250765942E+02  0.47000000000E+01 0. -1.
         -2    1    1    2    0  502 -0.39366046868E+02 -0.33182339243E+02 -0.92677914916E+03  0.92820813647E+03  0.00000000000E+00 0.  1.
         -2    1    1    2    0  501  0.15750766691E+03 -0.15527399055E+03  0.11553138493E+04  0.11762945072E+04  0.00000000000E+00 0.  1.
<mgrwt>
<rscale>  0 0.87079906E+02</rscale>
<asrwt>0</asrwt>
<pdfrwt beam="1">  1       -1 0.19942256E+00 0.14728253E+03</pdfrwt>
<pdfrwt beam="2">  1       -1 0.19287541E+00 0.51485467E+02</pdfrwt>
<totfact> 0.32560704E-01</totfact>
</mgrwt>
</event>
<event>
13    1  0.2742815E-008  0.1221852E+03  0.7546771E-02  0.1290909E+00
          2   -1    0    0  502    0  0.00000000000E+00  0.00000000000E+00  0.44701403926E+04  0.44701403926E+04  0.00000000000E+00 0. -1.
          2   -1    0    0  503    0 -0.00000000000E+00 -0.00000000000E+00 -0.11529103024E+04  0.11529103024E+04  0.00000000000E+00 0. -1.
         25    2    1    2    0    0 -0.52192661940E+02  0.14431826584E+02 -0.21690404593E+03  0.25613028481E+03  0.12499202407E+03 0.  0.
         24    2    1    2    0    0 -0.70375109844E+02 -0.10562522131E+03  0.91101081056E+02  0.17535095325E+03  0.79619133218E+02 0.  0.
         24    2    1    2    0    0 -0.54988457480E+01  0.56779248281E+02  0.73730974660E+03  0.74392343392E+03  0.80884440817E+02 0.  0.
        -11    1    4    4    0    0 -0.42380520726E+02 -0.49790312581E+02  0.92020046968E+02  0.11288433376E+03  0.00000000000E+00 0.  1.
         12    1    4    4    0    0 -0.27994589118E+02 -0.55834908729E+02 -0.91896591229E+00  0.62466619494E+02  0.00000000000E+00 0. -1.
        -13    1    5    5    0    0 -0.36235187261E+02  0.33843456778E+02  0.23617747719E+03  0.24132585666E+03  0.00000000000E+00 0.  1.
         14    1    5    5    0    0  0.30736341513E+02  0.22935791503E+02  0.50113226942E+03  0.50259757726E+03  0.00000000000E+00 0. -1.
          5    1    3    3  501    0  0.24398808771E+02  0.46723452493E+02 -0.87531663134E+02  0.10228521366E+03  0.47000000000E+01 0.  1.
         -5    1    3    3    0  501 -0.76591470710E+02 -0.32291625908E+02 -0.12937238279E+03  0.15384507116E+03  0.47000000000E+01 0.  1.
          1    1    1    2  502    0  0.73444978922E+02  0.84410093662E+02  0.35742337688E+04  0.35759846564E+04  0.00000000000E+00 0. -1.
          1    1    1    2  503    0  0.54621638609E+02 -0.49995947217E+02 -0.86851046041E+03  0.87166136658E+03  0.00000000000E+00 0. -1.
<mgrwt>
<rscale>  0 0.95118752E+02</rscale>
<asrwt>0</asrwt>
<pdfrwt beam="1">  1        2 0.65737358E+00 0.12218517E+03</pdfrwt>
<pdfrwt beam="2">  1        2 0.16954563E+00 0.74048080E+02</pdfrwt>
<totfact> 0.12336969E+00</totfact>
</mgrwt>
</event>
<event>
13    1  0.2742815E-008  0.5822955E+03  0.7546771E-02  0.1100873E+00
          2   -1    0    0  502    0  0.00000000000E+00  0.00000000000E+00  0.21072549880E+04  0.21072549880E+04  0.00000000000E+00 0. -1.
          2   -1    0    0  503    0 -0.00000000000E+00 -0.00000000000E+00 -0.20878133013E+04  0.20878133013E+04  0.00000000000E+00 0. -1.
         25    2    1    2    0    0 -0.97886680624E+01  0.72503574885E+03  0.16251093753E+03  0.75353127448E+03  0.12500768644E+03 0.  0.
         24    2    1    2    0    0  0.36285889545E+03 -0.45307442050E+03  0.22567152142E+02  0.58647784847E+03  0.80647268220E+02 0.  0.
         24    2    1    2    0    0 -0.36187215021E+02  0.57133252439E+02  0.17585390074E+03  0.20494777908E+03  0.80655283022E+02 0.  0.
        -11    1    5    5    0    0  0.43462165203E+01  0.12815718401E+01 -0.76529916997E+01  0.88938353020E+01  0.00000000000E+00 0.  1.
         12    1    5    5    0    0 -0.40533431541E+02  0.55851680598E+02  0.18350689244E+03  0.19605394378E+03  0.00000000000E+00 0. -1.
        -11    1    4    4    0    0  0.16235438660E+02 -0.49342731847E+02 -0.11747424871E+02  0.53256892941E+02  0.00000000000E+00 0.  1.
         12    1    4    4    0    0  0.34662345679E+03 -0.40373168865E+03  0.34314577013E+02  0.53322095553E+03  0.00000000000E+00 0. -1.
          5    1    3    3  501    0  0.39812970957E+02  0.44167981428E+03  0.57241701298E+02  0.44717427628E+03  0.47000000000E+01 0.  1.
         -5    1    3    3    0  501 -0.49601639019E+02  0.28335593457E+03  0.10526923623E+03  0.30635699820E+03  0.47000000000E+01 0.  1.
          1    1    1    2  502    0  0.70836212270E+02  0.10919469988E+03  0.10930705478E+04  0.11007926571E+04  0.00000000000E+00 0. -1.
          1    1    1    2  503    0 -0.38771922464E+03 -0.43828928066E+03 -0.14345608516E+04  0.15493187302E+04  0.00000000000E+00 0. -1.
<mgrwt>
<rscale>  0 0.27071161E+03</rscale>
<asrwt>0</asrwt>
<pdfrwt beam="1">  1        2 0.30989044E+00 0.12585496E+03</pdfrwt>
<pdfrwt beam="2">  1        2 0.30703137E+00 0.58229548E+03</pdfrwt>
<totfact> 0.86259719E+00</totfact>
</mgrwt>
</event>
<event>
13    1  0.2742815E-008  0.1302598E+03  0.7546771E-02  0.1355746E+00
          2   -1    0    0  503    0  0.00000000000E+00  0.00000000000E+00  0.76817457367E+03  0.76817457367E+03  0.00000000000E+00 0. -1.
          2   -1    0    0  502    0 -0.00000000000E+00 -0.00000000000E+00 -0.13599240127E+04  0.13599240127E+04  0.00000000000E+00 0. -1.
         25    2    1    2    0    0  0.93252600287E+02  0.65363147076E+02 -0.41572193690E+03  0.44879647599E+03  0.12500063832E+03 0.  0.
         24    2    1    2    0    0  0.68596785774E+02 -0.17538642144E+01 -0.22737349000E+02  0.10795127828E+03  0.80174162824E+02 0.  0.
         24    2    1    2    0    0 -0.80972882982E+01 -0.63034441216E+02  0.88267350384E+02  0.13482099520E+03  0.79665982365E+02 0.  0.
        -11    1    4    4    0    0  0.48195784820E+02 -0.36152972349E+02 -0.29998618636E+02  0.67303701266E+02  0.00000000000E+00 0.  1.
         12    1    4    4    0    0  0.20401000954E+02  0.34399108135E+02  0.72612696356E+01  0.40647577014E+02  0.00000000000E+00 0. -1.
        -11    1    5    5    0    0  0.13291480055E+02  0.14999066648E+02  0.25412193982E+02  0.32363792197E+02  0.00000000000E+00 0.  1.
         12    1    5    5    0    0 -0.21388768353E+02 -0.78033507864E+02  0.62855156402E+02  0.10245720301E+03  0.00000000000E+00 0. -1.
          5    1    3    3  501    0  0.10037602428E+03  0.74089825778E+02 -0.41811643599E+03  0.43635775755E+03  0.47000000000E+01 0. -1.
         -5    1    3    3    0  501 -0.71234239915E+01 -0.87266787024E+01  0.23944990807E+01  0.12438718438E+02  0.47000000000E+01 0. -1.
          1    1    1    2  502    0  0.77279400876E+01 -0.38248323919E+02 -0.82707031655E+03  0.82799031629E+03  0.00000000000E+00 0. -1.
          1    1    1    2  503    0 -0.16148003785E+03  0.37673482274E+02  0.58551281306E+03  0.60853952061E+03  0.00000000000E+00 0. -1.
<mgrwt>
<rscale>  0 0.71294420E+02</rscale>
<asrwt>0</asrwt>
<pdfrwt beam="1">  1        2 0.11296685E+00 0.13025976E+03</pdfrwt>
<pdfrwt beam="2">  1        2 0.19998882E+00 0.39021217E+02</pdfrwt>
<totfact> 0.12714201E+02</totfact>
</mgrwt>
</event>
<event>
13    1  0.2742815E-008  0.4669143E+02  0.7546771E-02  0.1554902E+00
          2   -1    0    0  502    0  0.00000000000E+00  0.00000000000E+00  0.26173878295E+04  0.26173878295E+04  0.00000000000E+00 0. -1.
          4   -1    0    0  503    0 -0.00000000000E+00 -0.00000000000E+00 -0.30967927003E+03  0.30967927003E+03  0.00000000000E+00 0. -1.
         25    2    1    2    0    0  0.19318996052E+03  0.13298264178E+03  0.19906772865E+02  0.26651020737E+03  0.12499866866E+03 0.  0.
         24    2    1    2    0    0  0.37742568441E+02 -0.19052725132E+03  0.38872974315E+03  0.44042668210E+03  0.71691799586E+02 0.  0.
         24    2    1    2    0    0 -0.26751880533E+03  0.21065191434E+02  0.16312050386E+04  0.16549821324E+04  0.78268301160E+02 0.  0.
        -11    1    4    4    0    0  0.57060460121E+02 -0.10799562162E+03  0.22167837947E+03  0.25310127286E+03  0.00000000000E+00 0.  1.
         12    1    4    4    0    0 -0.19317891680E+02 -0.82531629699E+02  0.16705136368E+03  0.18732540924E+03  0.00000000000E+00 0. -1.
        -13    1    5    5    0    0 -0.26544512101E+02  0.23298089491E+02  0.30731636731E+03  0.30933923403E+03  0.00000000000E+00 0.  1.
         14    1    5    5    0    0 -0.24097429323E+03 -0.22328980575E+01  0.13238886713E+04  0.13456428984E+04  0.00000000000E+00 0. -1.
          5    1    3    3  501    0  0.14551601414E+03  0.11831644717E+03  0.65558900955E+02  0.19873034881E+03  0.47000000000E+01 0.  1.
         -5    1    3    3    0  501  0.47673946381E+02  0.14666194608E+02 -0.45652128091E+02  0.67779858564E+02  0.47000000000E+01 0.  1.
          1    1    1    2  502    0  0.12838691557E+02  0.44904381149E+02  0.41411749864E+03  0.41674277214E+03  0.00000000000E+00 0. -1.
          3    1    1    2  503    0  0.23747584810E+02 -0.84249630416E+01 -0.14625049378E+03  0.14840530556E+03  0.00000000000E+00 0. -1.
<mgrwt>
<rscale>  0 0.34300438E+02</rscale>
<asrwt>0</asrwt>
<pdfrwt beam="1">  1        2 0.38490996E+00 0.46691429E+02</pdfrwt>
<pdfrwt beam="2">  1        4 0.45541070E-01 0.25197773E+02</pdfrwt>
<totfact> 0.10174483E+01</totfact>
</mgrwt>
</event>
<event>
13    1  0.2742815E-008  0.1202663E+03  0.7546771E-02  0.1254671E+00
          2   -1    0    0  502    0  0.00000000000E+00  0.00000000000E+00  0.13421007719E+04  0.13421007719E+04  0.00000000000E+00 0. -1.
          2   -1    0    0  503    0 -0.00000000000E+00 -0.00000000000E+00 -0.35365452027E+04  0.35365452027E+04  0.00000000000E+00 0. -1.
         25    2    1    2    0    0  0.94670704870E+02 -0.11581413051E+03 -0.15991062674E+03  0.25213557286E+03  0.12500193346E+03 0.  0.
         24    2    1    2    0    0 -0.77910093494E+02 -0.34690324719E+02 -0.86871812989E+02  0.14432173405E+03  0.77515480575E+02 0.  0.
         24    2    1    2    0    0 -0.36011632187E+02  0.60883149632E+02  0.18426200457E+03  0.21298319521E+03  0.80035989110E+02 0.  0.
        -13    1    4    4    0    0 -0.60411271622E+02 -0.49186534851E+02 -0.92477674141E+02  0.12091715000E+03  0.00000000000E+00 0.  1.
         14    1    4    4    0    0 -0.17498821872E+02  0.14496210132E+02  0.56058611521E+01  0.23404584046E+02  0.00000000000E+00 0. -1.
        -13    1    5    5    0    0  0.22767428766E+02  0.42139215235E+01  0.59844334381E+02  0.64167416222E+02  0.00000000000E+00 0.  1.
         14    1    5    5    0    0 -0.58779060953E+02  0.56669228109E+02  0.12441767019E+03  0.14881577899E+03  0.00000000000E+00 0. -1.
          5    1    3    3  501    0  0.19211418649E+02  0.11270354600E+02  0.11707232604E+02  0.25597827926E+02  0.47000000000E+01 0. -1.
         -5    1    3    3    0  501  0.75459286221E+02 -0.12708448511E+03 -0.17161785934E+03  0.22653774493E+03  0.47000000000E+01 0. -1.
          1    1    1    2  502    0  0.11249162669E+03  0.14669253800E+02  0.10645079013E+04  0.10705356720E+04  0.00000000000E+00 0. -1.
          1    1    1    2  503    0 -0.93240605876E+02  0.74952051801E+02 -0.31964318969E+04  0.31986698005E+04  0.00000000000E+00 0. -1.
<mgrwt>
<rscale>  0 0.11324752E+03</rscale>
<asrwt>0</asrwt>
<pdfrwt beam="1">  1        2 0.19736776E+00 0.10663831E+03</pdfrwt>
<pdfrwt beam="2">  1        2 0.52008017E+00 0.12026634E+03</pdfrwt>
<totfact> 0.41711338E+00</totfact>
</mgrwt>
</event>
<event>
13    1  0.2742815E-008  0.9859696E+02  0.7546771E-02  0.1333616E+00
         -1   -1    0    0    0  501 -0.00000000000E+00  0.00000000000E+00  0.11100424225E+04  0.11100424225E+04  0.00000000000E+00 0.  1.
          2   -1    0    0  503    0  0.00000000000E+00 -0.00000000000E+00 -0.48686049364E+03  0.48686049364E+03  0.00000000000E+00 0. -1.
         25    2    1    2    0    0 -0.18419943953E+03 -0.51682245434E+02  0.12570069554E+03  0.26081138090E+03  0.12498569331E+03 0.  0.
         24    2    1    2    0    0  0.53713702851E+02 -0.11777974272E+03 -0.41745369180E+02  0.15762034840E+03  0.79650917850E+02 0.  0.
         24    2    1    2    0    0  0.75969989965E+01  0.67072253418E+02 -0.10913612515E+03  0.15108408876E+03  0.79745259994E+02 0.  0.
        -11    1    4    4    0    0 -0.15074571529E+02 -0.38355817658E+02  0.69837062644E+01  0.41799325451E+02  0.00000000000E+00 0.  1.
         12    1    4    4    0    0  0.68788274380E+02 -0.79423925058E+02 -0.48729075445E+02  0.11582102295E+03  0.00000000000E+00 0. -1.
        -13    1    5    5    0    0 -0.34814255651E+02  0.41524338620E+02 -0.47794350563E+02  0.72253740665E+02  0.00000000000E+00 0.  1.
         14    1    5    5    0    0  0.42411254648E+02  0.25547914798E+02 -0.61341774585E+02  0.78830348094E+02  0.00000000000E+00 0. -1.
          5    1    3    3  502    0 -0.21789855854E+02  0.32972758348E+02  0.21953151666E+01  0.39861134202E+02  0.47000000000E+01 0.  1.
         -5    1    3    3    0  502 -0.16240958368E+03 -0.84655003782E+02  0.12350538037E+03  0.22095024670E+03  0.47000000000E+01 0.  1.
          1    1    1    2  503    0  0.51299802089E+02  0.35457790458E+02 -0.18141896713E+03  0.19183786444E+03  0.00000000000E+00 0. -1.
         -2    1    1    2    0  501  0.71588935597E+02  0.66931944274E+02  0.82978169480E+03  0.83554923367E+03  0.00000000000E+00 0.  1.
<mgrwt>
<rscale>  0 0.78413193E+02</rscale>
<asrwt>0</asrwt>
<pdfrwt beam="2">  1        2 0.71597132E-01 0.62361243E+02</pdfrwt>
<pdfrwt beam="1">  1       -1 0.16324153E+00 0.98596959E+02</pdfrwt>
<totfact> 0.25588587E+01</totfact>
</mgrwt>
</event>
<event>
13    1  0.2742815E-008  0.8694381E+02  0.7546771E-02  0.1318051E+00
          2   -1    0    0  503    0  0.00000000000E+00  0.00000000000E+00  0.17743802262E+04  0.17743802262E+04  0.00000000000E+00 0. -1.
          2   -1    0    0  502    0 -0.00000000000E+00 -0.00000000000E+00 -0.82951199793E+03  0.82951199793E+03  0.00000000000E+00 0. -1.
         25    2    1    2    0    0 -0.11973640831E+03 -0.92467485387E+02 -0.16147791559E+03  0.25414090053E+03  0.12500174706E+03 0.  0.
         24    2    1    2    0    0  0.19313348072E+01  0.87057434848E+02  0.14773171355E+03  0.18882924155E+03  0.79051225538E+02 0.  0.
         24    2    1    2    0    0  0.61761187518E+02 -0.18325648974E+02  0.14087536052E+03  0.17428043023E+03  0.79859423151E+02 0.  0.
        -11    1    4    4    0    0 -0.32609822748E+02  0.54650228975E+02  0.52619186679E+02  0.82576188296E+02  0.00000000000E+00 0.  1.
         12    1    4    4    0    0  0.34541157555E+02  0.32407205872E+02  0.95112526875E+02  0.10625305326E+03  0.00000000000E+00 0. -1.
        -13    1    5    5    0    0  0.46089584666E+02  0.25500679694E+02  0.52341270091E+02  0.74257275968E+02  0.00000000000E+00 0.  1.
         14    1    5    5    0    0  0.15671602852E+02 -0.43826328668E+02  0.88534090434E+02  0.10002315427E+03  0.00000000000E+00 0. -1.
          5    1    3    3  501    0 -0.13258604943E+03 -0.10618213973E+03 -0.11899743758E+03  0.20745165088E+03  0.47000000000E+01 0.  1.
         -5    1    3    3    0  501  0.12849641128E+02  0.13714654338E+02 -0.42480478012E+02  0.46689249650E+02  0.47000000000E+01 0.  1.
          1    1    1    2  502    0  0.50711782763E+02 -0.63376773175E+02 -0.58026576011E+03  0.58591522650E+03  0.00000000000E+00 0. -1.
          1    1    1    2  503    0  0.53321032188E+01  0.87112472689E+02  0.13980048299E+04  0.14007264254E+04  0.00000000000E+00 0. -1.
<mgrwt>
<rscale>  0 0.84006459E+02</rscale>
<asrwt>0</asrwt>
<pdfrwt beam="1">  1        2 0.26093827E+00 0.86943810E+02</pdfrwt>
<pdfrwt beam="2">  1        2 0.12198706E+00 0.81168345E+02</pdfrwt>
<totfact> 0.69680068E+01</totfact>
</mgrwt>
</event>
<event>
13    1  0.2742815E-008  0.9732759E+02  0.7546771E-02  0.1329089E+00
          2   -1    0    0  502    0  0.00000000000E+00  0.00000000000E+00  0.43866012401E+03  0.43866012401E+03  0.00000000000E+00 0. -1.
          2   -1    0    0  503    0 -0.00000000000E+00 -0.00000000000E+00 -0.61126868578E+03  0.61126868578E+03  0.00000000000E+00 0. -1.
         25    2    1    2    0    0  0.45425356784E+02  0.74095709647E+02  0.10060883879E+01  0.15225033620E+03  0.12500206172E+03 0.  0.
         24    2    1    2    0    0  0.11263176182E-01  0.37963664553E+01  0.13560204573E+02  0.77038476908E+02  0.75740578629E+02 0.  0.
         24    2    1    2    0    0  0.19081909788E+02  0.65439864022E+02  0.13545176409E+03  0.17091619069E+03  0.78858536392E+02 0.  0.
        -13    1    5    5    0    0 -0.12002331958E+02  0.58257864057E+02  0.12307778223E+03  0.13669738541E+03  0.00000000000E+00 0.  1.
         14    1    5    5    0    0  0.31084241745E+02  0.71819999649E+01  0.12373981854E+02  0.34218805287E+02  0.00000000000E+00 0. -1.
        -13    1    4    4    0    0 -0.99243505529E-01 -0.33656606352E+02 -0.69063974284E+01  0.34358046013E+02  0.00000000000E+00 0.  1.
         14    1    4    4    0    0  0.11050668171E+00  0.37452972807E+02  0.20466602002E+02  0.42680430894E+02  0.00000000000E+00 0. -1.
          5    1    3    3  501    0  0.32927849345E+02  0.13633383457E+02 -0.57011032678E+02  0.67397776328E+02  0.47000000000E+01 0. -1.
         -5    1    3    3    0  501  0.12497507438E+02  0.60462326190E+02  0.58017121066E+02  0.84852559875E+02  0.47000000000E+01 0. -1.
          1    1    1    2  502    0 -0.46297111538E+02 -0.46666441389E+02  0.15168650512E+03  0.16531780038E+03  0.00000000000E+00 0. -1.
          1    1    1    2  503    0 -0.18221418209E+02 -0.96665498736E+02 -0.47431312393E+03  0.48440600560E+03  0.00000000000E+00 0. -1.
<mgrwt>
<rscale>  0 0.79986842E+02</rscale>
<asrwt>0</asrwt>
<pdfrwt beam="1">  1        2 0.64508841E-01 0.65735677E+02</pdfrwt>
<pdfrwt beam="2">  1        2 0.89892454E-01 0.97327588E+02</pdfrwt>
<totfact> 0.63229711E+02</totfact>
</mgrwt>
</event>
<event>
13    1  0.2742815E-008  0.9318667E+02  0.7546771E-02  0.1372062E+00
          2   -1    0    0  503    0  0.00000000000E+00  0.00000000000E+00  0.28966750472E+04  0.28966750472E+04  0.00000000000E+00 0. -1.
          2   -1    0    0  502    0 -0.00000000000E+00 -0.00000000000E+00 -0.19699607621E+04  0.19699607621E+04  0.00000000000E+00 0. -1.
         25    2    1    2    0    0 -0.39188491804E+03  0.57659191060E+03 -0.54078041577E+03  0.89112344399E+03  0.12500205595E+03 0.  0.
         24    2    1    2    0    0  0.44092130289E+03 -0.11500136571E+04  0.82914204935E+03  0.14858934526E+04  0.58820129569E+02 0.  0.
         24    2    1    2    0    0  0.15178796720E+02  0.68350352276E+03  0.56021205484E+03  0.88755890890E+03  0.80720560508E+02 0.  0.
        -11    1    5    5    0    0  0.12565777366E+02  0.51624132657E+03  0.37634907910E+03  0.63898484752E+03  0.00000000000E+00 0.  1.
         12    1    5    5    0    0  0.26130193543E+01  0.16726219619E+03  0.18386297575E+03  0.24857406139E+03  0.00000000000E+00 0. -1.
        -13    1    4    4    0    0  0.31629088942E+03 -0.77852484874E+03  0.59149171437E+03  0.10276202192E+04  0.00000000000E+00 0.  1.
         14    1    4    4    0    0  0.12463041347E+03 -0.37148880837E+03  0.23765033498E+03  0.45827323337E+03  0.00000000000E+00 0. -1.
          5    1    3    3  501    0 -0.32020753544E+03  0.43843028532E+03 -0.35490254995E+03  0.64863849007E+03  0.47000000000E+01 0.  1.
         -5    1    3    3    0  501 -0.71677382599E+02  0.13816162528E+03 -0.18587786581E+03  0.24248495391E+03  0.47000000000E+01 0.  1.
          1    1    1    2  502    0 -0.43511864005E+02 -0.19286396943E+02 -0.75863088000E+03  0.76012239771E+03  0.00000000000E+00 0. -1.
          1    1    1    2  503    0 -0.20703317567E+02 -0.90795379305E+02  0.83677147671E+03  0.84193760606E+03  0.00000000000E+00 0. -1.
<mgrwt>
<rscale>  0 0.66597175E+02</rscale>
<asrwt>0</asrwt>
<pdfrwt beam="1">  1        2 0.42598163E+00 0.93186671E+02</pdfrwt>
<pdfrwt beam="2">  1        2 0.28970011E+00 0.47594615E+02</pdfrwt>
<totfact> 0.52962453E+00</totfact>
</mgrwt>
</event>
<event>
13    1  0.2742815E-008  0.1204940E+03  0.7546771E-02  0.1405398E+00
          2   -1    0    0  502    0  0.00000000000E+00  0.00000000000E+00  0.30969595047E+04  0.30969595047E+04  0.00000000000E+00 0. -1.
          2   -1    0    0  503    0 -0.00000000000E+00 -0.00000000000E+00 -0.30736803061E+04  0.30736803061E+04  0.00000000000E+00 0. -1.
         25    2    1    2    0    0  0.63542822372E+03  0.50538897547E+02 -0.86791934831E+03  0.10840814569E+04  0.12500160974E+03 0.  0.
         24    2    1    2    0    0 -0.87345222173E+03  0.87313818580E+03 -0.26544378436E+03  0.12657179438E+04  0.79324872127E+02 0.  0.
         24    2    1    2    0    0  0.13612087946E+03 -0.81684189344E+03  0.39571935176E+03  0.92121034596E+03  0.79215676638E+02 0.  0.
        -13    1    4    4    0    0 -0.32917874582E+03  0.28456635603E+03 -0.11500226012E+03  0.45006908083E+03  0.00000000000E+00 0.  1.
         14    1    4    4    0    0 -0.54427347591E+03  0.58857182977E+03 -0.15044152424E+03  0.81564886293E+03  0.00000000000E+00 0. -1.
        -13    1    5    5    0    0  0.71230517844E+02 -0.35369106232E+03  0.21391613463E+03  0.41944161321E+03  0.00000000000E+00 0.  1.
         14    1    5    5    0    0  0.64890361621E+02 -0.46315083112E+03  0.18180321714E+03  0.50176873274E+03  0.00000000000E+00 0. -1.
          5    1    3    3  501    0  0.38117263916E+03 -0.27392510655E+02 -0.47619904086E+03  0.61059851539E+03  0.47000000000E+01 0. -1.
         -5    1    3    3    0  501  0.25425558457E+03  0.77931408202E+02 -0.39172030745E+03  0.47348294155E+03  0.47000000000E+01 0. -1.
          1    1    1    2  502    0  0.78237190678E+02 -0.91604179800E+02  0.18281085378E+04  0.18320734728E+04  0.00000000000E+00 0. -1.
          1    1    1    2  503    0  0.23665927865E+02 -0.15231010103E+02 -0.10671855583E+04  0.10675565914E+04  0.00000000000E+00 0. -1.
<mgrwt>
<rscale>  0 0.58233405E+02</rscale>
<asrwt>0</asrwt>
<pdfrwt beam="1">  1        2 0.45543522E+00 0.12049399E+03</pdfrwt>
<pdfrwt beam="2">  1        2 0.45201181E+00 0.28143557E+02</pdfrwt>
<totfact> 0.12768343E+00</totfact>
</mgrwt>
</event>
<event>
13    1  0.2742815E-008  0.1118023E+03  0.7546771E-02  0.1265964E+00
          2   -1    0    0  503    0  0.00000000000E+00  0.00000000000E+00  0.29202795097E+04  0.29202795097E+04  0.00000000000E+00 0. -1.
          2   -1    0    0  502    0 -0.00000000000E+00 -0.00000000000E+00 -0.31604200662E+04  0.31604200662E+04  0.00000000000E+00 0. -1.
         25    2    1    2    0    0 -0.11474010462E+03  0.70724504628E+02 -0.39997244516E+03  0.44019478253E+03  0.12500496996E+03 0.  0.
         24    2    1    2    0    0  0.33399230750E+02 -0.67140540021E+01  0.16539771449E+03  0.18713536814E+03  0.80639040877E+02 0.  0.
         24    2    1    2    0    0 -0.27843414781E+01 -0.36112294747E+02  0.62596783377E+02  0.10461432367E+03  0.75590667664E+02 0.  0.
        -11    1    4    4    0    0  0.50555009744E+02 -0.17371702374E+02  0.15591296219E+03  0.16482244032E+03  0.00000000000E+00 0.  1.
         12    1    4    4    0    0 -0.17155778994E+02  0.10657648372E+02  0.94847523018E+01  0.22312927821E+02  0.00000000000E+00 0. -1.
        -13    1    5    5    0    0 -0.18462538514E+02 -0.55494727921E+02  0.48474657206E+02  0.75962639150E+02  0.00000000000E+00 0.  1.
         14    1    5    5    0    0  0.15678197036E+02  0.19382433174E+02  0.14122126171E+02  0.28651684517E+02  0.00000000000E+00 0. -1.
          5    1    3    3  501    0 -0.98014955432E+01 -0.29250879890E+02 -0.13051664720E+03  0.13419526253E+03  0.47000000000E+01 0.  1.
         -5    1    3    3    0  501 -0.10493860907E+03  0.99975384518E+02 -0.26945579796E+03  0.30599951999E+03  0.47000000000E+01 0.  1.
          1    1    1    2  502    0 -0.43579342955E+02 -0.14233838067E+03 -0.27036249486E+04  0.27077199331E+04  0.00000000000E+00 0. -1.
          1    1    1    2  503    0  0.12770455830E+03  0.11444022480E+03  0.26354623393E+04  0.26410351685E+04  0.00000000000E+00 0. -1.
<mgrwt>
<rscale>  0 0.10713759E+03</rscale>
<asrwt>0</asrwt>
<pdfrwt beam="1">  1        2 0.42945287E+00 0.11180234E+03</pdfrwt>
<pdfrwt beam="2">  1        2 0.46476766E+00 0.10266747E+03</pdfrwt>
<totfact> 0.11525923E+00</totfact>
</mgrwt>
</event>
<event>
13    1  0.2742815E-008  0.6975199E+02  0.7546771E-02  0.1371649E+00
          2   -1    0    0  503    0  0.00000000000E+00  0.00000000000E+00  0.14764037736E+04  0.14764037736E+04  0.00000000000E+00 0. -1.
          2   -1    0    0  502    0 -0.00000000000E+00 -0.00000000000E+00 -0.24055174916E+04  0.24055174916E+04  0.00000000000E+00 0. -1.
         25    2    1    2    0    0 -0.31345375105E+03 -0.22672447792E+03 -0.18767322417E+04  0.19202622201E+04  0.12500337635E+03 0.  0.
         24    2    1    2    0    0  0.33349792458E+03  0.77174388048E+02  0.44725019367E+02  0.35493396519E+03  0.82468420714E+02 0.  0.
         24    2    1    2    0    0  0.69219307252E+02  0.22814691222E+03  0.29482968352E+03  0.38753038543E+03  0.80080779818E+02 0.  0.
        -11    1    5    5    0    0  0.27413562357E+02  0.70261565440E+02  0.15559455650E+03  0.17290996788E+03  0.00000000000E+00 0.  1.
         12    1    5    5    0    0  0.41805744895E+02  0.15788534678E+03  0.13923512702E+03  0.21462041755E+03  0.00000000000E+00 0. -1.
        -13    1    4    4    0    0  0.14894485267E+03  0.36350650460E+02  0.61468177435E+02  0.16517952586E+03  0.00000000000E+00 0.  1.
         14    1    4    4    0    0  0.18455307191E+03  0.40823737588E+02 -0.16743158068E+02  0.18975443933E+03  0.00000000000E+00 0. -1.
          5    1    3    3  501    0 -0.29773850622E+02 -0.78249030663E+02 -0.31004943342E+03  0.32118862705E+03  0.47000000000E+01 0. -1.
         -5    1    3    3    0  501 -0.28367990043E+03 -0.14847544726E+03 -0.15666828083E+04  0.15990735931E+04  0.47000000000E+01 0. -1.
          1    1    1    2  502    0 -0.22102149073E+02 -0.59851634405E+02 -0.30088503037E+03  0.30757523410E+03  0.00000000000E+00 0. -1.
          1    1    1    2  503    0 -0.67161331711E+02 -0.18745187941E+02  0.90894885111E+03  0.91161946035E+03  0.00000000000E+00 0. -1.
<mgrwt>
<rscale>  0 0.66710809E+02</rscale>
<asrwt>0</asrwt>
<pdfrwt beam="1">  1        2 0.21711820E+00 0.69751994E+02</pdfrwt>
<pdfrwt beam="2">  1        2 0.35375257E+00 0.63802219E+02</pdfrwt>
<totfact> 0.16245059E+01</totfact>
</mgrwt>
</event>
<event>
13    1  0.2742815E-008  0.4933074E+02  0.7546771E-02  0.1498341E+00
         -1   -1    0    0    0  501 -0.00000000000E+00  0.00000000000E+00  0.10556145687E+04  0.10556145687E+04  0.00000000000E+00 0.  1.
          2   -1    0    0  503    0  0.00000000000E+00 -0.00000000000E+00 -0.11498316820E+04  0.11498316820E+04  0.00000000000E+00 0. -1.
         25    2    1    2    0    0  0.71839384006E+02  0.13668032601E+03  0.16012891392E+03  0.25516025658E+03  0.12499231518E+03 0.  0.
         24    2    1    2    0    0 -0.33164270110E+02 -0.16929834049E+01  0.22376319373E+02  0.73111102725E+02  0.61170243323E+02 0.  0.
         24    2    1    2    0    0 -0.36822628788E+02 -0.60072128810E+02 -0.17791690912E+03  0.20781978556E+03  0.81055968733E+02 0.  0.
        -11    1    4    4    0    0 -0.49862308025E+02 -0.99707275843E+01  0.18227841996E+02  0.54017769243E+02  0.00000000000E+00 0.  1.
         12    1    4    4    0    0  0.16698037915E+02  0.82777441794E+01  0.41484773762E+01  0.19093333482E+02  0.00000000000E+00 0. -1.
        -13    1    5    5    0    0 -0.53229493715E+02 -0.58885995316E+02 -0.17348649873E+03  0.19078392146E+03  0.00000000000E+00 0.  1.
         14    1    5    5    0    0  0.16406864927E+02 -0.11861334943E+01 -0.44304103934E+01  0.17035864101E+02  0.00000000000E+00 0. -1.
          5    1    3    3  502    0  0.90176984535E+02  0.88664498298E+02  0.15941837857E+03  0.20354260297E+03  0.47000000000E+01 0. -1.
         -5    1    3    3    0  502 -0.18337600529E+02  0.48015827711E+02  0.71053534658E+00  0.51617653612E+02  0.47000000000E+01 0. -1.
          1    1    1    2  503    0  0.17456537432E+02 -0.46084235301E+02 -0.88300958520E+03  0.88438363564E+03  0.00000000000E+00 0. -1.
         -2    1    1    2    0  501 -0.19309022540E+02 -0.28830978493E+02  0.78420414772E+03  0.78497147016E+03  0.00000000000E+00 0.  1.
<mgrwt>
<rscale>  0 0.41373399E+02</rscale>
<asrwt>0</asrwt>
<pdfrwt beam="2">  1        2 0.16909289E+00 0.49330744E+02</pdfrwt>
<pdfrwt beam="1">  1       -1 0.15523744E+00 0.34699621E+02</pdfrwt>
<totfact> 0.11599632E+01</totfact>
</mgrwt>
</event>
<event>
13    1  0.2742815E-008  0.4868397E+02  0.7546771E-02  0.1536271E+00
          2   -1    0    0  503    0  0.00000000000E+00  0.00000000000E+00  0.35286817656E+04  0.35286817656E+04  0.00000000000E+00 0. -1.
          2   -1    0    0  502    0 -0.00000000000E+00 -0.00000000000E+00 -0.24021838002E+04  0.24021838002E+04  0.00000000000E+00 0. -1.
         25    2    1    2    0    0  0.59560199368E+03  0.23719495833E+03 -0.59791470683E+03  0.88551332590E+03  0.12501468143E+03 0.  0.
         24    2    1    2    0    0 -0.69579614018E+03 -0.14612318051E+03  0.38140808087E+03  0.81092916965E+03  0.81545946904E+02 0.  0.
         24    2    1    2    0    0  0.90261087300E+02 -0.11792207519E+03  0.22045990625E+04  0.22114145266E+04  0.89691152045E+02 0.  0.
        -11    1    5    5    0    0  0.43575452085E+01 -0.44192701958E+02  0.11293234713E+04  0.11301962157E+04  0.00000000000E+00 0.  1.
         12    1    5    5    0    0  0.85903542092E+02 -0.73729373228E+02  0.10752755911E+04  0.10812183109E+04  0.00000000000E+00 0. -1.
        -11    1    4    4    0    0 -0.40756541863E+03 -0.46999965334E+02  0.23479046526E+03  0.47269983053E+03  0.00000000000E+00 0.  1.
         12    1    4    4    0    0 -0.28823072156E+03 -0.99123215179E+02  0.14661761561E+03  0.33822933912E+03  0.00000000000E+00 0. -1.
          5    1    3    3  501    0  0.50983761204E+03  0.17642699801E+03 -0.54814451868E+03  0.76911987339E+03  0.47000000000E+01 0.  1.
         -5    1    3    3    0  501  0.85764381641E+02  0.60767960323E+02 -0.49770188145E+02  0.11639345251E+03  0.47000000000E+01 0.  1.
          1    1    1    2  502    0 -0.26760506081E+02 -0.51833053735E+01 -0.14411509895E+04  0.14414087435E+04  0.00000000000E+00 0. -1.
          1    1    1    2  503    0  0.36693565282E+02  0.32033602742E+02  0.57955651842E+03  0.58159980010E+03  0.00000000000E+00 0. -1.
<mgrwt>
<rscale>  0 0.36428303E+02</rscale>
<asrwt>0</asrwt>
<pdfrwt beam="1">  1        2 0.51892379E+00 0.48683973E+02</pdfrwt>
<pdfrwt beam="2">  1        2 0.35326232E+00 0.27257867E+02</pdfrwt>
<totfact> 0.18203696E+00</totfact>
</mgrwt>
</event>
<event>
13    1  0.2742815E-008  0.8431464E+02  0.7546771E-02  0.1372722E+00
          2   -1    0    0  502    0  0.00000000000E+00  0.00000000000E+00  0.82061836074E+03  0.82061836074E+03  0.00000000000E+00 0. -1.
          2   -1    0    0  503    0 -0.00000000000E+00 -0.00000000000E+00 -0.81341820776E+03  0.81341820776E+03  0.00000000000E+00 0. -1.
         25    2    1    2    0    0 -0.11135994112E+02  0.77280960169E+01 -0.16255108330E+03  0.20554374342E+03  0.12506655007E+03 0.  0.
         24    2    1    2    0    0 -0.39844661002E+02 -0.95880685428E+02 -0.68625750856E+02  0.14662329347E+03  0.77512538723E+02 0.  0.
         24    2    1    2    0    0 -0.23993928746E+02 -0.22431686363E+02  0.42138168835E+02  0.97430936139E+02  0.81475596803E+02 0.  0.
        -11    1    5    5    0    0 -0.50497203480E+02 -0.28238739296E+02  0.39746220257E+02  0.70193703287E+02  0.00000000000E+00 0.  1.
         12    1    5    5    0    0  0.26503274735E+02  0.58070529332E+01  0.23919485780E+01  0.27237232852E+02  0.00000000000E+00 0. -1.
        -13    1    4    4    0    0  0.13308736401E+02  0.31392411160E+01 -0.19866199925E+02  0.24117280088E+02  0.00000000000E+00 0.  1.
         14    1    4    4    0    0 -0.53153397403E+02 -0.99019926544E+02 -0.48759550931E+02  0.12250601338E+03  0.00000000000E+00 0. -1.
          5    1    3    3  501    0  0.39194838384E+02  0.37865818417E+02 -0.12306058019E+03  0.13467015986E+03  0.47000000000E+01 0.  1.
         -5    1    3    3    0  501 -0.50330832496E+02 -0.30137722400E+02 -0.39490503109E+02  0.70873583563E+02  0.47000000000E+01 0.  1.
          1    1    1    2  502    0  0.35789662150E+02  0.75919748584E+02  0.68639028580E+03  0.69150295197E+03  0.00000000000E+00 0. -1.
          1    1    1    2  503    0  0.39184921709E+02  0.34664527190E+02 -0.49015146750E+03  0.49293564350E+03  0.00000000000E+00 0. -1.
<mgrwt>
<rscale>  0 0.66416147E+02</rscale>
<asrwt>0</asrwt>
<pdfrwt beam="1">  1        2 0.12067917E+00 0.84314644E+02</pdfrwt>
<pdfrwt beam="2">  1        2 0.11962032E+00 0.52317182E+02</pdfrwt>
<totfact> 0.23088140E+02</totfact>
</mgrwt>
</event>
<event>
13    1  0.2742815E-008  0.1961210E+03  0.7546771E-02  0.1303340E+00
          2   -1    0    0  503    0  0.00000000000E+00  0.00000000000E+00  0.28285770445E+04  0.28285770445E+04  0.00000000000E+00 0. -1.
          2   -1    0    0  502    0 -0.00000000000E+00 -0.00000000000E+00 -0.35132212099E+04  0.35132212099E+04  0.00000000000E+00 0. -1.
         25    2    1    2    0    0 -0.17303820502E+03  0.74382959364E+02 -0.86524525038E+03  0.89428850419E+03  0.12501016110E+03 0.  0.
         24    2    1    2    0    0 -0.60850466795E+02  0.18691995405E+03  0.11138408983E+03  0.23923747666E+03  0.78653075220E+02 0.  0.
         24    2    1    2    0    0  0.22735780569E+03 -0.43029613107E+03  0.44621150104E+03  0.66562922810E+03  0.84328129447E+02 0.  0.
        -11    1    5    5    0    0  0.15996291443E+03 -0.31492725989E+03  0.27057182275E+03  0.44494541719E+03  0.00000000000E+00 0.  1.
         12    1    5    5    0    0  0.67394891263E+02 -0.11536887117E+03  0.17563967829E+03  0.22068381091E+03  0.00000000000E+00 0. -1.
        -13    1    4    4    0    0 -0.45369706700E+02  0.16891121782E+03  0.64008716921E+02  0.18624318950E+03  0.00000000000E+00 0.  1.
         14    1    4    4    0    0 -0.15480760095E+02  0.18008736223E+02  0.47375372909E+02  0.52994287161E+02  0.00000000000E+00 0. -1.
          5    1    3    3  501    0 -0.77379967448E+02  0.20306815292E+02 -0.14480408049E+03  0.16550026537E+03  0.47000000000E+01 0.  1.
         -5    1    3    3    0  501 -0.95658237567E+02  0.54076144072E+02 -0.72044116989E+03  0.72878823882E+03  0.47000000000E+01 0.  1.
          1    1    1    2  502    0 -0.34074971415E+02 -0.23010173133E+02 -0.24550234254E+04  0.24553677099E+04  0.00000000000E+00 0. -1.
          1    1    1    2  503    0  0.40605837537E+02  0.19200339079E+03  0.20780289195E+04  0.20872753356E+04  0.00000000000E+00 0. -1.
<mgrwt>
<rscale>  0 0.89798794E+02</rscale>
<asrwt>0</asrwt>
<pdfrwt beam="1">  1        2 0.41596722E+00 0.19612105E+03</pdfrwt>
<pdfrwt beam="2">  1        2 0.51665017E+00 0.41116563E+02</pdfrwt>
<totfact> 0.89396103E-01</totfact>
</mgrwt>
</event>
<event>
13    1  0.2742815E-008  0.3531353E+02  0.7546771E-02  0.1625378E+00
          2   -1    0    0  502    0  0.00000000000E+00  0.00000000000E+00  0.16307368060E+04  0.16307368060E+04  0.00000000000E+00 0. -1.
          2   -1    0    0  503    0 -0.00000000000E+00 -0.00000000000E+00 -0.26597829282E+04  0.26597829282E+04  0.00000000000E+00 0. -1.
         25    2    1    2    0    0  0.14076175850E+03  0.27910289866E+01 -0.33850654011E+03  0.38734118221E+03  0.12499940496E+03 0.  0.
         24    2    1    2    0    0  0.46256933029E+01 -0.68582080043E+02  0.27387054264E+03  0.29386139807E+03  0.81391328807E+02 0.  0.
         24    2    1    2    0    0 -0.10861508592E+03  0.38898222245E+02  0.10904977328E+04  0.10995713254E+04  0.81002998867E+02 0.  0.
        -13    1    5    5    0    0 -0.34191914708E+01  0.26905753183E+01  0.10736616685E+01  0.44813854148E+01  0.00000000000E+00 0.  1.
         14    1    5    5    0    0 -0.10519589445E+03  0.36207646927E+02  0.10894240711E+04  0.10950899400E+04  0.00000000000E+00 0. -1.
        -13    1    4    4    0    0 -0.30587483797E+02 -0.13291304008E+01  0.77636427311E+02  0.83455231101E+02  0.00000000000E+00 0.  1.
         14    1    4    4    0    0  0.35213177100E+02 -0.67252949642E+02  0.19623411533E+03  0.21040616697E+03  0.00000000000E+00 0. -1.
          5    1    3    3  501    0  0.13979386291E+03 -0.36022376100E+02 -0.29730787077E+03  0.33053592196E+03  0.47000000000E+01 0.  1.
         -5    1    3    3    0  501  0.96789558946E+00  0.38813405086E+02 -0.41198669343E+02  0.56805260249E+02  0.47000000000E+01 0.  1.
          1    1    1    2  502    0 -0.21147514854E+02 -0.47753639998E+01  0.22676535863E+03  0.22779936208E+03  0.00000000000E+00 0. -1.
          1    1    1    2  503    0 -0.15624851029E+02  0.31668192811E+02 -0.22816732162E+04  0.22819464665E+04  0.00000000000E+00 0. -1.
<mgrwt>
<rscale>  0 0.27669416E+02</rscale>
<asrwt>0</asrwt>
<pdfrwt beam="1">  1        2 0.23981424E+00 0.21679979E+02</pdfrwt>
<pdfrwt beam="2">  1        2 0.39114455E+00 0.35313529E+02</pdfrwt>
<totfact> 0.12539457E+01</totfact>
</mgrwt>
</event>
<event>
13    1  0.2742815E-008  0.1099424E+03  0.7546771E-02  0.1381766E+00
          2   -1    0    0  503    0  0.00000000000E+00  0.00000000000E+00  0.21747266551E+04  0.21747266551E+04  0.00000000000E+00 0. -1.
         -1   -1    0    0    0  501 -0.00000000000E+00 -0.00000000000E+00 -0.47872626026E+03  0.47872626026E+03  0.00000000000E+00 0.  1.
         25    2    1    2    0    0  0.95314896132E+01  0.94386655558E+02 -0.14333777624E+03  0.21253585258E+03  0.12500432189E+03 0.  0.
         24    2    1    2    0    0 -0.12451951589E+02 -0.52857630502E+02  0.22425403592E+03  0.24407931638E+03  0.79598114666E+02 0.  0.
         24    2    1    2    0    0  0.74468578102E+02  0.52777940158E+00  0.30773301339E+03  0.32686957787E+03  0.81229709629E+02 0.  0.
        -11    1    5    5    0    0  0.47521101185E+02  0.38669757300E+02  0.20623679260E+03  0.21514464857E+03  0.00000000000E+00 0.  1.
         12    1    5    5    0    0  0.26947476917E+02 -0.38141977899E+02  0.10149622079E+03  0.11172492929E+03  0.00000000000E+00 0. -1.
        -13    1    4    4    0    0 -0.37917860151E+02 -0.31072250413E+02  0.65428389658E+02  0.81756486210E+02  0.00000000000E+00 0.  1.
         14    1    4    4    0    0  0.25465908561E+02 -0.21785380089E+02  0.15882564626E+03  0.16232283017E+03  0.00000000000E+00 0. -1.
          5    1    3    3  502    0  0.50544350758E+02  0.34713270534E+02 -0.12248653660E+02  0.62704561725E+02  0.47000000000E+01 0. -1.
         -5    1    3    3    0  502 -0.41012861145E+02  0.59673385025E+02 -0.13108912258E+03  0.14983129085E+03  0.47000000000E+01 0. -1.
          1    1    1    2  503    0  0.34729971011E+02 -0.13490597283E+02  0.15776681357E+04  0.15781080170E+04  0.00000000000E+00 0. -1.
         -2    1    1    2    0  501 -0.10627808714E+03 -0.28566207175E+02 -0.27031701393E+03  0.29186015148E+03  0.00000000000E+00 0.  1.
<mgrwt>
<rscale>  0 0.64001915E+02</rscale>
<asrwt>0</asrwt>
<pdfrwt beam="1">  1        2 0.31981274E+00 0.37258115E+02</pdfrwt>
<pdfrwt beam="2">  1       -1 0.70400921E-01 0.10994236E+03</pdfrwt>
<totfact> 0.21217139E+01</totfact>
</mgrwt>
</event>
<event>
13    1  0.2742815E-008  0.1855237E+03  0.7546771E-02  0.1246043E+00
         -3   -1    0    0    0  501 -0.00000000000E+00  0.00000000000E+00  0.47176895523E+03  0.47176895523E+03  0.00000000000E+00 0.  1.
          2   -1    0    0  503    0  0.00000000000E+00 -0.00000000000E+00 -0.15460122029E+04  0.15460122029E+04  0.00000000000E+00 0. -1.
         25    2    1    2    0    0 -0.12697615112E+02 -0.67009167469E+02  0.70285749410E+02  0.15879698263E+03  0.12499974867E+03 0.  0.
         24    2    1    2    0    0  0.11438253873E+03 -0.31466592617E+02 -0.61064700687E+02  0.15654354727E+03  0.81874739111E+02 0.  0.
         24    2    1    2    0    0 -0.22321499893E+03  0.96064940280E+02 -0.72437969805E+03  0.76811751916E+03  0.78899732476E+02 0.  0.
        -11    1    4    4    0    0  0.15238886086E+02 -0.70117785876E+01  0.20043186320E+02  0.26136526279E+02  0.00000000000E+00 0.  1.
         12    1    4    4    0    0  0.99143652643E+02 -0.24454814029E+02 -0.81107887007E+02  0.13040702099E+03  0.00000000000E+00 0. -1.
        -13    1    5    5    0    0 -0.15127607146E+03  0.38423547152E+02 -0.36234452991E+03  0.39453057820E+03  0.00000000000E+00 0.  1.
         14    1    5    5    0    0 -0.71938927471E+02  0.57641393128E+02 -0.36203516814E+03  0.37358694096E+03  0.00000000000E+00 0. -1.
          5    1    3    3  502    0  0.31207490482E+02  0.73680997302E+01  0.64406406045E+02  0.72100426458E+02  0.47000000000E+01 0. -1.
         -5    1    3    3    0  502 -0.43905105594E+02 -0.74377267199E+02  0.58793433648E+01  0.86696556169E+02  0.47000000000E+01 0. -1.
          1    1    1    2  503    0  0.17331820237E+03  0.57139939503E+02 -0.62855764120E+03  0.65451423229E+03  0.00000000000E+00 0. -1.
         -4    1    1    2    0  501 -0.51788127055E+02 -0.54729119698E+02  0.26947304291E+03  0.27980887674E+03  0.00000000000E+00 0.  1.
<mgrwt>
<rscale>  0 0.11823197E+03</rscale>
<asrwt>0</asrwt>
<pdfrwt beam="2">  1        2 0.22735473E+00 0.18552371E+03</pdfrwt>
<pdfrwt beam="1">  1       -3 0.69377788E-01 0.75347771E+02</pdfrwt>
<totfact> 0.17595103E+01</totfact>
</mgrwt>
</event>
<event>
13    1  0.2742815E-008  0.1860196E+02  0.7546771E-02  0.1793416E+00
          2   -1    0    0  502    0  0.00000000000E+00  0.00000000000E+00  0.16260296897E+04  0.16260296897E+04  0.00000000000E+00 0. -1.
          4   -1    0    0  503    0 -0.00000000000E+00 -0.00000000000E+00 -0.13835342085E+04  0.13835342085E+04  0.00000000000E+00 0. -1.
         25    2    1    2    0    0  0.27474442292E+03 -0.18231051972E+03 -0.45590442758E+03  0.57636530955E+03  0.12500599763E+03 0.  0.
         24    2    1    2    0    0 -0.54412560938E+02  0.19515274931E+03 -0.11464833612E+02  0.22224437343E+03  0.90641032428E+02 0.  0.
         24    2    1    2    0    0 -0.22813586191E+03  0.20414820484E+02  0.13550221572E+03  0.27830784090E+03  0.81435050554E+02 0.  0.
        -11    1    4    4    0    0 -0.27669202342E+02  0.70236861614E+02  0.38905307560E+02  0.84925993924E+02  0.00000000000E+00 0.  1.
         12    1    4    4    0    0 -0.26743358597E+02  0.12491588769E+03 -0.50370141173E+02  0.13731837950E+03  0.00000000000E+00 0. -1.
        -13    1    5    5    0    0 -0.60032637250E+02 -0.24067105370E+02  0.61761664776E+02  0.89429560728E+02  0.00000000000E+00 0.  1.
         14    1    5    5    0    0 -0.16810322466E+03  0.44481925854E+02  0.73740550945E+02  0.18887828017E+03  0.00000000000E+00 0. -1.
          5    1    3    3  501    0  0.20901461004E+02  0.17943293535E+02 -0.24062141332E+02  0.36876950802E+02  0.47000000000E+01 0. -1.
         -5    1    3    3    0  501  0.25384296191E+03 -0.20025381326E+03 -0.43184228625E+03  0.53948835875E+03  0.47000000000E+01 0. -1.
          1    1    1    2  502    0  0.89624888562E+01 -0.16298910118E+02  0.12533290762E+04  0.12534670932E+04  0.00000000000E+00 0. -1.
          3    1    1    2  503    0 -0.11584889280E+01 -0.16958139951E+02 -0.67896654943E+03  0.67917928108E+03  0.00000000000E+00 0. -1.
<mgrwt>
<rscale>  0 0.17781727E+02</rscale>
<asrwt>0</asrwt>
<pdfrwt beam="1">  1        2 0.23912201E+00 0.18601957E+02</pdfrwt>
<pdfrwt beam="2">  1        4 0.20346091E+00 0.16997665E+02</pdfrwt>
<totfact> 0.11598224E+00</totfact>
</mgrwt>
</event>
<event>
13    1  0.2742815E-008  0.2700626E+02  0.7546771E-02  0.1789768E+00
          2   -1    0    0  503    0  0.00000000000E+00  0.00000000000E+00  0.17916781452E+04  0.17916781452E+04  0.00000000000E+00 0. -1.
          2   -1    0    0  502    0 -0.00000000000E+00 -0.00000000000E+00 -0.14894499960E+04  0.14894499960E+04  0.00000000000E+00 0. -1.
         25    2    1    2    0    0  0.10055339265E+03 -0.35311345581E+02 -0.70385641146E+03  0.72277016995E+03  0.12499997883E+03 0.  0.
         24    2    1    2    0    0  0.21968822436E+02  0.16614175242E+03  0.34876833646E+03  0.39302429867E+03  0.68869701364E+02 0.  0.
         24    2    1    2    0    0 -0.10123110734E+03 -0.13612099320E+03  0.32390811419E+03  0.37414282104E+03  0.79307768936E+02 0.  0.
        -11    1    5    5    0    0 -0.50735146650E+02 -0.58672009968E+02  0.22841204535E+03  0.24122297220E+03  0.00000000000E+00 0.  1.
         12    1    5    5    0    0 -0.50495960694E+02 -0.77448983229E+02  0.95496068839E+02  0.13291984883E+03  0.00000000000E+00 0. -1.
        -13    1    4    4    0    0 -0.23645263644E+02  0.76350334818E+02  0.16958273308E+03  0.18747473291E+03  0.00000000000E+00 0.  1.
         14    1    4    4    0    0  0.45614086080E+02  0.89791417601E+02  0.17918560338E+03  0.20554956576E+03  0.00000000000E+00 0. -1.
          5    1    3    3  501    0  0.36580716073E+02 -0.59774338608E+02 -0.54775267501E+03  0.55223745194E+03  0.47000000000E+01 0.  1.
         -5    1    3    3    0  501  0.63972676580E+02  0.24462993027E+02 -0.15610373645E+03  0.17053271801E+03  0.47000000000E+01 0.  1.
          1    1    1    2  502    0 -0.20828085114E+02  0.17194850036E+02 -0.72860775169E+03  0.72910817292E+03  0.00000000000E+00 0. -1.
          1    1    1    2  503    0 -0.46302263254E+00 -0.11904263677E+02  0.10620158617E+04  0.10620826787E+04  0.00000000000E+00 0. -1.
<mgrwt>
<rscale>  0 0.17936911E+02</rscale>
<asrwt>0</asrwt>
<pdfrwt beam="1">  1        2 0.26348208E+00 0.11913265E+02</pdfrwt>
<pdfrwt beam="2">  1        2 0.21903676E+00 0.27006263E+02</pdfrwt>
<totfact> 0.40632549E+01</totfact>
</mgrwt>
</event>
<event>
13    1  0.2742815E-008  0.1759075E+03  0.7546771E-02  0.1246087E+00
          2   -1    0    0  503    0  0.00000000000E+00  0.00000000000E+00  0.19729886478E+04  0.19729886478E+04  0.00000000000E+00 0. -1.
          2   -1    0    0  502    0 -0.00000000000E+00 -0.00000000000E+00 -0.34152268415E+04  0.34152268415E+04  0.00000000000E+00 0. -1.
         25    2    1    2    0    0  0.23500449073E+02 -0.45780415629E+02 -0.13040232181E+03  0.18782179711E+03  0.12499657745E+03 0.  0.
         24    2    1    2    0    0  0.43185953485E+02  0.53107952753E+01 -0.53678041647E+02  0.10513842350E+03  0.79243452829E+02 0.  0.
         24    2    1    2    0    0  0.82652021100E+02 -0.76432354430E+02  0.15912240668E+03  0.21229809609E+03  0.84126570700E+02 0.  0.
        -11    1    5    5    0    0  0.25380842706E+02 -0.39056901142E+02  0.12977151770E+03  0.13787775567E+03  0.00000000000E+00 0.  1.
         12    1    5    5    0    0  0.57271178395E+02 -0.37375453288E+02  0.29350888983E+02  0.74420340414E+02  0.00000000000E+00 0. -1.
        -13    1    4    4    0    0  0.66444315824E+02  0.81670106052E+01 -0.38651031964E+02  0.77301031296E+02  0.00000000000E+00 0.  1.
         14    1    4    4    0    0 -0.23258362340E+02 -0.28562153299E+01 -0.15027009683E+02  0.27837392204E+02  0.00000000000E+00 0. -1.
          5    1    3    3  501    0  0.44138986425E+02 -0.37976595528E+02 -0.14806372881E+03  0.15917107061E+03  0.47000000000E+01 0. -1.
         -5    1    3    3    0  501 -0.20638537352E+02 -0.78038201017E+01  0.17661406993E+02  0.28650726503E+02  0.47000000000E+01 0. -1.
          1    1    1    2  502    0  0.25839310584E+02  0.75111090207E+02 -0.31449366064E+04  0.31459395424E+04  0.00000000000E+00 0. -1.
          1    1    1    2  503    0 -0.17517773424E+03  0.41790884577E+02  0.17276563695E+04  0.17370176302E+04  0.00000000000E+00 0. -1.
<mgrwt>
<rscale>  0 0.11820567E+03</rscale>
<asrwt>0</asrwt>
<pdfrwt beam="1">  1        2 0.29014539E+00 0.17590753E+03</pdfrwt>
<pdfrwt beam="2">  1        2 0.50223924E+00 0.79431391E+02</pdfrwt>
<totfact> 0.24672897E+00</totfact>
</mgrwt>
</event>
<event>
13    1  0.2742815E-008  0.1109663E+03  0.7546771E-02  0.1285123E+00
          2   -1    0    0  502    0  0.00000000000E+00  0.00000000000E+00  0.38766620793E+03  0.38766620793E+03  0.00000000000E+00 0. -1.
          2   -1    0    0  503    0 -0.00000000000E+00 -0.00000000000E+00 -0.21743091141E+04  0.21743091141E+04  0.00000000000E+00 0. -1.
         25    2    1    2    0    0 -0.38603064577E+02 -0.14585936296E+03 -0.46355457882E+03  0.50327636085E+03  0.12505637725E+03 0.  0.
         24    2    1    2    0    0  0.18146261625E+02 -0.56461512270E+02  0.68468876703E+02  0.12118382176E+03  0.80500573918E+02 0.  0.
         24    2    1    2    0    0 -0.36232461083E+00  0.19529526912E+02 -0.35444344385E+02  0.99933832920E+02  0.91372510705E+02 0.  0.
        -13    1    5    5    0    0 -0.17512770787E+01  0.54894306859E+02 -0.33829560585E+02  0.64504969315E+02  0.00000000000E+00 0.  1.
         14    1    5    5    0    0  0.13889524679E+01 -0.35364779947E+02 -0.16147837998E+01  0.35428863605E+02  0.00000000000E+00 0. -1.
        -13    1    4    4    0    0  0.38305384048E+02  0.13277717055E+01  0.20818322825E+02  0.43617290035E+02  0.00000000000E+00 0.  1.
         14    1    4    4    0    0 -0.20159122423E+02 -0.57789283976E+02  0.47650553878E+02  0.77566531727E+02  0.00000000000E+00 0. -1.
          5    1    3    3  501    0  0.34159910737E+02 -0.44071911004E+02 -0.24581305166E+03  0.25210192227E+03  0.47000000000E+01 0. -1.
         -5    1    3    3    0  501 -0.72762975315E+02 -0.10178745196E+03 -0.21774152715E+03  0.25117443859E+03  0.47000000000E+01 0. -1.
          1    1    1    2  502    0  0.84401506784E+02  0.87308220770E+02  0.22320641206E+03  0.25410124389E+03  0.00000000000E+00 0. -1.
          1    1    1    2  503    0 -0.63582379221E+02  0.95483127549E+02 -0.15793192717E+04  0.15834800626E+04  0.00000000000E+00 0. -1.
<mgrwt>
<rscale>  0 0.97739476E+02</rscale>
<asrwt>0</asrwt>
<pdfrwt beam="1">  1        2 0.57009735E-01 0.11096629E+03</pdfrwt>
<pdfrwt beam="2">  1        2 0.31975135E+00 0.86089254E+02</pdfrwt>
<totfact> 0.10376898E+02</totfact>
</mgrwt>
</event>
<event>
13    1  0.2742815E-008  0.1018065E+03  0.7546771E-02  0.1383238E+00
          2   -1    0    0  502    0  0.00000000000E+00  0.00000000000E+00  0.17705109486E+04  0.17705109486E+04  0.00000000000E+00 0. -1.
          2   -1    0    0  503    0 -0.00000000000E+00 -0.00000000000E+00 -0.40075647039E+04  0.40075647039E+04  0.00000000000E+00 0. -1.
         25    2    1    2    0    0  0.11639152243E+03  0.16950841457E+03 -0.11154533578E+04  0.11411142420E+04  0.12500172233E+03 0.  0.
         24    2    1    2    0    0 -0.85107406370E+02 -0.53987622121E+03 -0.22899582353E+03  0.59624042975E+03  0.65984528735E+02 0.  0.
         24    2    1    2    0    0 -0.10605605222E+03  0.27184762941E+03  0.51835205326E+03  0.59930408906E+03  0.72989863763E+02 0.  0.
        -13    1    4    4    0    0 -0.25662673086E+02 -0.36030963092E+03 -0.15664992300E+03  0.39372681049E+03  0.00000000000E+00 0.  1.
         14    1    4    4    0    0 -0.59444733284E+02 -0.17956659028E+03 -0.72345900537E+02  0.20251361926E+03  0.00000000000E+00 0. -1.
        -13    1    5    5    0    0 -0.16517043925E+02  0.14251553562E+03  0.24368951321E+03  0.28278626113E+03  0.00000000000E+00 0.  1.
         14    1    5    5    0    0 -0.89539008299E+02  0.12933209379E+03  0.27466254005E+03  0.31651782793E+03  0.00000000000E+00 0. -1.
          5    1    3    3  501    0  0.10534248042E+03  0.71004760286E+02 -0.81084125531E+03  0.82074621259E+03  0.47000000000E+01 0. -1.
         -5    1    3    3    0  501  0.11049042019E+02  0.98503654289E+02 -0.30461210252E+03  0.32036802937E+03  0.47000000000E+01 0. -1.
          1    1    1    2  502    0  0.82553485567E+02  0.59532099980E+02  0.10125157438E+04  0.10176184356E+04  0.00000000000E+00 0. -1.
          1    1    1    2  503    0 -0.77815494069E+01  0.38988077238E+02 -0.24234723711E+04  0.24237984561E+04  0.00000000000E+00 0. -1.
<mgrwt>
<rscale>  0 0.63620163E+02</rscale>
<asrwt>0</asrwt>
<pdfrwt beam="1">  1        2 0.26036926E+00 0.10180649E+03</pdfrwt>
<pdfrwt beam="2">  1        2 0.58934774E+00 0.39757046E+02</pdfrwt>
<totfact> 0.16453924E+00</totfact>
</mgrwt>
</event>
<event>
13    1  0.2742815E-008  0.1207838E+03  0.7546771E-02  0.1249250E+00
          2   -1    0    0  503    0  0.00000000000E+00  0.00000000000E+00  0.22219965935E+04  0.22219965935E+04  0.00000000000E+00 0. -1.
          2   -1    0    0  502    0 -0.00000000000E+00 -0.00000000000E+00 -0.21775394313E+03  0.21775394313E+03  0.00000000000E+00 0. -1.
         25    2    1    2    0    0  0.20124182347E+02  0.11336737077E+03 -0.90097505571E+02  0.19235935952E+03  0.12500967647E+03 0.  0.
         24    2    1    2    0    0  0.40223272120E+02 -0.78362699661E+02  0.10656784031E+03  0.15525072737E+03  0.70621947302E+02 0.  0.
         24    2    1    2    0    0 -0.15555816850E+02  0.12612090573E+03  0.10348799687E+04  0.10458232940E+04  0.81371656802E+02 0.  0.
        -11    1    5    5    0    0 -0.12416556183E+00  0.10081405208E+03  0.49670330852E+03  0.50683100261E+03  0.00000000000E+00 0.  1.
         12    1    5    5    0    0 -0.15431651288E+02  0.25306853646E+02  0.53817666013E+03  0.53899229143E+03  0.00000000000E+00 0. -1.
        -13    1    4    4    0    0 -0.12404972711E+02 -0.21258738218E+02  0.15807869241E+01  0.24664066694E+02  0.00000000000E+00 0.  1.
         14    1    4    4    0    0  0.52628244831E+02 -0.57103961443E+02  0.10498705339E+03  0.13058666067E+03  0.00000000000E+00 0. -1.
          5    1    3    3  501    0  0.71432599790E+01 -0.16014901335E+02 -0.54524535414E+02  0.57467540316E+02  0.47000000000E+01 0.  1.
         -5    1    3    3    0  501  0.12980922368E+02  0.12938227211E+03 -0.35572970157E+02  0.13489181920E+03  0.47000000000E+01 0.  1.
          1    1    1    2  502    0  0.57087749999E+02 -0.96441716520E+02  0.30614851116E+02  0.11617781627E+03  0.00000000000E+00 0. -1.
          1    1    1    2  503    0 -0.10187938762E+03 -0.64683860318E+02  0.92227749584E+03  0.93013933942E+03  0.00000000000E+00 0. -1.
<mgrwt>
<rscale>  0 0.11634610E+03</rscale>
<asrwt>0</asrwt>
<pdfrwt beam="1">  1        2 0.32676419E+00 0.12078377E+03</pdfrwt>
<pdfrwt beam="2">  1        2 0.32022640E-01 0.11207148E+03</pdfrwt>
<totfact> 0.17422420E+02</totfact>
</mgrwt>
</event>
<event>
13    1  0.2742815E-008  0.1143924E+03  0.7546771E-02  0.1339624E+00
          2   -1    0    0  502    0  0.00000000000E+00  0.00000000000E+00  0.68322340816E+03  0.68322340816E+03  0.00000000000E+00 0. -1.
          2   -1    0    0  503    0 -0.00000000000E+00 -0.00000000000E+00 -0.29300070320E+04  0.29300070320E+04  0.00000000000E+00 0. -1.
         25    2    1    2    0    0 -0.15195786708E+03  0.57552636404E+02 -0.66560226834E+02  0.21554503340E+03  0.12500359316E+03 0.  0.
         24    2    1    2    0    0  0.10843335056E+03 -0.13750422495E+02 -0.13421352670E+02  0.13654464526E+03  0.80730674532E+02 0.  0.
         24    2    1    2    0    0 -0.13030860623E+02  0.13682568541E+02  0.32444212434E+03  0.33465838733E+03  0.79853166234E+02 0.  0.
        -13    1    4    4    0    0  0.51588662842E+02  0.24276251503E+02  0.20003746056E+02  0.60422482381E+02  0.00000000000E+00 0.  1.
         14    1    4    4    0    0  0.56844687718E+02 -0.38026673999E+02 -0.33425098725E+02  0.76122162883E+02  0.00000000000E+00 0. -1.
        -13    1    5    5    0    0 -0.39843492398E+02  0.15272493827E+02  0.27590402159E+03  0.27918413651E+03  0.00000000000E+00 0.  1.
         14    1    5    5    0    0  0.26812631776E+02 -0.15899252864E+01  0.48538102750E+02  0.55474250817E+02  0.00000000000E+00 0. -1.
          5    1    3    3  501    0  0.22678210991E+01 -0.27993117218E+02 -0.68269091497E+01  0.29282320821E+02  0.47000000000E+01 0. -1.
         -5    1    3    3    0  501 -0.15422568818E+03  0.85545753622E+02 -0.59733317685E+02  0.18626271258E+03  0.47000000000E+01 0. -1.
          1    1    1    2  502    0 -0.49350945355E+02 -0.12906875807E+02  0.21339308013E+03  0.21940535522E+03  0.00000000000E+00 0. -1.
          1    1    1    2  503    0  0.10590632250E+03 -0.44577906642E+02 -0.27046372488E+04  0.27070770190E+04  0.00000000000E+00 0. -1.
<mgrwt>
<rscale>  0 0.76388792E+02</rscale>
<asrwt>0</asrwt>
<pdfrwt beam="1">  1        2 0.10047403E+00 0.51010815E+02</pdfrwt>
<pdfrwt beam="2">  1        2 0.43088338E+00 0.11439236E+03</pdfrwt>
<totfact> 0.22941860E+01</totfact>
</mgrwt>
</event>
<event>
13    1  0.2742815E-008  0.3109739E+03  0.7546771E-02  0.1253941E+00
          2   -1    0    0  502    0  0.00000000000E+00  0.00000000000E+00  0.47347688081E+03  0.47347688081E+03  0.00000000000E+00 0. -1.
          2   -1    0    0  503    0 -0.00000000000E+00 -0.00000000000E+00 -0.31803433115E+04  0.31803433115E+04  0.00000000000E+00 0. -1.
         25    2    1    2    0    0 -0.15256974497E+03 -0.26139387614E+03 -0.13828488489E+04  0.14210915182E+04  0.12500351475E+03 0.  0.
         24    2    1    2    0    0 -0.13585011807E+02  0.38958738668E+03 -0.36656422898E+03  0.54093381592E+03  0.79228623779E+02 0.  0.
         24    2    1    2    0    0  0.13359596672E+03 -0.41407717574E+03 -0.18295295661E+03  0.47891580926E+03  0.81121995994E+02 0.  0.
        -11    1    5    5    0    0  0.14192454830E+03 -0.36788298622E+03 -0.17460902424E+03  0.43124097707E+03  0.00000000000E+00 0.  1.
         12    1    5    5    0    0 -0.83285815827E+01 -0.46194189524E+02 -0.83439323693E+01  0.47674832190E+02  0.00000000000E+00 0. -1.
        -13    1    4    4    0    0 -0.19009428546E+02  0.16192154385E+03 -0.20394921270E+03  0.26110386075E+03  0.00000000000E+00 0.  1.
         14    1    4    4    0    0  0.54244167390E+01  0.22766584283E+03 -0.16261501628E+03  0.27982995517E+03  0.00000000000E+00 0. -1.
          5    1    3    3  501    0 -0.62011888024E+02 -0.73315711883E+02 -0.22675024105E+03  0.24628932109E+03  0.47000000000E+01 0. -1.
         -5    1    3    3    0  501 -0.90557856945E+02 -0.18807816426E+03 -0.11560986079E+04  0.11748021971E+04  0.47000000000E+01 0. -1.
          1    1    1    2  502    0  0.45423066194E+00  0.31224585084E+03  0.10724909683E+03  0.33015155075E+03  0.00000000000E+00 0. -1.
          1    1    1    2  503    0  0.32104559399E+02 -0.26362185640E+02 -0.88174949303E+03  0.88272749816E+03  0.00000000000E+00 0. -1.
<mgrwt>
<rscale>  0 0.11365832E+03</rscale>
<asrwt>0</asrwt>
<pdfrwt beam="1">  1        2 0.69628952E-01 0.31097387E+03</pdfrwt>
<pdfrwt beam="2">  1        2 0.46769756E+00 0.41541155E+02</pdfrwt>
<totfact> 0.29058790E+01</totfact>
</mgrwt>
</event>
<event>
13    1  0.2742815E-008  0.1962929E+03  0.7546771E-02  0.1446644E+00
          2   -1    0    0  503    0  0.00000000000E+00  0.00000000000E+00  0.20592141003E+04  0.20592141003E+04  0.00000000000E+00 0. -1.
          2   -1    0    0  502    0 -0.00000000000E+00 -0.00000000000E+00 -0.16545035145E+04  0.16545035145E+04  0.00000000000E+00 0. -1.
         25    2    1    2    0    0 -0.10664349789E+03  0.70645929390E+02 -0.46694612401E+03  0.50003434284E+03  0.12502791011E+03 0.  0.
         24    2    1    2    0    0  0.35336245989E+02 -0.14541718383E+03 -0.18571890531E+03  0.25183109020E+03  0.80824368658E+02 0.  0.
         24    2    1    2    0    0  0.23081318023E+03 -0.48393155748E+02 -0.86819891787E+02  0.26357520949E+03  0.79483179076E+02 0.  0.
        -11    1    5    5    0    0  0.22981755580E+03 -0.59754146188E+02 -0.83088500675E+02  0.25157576569E+03  0.00000000000E+00 0.  1.
         12    1    5    5    0    0  0.99562443244E+00  0.11360990440E+02 -0.37313911125E+01  0.11999443796E+02  0.00000000000E+00 0. -1.
        -13    1    4    4    0    0  0.25030821670E+02 -0.12982254613E+03 -0.10460173226E+03  0.16858813098E+03  0.00000000000E+00 0.  1.
         14    1    4    4    0    0  0.10305424320E+02 -0.15594637701E+02 -0.81117173055E+02  0.83242959221E+02  0.00000000000E+00 0. -1.
          5    1    3    3  501    0 -0.93719316151E+02  0.89777765628E+02 -0.24912451984E+03  0.28094211825E+03  0.47000000000E+01 0. -1.
         -5    1    3    3    0  501 -0.12924181742E+02 -0.19131836238E+02 -0.21782160417E+03  0.21909222459E+03  0.47000000000E+01 0. -1.
          1    1    1    2  502    0  0.18454706629E+01  0.12478031489E+02 -0.77200716293E+03  0.77211020370E+03  0.00000000000E+00 0. -1.
          1    1    1    2  503    0 -0.16135139899E+03  0.11068637870E+03  0.19162026699E+04  0.19261667686E+04  0.00000000000E+00 0. -1.
<mgrwt>
<rscale>  0 0.49759343E+02</rscale>
<asrwt>0</asrwt>
<pdfrwt beam="1">  1        2 0.30282560E+00 0.19629290E+03</pdfrwt>
<pdfrwt beam="2">  1        2 0.24330934E+00 0.12613764E+02</pdfrwt>
<totfact> 0.20476458E+01</totfact>
</mgrwt>
</event>
<event>
13    1  0.2742815E-008  0.8107615E+02  0.7546771E-02  0.1408088E+00
         -3   -1    0    0    0  501 -0.00000000000E+00  0.00000000000E+00  0.69288761810E+03  0.69288761810E+03  0.00000000000E+00 0.  1.
          2   -1    0    0  503    0  0.00000000000E+00 -0.00000000000E+00 -0.15939797602E+04  0.15939797602E+04  0.00000000000E+00 0. -1.
         25    2    1    2    0    0  0.44943191623E+02 -0.69662520489E+02  0.27540936273E+03  0.31360506746E+03  0.12500025608E+03 0.  0.
         24    2    1    2    0    0  0.29728840655E+02 -0.35094219720E+00 -0.79703958331E+01  0.84957364168E+02  0.79185222040E+02 0.  0.
         24    2    1    2    0    0  0.57219385410E+02  0.18550541799E+02 -0.11126162614E+03  0.14960729450E+03  0.79906272912E+02 0.  0.
        -11    1    5    5    0    0 -0.15493822700E+02 -0.13022089736E+02 -0.29019505378E+02  0.35380291906E+02  0.00000000000E+00 0.  1.
         12    1    5    5    0    0  0.72713208111E+02  0.31572631535E+02 -0.82242120758E+02  0.11422700260E+03  0.00000000000E+00 0. -1.
        -11    1    4    4    0    0 -0.27165268998E+02 -0.43921204410E+01 -0.36036978964E+01  0.27753003445E+02  0.00000000000E+00 0.  1.
         12    1    4    4    0    0  0.56894109653E+02  0.40411782438E+01 -0.43666979367E+01  0.57204360723E+02  0.00000000000E+00 0. -1.
          5    1    3    3  502    0 -0.27408080060E+01 -0.44772821059E+01 -0.12606885120E+02  0.14442355626E+02  0.47000000000E+01 0. -1.
         -5    1    3    3    0  502  0.47683999630E+02 -0.65185238383E+02  0.28801624785E+03  0.29916271183E+03  0.47000000000E+01 0. -1.
          1    1    1    2  503    0 -0.10847954006E+03  0.17860990095E+02 -0.13945816570E+04  0.13989084401E+04  0.00000000000E+00 0. -1.
         -4    1    1    2    0  501 -0.23411877633E+02  0.33601930792E+02  0.33731217420E+03  0.33978921206E+03  0.00000000000E+00 0.  1.
<mgrwt>
<rscale>  0 0.57622639E+02</rscale>
<asrwt>0</asrwt>
<pdfrwt beam="2">  1        2 0.23440879E+00 0.81076148E+02</pdfrwt>
<pdfrwt beam="1">  1       -3 0.10189524E+00 0.40953703E+02</pdfrwt>
<totfact> 0.76084614E+00</totfact>
</mgrwt>
</event>
<event>
13    1  0.2742815E-008  0.1685655E+03  0.7546771E-02  0.1242486E+00
          2   -1    0    0  502    0  0.00000000000E+00  0.00000000000E+00  0.18259001404E+04  0.18259001404E+04  0.00000000000E+00 0. -1.
          2   -1    0    0  503    0 -0.00000000000E+00 -0.00000000000E+00 -0.22653502593E+04  0.22653502593E+04  0.00000000000E+00 0. -1.
         25    2    1    2    0    0 -0.21569137335E+03  0.22963956586E+02 -0.89858346733E+03  0.93280727980E+03  0.12500824627E+03 0.  0.
         24    2    1    2    0    0  0.75507774082E+02 -0.41219518365E+02  0.89912411222E+02  0.15036027590E+03  0.84400818926E+02 0.  0.
         24    2    1    2    0    0  0.28068366352E+02 -0.12304059153E+02 -0.52144450440E+02  0.10828182289E+03  0.89814733729E+02 0.  0.
        -11    1    5    5    0    0  0.68517997373E+01  0.20156187333E+02 -0.64227626500E+02  0.67663927268E+02  0.00000000000E+00 0.  1.
         12    1    5    5    0    0  0.21216566615E+02 -0.32460246487E+02  0.12083176060E+02  0.40617895620E+02  0.00000000000E+00 0. -1.
        -11    1    4    4    0    0  0.98991094569E+01 -0.35944633146E+02 -0.19702629789E+01  0.37334849085E+02  0.00000000000E+00 0.  1.
         12    1    4    4    0    0  0.65608664625E+02 -0.52748852196E+01  0.91882674201E+02  0.11302542681E+03  0.00000000000E+00 0. -1.
          5    1    3    3  501    0 -0.51276590718E+02 -0.20542202799E+01 -0.65853973165E+02  0.83620238928E+02  0.47000000000E+01 0. -1.
         -5    1    3    3    0  501 -0.16441478263E+03  0.25018176866E+02 -0.83272949417E+03  0.84918704087E+03  0.47000000000E+01 0. -1.
          1    1    1    2  502    0  0.14874637895E+03 -0.47200537785E+02  0.16554185308E+04  0.16627579163E+04  0.00000000000E+00 0. -1.
          1    1    1    2  503    0 -0.36631146032E+02  0.77760158717E+02 -0.12340531431E+04  0.12370431048E+04  0.00000000000E+00 0. -1.
<mgrwt>
<rscale>  0 0.12037136E+03</rscale>
<asrwt>0</asrwt>
<pdfrwt beam="1">  1        2 0.26851473E+00 0.16856550E+03</pdfrwt>
<pdfrwt beam="2">  1        2 0.33313975E+00 0.85956286E+02</pdfrwt>
<totfact> 0.11449651E+01</totfact>
</mgrwt>
</event>
<event>
13    1  0.2742815E-008  0.6519286E+02  0.7546771E-02  0.1467660E+00
          2   -1    0    0  503    0  0.00000000000E+00  0.00000000000E+00  0.31801206428E+04  0.31801206428E+04  0.00000000000E+00 0. -1.
          2   -1    0    0  502    0 -0.00000000000E+00 -0.00000000000E+00 -0.12510661206E+04  0.12510661206E+04  0.00000000000E+00 0. -1.
         25    2    1    2    0    0  0.92365756467E+02 -0.25730845569E+01  0.66670993828E+02  0.16914658641E+03  0.12500996979E+03 0.  0.
         24    2    1    2    0    0 -0.58182831336E+01 -0.62077269115E+02  0.57491163961E+03  0.58076687014E+03  0.53659335929E+02 0.  0.
         24    2    1    2    0    0  0.81813815699E+01  0.65008288357E+02  0.94621669886E+03  0.95190898851E+03  0.80694910954E+02 0.  0.
        -11    1    5    5    0    0 -0.10038464600E+02  0.70510982798E+02  0.47517498469E+03  0.48048291910E+03  0.00000000000E+00 0.  1.
         12    1    5    5    0    0  0.18219846170E+02 -0.55026944404E+01  0.47104171417E+03  0.47142606942E+03  0.00000000000E+00 0. -1.
        -11    1    4    4    0    0  0.20549652443E+02 -0.87454077096E+01  0.13173524618E+03  0.13361491480E+03  0.00000000000E+00 0.  1.
         12    1    4    4    0    0 -0.26367935577E+02 -0.53331861405E+02  0.44317639344E+03  0.44715195535E+03  0.00000000000E+00 0. -1.
          5    1    3    3  501    0  0.11233268280E+03 -0.31771510264E+02  0.36457142232E+02  0.12238984316E+03  0.47000000000E+01 0. -1.
         -5    1    3    3    0  501 -0.19966926335E+02  0.29198425707E+02  0.30213851596E+02  0.46756743250E+02  0.47000000000E+01 0. -1.
          1    1    1    2  502    0 -0.64226267803E+02  0.11095714080E+02 -0.11929920385E+04  0.11947711631E+04  0.00000000000E+00 0. -1.
          1    1    1    2  503    0 -0.30502587100E+02 -0.11453648766E+02  0.15342472285E+04  0.15345931552E+04  0.00000000000E+00 0. -1.
<mgrwt>
<rscale>  0 0.46088187E+02</rscale>
<asrwt>0</asrwt>
<pdfrwt beam="1">  1        2 0.46766480E+00 0.32582110E+02</pdfrwt>
<pdfrwt beam="2">  1        2 0.18398031E+00 0.65192861E+02</pdfrwt>
<totfact> 0.96640868E+00</totfact>
</mgrwt>
</event>
<event>
13    1  0.2742815E-008  0.7586403E+02  0.7546771E-02  0.1516864E+00
          2   -1    0    0  502    0  0.00000000000E+00  0.00000000000E+00  0.59825454687E+03  0.59825454687E+03  0.00000000000E+00 0. -1.
          2   -1    0    0  503    0 -0.00000000000E+00 -0.00000000000E+00 -0.27169926015E+04  0.27169926015E+04  0.00000000000E+00 0. -1.
         25    2    1    2    0    0  0.18093809924E+03 -0.15275693735E+03 -0.21175807336E+04  0.21344423597E+04  0.12499098351E+03 0.  0.
         24    2    1    2    0    0 -0.15443081381E+03  0.14552486973E+03  0.49388474979E+02  0.23220253931E+03  0.80327043008E+02 0.  0.
         24    2    1    2    0    0  0.22971773187E+02 -0.52740723194E+02  0.30934749768E+02  0.10399693337E+03  0.80926615898E+02 0.  0.
        -13    1    4    4    0    0 -0.11280257367E+03  0.11950832648E+03  0.70430353142E+02  0.17879344330E+03  0.00000000000E+00 0.  1.
         14    1    4    4    0    0 -0.41628240144E+02  0.26016543252E+02 -0.21041878163E+02  0.53409096013E+02  0.00000000000E+00 0. -1.
        -13    1    5    5    0    0 -0.98980824919E+01 -0.59131147949E+02  0.36296698928E+02  0.70085055810E+02  0.00000000000E+00 0.  1.
         14    1    5    5    0    0  0.32869855678E+02  0.63904247548E+01 -0.53619491600E+01  0.33911877560E+02  0.00000000000E+00 0. -1.
          5    1    3    3  501    0  0.11848040783E+03 -0.16566161376E+03 -0.16345498579E+04  0.16471966201E+04  0.47000000000E+01 0. -1.
         -5    1    3    3    0  501  0.62457691408E+02  0.12904676416E+02 -0.48303087567E+03  0.48724573958E+03  0.47000000000E+01 0. -1.
          1    1    1    2  502    0 -0.17763820394E+02 -0.89542627015E+01  0.37819108227E+03  0.37871391160E+03  0.00000000000E+00 0. -1.
          1    1    1    2  503    0 -0.31715238217E+02  0.68927053514E+02 -0.45967162803E+03  0.46589140436E+03  0.00000000000E+00 0. -1.
<mgrwt>
<rscale>  0 0.38847967E+02</rscale>
<asrwt>0</asrwt>
<pdfrwt beam="1">  1        2 0.87978610E-01 0.19893017E+02</pdfrwt>
<pdfrwt beam="2">  1        2 0.39955774E+00 0.75864034E+02</pdfrwt>
<totfact> 0.36888317E+01</totfact>
</mgrwt>
</event>
<event>
13    1  0.2742815E-008  0.1863746E+03  0.7546771E-02  0.1206880E+00
          2   -1    0    0  502    0  0.00000000000E+00  0.00000000000E+00  0.23968107539E+04  0.23968107539E+04  0.00000000000E+00 0. -1.
          2   -1    0    0  503    0 -0.00000000000E+00 -0.00000000000E+00 -0.11761754327E+04  0.11761754327E+04  0.00000000000E+00 0. -1.
         25    2    1    2    0    0  0.24223321489E+03  0.67675102401E+01 -0.67768555891E+03  0.73048315076E+03  0.12500074880E+03 0.  0.
         24    2    1    2    0    0 -0.22552459132E+03 -0.12698134885E+02 -0.11870178190E+02  0.24090295969E+03  0.82889992995E+02 0.  0.
         24    2    1    2    0    0 -0.86079766443E+02  0.42707323703E+02 -0.13212607131E+02  0.12586200524E+03  0.80206169881E+02 0.  0.
        -13    1    4    4    0    0 -0.85367328773E+02 -0.28838811577E+02  0.27888769223E+02  0.94324129065E+02  0.00000000000E+00 0.  1.
         14    1    4    4    0    0 -0.14015726255E+03  0.16140676692E+02 -0.39758947413E+02  0.14657883063E+03  0.00000000000E+00 0. -1.
        -13    1    5    5    0    0 -0.87499468894E+02  0.60360523862E+02 -0.17269699951E+02  0.10769304729E+03  0.00000000000E+00 0.  1.
         14    1    5    5    0    0  0.14197024512E+01 -0.17653200159E+02  0.40570928202E+01  0.18168957952E+02  0.00000000000E+00 0. -1.
          5    1    3    3  501    0  0.10201548671E+03  0.44900780994E+02 -0.42051889224E+03  0.43506490136E+03  0.47000000000E+01 0.  1.
         -5    1    3    3    0  501  0.14021772818E+03 -0.38133270754E+02 -0.25716666667E+03  0.29541824941E+03  0.47000000000E+01 0.  1.
          1    1    1    2  502    0  0.13986747315E+03 -0.12465405864E+03  0.21839011294E+04  0.21919228288E+04  0.00000000000E+00 0. -1.
          1    1    1    2  503    0 -0.70496330271E+02  0.87877359583E+02 -0.26049746400E+03  0.28381524212E+03  0.00000000000E+00 0. -1.
<mgrwt>
<rscale>  0 0.14490298E+03</rscale>
<asrwt>0</asrwt>
<pdfrwt beam="1">  1        2 0.35247217E+00 0.18637465E+03</pdfrwt>
<pdfrwt beam="2">  1        2 0.17296698E+00 0.11265950E+03</pdfrwt>
<totfact> 0.19799697E+01</totfact>
</mgrwt>
</event>
<event>
13    1  0.2742815E-008  0.7503582E+02  0.7546771E-02  0.1354055E+00
          2   -1    0    0  503    0  0.00000000000E+00  0.00000000000E+00  0.59876595585E+03  0.59876595585E+03  0.00000000000E+00 0. -1.
          2   -1    0    0  502    0 -0.00000000000E+00 -0.00000000000E+00 -0.76260043781E+03  0.76260043781E+03  0.00000000000E+00 0. -1.
         25    2    1    2    0    0  0.21549564711E+02  0.19325917865E+02 -0.10911228135E+03  0.16843214022E+03  0.12500408424E+03 0.  0.
         24    2    1    2    0    0 -0.86589924287E+02  0.72097129729E+01 -0.96968251711E+02  0.15363232942E+03  0.81549100875E+02 0.  0.
         24    2    1    2    0    0 -0.16391991060E+02  0.22355490007E+02 -0.86284612339E+02  0.12159967806E+03  0.81073929685E+02 0.  0.
        -11    1    4    4    0    0 -0.15650260295E+02 -0.21941617086E+02  0.35629630810E+01  0.27185656394E+02  0.00000000000E+00 0.  1.
         12    1    4    4    0    0 -0.70939663992E+02  0.29151330059E+02 -0.10053121479E+03  0.12644667303E+03  0.00000000000E+00 0. -1.
        -13    1    5    5    0    0  0.10513672748E+02 -0.22602236469E+02 -0.58489647657E+01  0.25604858853E+02  0.00000000000E+00 0.  1.
         14    1    5    5    0    0 -0.26905663808E+02  0.44957726477E+02 -0.80435647573E+02  0.95994819211E+02  0.00000000000E+00 0. -1.
          5    1    3    3  501    0  0.32919976888E+02 -0.39407925306E+02 -0.92934770954E+02  0.10628109478E+03  0.47000000000E+01 0. -1.
         -5    1    3    3    0  501 -0.11370412177E+02  0.58733843171E+02 -0.16177510392E+02  0.62151045440E+02  0.47000000000E+01 0. -1.
          1    1    1    2  502    0  0.64303161690E+02  0.24228739649E+02 -0.38886243644E+03  0.39488722808E+03  0.00000000000E+00 0. -1.
          1    1    1    2  503    0  0.17129188946E+02 -0.73119860494E+02  0.51739309988E+03  0.52281501787E+03  0.00000000000E+00 0. -1.
<mgrwt>
<rscale>  0 0.71806569E+02</rscale>
<asrwt>0</asrwt>
<pdfrwt beam="1">  1        2 0.88053818E-01 0.75035823E+02</pdfrwt>
<pdfrwt beam="2">  1        2 0.11214712E+00 0.68716289E+02</pdfrwt>
<totfact> 0.35532511E+02</totfact>
</mgrwt>
</event>
<event>
13    1  0.2742815E-008  0.9328207E+02  0.7546771E-02  0.1388955E+00
          2   -1    0    0  502    0  0.00000000000E+00  0.00000000000E+00  0.28139390796E+04  0.28139390796E+04  0.00000000000E+00 0. -1.
          2   -1    0    0  503    0 -0.00000000000E+00 -0.00000000000E+00 -0.19725341697E+04  0.19725341697E+04  0.00000000000E+00 0. -1.
         25    2    1    2    0    0  0.27754085209E+03 -0.19621299830E+03 -0.29148638004E+03  0.46488026625E+03  0.12498354659E+03 0.  0.
         24    2    1    2    0    0 -0.69899081580E+03 -0.58361864406E+02  0.16239723647E+04  0.17707581325E+04  0.79396817009E+02 0.  0.
         24    2    1    2    0    0  0.43426514326E+03  0.12378641612E+03  0.43473288785E+03  0.63185434072E+03  0.79611133899E+02 0.  0.
        -13    1    4    4    0    0 -0.41016396005E+03 -0.37362889792E+02  0.85397940315E+03  0.94810931894E+03  0.00000000000E+00 0.  1.
         14    1    4    4    0    0 -0.28882685575E+03 -0.20998974615E+02  0.76999296155E+03  0.82264881351E+03  0.00000000000E+00 0. -1.
        -13    1    5    5    0    0  0.11212756921E+03 -0.32344560529E+01  0.10142258565E+03  0.15122696309E+03  0.00000000000E+00 0.  1.
         14    1    5    5    0    0  0.32213757405E+03  0.12702087217E+03  0.33331030219E+03  0.48062737763E+03  0.00000000000E+00 0. -1.
          5    1    3    3  501    0  0.28811257941E+03 -0.17270160706E+03 -0.27047269520E+03  0.43129140073E+03  0.47000000000E+01 0.  1.
         -5    1    3    3    0  501 -0.10571727316E+02 -0.23511391242E+02 -0.21013684845E+02  0.33588865526E+02  0.47000000000E+01 0.  1.
          1    1    1    2  502    0 -0.17315425860E+02  0.37639272400E+02  0.49418691176E+03  0.49592060106E+03  0.00000000000E+00 0. -1.
          1    1    1    2  503    0  0.45002463080E+01  0.93149174193E+02 -0.14200008744E+04  0.14230599089E+04  0.00000000000E+00 0. -1.
<mgrwt>
<rscale>  0 0.62167369E+02</rscale>
<asrwt>0</asrwt>
<pdfrwt beam="1">  1        2 0.41381457E+00 0.41431133E+02</pdfrwt>
<pdfrwt beam="2">  1        2 0.29007855E+00 0.93282067E+02</pdfrwt>
<totfact> 0.61482191E+00</totfact>
</mgrwt>
</event>
<event>
13    1  0.2742815E-008  0.9710203E+02  0.7546771E-02  0.1336317E+00
          2   -1    0    0  502    0  0.00000000000E+00  0.00000000000E+00  0.68473822137E+03  0.68473822137E+03  0.00000000000E+00 0. -1.
          2   -1    0    0  503    0 -0.00000000000E+00 -0.00000000000E+00 -0.20403983710E+04  0.20403983710E+04  0.00000000000E+00 0. -1.
         25    2    1    2    0    0 -0.71343933369E+02  0.15932470299E+03 -0.11671908833E+04  0.11867737094E+04  0.12499184541E+03 0.  0.
         24    2    1    2    0    0 -0.31411221693E+02 -0.10950382709E+03 -0.81786861134E+02  0.16151122549E+03  0.80118863625E+02 0.  0.
         24    2    1    2    0    0 -0.25161801623E+02  0.36125469968E+02  0.11205789762E+02  0.91353733217E+02  0.79257611667E+02 0.  0.
        -11    1    4    4    0    0 -0.48036293102E+02 -0.78139173398E+02 -0.25911800263E+02  0.95313363529E+02  0.00000000000E+00 0.  1.
         12    1    4    4    0    0  0.16625071409E+02 -0.31364653694E+02 -0.55875060870E+02  0.66197861959E+02  0.00000000000E+00 0. -1.
        -11    1    5    5    0    0 -0.20384544885E+02  0.59531134044E+02 -0.39751459940E+01  0.63049880066E+02  0.00000000000E+00 0.  1.
         12    1    5    5    0    0 -0.47772567377E+01 -0.23405664076E+02  0.15180935756E+02  0.28303853151E+02  0.00000000000E+00 0. -1.
          5    1    3    3  501    0  0.28505757236E+02  0.66570024092E+01 -0.10881331758E+03  0.11277997145E+03  0.47000000000E+01 0. -1.
         -5    1    3    3    0  501 -0.99849690605E+02  0.15266770058E+03 -0.10583775657E+04  0.10739937379E+04  0.47000000000E+01 0. -1.
          1    1    1    2  502    0  0.58949847114E+02 -0.18702613001E+02  0.57884418905E+03  0.58213870117E+03  0.00000000000E+00 0. -1.
          1    1    1    2  503    0  0.68967109571E+02 -0.67243732866E+02 -0.69673238406E+03  0.70335922317E+03  0.00000000000E+00 0. -1.
<mgrwt>
<rscale>  0 0.77494053E+02</rscale>
<asrwt>0</asrwt>
<pdfrwt beam="1">  1        2 0.10069680E+00 0.61845551E+02</pdfrwt>
<pdfrwt beam="2">  1        2 0.30005858E+00 0.97102026E+02</pdfrwt>
<totfact> 0.64785690E+01</totfact>
</mgrwt>
</event>
<event>
13    1  0.2742815E-008  0.1183276E+03  0.7546771E-02  0.1281332E+00
          2   -1    0    0  503    0  0.00000000000E+00  0.00000000000E+00  0.22802826604E+04  0.22802826604E+04  0.00000000000E+00 0. -1.
          2   -1    0    0  502    0 -0.00000000000E+00 -0.00000000000E+00 -0.19917923241E+04  0.19917923241E+04  0.00000000000E+00 0. -1.
         25    2    1    2    0    0  0.40897357687E+02  0.25679429160E+03 -0.12820733698E+04  0.13141350371E+04  0.12499147188E+03 0.  0.
         24    2    1    2    0    0 -0.39442535837E+02 -0.39848394639E+02 -0.88777991557E+02  0.13357505215E+03  0.82566061934E+02 0.  0.
         24    2    1    2    0    0  0.21446616704E+02 -0.43543739794E+02  0.29310840862E+03  0.30762262890E+03  0.79769216909E+02 0.  0.
        -11    1    5    5    0    0 -0.13126824666E+02  0.15187096606E+02  0.11844712609E+03  0.12013610244E+03  0.00000000000E+00 0.  1.
         12    1    5    5    0    0  0.34573441369E+02 -0.58730836400E+02  0.17466128253E+03  0.18748652647E+03  0.00000000000E+00 0. -1.
        -11    1    4    4    0    0 -0.55418478609E+01  0.19855883681E+02 -0.51449953233E+02  0.55426220168E+02  0.00000000000E+00 0.  1.
         12    1    4    4    0    0 -0.33900687976E+02 -0.59704278320E+02 -0.37328038324E+02  0.78148831981E+02  0.00000000000E+00 0. -1.
          5    1    3    3  501    0 -0.33135892617E+02  0.90360229310E+02 -0.29364125828E+03  0.30904730542E+03  0.47000000000E+01 0. -1.
         -5    1    3    3    0  501  0.74033250304E+02  0.16643406229E+03 -0.98843211150E+03  0.10050877316E+04  0.47000000000E+01 0. -1.
          1    1    1    2  502    0 -0.41896732483E+02 -0.72439486065E+02 -0.57084273055E+03  0.57694387799E+03  0.00000000000E+00 0. -1.
          1    1    1    2  503    0  0.18995293929E+02 -0.10096267110E+03  0.19370760196E+04  0.19397983884E+04  0.00000000000E+00 0. -1.
<mgrwt>
<rscale>  0 0.99508741E+02</rscale>
<asrwt>0</asrwt>
<pdfrwt beam="1">  1        2 0.33533568E+00 0.11832762E+03</pdfrwt>
<pdfrwt beam="2">  1        2 0.29291064E+00 0.83682826E+02</pdfrwt>
<totfact> 0.96448402E+00</totfact>
</mgrwt>
</event>
<event>
13    1  0.2742815E-008  0.2280176E+03  0.7546771E-02  0.1267047E+00
          2   -1    0    0  503    0  0.00000000000E+00  0.00000000000E+00  0.49475637397E+03  0.49475637397E+03  0.00000000000E+00 0. -1.
          2   -1    0    0  502    0 -0.00000000000E+00 -0.00000000000E+00 -0.37617756834E+04  0.37617756834E+04  0.00000000000E+00 0. -1.
         25    2    1    2    0    0 -0.21717103973E+03  0.14404247135E+03 -0.16458681108E+04  0.16710524436E+04  0.12499174893E+03 0.  0.
         24    2    1    2    0    0  0.39857326653E+01  0.47751384813E+02 -0.86707469568E+02  0.12909645622E+03  0.82774566834E+02 0.  0.
         24    2    1    2    0    0 -0.83669471137E+02 -0.17914967839E+03 -0.14708283531E+02  0.21307948802E+03  0.78047081578E+02 0.  0.
        -11    1    4    4    0    0 -0.16439434462E+02 -0.18891011095E+02 -0.15492815526E+02  0.29447455554E+02  0.00000000000E+00 0.  1.
         12    1    4    4    0    0  0.20425167128E+02  0.66642395908E+02 -0.71214654041E+02  0.99649000671E+02  0.00000000000E+00 0. -1.
        -13    1    5    5    0    0 -0.31062170724E+01 -0.97951738164E+02 -0.11241859584E+02  0.98643656667E+02  0.00000000000E+00 0.  1.
         14    1    5    5    0    0 -0.80563254065E+02 -0.81197940231E+02 -0.34664239467E+01  0.11443583136E+03  0.00000000000E+00 0. -1.
          5    1    3    3  501    0 -0.15056460030E+03  0.56219571309E+02 -0.67259219655E+03  0.69154370210E+03  0.47000000000E+01 0. -1.
         -5    1    3    3    0  501 -0.66606439427E+02  0.87822900036E+02 -0.97327591421E+03  0.97950874152E+03  0.47000000000E+01 0. -1.
          1    1    1    2  502    0  0.49566450297E+02  0.49520266750E+01 -0.18386717292E+04  0.18393463740E+04  0.00000000000E+00 0. -1.
          1    1    1    2  503    0  0.24728832790E+03 -0.17596204439E+02  0.31893628368E+03  0.40395729549E+03  0.00000000000E+00 0. -1.
<mgrwt>
<rscale>  0 0.10657527E+03</rscale>
<asrwt>0</asrwt>
<pdfrwt beam="1">  1        2 0.72758291E-01 0.22801759E+03</pdfrwt>
<pdfrwt beam="2">  1        2 0.55320230E+00 0.49813207E+02</pdfrwt>
<totfact> 0.12537218E+01</totfact>
</mgrwt>
</event>
<event>
13    1  0.2742815E-008  0.9212490E+02  0.7546771E-02  0.1524661E+00
          2   -1    0    0  503    0  0.00000000000E+00  0.00000000000E+00  0.15437864214E+04  0.15437864214E+04  0.00000000000E+00 0. -1.
          2   -1    0    0  502    0 -0.00000000000E+00 -0.00000000000E+00 -0.32487365880E+04  0.32487365880E+04  0.00000000000E+00 0. -1.
         25    2    1    2    0    0 -0.83233069586E+01  0.18674557460E+02 -0.25019185913E+04  0.25051226346E+04  0.12499904162E+03 0.  0.
         24    2    1    2    0    0  0.62377083282E+02 -0.23341733018E+00  0.88879193248E+02  0.13486658836E+03  0.79990816096E+02 0.  0.
         24    2    1    2    0    0 -0.41229244417E+02  0.62411375191E+02  0.45217697681E+03  0.46547826987E+03  0.81307877947E+02 0.  0.
        -13    1    5    5    0    0 -0.23854847448E+02  0.54850434788E+02  0.13406835900E+03  0.14680582014E+03  0.00000000000E+00 0.  1.
         14    1    5    5    0    0 -0.17374396970E+02  0.75609404033E+01  0.31810861781E+03  0.31867244973E+03  0.00000000000E+00 0. -1.
        -13    1    4    4    0    0  0.23676891327E+02  0.32500357894E+02  0.10555966034E+02  0.41572789960E+02  0.00000000000E+00 0.  1.
         14    1    4    4    0    0  0.38700191955E+02 -0.32733775225E+02  0.78323227214E+02  0.93293798395E+02  0.00000000000E+00 0. -1.
          5    1    3    3  501    0 -0.54891460469E+02 -0.26276184486E+02 -0.13471504652E+04  0.13485325269E+04  0.47000000000E+01 0.  1.
         -5    1    3    3    0  501  0.46568153511E+02  0.44950741946E+02 -0.11547681261E+04  0.11565901076E+04  0.47000000000E+01 0.  1.
          1    1    1    2  502    0 -0.10727164563E+02  0.11257992980E+02 -0.71330221968E+03  0.71347170306E+03  0.00000000000E+00 0. -1.
          1    1    1    2  503    0 -0.20973673435E+01 -0.92110508301E+02  0.96921447428E+03  0.97358381347E+03  0.00000000000E+00 0. -1.
<mgrwt>
<rscale>  0 0.37849407E+02</rscale>
<asrwt>0</asrwt>
<pdfrwt beam="1">  1        2 0.22702742E+00 0.92124896E+02</pdfrwt>
<pdfrwt beam="2">  1        2 0.47775538E+00 0.15550385E+02</pdfrwt>
<totfact> 0.72309235E+00</totfact>
</mgrwt>
</event>
<event>
13    1  0.2742815E-008  0.1289360E+03  0.7546771E-02  0.1461676E+00
          2   -1    0    0  502    0  0.00000000000E+00  0.00000000000E+00  0.18874741140E+04  0.18874741140E+04  0.00000000000E+00 0. -1.
          2   -1    0    0  503    0 -0.00000000000E+00 -0.00000000000E+00 -0.63828611011E+03  0.63828611011E+03  0.00000000000E+00 0. -1.
         25    2    1    2    0    0 -0.13396796586E+03  0.65919812210E+02 -0.15772479736E+03  0.25059286892E+03  0.12500734671E+03 0.  0.
         24    2    1    2    0    0  0.43429759473E+03  0.30226057814E+03  0.82633493734E+02  0.54043606492E+03  0.72574018006E+02 0.  0.
         24    2    1    2    0    0 -0.38223415460E+03 -0.44715424406E+03  0.62500959831E+03  0.86213328657E+03  0.81159958733E+02 0.  0.
        -11    1    5    5    0    0 -0.20454756132E+03 -0.19771272915E+03  0.34501381279E+03  0.44717396964E+03  0.00000000000E+00 0.  1.
         12    1    5    5    0    0 -0.17768659328E+03 -0.24944151491E+03  0.27999578552E+03  0.41495931692E+03  0.00000000000E+00 0. -1.
        -13    1    4    4    0    0  0.32887885907E+03  0.19037605227E+03  0.49938223907E+02  0.38327297247E+03  0.00000000000E+00 0.  1.
         14    1    4    4    0    0  0.10541873566E+03  0.11188452587E+03  0.32695269827E+02  0.15716309245E+03  0.00000000000E+00 0. -1.
          5    1    3    3  501    0 -0.15301295632E+03  0.67974169487E+02 -0.11396109834E+03  0.20258991696E+03  0.47000000000E+01 0.  1.
         -5    1    3    3    0  501  0.19044990456E+02 -0.20543572768E+01 -0.43763699014E+02  0.48002951957E+02  0.47000000000E+01 0.  1.
          1    1    1    2  502    0  0.98527437498E+02  0.83396945204E+02  0.77971821894E+03  0.79033107453E+03  0.00000000000E+00 0. -1.
          1    1    1    2  503    0 -0.16622911763E+02 -0.44230914892E+01 -0.80448509687E+02  0.82266929228E+02  0.00000000000E+00 0. -1.
<mgrwt>
<rscale>  0 0.47094243E+02</rscale>
<asrwt>0</asrwt>
<pdfrwt beam="1">  1        2 0.27756972E+00 0.12893601E+03</pdfrwt>
<pdfrwt beam="2">  1        2 0.93865605E-01 0.17201306E+02</pdfrwt>
<totfact> 0.82896907E+01</totfact>
</mgrwt>
</event>
<event>
13    1  0.2742815E-008  0.8049899E+02  0.7546771E-02  0.1566697E+00
          2   -1    0    0  503    0  0.00000000000E+00  0.00000000000E+00  0.17997615932E+04  0.17997615932E+04  0.00000000000E+00 0. -1.
          2   -1    0    0  502    0 -0.00000000000E+00 -0.00000000000E+00 -0.18022477246E+04  0.18022477246E+04  0.00000000000E+00 0. -1.
         25    2    1    2    0    0 -0.72326586386E+01  0.46303702422E+02 -0.12333945591E+04  0.12405981211E+04  0.12500086148E+03 0.  0.
         24    2    1    2    0    0 -0.15888255492E+02 -0.63823604149E+01  0.57415563494E+00  0.82787196079E+02  0.80995178825E+02 0.  0.
         24    2    1    2    0    0 -0.46426778206E+02  0.38160552154E+02  0.30731758176E+03  0.32524947479E+03  0.87928671756E+02 0.  0.
        -11    1    4    4    0    0 -0.38661347396E+01 -0.42660978370E+02 -0.81039129118E+01  0.43595635995E+02  0.00000000000E+00 0.  1.
         12    1    4    4    0    0 -0.12022120752E+02  0.36278617955E+02  0.86780685467E+01  0.39191560084E+02  0.00000000000E+00 0. -1.
        -11    1    5    5    0    0 -0.66150377105E+02  0.28006292510E+02  0.28448646004E+03  0.29341569616E+03  0.00000000000E+00 0.  1.
         12    1    5    5    0    0  0.19723598899E+02  0.10154259643E+02  0.22831121726E+02  0.31833778628E+02  0.00000000000E+00 0. -1.
          5    1    3    3  501    0 -0.42880062727E+02 -0.20452865475E+01 -0.94451641550E+03  0.94550316346E+03  0.47000000000E+01 0. -1.
         -5    1    3    3    0  501  0.35647404088E+02  0.48348988969E+02 -0.28887814364E+03  0.29509495764E+03  0.47000000000E+01 0. -1.
          1    1    1    2  502    0 -0.31185609012E+01  0.13200219401E+02 -0.51272278285E+03  0.51290215760E+03  0.00000000000E+00 0. -1.
          1    1    1    2  503    0  0.72666253237E+02 -0.91282113561E+02  0.14357394732E+04  0.14404723682E+04  0.00000000000E+00 0. -1.
<mgrwt>
<rscale>  0 0.33043246E+02</rscale>
<asrwt>0</asrwt>
<pdfrwt beam="1">  1        2 0.26467082E+00 0.80498995E+02</pdfrwt>
<pdfrwt beam="2">  1        2 0.26503643E+00 0.13563599E+02</pdfrwt>
<totfact> 0.25618955E+01</totfact>
</mgrwt>
</event>
<event>
13    1  0.2742815E-008  0.1980321E+03  0.7546771E-02  0.1358860E+00
          2   -1    0    0  503    0  0.00000000000E+00  0.00000000000E+00  0.68081953071E+03  0.68081953071E+03  0.00000000000E+00 0. -1.
          2   -1    0    0  502    0 -0.00000000000E+00 -0.00000000000E+00 -0.22319382392E+04  0.22319382392E+04  0.00000000000E+00 0. -1.
         25    2    1    2    0    0  0.24537238645E+02  0.29019795330E+02 -0.74236861760E+03  0.75377795538E+03  0.12500326801E+03 0.  0.
         24    2    1    2    0    0 -0.48806096679E+02 -0.14544645966E+03 -0.22478255979E+03  0.28381543392E+03  0.80543737478E+02 0.  0.
         24    2    1    2    0    0  0.99416965831E+02  0.29643044329E+03  0.14798841226E+03  0.35459683413E+03  0.77997460241E+02 0.  0.
        -13    1    5    5    0    0  0.40989896915E+02  0.37521429184E+02  0.14155335544E+02  0.57344597143E+02  0.00000000000E+00 0.  1.
         14    1    5    5    0    0  0.58427068916E+02  0.25890901411E+03  0.13383307671E+03  0.29725223698E+03  0.00000000000E+00 0. -1.
        -13    1    4    4    0    0  0.14341559741E+02 -0.23777894581E+01 -0.35016091535E+02  0.37913861382E+02  0.00000000000E+00 0.  1.
         14    1    4    4    0    0 -0.63147656420E+02 -0.14306867020E+03 -0.18976646826E+03  0.24590157254E+03  0.00000000000E+00 0. -1.
          5    1    3    3  501    0  0.37435222253E+02 -0.41308284411E+02 -0.24719710902E+03  0.25344875406E+03  0.47000000000E+01 0.  1.
         -5    1    3    3    0  501 -0.12897983608E+02  0.70328079742E+02 -0.49517150859E+03  0.50032920132E+03  0.47000000000E+01 0.  1.
          1    1    1    2  502    0  0.74806475878E+01 -0.23855959124E+02 -0.11063257035E+04  0.11066081642E+04  0.00000000000E+00 0. -1.
          1    1    1    2  503    0 -0.82628755385E+02 -0.15614781984E+03  0.37436976015E+03  0.41395938227E+03  0.00000000000E+00 0. -1.
<mgrwt>
<rscale>  0 0.70363816E+02</rscale>
<asrwt>0</asrwt>
<pdfrwt beam="1">  1        2 0.10012052E+00 0.19803207E+03</pdfrwt>
<pdfrwt beam="2">  1        2 0.32822621E+00 0.25001337E+02</pdfrwt>
<totfact> 0.60694754E+01</totfact>
</mgrwt>
</event>
<event>
13    1  0.2742815E-008  0.6437995E+02  0.7546771E-02  0.1573763E+00
          2   -1    0    0  503    0  0.00000000000E+00  0.00000000000E+00  0.34986742079E+04  0.34986742079E+04  0.00000000000E+00 0. -1.
          2   -1    0    0  502    0 -0.00000000000E+00 -0.00000000000E+00 -0.20903141539E+04  0.20903141539E+04  0.00000000000E+00 0. -1.
         25    2    1    2    0    0 -0.90777925720E+01 -0.71781934102E+03  0.14371049806E+02  0.72881996105E+03  0.12499998359E+03 0.  0.
         24    2    1    2    0    0 -0.49387013545E+03  0.72068294845E+03  0.81185168508E+03  0.11952777738E+04  0.79335837941E+02 0.  0.
         24    2    1    2    0    0  0.48519985036E+03 -0.51822103677E+02  0.17061601245E+04  0.17768936463E+04  0.90907836032E+02 0.  0.
        -11    1    4    4    0    0 -0.39776117180E+03  0.62998585483E+03  0.68428456899E+03  0.10116034294E+04  0.00000000000E+00 0.  1.
         12    1    4    4    0    0 -0.96108963652E+02  0.90697093620E+02  0.12756711609E+03  0.18367434441E+03  0.00000000000E+00 0. -1.
        -13    1    5    5    0    0  0.43298777412E+03 -0.17296898277E+02  0.15142303619E+04  0.15750146615E+04  0.00000000000E+00 0.  1.
         14    1    5    5    0    0  0.52212076239E+02 -0.34525205400E+02  0.19192976263E+03  0.20187898478E+03  0.00000000000E+00 0. -1.
          5    1    3    3  501    0  0.20202307768E+02 -0.16993925395E+02  0.51627636855E+01  0.27306974720E+02  0.47000000000E+01 0.  1.
         -5    1    3    3    0  501 -0.29280100340E+02 -0.70082541563E+03  0.92082861204E+01  0.70151298633E+03  0.47000000000E+01 0.  1.
          1    1    1    2  502    0  0.10567521543E+02  0.63509684624E+02 -0.15051490803E+04  0.15065254417E+04  0.00000000000E+00 0. -1.
          1    1    1    2  503    0  0.71805561257E+01 -0.14551188380E+02  0.38112627496E+03  0.38147153883E+03  0.00000000000E+00 0. -1.
<mgrwt>
<rscale>  0 0.32321164E+02</rscale>
<asrwt>0</asrwt>
<pdfrwt beam="1">  1        2 0.51451091E+00 0.16226444E+02</pdfrwt>
<pdfrwt beam="2">  1        2 0.30739914E+00 0.64379951E+02</pdfrwt>
<totfact> 0.30048103E+00</totfact>
</mgrwt>
</event>
<event>
13    1  0.2742815E-008  0.4753720E+02  0.7546771E-02  0.1495902E+00
         -3   -1    0    0    0  501 -0.00000000000E+00  0.00000000000E+00  0.36483937735E+03  0.36483937735E+03  0.00000000000E+00 0.  1.
          2   -1    0    0  503    0  0.00000000000E+00 -0.00000000000E+00 -0.49494569970E+04  0.49494569970E+04  0.00000000000E+00 0. -1.
         25    2    1    2    0    0  0.47218422197E+02 -0.25609396280E+02 -0.11482850722E+02  0.13657202854E+03  0.12503856424E+03 0.  0.
         24    2    1    2    0    0  0.95170669822E+02  0.72714709370E+02 -0.56565456645E+01  0.14227621710E+03  0.76587466935E+02 0.  0.
         24    2    1    2    0    0 -0.14615655647E+03 -0.62122713794E+01 -0.12872591516E+04  0.12980864321E+04  0.81190704161E+02 0.  0.
        -11    1    4    4    0    0  0.72455630545E+02  0.84759598546E+02 -0.19305917294E+02  0.11316680779E+03  0.00000000000E+00 0.  1.
         12    1    4    4    0    0  0.22715039277E+02 -0.12044889176E+02  0.13649371630E+02  0.29109409312E+02  0.00000000000E+00 0. -1.
        -13    1    5    5    0    0 -0.12249098028E+03  0.18241226299E+00 -0.72359829241E+03  0.73389274577E+03  0.00000000000E+00 0.  1.
         14    1    5    5    0    0 -0.23665576191E+02 -0.63946836424E+01 -0.56366085924E+03  0.56419368634E+03  0.00000000000E+00 0. -1.
          5    1    3    3  502    0 -0.26649032454E+02  0.32276222831E+02 -0.29937572982E+01  0.42225325028E+02  0.47000000000E+01 0. -1.
         -5    1    3    3    0  502  0.73867454651E+02 -0.57885619111E+02 -0.84890934234E+01  0.94346703513E+02  0.47000000000E+01 0. -1.
          1    1    1    2  503    0 -0.32352439531E+02 -0.34862139100E+02 -0.35071613705E+04  0.35074838457E+04  0.00000000000E+00 0. -1.
         -4    1    1    2    0  501  0.36119903985E+02 -0.60309026105E+01  0.22694229894E+03  0.22987785082E+03  0.00000000000E+00 0.  1.
<mgrwt>
<rscale>  0 0.41723004E+02</rscale>
<asrwt>0</asrwt>
<pdfrwt beam="2">  1        2 0.72786121E+00 0.47537204E+02</pdfrwt>
<pdfrwt beam="1">  1       -3 0.53652858E-01 0.36619930E+02</pdfrwt>
<totfact> 0.31314001E-01</totfact>
</mgrwt>
</event>
<event>
13    1  0.2742815E-008  0.1042961E+03  0.7546771E-02  0.1419071E+00
          2   -1    0    0  503    0  0.00000000000E+00  0.00000000000E+00  0.10529694807E+04  0.10529694807E+04  0.00000000000E+00 0. -1.
          2   -1    0    0  502    0 -0.00000000000E+00 -0.00000000000E+00 -0.15153978294E+04  0.15153978294E+04  0.00000000000E+00 0. -1.
         25    2    1    2    0    0  0.66610418477E+02  0.34013623067E+02  0.51832656422E+02  0.15461427430E+03  0.12500030056E+03 0.  0.
         24    2    1    2    0    0 -0.53668871759E+02 -0.37452047236E+02  0.27704147589E+02  0.10544153426E+03  0.77893476723E+02 0.  0.
         24    2    1    2    0    0  0.65204352337E+02  0.31738120758E+02  0.39988387605E+03  0.41431219829E+03  0.80551644634E+02 0.  0.
        -11    1    4    4    0    0 -0.40645348535E+02 -0.42857321079E+02  0.51114851598E+02  0.78112242200E+02  0.00000000000E+00 0.  1.
         12    1    4    4    0    0 -0.13023523224E+02  0.54052738433E+01 -0.23410704009E+02  0.27329292063E+02  0.00000000000E+00 0. -1.
        -13    1    5    5    0    0 -0.79901914023E+01 -0.15780750968E+02  0.11529864056E+03  0.11664755366E+03  0.00000000000E+00 0.  1.
         14    1    5    5    0    0  0.73194543739E+02  0.47518871726E+02  0.28458523549E+03  0.29766464462E+03  0.00000000000E+00 0. -1.
          5    1    3    3  501    0  0.34360902643E+02 -0.35791183385E+02 -0.15611199227E+02  0.52225281041E+02  0.47000000000E+01 0. -1.
         -5    1    3    3    0  501  0.32249515834E+02  0.69804806453E+02  0.67443855649E+02  0.10238899326E+03  0.47000000000E+01 0. -1.
          1    1    1    2  502    0 -0.10392031216E+03 -0.14503982644E+02 -0.14155317328E+04  0.14194153315E+04  0.00000000000E+00 0. -1.
          1    1    1    2  503    0  0.25774413104E+02 -0.13795713946E+02  0.47368270407E+03  0.47458397174E+03  0.00000000000E+00 0. -1.
<mgrwt>
<rscale>  0 0.55217919E+02</rscale>
<asrwt>0</asrwt>
<pdfrwt beam="1">  1        2 0.15484845E+00 0.29234262E+02</pdfrwt>
<pdfrwt beam="2">  1        2 0.22285262E+00 0.10429607E+03</pdfrwt>
<totfact> 0.71467295E+01</totfact>
</mgrwt>
</event>
<event>
13    1  0.2742815E-008  0.6089727E+02  0.7546771E-02  0.1487686E+00
          2   -1    0    0  503    0  0.00000000000E+00  0.00000000000E+00  0.34748866319E+04  0.34748866319E+04  0.00000000000E+00 0. -1.
         -1   -1    0    0    0  501 -0.00000000000E+00 -0.00000000000E+00 -0.89358233080E+03  0.89358233080E+03  0.00000000000E+00 0.  1.
         25    2    1    2    0    0  0.13770806598E+03  0.13702353058E+03  0.62169935240E+02  0.23922398570E+03  0.12499622042E+03 0.  0.
         24    2    1    2    0    0 -0.12307272703E+03  0.69997566353E+02  0.94436095051E+02  0.18753033162E+03  0.78758452206E+02 0.  0.
         24    2    1    2    0    0  0.52938079735E+02 -0.20200994547E+03  0.23817498643E+04  0.23923078142E+04  0.82424529430E+02 0.  0.
        -11    1    5    5    0    0  0.23047833750E+01 -0.82312330969E+02  0.57193659071E+03  0.57783396893E+03  0.00000000000E+00 0.  1.
         12    1    5    5    0    0  0.50633296360E+02 -0.11969761451E+03  0.18098132736E+04  0.18144738452E+04  0.00000000000E+00 0. -1.
        -13    1    4    4    0    0 -0.12973649556E+03  0.53005838518E+02  0.68968982483E+02  0.15619826421E+03  0.00000000000E+00 0.  1.
         14    1    4    4    0    0  0.66637685246E+01  0.16991727835E+02  0.25467112568E+02  0.31332067412E+02  0.00000000000E+00 0. -1.
          5    1    3    3  502    0 -0.27947222874E+00  0.64975647556E+02 -0.12786138729E+02  0.66388916422E+02  0.47000000000E+01 0.  1.
         -5    1    3    3    0  502  0.13798753821E+03  0.72047883022E+02  0.74956073969E+02  0.17283506928E+03  0.47000000000E+01 0.  1.
          1    1    1    2  503    0 -0.56349433483E+02  0.23096137724E+02  0.79470814904E+03  0.79703809970E+03  0.00000000000E+00 0. -1.
         -2    1    1    2    0  501 -0.11223985199E+02 -0.28107289181E+02 -0.75175974259E+03  0.75236873149E+03  0.00000000000E+00 0.  1.
<mgrwt>
<rscale>  0 0.42931146E+02</rscale>
<asrwt>0</asrwt>
<pdfrwt beam="1">  1        2 0.51101274E+00 0.60897268E+02</pdfrwt>
<pdfrwt beam="2">  1       -1 0.13140917E+00 0.30265451E+02</pdfrwt>
<totfact> 0.11980524E+00</totfact>
</mgrwt>
</event>
<event>
13    1  0.2742815E-008  0.6768027E+02  0.7546771E-02  0.1442703E+00
          2   -1    0    0  502    0  0.00000000000E+00  0.00000000000E+00  0.17591678959E+04  0.17591678959E+04  0.00000000000E+00 0. -1.
          2   -1    0    0  503    0 -0.00000000000E+00 -0.00000000000E+00 -0.15428477910E+04  0.15428477910E+04  0.00000000000E+00 0. -1.
         25    2    1    2    0    0  0.74253860628E+02 -0.88409104382E+02 -0.40237416514E+03  0.43687532409E+03  0.12500109788E+03 0.  0.
         24    2    1    2    0    0  0.82309156872E+01 -0.45459710368E+02  0.10793462424E+03  0.15108333330E+03  0.95089206801E+02 0.  0.
         24    2    1    2    0    0 -0.18442179761E+03  0.12174917305E+03  0.51701515919E+03  0.56792407027E+03  0.79992588317E+02 0.  0.
        -11    1    4    4    0    0 -0.23197158563E+01  0.22508646785E+02  0.67736100813E+02  0.71415681857E+02  0.00000000000E+00 0.  1.
         12    1    4    4    0    0  0.10550631543E+02 -0.67968357153E+02  0.40198523427E+02  0.79667651439E+02  0.00000000000E+00 0. -1.
        -13    1    5    5    0    0 -0.29409527469E+02  0.13758714667E+02  0.25288961995E+02  0.41155244308E+02  0.00000000000E+00 0.  1.
         14    1    5    5    0    0 -0.15501227014E+03  0.10799045839E+03  0.49172619719E+03  0.52676882596E+03  0.00000000000E+00 0. -1.
          5    1    3    3  501    0  0.89029354403E+02 -0.83466687185E+02 -0.20347984721E+03  0.23731635433E+03  0.47000000000E+01 0. -1.
         -5    1    3    3    0  501 -0.14775493775E+02 -0.49424171971E+01 -0.19889431793E+03  0.19955896976E+03  0.47000000000E+01 0. -1.
          1    1    1    2  502    0  0.64892375372E+02  0.18952638994E+02  0.10685405630E+04  0.10706769623E+04  0.00000000000E+00 0. -1.
          1    1    1    2  503    0  0.37044645925E+02 -0.68329972981E+01 -0.10747960763E+04  0.10754559969E+04  0.00000000000E+00 0. -1.
<mgrwt>
<rscale>  0 0.50492434E+02</rscale>
<asrwt>0</asrwt>
<pdfrwt beam="1">  1        2 0.25870116E+00 0.67680271E+02</pdfrwt>
<pdfrwt beam="2">  1        2 0.22688938E+00 0.37669559E+02</pdfrwt>
<totfact> 0.31996590E+01</totfact>
</mgrwt>
</event>
<event>
13    1  0.2742815E-008  0.1903793E+03  0.7546771E-02  0.1321950E+00
         -3   -1    0    0    0  501 -0.00000000000E+00  0.00000000000E+00  0.20586501696E+04  0.20586501696E+04  0.00000000000E+00 0.  1.
          2   -1    0    0  503    0  0.00000000000E+00 -0.00000000000E+00 -0.83978361715E+03  0.83978361715E+03  0.00000000000E+00 0. -1.
         25    2    1    2    0    0  0.96618990313E+02  0.12383216274E+02  0.10877131356E+04  0.10991960083E+04  0.12499370390E+03 0.  0.
         24    2    1    2    0    0 -0.25223801642E+02 -0.79871566608E+01  0.11556376604E+03  0.14366641057E+03  0.81148127914E+02 0.  0.
         24    2    1    2    0    0 -0.12884488356E+02  0.14568415241E+03  0.10323693975E+03  0.20422520537E+03  0.98286247651E+02 0.  0.
        -11    1    5    5    0    0 -0.39663739449E+02  0.10856323041E+03  0.32664644797E+02  0.12010897654E+03  0.00000000000E+00 0.  1.
         12    1    5    5    0    0  0.26779251094E+02  0.37120921994E+02  0.70572294949E+02  0.84116228833E+02  0.00000000000E+00 0. -1.
        -11    1    4    4    0    0  0.16103727748E+02 -0.33221050608E+02  0.51182486063E+02  0.63107964081E+02  0.00000000000E+00 0.  1.
         12    1    4    4    0    0 -0.41327529390E+02  0.25233893947E+02  0.64381279979E+02  0.80558446490E+02  0.00000000000E+00 0. -1.
          5    1    3    3  502    0  0.10130238146E+03  0.41228581472E+02  0.55686198377E+03  0.56752033214E+03  0.47000000000E+01 0. -1.
         -5    1    3    3    0  502 -0.46833911487E+01 -0.28845365198E+02  0.53085115179E+03  0.53167567614E+03  0.47000000000E+01 0. -1.
          1    1    1    2  503    0 -0.58134324546E+02 -0.18587791288E+03 -0.75668744421E+03  0.78134888905E+03  0.00000000000E+00 0. -1.
         -4    1    1    2    0  501 -0.37637576980E+00  0.35797700858E+02  0.66904015529E+03  0.66999727346E+03  0.00000000000E+00 0.  1.
<mgrwt>
<rscale>  0 0.82556141E+02</rscale>
<asrwt>0</asrwt>
<pdfrwt beam="2">  1        2 0.12349759E+00 0.19037926E+03</pdfrwt>
<pdfrwt beam="1">  1       -3 0.30274267E+00 0.35799679E+02</pdfrwt>
<totfact> 0.11004094E+00</totfact>
</mgrwt>
</event>
<event>
13    1  0.2742815E-008  0.2884174E+03  0.7546771E-02  0.1252223E+00
          2   -1    0    0  502    0  0.00000000000E+00  0.00000000000E+00  0.20789330866E+04  0.20789330866E+04  0.00000000000E+00 0. -1.
          2   -1    0    0  503    0 -0.00000000000E+00 -0.00000000000E+00 -0.33865747930E+04  0.33865747930E+04  0.00000000000E+00 0. -1.
         25    2    1    2    0    0 -0.57536842536E+03  0.36891850457E+03 -0.68527830634E+03  0.97590229441E+03  0.12501697152E+03 0.  0.
         24    2    1    2    0    0  0.60870279580E+03  0.54072992285E+03 -0.70189422640E+03  0.10783871860E+04  0.85764064754E+02 0.  0.
         24    2    1    2    0    0 -0.36133848744E+02 -0.62625718766E+03  0.86165147790E+03  0.10688550458E+04  0.80648120659E+02 0.  0.
        -13    1    4    4    0    0  0.38312649559E+03  0.39210933410E+03 -0.48492930026E+03  0.73190987680E+03  0.00000000000E+00 0.  1.
         14    1    4    4    0    0  0.22557630020E+03  0.14862058876E+03 -0.21696492615E+03  0.34647730920E+03  0.00000000000E+00 0. -1.
        -13    1    5    5    0    0  0.21452527169E+02 -0.31934129098E+03  0.44692656337E+03  0.54971121882E+03  0.00000000000E+00 0.  1.
         14    1    5    5    0    0 -0.57586375912E+02 -0.30691589668E+03  0.41472491454E+03  0.51914382695E+03  0.00000000000E+00 0. -1.
          5    1    3    3  501    0 -0.52742294313E+01 -0.63253482518E+01 -0.22993364722E+02  0.24871918861E+02  0.47000000000E+01 0. -1.
         -5    1    3    3    0  501 -0.57009419593E+03  0.37524385282E+03 -0.66228494162E+03  0.95103037555E+03  0.47000000000E+01 0. -1.
          1    1    1    2  502    0 -0.45549605331E+02  0.10335107960E+01  0.76611897848E+03  0.76747255578E+03  0.00000000000E+00 0. -1.
          1    1    1    2  503    0  0.48349083640E+02 -0.28442475055E+03 -0.15482396300E+04  0.15748907976E+04  0.00000000000E+00 0. -1.
<mgrwt>
<rscale>  0 0.11463280E+03</rscale>
<asrwt>0</asrwt>
<pdfrwt beam="1">  1        2 0.30572546E+00 0.45561329E+02</pdfrwt>
<pdfrwt beam="2">  1        2 0.49802570E+00 0.28841738E+03</pdfrwt>
<totfact> 0.21277292E+00</totfact>
</mgrwt>
</event>
<event>
13    1  0.2742815E-008  0.8618147E+02  0.7546771E-02  0.1389748E+00
         -1   -1    0    0    0  501 -0.00000000000E+00  0.00000000000E+00  0.11732394110E+04  0.11732394110E+04  0.00000000000E+00 0.  1.
          2   -1    0    0  503    0  0.00000000000E+00 -0.00000000000E+00 -0.15499456137E+04  0.15499456137E+04  0.00000000000E+00 0. -1.
         25    2    1    2    0    0  0.34305379926E+02  0.83013198958E+02  0.38307600189E+03  0.41284384588E+03  0.12499907024E+03 0.  0.
         24    2    1    2    0    0  0.12106215162E+03  0.12540579533E+03 -0.47304017785E+02  0.20403533199E+03  0.94921486202E+02 0.  0.
         24    2    1    2    0    0 -0.11932090692E+03 -0.83454379014E+02 -0.63522583359E+03  0.65672717550E+03  0.81096307997E+02 0.  0.
        -11    1    5    5    0    0 -0.27975006480E+02 -0.35213459445E+02 -0.78254889635E+02  0.90257500882E+02  0.00000000000E+00 0.  1.
         12    1    5    5    0    0 -0.91345900441E+02 -0.48240919569E+02 -0.55697094396E+03  0.56646967462E+03  0.00000000000E+00 0. -1.
        -13    1    4    4    0    0  0.85915108183E+02  0.88350173830E+02 -0.76652926271E+02  0.14513039012E+03  0.00000000000E+00 0.  1.
         14    1    4    4    0    0  0.35147043440E+02  0.37055621502E+02  0.29348908486E+02  0.58904941871E+02  0.00000000000E+00 0. -1.
          5    1    3    3  502    0  0.65317546436E+01  0.69349578181E+02  0.37369573665E+03  0.38016130972E+03  0.47000000000E+01 0. -1.
         -5    1    3    3    0  502  0.27773625282E+02  0.13663620777E+02  0.93802652387E+01  0.32682536162E+02  0.47000000000E+01 0. -1.
          1    1    1    2  503    0 -0.68918732123E+01 -0.44023438138E+02 -0.76006372658E+03  0.76136878678E+03  0.00000000000E+00 0. -1.
         -2    1    1    2    0  501 -0.29154751415E+02 -0.80941177138E+02  0.68281137333E+03  0.68820988458E+03  0.00000000000E+00 0.  1.
<mgrwt>
<rscale>  0 0.61969465E+02</rscale>
<asrwt>0</asrwt>
<pdfrwt beam="2">  1        2 0.22793318E+00 0.44559634E+02</pdfrwt>
<pdfrwt beam="1">  1       -1 0.17253521E+00 0.86181467E+02</pdfrwt>
<totfact> 0.52569513E+00</totfact>
</mgrwt>
</event>
<event>
13    1  0.2742815E-008  0.4668899E+02  0.7546771E-02  0.1604457E+00
          2   -1    0    0  502    0  0.00000000000E+00  0.00000000000E+00  0.23859046987E+03  0.23859046987E+03  0.00000000000E+00 0. -1.
          2   -1    0    0  503    0 -0.00000000000E+00 -0.00000000000E+00 -0.30275915056E+04  0.30275915056E+04  0.00000000000E+00 0. -1.
         25    2    1    2    0    0  0.14640152890E+02  0.34977486898E+02 -0.10519425495E+04  0.10600214756E+04  0.12499857101E+03 0.  0.
         24    2    1    2    0    0  0.38882497953E+01  0.42822673557E+02  0.67389652612E+02  0.11952112193E+03  0.88854000757E+02 0.  0.
         24    2    1    2    0    0 -0.19128085460E+02 -0.19645374191E+02  0.93742539243E+02  0.10995526995E+03  0.50504191372E+02 0.  0.
        -13    1    4    4    0    0 -0.22988023656E+02  0.37596686933E+02  0.78459696374E+02  0.89988243982E+02  0.00000000000E+00 0.  1.
         14    1    4    4    0    0  0.26876273451E+02  0.52259866231E+01 -0.11070043762E+02  0.29532877945E+02  0.00000000000E+00 0. -1.
        -13    1    5    5    0    0  0.86550355667E+01  0.55005221055E+01  0.14648171443E+01  0.10359105819E+02  0.00000000000E+00 0.  1.
         14    1    5    5    0    0 -0.27783121026E+02 -0.25145896296E+02  0.92277722098E+02  0.99596164134E+02  0.00000000000E+00 0. -1.
          5    1    3    3  501    0  0.33155029322E+02  0.61271406006E+02 -0.32800431565E+03  0.33535408489E+03  0.47000000000E+01 0.  1.
         -5    1    3    3    0  501 -0.18514876432E+02 -0.26293919109E+02 -0.72393823380E+03  0.72466739073E+03  0.47000000000E+01 0.  1.
          1    1    1    2  502    0 -0.12789584411E+02 -0.13440397899E+02  0.36756778131E+02  0.41173759892E+02  0.00000000000E+00 0. -1.
          1    1    1    2  503    0  0.13389267186E+02 -0.44714388365E+02 -0.19349474562E+04  0.19355103481E+04  0.00000000000E+00 0. -1.
<mgrwt>
<rscale>  0 0.29431713E+02</rscale>
<asrwt>0</asrwt>
<pdfrwt beam="1">  1        2 0.35086837E-01 0.18553107E+02</pdfrwt>
<pdfrwt beam="2">  1        2 0.44523401E+00 0.46688986E+02</pdfrwt>
<totfact> 0.68366282E+01</totfact>
</mgrwt>
</event>
<event>
13    1  0.2742815E-008  0.7708904E+02  0.7546771E-02  0.1359915E+00
          2   -1    0    0  503    0  0.00000000000E+00  0.00000000000E+00  0.12154902611E+04  0.12154902611E+04  0.00000000000E+00 0. -1.
          2   -1    0    0  502    0 -0.00000000000E+00 -0.00000000000E+00 -0.17626103954E+04  0.17626103954E+04  0.00000000000E+00 0. -1.
         25    2    1    2    0    0  0.15337735949E+03  0.47986005353E+01 -0.29387942354E+03  0.35431357419E+03  0.12500140921E+03 0.  0.
         24    2    1    2    0    0 -0.51143289074E+02 -0.14394621485E+02  0.18795368381E+02  0.98468092327E+02  0.80745638823E+02 0.  0.
         24    2    1    2    0    0 -0.38883405862E+02 -0.43216437847E+02 -0.27702594249E+02  0.10225732818E+03  0.79432661341E+02 0.  0.
        -11    1    4    4    0    0 -0.49319728493E+02 -0.40149639552E+02  0.30006771244E+02  0.70319524282E+02  0.00000000000E+00 0.  1.
         12    1    4    4    0    0 -0.18235605810E+01  0.25755018067E+02 -0.11211402863E+02  0.28148568045E+02  0.00000000000E+00 0. -1.
        -13    1    5    5    0    0  0.22276222744E+02 -0.26303144520E+02 -0.14758850320E+02  0.37495455379E+02  0.00000000000E+00 0.  1.
         14    1    5    5    0    0 -0.61159628605E+02 -0.16913293327E+02 -0.12943743929E+02  0.64761872805E+02  0.00000000000E+00 0. -1.
          5    1    3    3  501    0  0.14220717473E+03  0.37801781107E+02 -0.16687924927E+03  0.22253680378E+03  0.47000000000E+01 0.  1.
         -5    1    3    3    0  501  0.11170184761E+02 -0.33003180572E+02 -0.12700017427E+03  0.13177677041E+03  0.47000000000E+01 0.  1.
          1    1    1    2  502    0  0.13222284384E+02  0.62269686357E+02 -0.13315701021E+04  0.13330908744E+04  0.00000000000E+00 0. -1.
          1    1    1    2  503    0 -0.76572948941E+02 -0.94572275608E+01  0.10872366172E+04  0.10899707874E+04  0.00000000000E+00 0. -1.
<mgrwt>
<rscale>  0 0.70052376E+02</rscale>
<asrwt>0</asrwt>
<pdfrwt beam="1">  1        2 0.17874857E+00 0.77089045E+02</pdfrwt>
<pdfrwt beam="2">  1        2 0.25920741E+00 0.63658013E+02</pdfrwt>
<totfact> 0.44007899E+01</totfact>
</mgrwt>
</event>
<event>
13    1  0.2742815E-008  0.1216422E+03  0.7546771E-02  0.1331929E+00
          2   -1    0    0  503    0  0.00000000000E+00  0.00000000000E+00  0.36815382223E+04  0.36815382223E+04  0.00000000000E+00 0. -1.
          2   -1    0    0  502    0 -0.00000000000E+00 -0.00000000000E+00 -0.58163120097E+03  0.58163120097E+03  0.00000000000E+00 0. -1.
         25    2    1    2    0    0  0.61181978240E+02  0.35414182083E+03  0.10374227898E+02  0.38064738923E+03  0.12500058641E+03 0.  0.
         24    2    1    2    0    0  0.28918758364E+02 -0.19615185366E+03  0.66630150186E+03  0.70064140200E+03  0.87343222603E+02 0.  0.
         24    2    1    2    0    0 -0.50495627540E+02  0.27010869674E+02  0.31414152792E+03  0.33158815954E+03  0.89366730399E+02 0.  0.
        -11    1    4    4    0    0 -0.20253781353E+02 -0.25020255962E+02  0.17804249899E+03  0.18092915828E+03  0.00000000000E+00 0.  1.
         12    1    4    4    0    0  0.49172539717E+02 -0.17113159770E+03  0.48825900287E+03  0.51971224373E+03  0.00000000000E+00 0. -1.
        -11    1    5    5    0    0 -0.50494651954E+02  0.10213820733E+02  0.31004880633E+03  0.31429968870E+03  0.00000000000E+00 0.  1.
         12    1    5    5    0    0 -0.97558657649E-03  0.16797048942E+02  0.40927215938E+01  0.17288470845E+02  0.00000000000E+00 0. -1.
          5    1    3    3  501    0  0.59092839858E+02  0.36256164036E+03  0.18535219888E+02  0.36784310672E+03  0.47000000000E+01 0. -1.
         -5    1    3    3    0  501  0.20891383825E+01 -0.84198195389E+01 -0.81609919895E+01  0.12804282506E+02  0.47000000000E+01 0. -1.
          1    1    1    2  502    0  0.20351180281E+01 -0.51258830618E+02 -0.36683701413E+03  0.37040653930E+03  0.00000000000E+00 0. -1.
          1    1    1    2  503    0 -0.41640227092E+02 -0.13374200622E+03  0.24759267778E+04  0.24798859332E+04  0.00000000000E+00 0. -1.
<mgrwt>
<rscale>  0 0.78994623E+02</rscale>
<asrwt>0</asrwt>
<pdfrwt beam="1">  1        2 0.54140267E+00 0.12164222E+03</pdfrwt>
<pdfrwt beam="2">  1        2 0.85534002E-01 0.51299215E+02</pdfrwt>
<totfact> 0.10089981E+01</totfact>
</mgrwt>
</event>
<event>
13    1  0.2742815E-008  0.6218193E+02  0.7546771E-02  0.1533337E+00
         -1   -1    0    0    0  501 -0.00000000000E+00  0.00000000000E+00  0.12933561585E+04  0.12933561585E+04  0.00000000000E+00 0.  1.
          2   -1    0    0  503    0  0.00000000000E+00 -0.00000000000E+00 -0.25954981312E+04  0.25954981312E+04  0.00000000000E+00 0. -1.
         25    2    1    2    0    0  0.76316330880E+02  0.70621389549E+03  0.66469637231E+03  0.98081971725E+03  0.12499520729E+03 0.  0.
         24    2    1    2    0    0  0.18653839917E+03 -0.45741560742E+03 -0.50238200403E+02  0.50291857476E+03  0.79859900960E+02 0.  0.
         24    2    1    2    0    0 -0.29741875831E+03 -0.17819804366E+03 -0.33151011503E+03  0.48727548095E+03  0.85591923731E+02 0.  0.
        -11    1    4    4    0    0  0.14766816986E+03 -0.29149379235E+03 -0.59993977785E+02  0.33222552090E+03  0.00000000000E+00 0.  1.
         12    1    4    4    0    0  0.38870229314E+02 -0.16592181507E+03  0.97557773823E+01  0.17069305386E+03  0.00000000000E+00 0. -1.
        -13    1    5    5    0    0 -0.22346159760E+03 -0.17068457330E+03 -0.28009266829E+03  0.39688816056E+03  0.00000000000E+00 0.  1.
         14    1    5    5    0    0 -0.73957160715E+02 -0.75134703578E+01 -0.51417446739E+02  0.90387320388E+02  0.00000000000E+00 0. -1.
          5    1    3    3  502    0  0.71746935618E+02  0.67480858874E+03  0.66292860593E+03  0.94868892729E+03  0.47000000000E+01 0. -1.
         -5    1    3    3    0  502  0.45693952616E+01  0.31405306759E+02  0.17677663759E+01  0.32130789963E+02  0.47000000000E+01 0. -1.
          1    1    1    2  503    0  0.15441205012E+02 -0.60226748676E+02 -0.17501997199E+04  0.17513037292E+04  0.00000000000E+00 0. -1.
         -2    1    1    2    0  501  0.19122823248E+02 -0.10373495741E+02  0.16510969029E+03  0.16653678756E+03  0.00000000000E+00 0.  1.
<mgrwt>
<rscale>  0 0.36780223E+02</rscale>
<asrwt>0</asrwt>
<pdfrwt beam="2">  1        2 0.38169090E+00 0.62181935E+02</pdfrwt>
<pdfrwt beam="1">  1       -1 0.19019943E+00 0.21755270E+02</pdfrwt>
<totfact> 0.13899945E+00</totfact>
</mgrwt>
</event>
<event>
13    1  0.2742815E-008  0.1001169E+03  0.7546771E-02  0.1324394E+00
          2   -1    0    0  502    0  0.00000000000E+00  0.00000000000E+00  0.17296173009E+04  0.17296173009E+04  0.00000000000E+00 0. -1.
          2   -1    0    0  503    0 -0.00000000000E+00 -0.00000000000E+00 -0.40116190252E+04  0.40116190252E+04  0.00000000000E+00 0. -1.
         25    2    1    2    0    0 -0.67081407765E+02 -0.15802539830E+02 -0.97566485720E+03  0.98605079918E+03  0.12499851779E+03 0.  0.
         24    2    1    2    0    0  0.18999381093E+03  0.94921404752E+02 -0.18099790902E+03  0.29032080204E+03  0.80113692691E+02 0.  0.
         24    2    1    2    0    0 -0.13133863929E+03  0.35986016478E+02 -0.13246190571E+03  0.20662852169E+03  0.81267201008E+02 0.  0.
        -11    1    5    5    0    0 -0.82193576045E+01  0.29840981009E+02 -0.48297137941E+02  0.57364235551E+02  0.00000000000E+00 0.  1.
         12    1    5    5    0    0 -0.12311928168E+03  0.61450354685E+01 -0.84164767768E+02  0.14926428614E+03  0.00000000000E+00 0. -1.
        -13    1    4    4    0    0  0.66871826751E+02  0.23353366062E+02 -0.11090486438E+03  0.13159449025E+03  0.00000000000E+00 0.  1.
         14    1    4    4    0    0  0.12312198418E+03  0.71568038691E+02 -0.70093044643E+02  0.15872631180E+03  0.00000000000E+00 0. -1.
          5    1    3    3  501    0 -0.81388468036E+02  0.34084450415E+02 -0.52513875747E+03  0.53252102032E+03  0.47000000000E+01 0. -1.
         -5    1    3    3    0  501  0.14307060271E+02 -0.49886990245E+02 -0.45052609973E+03  0.45352977885E+03  0.47000000000E+01 0. -1.
          1    1    1    2  502    0  0.63402428676E+02 -0.77490549957E+02  0.16307214278E+04  0.16337922231E+04  0.00000000000E+00 0. -1.
          1    1    1    2  503    0 -0.54976192551E+02 -0.37614331443E+02 -0.26235984801E+04  0.26244439801E+04  0.00000000000E+00 0. -1.
<mgrwt>
<rscale>  0 0.81664150E+02</rscale>
<asrwt>0</asrwt>
<pdfrwt beam="1">  1        2 0.25435549E+00 0.10011691E+03</pdfrwt>
<pdfrwt beam="2">  1        2 0.58994396E+00 0.66612459E+02</pdfrwt>
<totfact> 0.15237411E+00</totfact>
</mgrwt>
</event>
<event>
13    1  0.2742815E-008  0.6765840E+02  0.7546771E-02  0.1422476E+00
          2   -1    0    0  503    0  0.00000000000E+00  0.00000000000E+00  0.29770475109E+03  0.29770475109E+03  0.00000000000E+00 0. -1.
          2   -1    0    0  502    0 -0.00000000000E+00 -0.00000000000E+00 -0.33945896062E+04  0.33945896062E+04  0.00000000000E+00 0. -1.
         25    2    1    2    0    0 -0.10298491421E+02 -0.65551485876E+02 -0.10616035232E+04  0.10709942903E+04  0.12499469220E+03 0.  0.
         24    2    1    2    0    0 -0.64499298780E+02 -0.19795407157E+02 -0.11262957846E+02  0.10550712176E+03  0.80329825310E+02 0.  0.
         24    2    1    2    0    0  0.83088559356E+02 -0.18637662359E+02 -0.35174233627E+02  0.12276889759E+03  0.81141261698E+02 0.  0.
        -11    1    5    5    0    0  0.47293953451E+02  0.27868606368E+02 -0.32984287272E+02  0.64041708759E+02  0.00000000000E+00 0.  1.
         12    1    5    5    0    0  0.35794605906E+02 -0.46506268727E+02 -0.21899463544E+01  0.58727188830E+02  0.00000000000E+00 0. -1.
        -13    1    4    4    0    0 -0.72070345491E+02 -0.81847120063E+01  0.16580252414E+02  0.74404495697E+02  0.00000000000E+00 0.  1.
         14    1    4    4    0    0  0.75710467116E+01 -0.11610695151E+02 -0.27843210260E+02  0.31102626059E+02  0.00000000000E+00 0. -1.
          5    1    3    3  501    0  0.45858927351E+02  0.32619111508E+01 -0.22643718353E+03  0.23110510459E+03  0.47000000000E+01 0. -1.
         -5    1    3    3    0  501 -0.56157418772E+02 -0.68813397027E+02 -0.83516633970E+03  0.83988918570E+03  0.47000000000E+01 0. -1.
          1    1    1    2  502    0  0.15847615705E+02  0.40941434732E+02 -0.21850699847E+04  0.21855109668E+04  0.00000000000E+00 0. -1.
          1    1    1    2  503    0 -0.24138384860E+02  0.63043120660E+02  0.19622584437E+03  0.20751308076E+03  0.00000000000E+00 0. -1.
<mgrwt>
<rscale>  0 0.54500552E+02</rscale>
<asrwt>0</asrwt>
<pdfrwt beam="1">  1        2 0.43780111E-01 0.67658401E+02</pdfrwt>
<pdfrwt beam="2">  1        2 0.49920435E+00 0.43901572E+02</pdfrwt>
<totfact> 0.36205623E+01</totfact>
</mgrwt>
</event>
<event>
13    1  0.2742815E-008  0.1548535E+03  0.7546771E-02  0.1354914E+00
         -1   -1    0    0    0  501  0.00000000000E+00  0.00000000000E+00  0.23784540662E+04  0.23784540662E+04  0.00000000000E+00 0.  1.
         -1   -1    0    0    0  502 -0.00000000000E+00 -0.00000000000E+00 -0.11480455197E+04  0.11480455197E+04  0.00000000000E+00 0.  1.
         25    2    1    2    0    0 -0.33173438014E+03 -0.45963240143E+03 -0.43657405063E+03  0.72631494660E+03  0.12500742602E+03 0.  0.
         24    2    1    2    0    0  0.22615484433E+03  0.31743715793E+03 -0.10880995425E+03  0.41351194763E+03  0.85089140561E+02 0.  0.
         24    2    1    2    0    0  0.11518729177E+03  0.30697534517E+02  0.60919226982E+03  0.62281785841E+03  0.50758372113E+02 0.  0.
        -11    1    4    4    0    0  0.15258666199E+02  0.76004569150E+02 -0.31997222827E+02  0.83865032609E+02  0.00000000000E+00 0.  1.
         12    1    4    4    0    0  0.21089617813E+03  0.24143258878E+03 -0.76812731428E+02  0.32964691502E+03  0.00000000000E+00 0. -1.
        -13    1    5    5    0    0  0.74002827917E+02 -0.59083530031E+01  0.36763251768E+03  0.37505332319E+03  0.00000000000E+00 0.  1.
         14    1    5    5    0    0  0.41184463853E+02  0.36605887520E+02  0.24155975213E+03  0.24776453522E+03  0.00000000000E+00 0. -1.
          5    1    3    3  503    0 -0.23024492393E+03 -0.37335321147E+03 -0.38412196003E+03  0.58307556601E+03  0.47000000000E+01 0. -1.
         -5    1    3    3    0  503 -0.10148945621E+03 -0.86279189962E+02 -0.52452090607E+02  0.14323938059E+03  0.47000000000E+01 0. -1.
         -2    1    1    2    0  502  0.91800226519E+01 -0.31755515670E+02 -0.29413757561E+03  0.29598918726E+03  0.00000000000E+00 0.  1.
         -2    1    1    2    0  501 -0.18787778606E+02  0.14325322465E+03  0.14607378572E+04  0.14678656459E+04  0.00000000000E+00 0.  1.
<mgrwt>
<rscale>  0 0.71545834E+02</rscale>
<asrwt>0</asrwt>
<pdfrwt beam="1">  1       -1 0.34977266E+00 0.15485352E+03</pdfrwt>
<pdfrwt beam="2">  1       -1 0.16883022E+00 0.33055795E+02</pdfrwt>
<totfact> 0.55622601E-02</totfact>
</mgrwt>
</event>
<event>
13    1  0.2742815E-008  0.8741341E+02  0.7546771E-02  0.1387797E+00
          2   -1    0    0  503    0  0.00000000000E+00  0.00000000000E+00  0.88780766504E+03  0.88780766504E+03  0.00000000000E+00 0. -1.
          2   -1    0    0  502    0 -0.00000000000E+00 -0.00000000000E+00 -0.16430163373E+04  0.16430163373E+04  0.00000000000E+00 0. -1.
         25    2    1    2    0    0 -0.24271771491E+03 -0.19184255433E+02 -0.25230665619E+03  0.37224167018E+03  0.12500114988E+03 0.  0.
         24    2    1    2    0    0  0.13014348304E+03 -0.27362599226E+03  0.18133228753E+03  0.36249100198E+03  0.81913479938E+02 0.  0.
         24    2    1    2    0    0  0.32299115565E+02  0.18986712220E+03  0.27069123830E+03  0.34187991564E+03  0.80717862135E+02 0.  0.
        -13    1    5    5    0    0 -0.84400681181E+01  0.29528460954E+02  0.98152001001E+02  0.10284444592E+03  0.00000000000E+00 0.  1.
         14    1    5    5    0    0  0.40739183683E+02  0.16033866124E+03  0.17253923730E+03  0.23903546972E+03  0.00000000000E+00 0. -1.
        -13    1    4    4    0    0  0.46484071376E+02 -0.16885944339E+03  0.71489016898E+02  0.18916913081E+03  0.00000000000E+00 0.  1.
         14    1    4    4    0    0  0.83659411665E+02 -0.10476654887E+03  0.10984327063E+03  0.17332187117E+03  0.00000000000E+00 0. -1.
          5    1    3    3  501    0 -0.36292093035E+02 -0.29119696586E+02 -0.11481690051E+03  0.12397614040E+03  0.47000000000E+01 0. -1.
         -5    1    3    3    0  501 -0.20642562187E+03  0.99354411532E+01 -0.13748975568E+03  0.24826552977E+03  0.47000000000E+01 0. -1.
          1    1    1    2  502    0  0.32408244804E+02  0.30680134662E+02 -0.11966160601E+04  0.11974479363E+04  0.00000000000E+00 0. -1.
          1    1    1    2  503    0  0.47866871497E+02  0.72262990834E+02  0.24169051811E+03  0.25676347827E+03  0.00000000000E+00 0. -1.
<mgrwt>
<rscale>  0 0.62457939E+02</rscale>
<asrwt>0</asrwt>
<pdfrwt beam="1">  1        2 0.13055995E+00 0.87413409E+02</pdfrwt>
<pdfrwt beam="2">  1        2 0.24162005E+00 0.44626954E+02</pdfrwt>
<totfact> 0.78474961E+01</totfact>
</mgrwt>
</event>
<event>
13    1  0.2742815E-008  0.2275937E+03  0.7546771E-02  0.1333303E+00
          2   -1    0    0  502    0  0.00000000000E+00  0.00000000000E+00  0.42877842612E+04  0.42877842612E+04  0.00000000000E+00 0. -1.
          4   -1    0    0  503    0 -0.00000000000E+00 -0.00000000000E+00 -0.94272554408E+03  0.94272554408E+03  0.00000000000E+00 0. -1.
         25    2    1    2    0    0  0.52805641745E+02 -0.17182860548E+03 -0.17339143160E+03  0.27928851434E+03  0.12499592083E+03 0.  0.
         24    2    1    2    0    0 -0.68609839886E+02 -0.17442305619E+03  0.72376203143E+02  0.21662632664E+03  0.80981096255E+02 0.  0.
         24    2    1    2    0    0  0.80546526995E+02  0.12934257180E+03  0.29604262326E+03  0.34312060641E+03  0.82905198084E+02 0.  0.
        -13    1    4    4    0    0 -0.62306106628E+01 -0.55621142330E+02 -0.13164740199E+02  0.57496455263E+02  0.00000000000E+00 0.  1.
         14    1    4    4    0    0 -0.62379229223E+02 -0.11880191386E+03  0.85540943342E+02  0.15912987138E+03  0.00000000000E+00 0. -1.
        -13    1    5    5    0    0  0.43198935196E+01 -0.68108286407E+01 -0.44609150030E+00  0.80776150205E+01  0.00000000000E+00 0.  1.
         14    1    5    5    0    0  0.76226633475E+02  0.13615340044E+03  0.29648871476E+03  0.33504299139E+03  0.00000000000E+00 0. -1.
          5    1    3    3  501    0  0.71859881988E+02 -0.50610941897E+02 -0.11066038980E+03  0.14139703656E+03  0.47000000000E+01 0.  1.
         -5    1    3    3    0  501 -0.19054240242E+02 -0.12121766359E+03 -0.62731041808E+02  0.13789147778E+03  0.47000000000E+01 0.  1.
          1    1    1    2  502    0 -0.61845982371E+02  0.18997442473E+03  0.37678094282E+04  0.37731025821E+04  0.00000000000E+00 0. -1.
          3    1    1    2  503    0 -0.28963464834E+01  0.26934665151E+02 -0.61777810588E+03  0.61837177581E+03  0.00000000000E+00 0. -1.
<mgrwt>
<rscale>  0 0.78520703E+02</rscale>
<asrwt>0</asrwt>
<pdfrwt beam="1">  1        2 0.63055650E+00 0.22759372E+03</pdfrwt>
<pdfrwt beam="2">  1        4 0.13863611E+00 0.27089943E+02</pdfrwt>
<totfact> 0.74308909E-02</totfact>
</mgrwt>
</event>
<event>
13    1  0.2742815E-008  0.1104600E+03  0.7546771E-02  0.1278351E+00
          2   -1    0    0  502    0  0.00000000000E+00  0.00000000000E+00  0.17086865033E+03  0.17086865033E+03  0.00000000000E+00 0. -1.
          2   -1    0    0  503    0 -0.00000000000E+00 -0.00000000000E+00 -0.24401371615E+04  0.24401371615E+04  0.00000000000E+00 0. -1.
         25    2    1    2    0    0 -0.13474853867E+03  0.42605293500E+02 -0.10245634196E+04  0.10417900383E+04  0.12499561384E+03 0.  0.
         24    2    1    2    0    0  0.54813189489E+02  0.69056912206E+01 -0.61852302005E+02  0.11726033951E+03  0.82898164306E+02 0.  0.
         24    2    1    2    0    0  0.41793077580E+02 -0.61652401695E+01 -0.74093773768E+02  0.11114123421E+03  0.71258789710E+02 0.  0.
        -11    1    4    4    0    0 -0.21838747640E+02  0.49675873110E+01 -0.19316072574E+02  0.29575640008E+02  0.00000000000E+00 0.  1.
         12    1    4    4    0    0  0.76651937129E+02  0.19381039096E+01 -0.42536229431E+02  0.87684699501E+02  0.00000000000E+00 0. -1.
        -13    1    5    5    0    0  0.58154303238E+02 -0.13539000844E+02 -0.37843615413E+02  0.70692055823E+02  0.00000000000E+00 0.  1.
         14    1    5    5    0    0 -0.16361225658E+02  0.73737606748E+01 -0.36250158355E+02  0.40449178388E+02  0.00000000000E+00 0. -1.
          5    1    3    3  501    0  0.37483028012E+01  0.41192304904E+02 -0.39311604475E+03  0.39531401493E+03  0.47000000000E+01 0.  1.
         -5    1    3    3    0  501 -0.13849684147E+03  0.14129885956E+01 -0.63144737480E+03  0.64647602336E+03  0.47000000000E+01 0.  1.
          1    1    1    2  502    0  0.11761051086E+03  0.42044825093E+01  0.83921854455E+02  0.14454337617E+03  0.00000000000E+00 0. -1.
          1    1    1    2  503    0 -0.79468239265E+02 -0.47550227060E+02 -0.11926808703E+04  0.11962708236E+04  0.00000000000E+00 0. -1.
<mgrwt>
<rscale>  0 0.10093055E+03</rscale>
<asrwt>0</asrwt>
<pdfrwt beam="1">  1        2 0.25127744E-01 0.11046002E+03</pdfrwt>
<pdfrwt beam="2">  1        2 0.35884369E+00 0.92223195E+02</pdfrwt>
<totfact> 0.18276668E+02</totfact>
</mgrwt>
</event>
<event>
13    1  0.2742815E-008  0.5284389E+02  0.7546771E-02  0.1485300E+00
          2   -1    0    0  502    0  0.00000000000E+00  0.00000000000E+00  0.24787793175E+04  0.24787793175E+04  0.00000000000E+00 0. -1.
          2   -1    0    0  503    0 -0.00000000000E+00 -0.00000000000E+00 -0.28175445533E+04  0.28175445533E+04  0.00000000000E+00 0. -1.
         25    2    1    2    0    0  0.27381652227E+03 -0.24547565055E+03 -0.48054551487E+03  0.61788602739E+03  0.12500147240E+03 0.  0.
         24    2    1    2    0    0  0.22674218122E+03  0.17528638737E+03 -0.68613705892E+02  0.30823111658E+03  0.90339616172E+02 0.  0.
         24    2    1    2    0    0 -0.52437170806E+03  0.13927269393E+03  0.56709063692E+03  0.79019364526E+03  0.91932774564E+02 0.  0.
        -13    1    5    5    0    0 -0.62764232895E+02  0.30136055318E+02  0.36927313001E+02  0.78810895227E+02  0.00000000000E+00 0.  1.
         14    1    5    5    0    0 -0.46160747516E+03  0.10913663861E+03  0.53016332391E+03  0.71138275003E+03  0.00000000000E+00 0. -1.
        -13    1    4    4    0    0  0.55203200805E+02  0.67504721132E+02  0.16041293743E+02  0.88665685917E+02  0.00000000000E+00 0.  1.
         14    1    4    4    0    0  0.17153898042E+03  0.10778166624E+03 -0.84654999635E+02  0.21956543067E+03  0.00000000000E+00 0. -1.
          5    1    3    3  501    0  0.14925540560E+03 -0.61111321482E+02 -0.15651014803E+03  0.22478720193E+03  0.47000000000E+01 0. -1.
         -5    1    3    3    0  501  0.12456111667E+03 -0.18436432906E+03 -0.32403536684E+03  0.39309882546E+03  0.47000000000E+01 0. -1.
          1    1    1    2  502    0  0.31249750239E+02 -0.16770484990E+02  0.16111084233E+04  0.16114987272E+04  0.00000000000E+00 0. -1.
          1    1    1    2  503    0 -0.74367456743E+01 -0.52312945767E+02 -0.19678050752E+04  0.19685143544E+04  0.00000000000E+00 0. -1.
<mgrwt>
<rscale>  0 0.43291233E+02</rscale>
<asrwt>0</asrwt>
<pdfrwt beam="1">  1        2 0.36452637E+00 0.35465421E+02</pdfrwt>
<pdfrwt beam="2">  1        2 0.41434478E+00 0.52843893E+02</pdfrwt>
<totfact> 0.38206405E+00</totfact>
</mgrwt>
</event>
<event>
13    1  0.2742815E-008  0.1562387E+03  0.7546771E-02  0.1274092E+00
          2   -1    0    0  502    0  0.00000000000E+00  0.00000000000E+00  0.15113349181E+04  0.15113349181E+04  0.00000000000E+00 0. -1.
          2   -1    0    0  503    0 -0.00000000000E+00 -0.00000000000E+00 -0.13973353842E+04  0.13973353842E+04  0.00000000000E+00 0. -1.
         25    2    1    2    0    0  0.52172801278E+02  0.16507894702E+03 -0.60401185349E+03  0.64065004247E+03  0.12501639019E+03 0.  0.
         24    2    1    2    0    0  0.59533123201E+02  0.30611332030E+01  0.47082806064E+03  0.48096150060E+03  0.78047031225E+02 0.  0.
         24    2    1    2    0    0 -0.53085733378E+02 -0.80150925899E+02  0.40951799338E+03  0.42808543656E+03  0.79434803980E+02 0.  0.
        -11    1    5    5    0    0  0.15630921896E+02 -0.25885776281E+02  0.17825514099E+03  0.18080180979E+03  0.00000000000E+00 0.  1.
         12    1    5    5    0    0 -0.68716655274E+02 -0.54265149617E+02  0.23126285239E+03  0.24728362677E+03  0.00000000000E+00 0. -1.
        -13    1    4    4    0    0  0.38677805387E+02 -0.34123557104E+02  0.18836895226E+03  0.19530297477E+03  0.00000000000E+00 0.  1.
         14    1    4    4    0    0  0.20855317815E+02  0.37184690308E+02  0.28245910838E+03  0.28565852583E+03  0.00000000000E+00 0. -1.
          5    1    3    3  501    0  0.47762160960E+00  0.23712395306E+02 -0.30402477069E+03  0.30498468324E+03  0.47000000000E+01 0.  1.
         -5    1    3    3    0  501  0.51695179668E+02  0.14136655171E+03 -0.29998708279E+03  0.33566535923E+03  0.47000000000E+01 0.  1.
          1    1    1    2  502    0 -0.32617841234E+02  0.59569383145E+02  0.58897057645E+03  0.59287332113E+03  0.00000000000E+00 0. -1.
          1    1    1    2  503    0 -0.26002349867E+02 -0.14755853747E+03 -0.75130524303E+03  0.76610000156E+03  0.00000000000E+00 0. -1.
<mgrwt>
<rscale>  0 0.10300940E+03</rscale>
<asrwt>0</asrwt>
<pdfrwt beam="1">  1        2 0.22225514E+00 0.67914910E+02</pdfrwt>
<pdfrwt beam="2">  1        2 0.20549050E+00 0.15623868E+03</pdfrwt>
<totfact> 0.44353339E+01</totfact>
</mgrwt>
</event>
<event>
13    1  0.2742815E-008  0.7849561E+02  0.7546771E-02  0.1402721E+00
          2   -1    0    0  502    0  0.00000000000E+00  0.00000000000E+00  0.11472300399E+04  0.11472300399E+04  0.00000000000E+00 0. -1.
          2   -1    0    0  503    0 -0.00000000000E+00 -0.00000000000E+00 -0.16544423517E+04  0.16544423517E+04  0.00000000000E+00 0. -1.
         25    2    1    2    0    0 -0.98798538781E+02 -0.26378206438E+02 -0.86675742622E+03  0.88167523790E+03  0.12500331265E+03 0.  0.
         24    2    1    2    0    0  0.48515330927E+02  0.11085278953E+02 -0.95823157805E+02  0.13460115048E+03  0.80366481791E+02 0.  0.
         24    2    1    2    0    0 -0.11207419755E+02  0.84061458240E+01  0.10862437902E+03  0.13530869019E+03  0.79453863198E+02 0.  0.
        -11    1    4    4    0    0  0.30778368593E+02  0.48868478590E+01  0.54179240394E+01  0.31631363488E+02  0.00000000000E+00 0.  1.
         12    1    4    4    0    0  0.17736962334E+02  0.61984310938E+01 -0.10124108184E+03  0.10296978700E+03  0.00000000000E+00 0. -1.
        -11    1    5    5    0    0  0.32137311005E+02 -0.97858827764E+01  0.48218628676E+02  0.58767392419E+02  0.00000000000E+00 0.  1.
         12    1    5    5    0    0 -0.43344730760E+02  0.18192028600E+02  0.60405750349E+02  0.76541297771E+02  0.00000000000E+00 0. -1.
          5    1    3    3  501    0 -0.89533451831E+02  0.37166590797E+02 -0.50942086929E+03  0.51858394358E+03  0.47000000000E+01 0. -1.
         -5    1    3    3    0  501 -0.92650869500E+01 -0.63544797235E+02 -0.35733655693E+03  0.36309129432E+03  0.47000000000E+01 0. -1.
          1    1    1    2  502    0  0.84207825475E+02 -0.30937225021E+02  0.99564974097E+03  0.99968318804E+03  0.00000000000E+00 0. -1.
          1    1    1    2  503    0 -0.22717197867E+02  0.37824006683E+02 -0.64890584779E+03  0.65040412503E+03  0.00000000000E+00 0. -1.
<mgrwt>
<rscale>  0 0.58850333E+02</rscale>
<asrwt>0</asrwt>
<pdfrwt beam="1">  1        2 0.16871030E+00 0.78495611E+02</pdfrwt>
<pdfrwt beam="2">  1        2 0.24330035E+00 0.44121724E+02</pdfrwt>
<totfact> 0.55576800E+01</totfact>
</mgrwt>
</event>
<event>
13    1  0.2742815E-008  0.1006186E+03  0.7546771E-02  0.1436721E+00
          2   -1    0    0  503    0  0.00000000000E+00  0.00000000000E+00  0.20107706114E+04  0.20107706114E+04  0.00000000000E+00 0. -1.
          2   -1    0    0  502    0 -0.00000000000E+00 -0.00000000000E+00 -0.17323720950E+04  0.17323720950E+04  0.00000000000E+00 0. -1.
         25    2    1    2    0    0  0.17804702607E+03  0.74811383118E+02 -0.55299347476E+03  0.59893531453E+03  0.12499696528E+03 0.  0.
         24    2    1    2    0    0  0.14558902165E+03 -0.20066337395E+03 -0.56597727933E+03  0.62316412594E+03  0.80878268250E+02 0.  0.
         24    2    1    2    0    0 -0.19913245328E+03  0.12437210865E+03  0.27283365933E+03  0.36532847567E+03  0.62486271348E+02 0.  0.
        -11    1    4    4    0    0  0.96445474491E+02 -0.14433701594E+03 -0.47309340969E+03  0.50393677978E+03  0.00000000000E+00 0.  1.
         12    1    4    4    0    0  0.49143547162E+02 -0.56326358014E+02 -0.92883869634E+02  0.11922734616E+03  0.00000000000E+00 0. -1.
        -13    1    5    5    0    0 -0.70822526004E+02  0.15851662934E+02  0.60110552447E+02  0.94235788970E+02  0.00000000000E+00 0.  1.
         14    1    5    5    0    0 -0.12830992728E+03  0.10852044572E+03  0.21272310689E+03  0.27109268670E+03  0.00000000000E+00 0. -1.
          5    1    3    3  501    0  0.70957849766E+01  0.52086594210E+02 -0.83852379407E+02  0.99079135004E+02  0.47000000000E+01 0. -1.
         -5    1    3    3    0  501  0.17095124109E+03  0.22724788908E+02 -0.46914109535E+03  0.49985617952E+03  0.47000000000E+01 0. -1.
          1    1    1    2  502    0 -0.24564232378E+02 -0.99346693277E+01 -0.51370552579E+03  0.51438843921E+03  0.00000000000E+00 0. -1.
          1    1    1    2  503    0 -0.99939362056E+02  0.11414551509E+02  0.16382411369E+04  0.16413263511E+04  0.00000000000E+00 0. -1.
<mgrwt>
<rscale>  0 0.51634349E+02</rscale>
<asrwt>0</asrwt>
<pdfrwt beam="1">  1        2 0.29570156E+00 0.10061858E+03</pdfrwt>
<pdfrwt beam="2">  1        2 0.25476060E+00 0.26497154E+02</pdfrwt>
<totfact> 0.19761872E+01</totfact>
</mgrwt>
</event>
<event>
13    1  0.2742815E-008  0.1114434E+03  0.7546771E-02  0.1309778E+00
          2   -1    0    0  503    0  0.00000000000E+00  0.00000000000E+00  0.87394312315E+03  0.87394312315E+03  0.00000000000E+00 0. -1.
          2   -1    0    0  502    0 -0.00000000000E+00 -0.00000000000E+00 -0.36107814139E+03  0.36107814139E+03  0.00000000000E+00 0. -1.
         25    2    1    2    0    0 -0.43321755157E+01  0.63218592396E+02 -0.13565748868E+03  0.19509393711E+03  0.12507330608E+03 0.  0.
         24    2    1    2    0    0  0.50631206984E+02 -0.39702078917E+01  0.13052848435E+03  0.16255872247E+03  0.82512855687E+02 0.  0.
         24    2    1    2    0    0 -0.87591120306E+02 -0.76645086841E+02  0.88041281279E+02  0.16711146925E+03  0.81414386036E+02 0.  0.
        -11    1    5    5    0    0 -0.11918579602E+02  0.16922983583E+02  0.20416995276E+02  0.29073933501E+02  0.00000000000E+00 0.  1.
         12    1    5    5    0    0 -0.75672540704E+02 -0.93568070425E+02  0.67624286003E+02  0.13803753575E+03  0.00000000000E+00 0. -1.
        -11    1    4    4    0    0  0.68866158392E+01  0.33625871468E+02  0.25592358627E+02  0.42814641535E+02  0.00000000000E+00 0.  1.
         12    1    4    4    0    0  0.43744591145E+02 -0.37596079360E+02  0.10493612572E+03  0.11974408093E+03  0.00000000000E+00 0. -1.
          5    1    3    3  501    0  0.31213466804E+02 -0.27480117684E+02 -0.31329039239E+02  0.52278447543E+02  0.47000000000E+01 0.  1.
         -5    1    3    3    0  501 -0.35545642320E+02  0.90698710080E+02 -0.10432844944E+03  0.14281548957E+03  0.47000000000E+01 0.  1.
          1    1    1    2  502    0 -0.47321186760E+02 -0.49153431518E+02 -0.12604254901E+03  0.14332508052E+03  0.00000000000E+00 0. -1.
          1    1    1    2  503    0  0.88613275598E+02  0.66550133854E+02  0.55599525382E+03  0.56693205519E+03  0.00000000000E+00 0. -1.
<mgrwt>
<rscale>  0 0.87199782E+02</rscale>
<asrwt>0</asrwt>
<pdfrwt beam="1">  1        2 0.12852105E+00 0.11144342E+03</pdfrwt>
<pdfrwt beam="2">  1        2 0.53099726E-01 0.68230159E+02</pdfrwt>
<totfact> 0.50598171E+02</totfact>
</mgrwt>
</event>
<event>
13    1  0.2742815E-008  0.1042164E+03  0.7546771E-02  0.1336190E+00
          2   -1    0    0  503    0  0.00000000000E+00  0.00000000000E+00  0.12865942163E+04  0.12865942163E+04  0.00000000000E+00 0. -1.
         -3   -1    0    0    0  501 -0.00000000000E+00 -0.00000000000E+00 -0.10202133659E+04  0.10202133659E+04  0.00000000000E+00 0.  1.
         25    2    1    2    0    0  0.87465393354E+02  0.28492596607E+02 -0.19363920636E+03  0.24815947848E+03  0.12499984571E+03 0.  0.
         24    2    1    2    0    0  0.46253770288E+02 -0.33499855848E+02  0.13218117703E+03  0.16434981135E+03  0.79229699756E+02 0.  0.
         24    2    1    2    0    0  0.75379414312E+02 -0.18495060050E+02  0.18586410572E+03  0.21195356358E+03  0.65990332401E+02 0.  0.
        -13    1    5    5    0    0  0.13115331196E+02  0.18949700863E+01  0.11375863829E+03  0.11452785954E+03  0.00000000000E+00 0.  1.
         14    1    5    5    0    0  0.62264083115E+02 -0.20390030136E+02  0.72105467431E+02  0.97425704045E+02  0.00000000000E+00 0. -1.
        -13    1    4    4    0    0  0.53011626592E+02 -0.43824414757E+01  0.12145465327E+03  0.13259212325E+03  0.00000000000E+00 0.  1.
         14    1    4    4    0    0 -0.67578563039E+01 -0.29117414372E+02  0.10726523755E+02  0.31757688099E+02  0.00000000000E+00 0. -1.
          5    1    3    3  502    0  0.60970645239E+02  0.22947536916E+02 -0.20739324070E+03  0.21743517499E+03  0.47000000000E+01 0.  1.
         -5    1    3    3    0  502  0.26494748115E+02  0.55450596910E+01  0.13754034347E+02  0.30724303499E+02  0.47000000000E+01 0.  1.
          1    1    1    2  503    0 -0.15180747928E+03  0.30255309977E+02  0.90449530093E+03  0.91764516234E+03  0.00000000000E+00 0. -1.
         -4    1    1    2    0  501 -0.57291098676E+02 -0.67529906858E+01 -0.76252052697E+03  0.76469956644E+03  0.00000000000E+00 0.  1.
<mgrwt>
<rscale>  0 0.77537139E+02</rscale>
<asrwt>0</asrwt>
<pdfrwt beam="1">  1        2 0.18920503E+00 0.10421643E+03</pdfrwt>
<pdfrwt beam="2">  1       -3 0.15003138E+00 0.57687719E+02</pdfrwt>
<totfact> 0.43783621E+00</totfact>
</mgrwt>
</event>
<event>
13    1  0.2742815E-008  0.1432481E+03  0.7546771E-02  0.1253323E+00
          2   -1    0    0  502    0  0.00000000000E+00  0.00000000000E+00  0.10859017214E+04  0.10859017214E+04  0.00000000000E+00 0. -1.
          2   -1    0    0  503    0 -0.00000000000E+00 -0.00000000000E+00 -0.23724611062E+04  0.23724611062E+04  0.00000000000E+00 0. -1.
         25    2    1    2    0    0 -0.72850423589E+02 -0.38275551815E+03 -0.13656985908E+04  0.14256811365E+04  0.12500036462E+03 0.  0.
         24    2    1    2    0    0  0.11630346454E+03  0.10822310139E+03  0.12571744939E+03  0.21798003927E+03  0.80446783045E+02 0.  0.
         24    2    1    2    0    0  0.12335537990E+01  0.35302481248E+02  0.52398590595E+02  0.11103293131E+03  0.91295743067E+02 0.  0.
        -11    1    4    4    0    0  0.91698336605E+02  0.75156491765E+02  0.44013291363E+02  0.12646838738E+03  0.00000000000E+00 0.  1.
         12    1    4    4    0    0  0.24605127932E+02  0.33066609627E+02  0.81704158028E+02  0.91511651891E+02  0.00000000000E+00 0. -1.
        -13    1    5    5    0    0  0.31962166745E+02 -0.17330569055E+02  0.25530714586E+02  0.44426862528E+02  0.00000000000E+00 0.  1.
         14    1    5    5    0    0 -0.30728612946E+02  0.52633050302E+02  0.26867876009E+02  0.66606068784E+02  0.00000000000E+00 0. -1.
          5    1    3    3  501    0 -0.16316977598E+02 -0.13454496478E+03 -0.28824235060E+03  0.31855036334E+03  0.47000000000E+01 0.  1.
         -5    1    3    3    0  501 -0.56533445991E+02 -0.24821055337E+03 -0.10774562402E+04  0.11071307731E+04  0.47000000000E+01 0.  1.
          1    1    1    2  502    0 -0.86383749607E+02  0.15864221887E+03  0.78983995816E+03  0.81023247610E+03  0.00000000000E+00 0. -1.
          1    1    1    2  503    0  0.41697154861E+02  0.80587716640E+02 -0.88881679216E+03  0.89343624441E+03  0.00000000000E+00 0. -1.
<mgrwt>
<rscale>  0 0.11400775E+03</rscale>
<asrwt>0</asrwt>
<pdfrwt beam="1">  1        2 0.15969143E+00 0.14324809E+03</pdfrwt>
<pdfrwt beam="2">  1        2 0.34889134E+00 0.90736061E+02</pdfrwt>
<totfact> 0.24549613E+01</totfact>
</mgrwt>
</event>
<event>
13    1  0.2742815E-008  0.7532209E+02  0.7546771E-02  0.1361355E+00
          2   -1    0    0  502    0  0.00000000000E+00  0.00000000000E+00  0.40634499140E+03  0.40634499140E+03  0.00000000000E+00 0. -1.
          2   -1    0    0  503    0 -0.00000000000E+00 -0.00000000000E+00 -0.12689997192E+04  0.12689997192E+04  0.00000000000E+00 0. -1.
         25    2    1    2    0    0 -0.12470761259E+03 -0.53736199660E+01 -0.65962119382E+03  0.68286582688E+03  0.12499901501E+03 0.  0.
         24    2    1    2    0    0  0.71068742831E+02 -0.36655612517E+02 -0.93500129003E+02  0.14699034929E+03  0.80433130757E+02 0.  0.
         24    2    1    2    0    0 -0.14275980232E+02 -0.28882293364E+02  0.99429439236E+02  0.13186472547E+03  0.80399639022E+02 0.  0.
        -11    1    4    4    0    0  0.11791338511E+02  0.17458172152E+02  0.32122539253E+01  0.21310608017E+02  0.00000000000E+00 0.  1.
         12    1    4    4    0    0  0.59277404319E+02 -0.54113784668E+02 -0.96712382928E+02  0.12567974127E+03  0.00000000000E+00 0. -1.
        -13    1    5    5    0    0 -0.44359883074E+02 -0.24169295186E+01  0.37672147309E+02  0.58248016770E+02  0.00000000000E+00 0.  1.
         14    1    5    5    0    0  0.30083902843E+02 -0.26465363845E+02  0.61757291927E+02  0.73616708700E+02  0.00000000000E+00 0. -1.
          5    1    3    3  501    0  0.15225668647E+02 -0.23399741790E+02 -0.53567952275E+02  0.60588649205E+02  0.47000000000E+01 0.  1.
         -5    1    3    3    0  501 -0.13993328124E+03  0.18026121824E+02 -0.60605324154E+03  0.62227717767E+03  0.47000000000E+01 0.  1.
          1    1    1    2  502    0  0.66711576221E+01  0.90723858004E+02  0.24177011388E+03  0.25831784824E+03  0.00000000000E+00 0. -1.
          1    1    1    2  503    0  0.61243692367E+02 -0.19812332157E+02 -0.45073295811E+03  0.45530596074E+03  0.00000000000E+00 0. -1.
<mgrwt>
<rscale>  0 0.69630299E+02</rscale>
<asrwt>0</asrwt>
<pdfrwt beam="1">  1        2 0.59756616E-01 0.75322092E+02</pdfrwt>
<pdfrwt beam="2">  1        2 0.18661761E+00 0.64368613E+02</pdfrwt>
<totfact> 0.27773026E+02</totfact>
</mgrwt>
</event>
<event>
13    1  0.2742815E-008  0.1778294E+03  0.7546771E-02  0.1324181E+00
          2   -1    0    0  503    0  0.00000000000E+00  0.00000000000E+00  0.81615418268E+03  0.81615418268E+03  0.00000000000E+00 0. -1.
          2   -1    0    0  502    0 -0.00000000000E+00 -0.00000000000E+00 -0.14046392259E+04  0.14046392259E+04  0.00000000000E+00 0. -1.
         25    2    1    2    0    0 -0.10277888884E+03 -0.13785017771E+03 -0.29745996971E+03  0.36561392681E+03  0.12499975366E+03 0.  0.
         24    2    1    2    0    0  0.97010136761E+02  0.41513239795E+02  0.17080492031E+03  0.21660628188E+03  0.81299722244E+02 0.  0.
         24    2    1    2    0    0 -0.15935586249E+03 -0.12797882435E+02 -0.50368012773E+02  0.18696711217E+03  0.82835304175E+02 0.  0.
        -11    1    4    4    0    0  0.22454308569E+02  0.32153692663E+02  0.11910977683E+03  0.12540013901E+03  0.00000000000E+00 0.  1.
         12    1    4    4    0    0  0.74555828191E+02  0.93595471321E+01  0.51695143478E+02  0.91206142880E+02  0.00000000000E+00 0. -1.
        -13    1    5    5    0    0 -0.78267371309E+02 -0.46750674539E+02 -0.15907588188E+02  0.92544358788E+02  0.00000000000E+00 0.  1.
         14    1    5    5    0    0 -0.81088491177E+02  0.33952792105E+02 -0.34460424585E+02  0.94422753379E+02  0.00000000000E+00 0. -1.
          5    1    3    3  501    0 -0.77858126856E+02 -0.45891324043E+02 -0.23439877181E+03  0.25126236440E+03  0.47000000000E+01 0.  1.
         -5    1    3    3    0  501 -0.24920761987E+02 -0.91958853664E+02 -0.63061197900E+02  0.11435156241E+03  0.47000000000E+01 0.  1.
          1    1    1    2  502    0  0.34001180982E+02  0.15989664976E+02 -0.91870536149E+03  0.91947337695E+03  0.00000000000E+00 0. -1.
          1    1    1    2  503    0  0.13112343359E+03  0.93145155371E+02  0.50724338047E+03  0.53213271074E+03  0.00000000000E+00 0. -1.
<mgrwt>
<rscale>  0 0.81741241E+02</rscale>
<asrwt>0</asrwt>
<pdfrwt beam="1">  1        2 0.12002267E+00 0.17782942E+03</pdfrwt>
<pdfrwt beam="2">  1        2 0.20656459E+00 0.37573258E+02</pdfrwt>
<totfact> 0.11150438E+02</totfact>
</mgrwt>
</event>
<event>
13    1  0.2742815E-008  0.1308081E+03  0.7546771E-02  0.1429346E+00
          2   -1    0    0  503    0  0.00000000000E+00  0.00000000000E+00  0.39206516432E+04  0.39206516432E+04  0.00000000000E+00 0. -1.
         -1   -1    0    0    0  501 -0.00000000000E+00 -0.00000000000E+00 -0.14725949302E+03  0.14725949302E+03  0.00000000000E+00 0.  1.
         25    2    1    2    0    0  0.22156562235E+03  0.73034898897E+02  0.12843406707E+03  0.29418947342E+03  0.12500686071E+03 0.  0.
         24    2    1    2    0    0 -0.56530915552E+02  0.42286705860E+02  0.42925660154E+03  0.44223924212E+03  0.79563857329E+02 0.  0.
         24    2    1    2    0    0 -0.22921117458E+02 -0.95880315872E+02  0.12202372246E+04  0.12268244077E+04  0.80005189366E+02 0.  0.
        -11    1    5    5    0    0 -0.30741790807E+02 -0.10117988272E+01  0.36958774500E+03  0.37086545093E+03  0.00000000000E+00 0.  1.
         12    1    5    5    0    0  0.78206733497E+01 -0.94868517044E+02  0.85064947962E+03  0.85595895675E+03  0.00000000000E+00 0. -1.
        -13    1    4    4    0    0  0.59281522338E+01  0.43230995367E+02  0.16131716863E+03  0.16711460393E+03  0.00000000000E+00 0.  1.
         14    1    4    4    0    0 -0.62459067786E+02 -0.94428950655E+00  0.26793943291E+03  0.27512463819E+03  0.00000000000E+00 0. -1.
          5    1    3    3  502    0  0.23450610430E+03  0.79285057752E+02  0.12875042351E+03  0.27906629121E+03  0.47000000000E+01 0. -1.
         -5    1    3    3    0  502 -0.12940481949E+02 -0.62501588552E+01 -0.31635643909E+00  0.15123182211E+02  0.47000000000E+01 0. -1.
          1    1    1    2  503    0 -0.12112950516E+03 -0.24340519959E+02  0.20459962960E+04  0.20497233133E+04  0.00000000000E+00 0. -1.
         -2    1    1    2    0  501 -0.20984084178E+02  0.48992310742E+01 -0.50532039077E+02  0.54934699665E+02  0.00000000000E+00 0.  1.
<mgrwt>
<rscale>  0 0.53091508E+02</rscale>
<asrwt>0</asrwt>
<pdfrwt beam="1">  1        2 0.57656635E+00 0.13080814E+03</pdfrwt>
<pdfrwt beam="2">  1       -1 0.21655810E-01 0.21548417E+02</pdfrwt>
<totfact> 0.14506694E+01</totfact>
</mgrwt>
</event>
<event>
13    1  0.2742815E-008  0.9694397E+02  0.7546771E-02  0.1443926E+00
          2   -1    0    0  503    0  0.00000000000E+00  0.00000000000E+00  0.22485192624E+04  0.22485192624E+04  0.00000000000E+00 0. -1.
          2   -1    0    0  502    0 -0.00000000000E+00 -0.00000000000E+00 -0.98633684509E+03  0.98633684509E+03  0.00000000000E+00 0. -1.
         25    2    1    2    0    0  0.12636012152E+03 -0.26015478368E+02  0.19314598812E+01  0.17964844660E+03  0.12500459353E+03 0.  0.
         24    2    1    2    0    0  0.19614440719E+01 -0.57334622600E+02 -0.85415495086E+02  0.13128506244E+03  0.81540508997E+02 0.  0.
         24    2    1    2    0    0 -0.46159886207E+02  0.17887987402E+02  0.36112542550E+02  0.10122519330E+03  0.80571141490E+02 0.  0.
        -11    1    5    5    0    0 -0.67687022863E+02  0.20167706226E+01  0.23753039160E+02  0.71762157835E+02  0.00000000000E+00 0.  1.
         12    1    5    5    0    0  0.21527136656E+02  0.15871216779E+02  0.12359503391E+02  0.29463035464E+02  0.00000000000E+00 0. -1.
        -11    1    4    4    0    0 -0.22103660397E+01 -0.78054041199E+02 -0.61712075443E+02  0.99527379756E+02  0.00000000000E+00 0.  1.
         12    1    4    4    0    0  0.41718101116E+01  0.20719418599E+02 -0.23703419643E+02  0.31757682684E+02  0.00000000000E+00 0. -1.
          5    1    3    3  501    0  0.41039297672E+02 -0.52775390933E+02  0.44555979692E+02  0.80478513703E+02  0.47000000000E+01 0. -1.
         -5    1    3    3    0  501  0.85320823844E+02  0.26759912565E+02 -0.42624519811E+02  0.99169932898E+02  0.47000000000E+01 0. -1.
          1    1    1    2  502    0 -0.87282451865E+02  0.39909636363E+02 -0.75344545274E+03  0.75953344609E+03  0.00000000000E+00 0. -1.
          1    1    1    2  503    0  0.51207724838E+01  0.25552477203E+02  0.20629993627E+04  0.20631639590E+04  0.00000000000E+00 0. -1.
<mgrwt>
<rscale>  0 0.50263421E+02</rscale>
<asrwt>0</asrwt>
<pdfrwt beam="1">  1        2 0.33066460E+00 0.26060533E+02</pdfrwt>
<pdfrwt beam="2">  1        2 0.14504954E+00 0.96943967E+02</pdfrwt>
<totfact> 0.38453635E+01</totfact>
</mgrwt>
</event>
<event>
13    1  0.2742815E-008  0.2610403E+03  0.7546771E-02  0.1110702E+00
          2   -1    0    0  503    0  0.00000000000E+00  0.00000000000E+00  0.57177621272E+04  0.57177621272E+04  0.00000000000E+00 0. -1.
         -3   -1    0    0    0  501 -0.00000000000E+00 -0.00000000000E+00 -0.77076926196E+03  0.77076926196E+03  0.00000000000E+00 0.  1.
         25    2    1    2    0    0  0.99938862527E+02 -0.24290472721E+02  0.82862206121E+02  0.18185256975E+03  0.12500563433E+03 0.  0.
         24    2    1    2    0    0 -0.11727327920E+03  0.30605125817E+03 -0.63966746356E+02  0.34365530049E+03  0.81159264864E+02 0.  0.
         24    2    1    2    0    0  0.10564556044E+03 -0.53874775990E+03  0.13391538607E+04  0.14486348364E+04  0.61641651920E+02 0.  0.
        -11    1    5    5    0    0  0.10914450482E+03 -0.43175132198E+03  0.10703321850E+04  0.11592811191E+04  0.00000000000E+00 0.  1.
         12    1    5    5    0    0 -0.34989443726E+01 -0.10699643792E+03  0.26882167576E+03  0.28935371727E+03  0.00000000000E+00 0. -1.
        -13    1    4    4    0    0 -0.38713108682E+02  0.20987828013E+03 -0.43276484857E+02  0.21776237369E+03  0.00000000000E+00 0.  1.
         14    1    4    4    0    0 -0.78560170515E+02  0.96172978037E+02 -0.20690261498E+02  0.12589292679E+03  0.00000000000E+00 0. -1.
          5    1    3    3  502    0  0.47621281923E+02  0.14061495671E+02 -0.25082838077E+02  0.55827868655E+02  0.47000000000E+01 0.  1.
         -5    1    3    3    0  502  0.52317580604E+02 -0.38351968392E+02  0.10794504420E+03  0.12602470110E+03  0.47000000000E+01 0.  1.
          1    1    1    2  503    0  0.16490532860E+03  0.18451315321E+03  0.40100605811E+04  0.40176889794E+04  0.00000000000E+00 0. -1.
         -4    1    1    2    0  501 -0.25321647238E+03  0.72473821250E+02 -0.42111703643E+03  0.49669970306E+03  0.00000000000E+00 0.  1.
<mgrwt>
<rscale>  0 0.25416199E+03</rscale>
<asrwt>0</asrwt>
<pdfrwt beam="1">  1        2 0.84084735E+00 0.24746489E+03</pdfrwt>
<pdfrwt beam="2">  1       -3 0.11334842E+00 0.26104034E+03</pdfrwt>
<totfact> 0.47781254E-03</totfact>
</mgrwt>
</event>
<event>
13    1  0.2742815E-008  0.1261223E+03  0.7546771E-02  0.1350288E+00
          2   -1    0    0  502    0  0.00000000000E+00  0.00000000000E+00  0.19910246823E+04  0.19910246823E+04  0.00000000000E+00 0. -1.
          2   -1    0    0  503    0 -0.00000000000E+00 -0.00000000000E+00 -0.55075092638E+03  0.55075092638E+03  0.00000000000E+00 0. -1.
         25    2    1    2    0    0 -0.24341614942E+02 -0.22089545030E+03 -0.30824191699E+03  0.40003255573E+03  0.12500260829E+03 0.  0.
         24    2    1    2    0    0 -0.36994053371E+02  0.62171653943E+02  0.25327672349E+03  0.27577391501E+03  0.81659530989E+02 0.  0.
         24    2    1    2    0    0 -0.35520783833E+02 -0.48544853283E+02  0.99977859560E+02  0.14137803912E+03  0.79836386941E+02 0.  0.
        -13    1    4    4    0    0  0.23622325976E+02  0.20927389404E+01  0.58079243559E+02  0.62734299814E+02  0.00000000000E+00 0.  1.
         14    1    4    4    0    0 -0.60616379347E+02  0.60078915002E+02  0.19519747993E+03  0.21303961520E+03  0.00000000000E+00 0. -1.
        -13    1    5    5    0    0  0.21905159801E+02 -0.34209151964E+02  0.44536403623E+02  0.60279294552E+02  0.00000000000E+00 0.  1.
         14    1    5    5    0    0 -0.57425943635E+02 -0.14335701320E+02  0.55441455938E+02  0.81098744572E+02  0.00000000000E+00 0. -1.
          5    1    3    3  501    0 -0.54081973412E+01 -0.17797868774E+03 -0.30446162059E+03  0.35273875645E+03  0.47000000000E+01 0. -1.
         -5    1    3    3    0  501 -0.18933417601E+02 -0.42916762550E+02 -0.37802964003E+01  0.47293799284E+02  0.47000000000E+01 0. -1.
          1    1    1    2  502    0  0.11804077867E+03  0.17075596135E+03  0.15501835218E+04  0.15640205162E+04  0.00000000000E+00 0. -1.
          1    1    1    2  503    0 -0.21184326519E+02  0.36512688287E+02 -0.15492243193E+03  0.16057058264E+03  0.00000000000E+00 0. -1.
<mgrwt>
<rscale>  0 0.72965898E+02</rscale>
<asrwt>0</asrwt>
<pdfrwt beam="1">  1        2 0.29279774E+00 0.12612229E+03</pdfrwt>
<pdfrwt beam="2">  1        2 0.80992784E-01 0.42213174E+02</pdfrwt>
<totfact> 0.85031211E+01</totfact>
</mgrwt>
</event>
<event>
13    1  0.2742815E-008  0.8047753E+02  0.7546771E-02  0.1376424E+00
          2   -1    0    0  503    0  0.00000000000E+00  0.00000000000E+00  0.44223222236E+04  0.44223222236E+04  0.00000000000E+00 0. -1.
          2   -1    0    0  502    0 -0.00000000000E+00 -0.00000000000E+00 -0.39859819118E+04  0.39859819118E+04  0.00000000000E+00 0. -1.
         25    2    1    2    0    0 -0.59263558647E+02 -0.12657974603E+03 -0.38297009239E+03  0.42641095838E+03  0.12500244905E+03 0.  0.
         24    2    1    2    0    0  0.46699535550E+02  0.23263041141E+03  0.31363121709E+03  0.40164325354E+03  0.81578231454E+02 0.  0.
         24    2    1    2    0    0 -0.89980645103E+02 -0.13045005629E+03  0.22444364589E+03  0.28569770273E+03  0.78323007395E+02 0.  0.
        -11    1    4    4    0    0  0.58471983200E+02  0.22568051649E+03  0.30926413117E+03  0.38729184238E+03  0.00000000000E+00 0.  1.
         12    1    4    4    0    0 -0.11772447650E+02  0.69498949167E+01  0.43670859275E+01  0.14351411168E+02  0.00000000000E+00 0. -1.
        -13    1    5    5    0    0 -0.79976295552E+02 -0.48510176503E+02  0.10663389900E+03  0.14184580886E+03  0.00000000000E+00 0.  1.
         14    1    5    5    0    0 -0.10004349551E+02 -0.81939879786E+02  0.11780974688E+03  0.14385189387E+03  0.00000000000E+00 0. -1.
          5    1    3    3  501    0  0.17323457568E+02  0.14576792925E+02 -0.25082042345E+02  0.34114277397E+02  0.47000000000E+01 0.  1.
         -5    1    3    3    0  501 -0.76587016215E+02 -0.14115653895E+03 -0.35788805004E+03  0.39229668098E+03  0.47000000000E+01 0.  1.
          1    1    1    2  502    0  0.58925205470E+02  0.54800873081E+02 -0.35060100730E+04  0.35069334107E+04  0.00000000000E+00 0. -1.
          1    1    1    2  503    0  0.43619462729E+02 -0.30401482174E+02  0.37872456142E+04  0.37876188100E+04  0.00000000000E+00 0. -1.
<mgrwt>
<rscale>  0 0.65413172E+02</rscale>
<asrwt>0</asrwt>
<pdfrwt beam="1">  1        2 0.65034151E+00 0.53168672E+02</pdfrwt>
<pdfrwt beam="2">  1        2 0.58617381E+00 0.80477526E+02</pdfrwt>
<totfact> 0.52698596E-02</totfact>
</mgrwt>
</event>
<event>
13    1  0.2742815E-008  0.1248027E+03  0.7546771E-02  0.1396084E+00
         -1   -1    0    0    0  501 -0.00000000000E+00  0.00000000000E+00  0.16181646532E+04  0.16181646532E+04  0.00000000000E+00 0.  1.
          2   -1    0    0  503    0  0.00000000000E+00 -0.00000000000E+00 -0.97052482342E+03  0.97052482342E+03  0.00000000000E+00 0. -1.
         25    2    1    2    0    0 -0.27271223490E+02 -0.10791174917E+03  0.10157598933E+04  0.10294567166E+04  0.12499722073E+03 0.  0.
         24    2    1    2    0    0 -0.40529332807E+02  0.33587441920E+02  0.54743398953E+02  0.11069617198E+03  0.80536076940E+02 0.  0.
         24    2    1    2    0    0  0.43547176492E+02 -0.33297513965E+02  0.32840695055E+02  0.10304615002E+03  0.80838832038E+02 0.  0.
        -11    1    5    5    0    0  0.11858286693E+02  0.23725499617E+02 -0.59018604450E+01  0.27172601128E+02  0.00000000000E+00 0.  1.
         12    1    5    5    0    0  0.31688889799E+02 -0.57023013581E+02  0.38742555500E+02  0.75873548891E+02  0.00000000000E+00 0. -1.
        -13    1    4    4    0    0 -0.23790884463E+02 -0.17761934411E+02 -0.50562865634E+01  0.30117412428E+02  0.00000000000E+00 0.  1.
         14    1    4    4    0    0 -0.16738448344E+02  0.51349376331E+02  0.59799685516E+02  0.80578759548E+02  0.00000000000E+00 0. -1.
          5    1    3    3  502    0 -0.41347931330E+02 -0.12436718260E+03  0.96755791478E+03  0.97640527241E+03  0.47000000000E+01 0. -1.
         -5    1    3    3    0  502  0.14076707840E+02  0.16455433432E+02  0.48201978512E+02  0.53051444142E+02  0.47000000000E+01 0. -1.
          1    1    1    2  503    0  0.52991407633E+02  0.11306650533E+03 -0.89578122078E+03  0.90444243565E+03  0.00000000000E+00 0. -1.
         -2    1    1    2    0  501 -0.28738027828E+02 -0.54446841153E+01  0.44007706325E+03  0.44104800241E+03  0.00000000000E+00 0.  1.
<mgrwt>
<rscale>  0 0.60418434E+02</rscale>
<asrwt>0</asrwt>
<pdfrwt beam="2">  1        2 0.14272424E+00 0.12480275E+03</pdfrwt>
<pdfrwt beam="1">  1       -1 0.23796539E+00 0.29249253E+02</pdfrwt>
<totfact> 0.41562097E+00</totfact>
</mgrwt>
</event>
<event>
13    1  0.2742815E-008  0.2475625E+02  0.7546771E-02  0.1687299E+00
          2   -1    0    0  503    0  0.00000000000E+00  0.00000000000E+00  0.71056194609E+03  0.71056194609E+03  0.00000000000E+00 0. -1.
          2   -1    0    0  502    0 -0.00000000000E+00 -0.00000000000E+00 -0.42968977169E+03  0.42968977169E+03  0.00000000000E+00 0. -1.
         25    2    1    2    0    0  0.61013080148E+02 -0.99410509687E+01 -0.57849452246E+02  0.15098103406E+03  0.12500917197E+03 0.  0.
         24    2    1    2    0    0 -0.63630559125E+02  0.77248513799E+02  0.23498283204E+03  0.26763445024E+03  0.79969285751E+02 0.  0.
         24    2    1    2    0    0  0.44768794532E+02 -0.49000680884E+02  0.17325396560E+02  0.10687303319E+03  0.81953426816E+02 0.  0.
        -11    1    5    5    0    0  0.45875844565E+02  0.91459499784E+01  0.24457315693E+01  0.46842535355E+02  0.00000000000E+00 0.  1.
         12    1    5    5    0    0 -0.11070500327E+01 -0.58146630863E+02  0.14879664990E+02  0.60030497838E+02  0.00000000000E+00 0. -1.
        -13    1    4    4    0    0 -0.53381886110E+02  0.33352288479E+01  0.98238092507E+02  0.11185469295E+03  0.00000000000E+00 0.  1.
         14    1    4    4    0    0 -0.10248673015E+02  0.73913284951E+02  0.13674473953E+03  0.15577975729E+03  0.00000000000E+00 0. -1.
          5    1    3    3  501    0  0.89224519197E+02  0.21331863891E+02 -0.57933185855E+02  0.10860205922E+03  0.47000000000E+01 0. -1.
         -5    1    3    3    0  501 -0.28211439049E+02 -0.31272914860E+02  0.83733608237E-01  0.42378974838E+02  0.47000000000E+01 0. -1.
          1    1    1    2  502    0 -0.18267430011E+02 -0.12002781339E+02 -0.26328634950E+03  0.26419210358E+03  0.00000000000E+00 0. -1.
          1    1    1    2  503    0 -0.23883885545E+02 -0.63040006060E+01  0.34969974755E+03  0.35057109671E+03  0.00000000000E+00 0. -1.
<mgrwt>
<rscale>  0 0.23261953E+02</rscale>
<asrwt>0</asrwt>
<pdfrwt beam="1">  1        2 0.10449440E+00 0.24756249E+02</pdfrwt>
<pdfrwt beam="2">  1        2 0.63189672E-01 0.21857853E+02</pdfrwt>
<totfact> 0.56586704E+02</totfact>
</mgrwt>
</event>
<event>
13    1  0.2742815E-008  0.9938938E+02  0.7546771E-02  0.1286959E+00
          2   -1    0    0  503    0  0.00000000000E+00  0.00000000000E+00  0.19591673415E+03  0.19591673415E+03  0.00000000000E+00 0. -1.
          2   -1    0    0  502    0 -0.00000000000E+00 -0.00000000000E+00 -0.43908853939E+04  0.43908853939E+04  0.00000000000E+00 0. -1.
         25    2    1    2    0    0 -0.36041872185E+02 -0.79449725015E+02 -0.13452113348E+04  0.13538204424E+04  0.12499991772E+03 0.  0.
         24    2    1    2    0    0  0.59153307566E+02 -0.32558007898E+02 -0.22468740722E+03  0.24765020968E+03  0.79290968699E+02 0.  0.
         24    2    1    2    0    0 -0.37098405908E+02 -0.59206520224E+02  0.17412214101E+02  0.10831672912E+03  0.80917395216E+02 0.  0.
        -11    1    4    4    0    0  0.17784402873E+02  0.16503555932E+02 -0.15381675626E+02  0.28727135065E+02  0.00000000000E+00 0.  1.
         12    1    4    4    0    0  0.41368904693E+02 -0.49061563831E+02 -0.20930573160E+03  0.21892307462E+03  0.00000000000E+00 0. -1.
        -13    1    5    5    0    0 -0.18964057564E+02 -0.76507013391E+02  0.19074521766E+01  0.78845399048E+02  0.00000000000E+00 0.  1.
         14    1    5    5    0    0 -0.18134348344E+02  0.17300493166E+02  0.15504761924E+02  0.29471330068E+02  0.00000000000E+00 0. -1.
          5    1    3    3  501    0 -0.51307527614E+02  0.36734265305E+01 -0.24651312543E+03  0.25186656678E+03  0.47000000000E+01 0.  1.
         -5    1    3    3    0  501  0.15265655429E+02 -0.83123151545E+02 -0.10986982094E+04  0.11019538756E+04  0.47000000000E+01 0.  1.
          1    1    1    2  502    0  0.62527166152E+02  0.70813376978E+02 -0.27322329172E+04  0.27338655590E+04  0.00000000000E+00 0. -1.
          1    1    1    2  503    0 -0.48540195626E+02  0.10040087616E+03  0.89750785381E+02  0.14314918792E+03  0.00000000000E+00 0. -1.
<mgrwt>
<rscale>  0 0.96897390E+02</rscale>
<asrwt>0</asrwt>
<pdfrwt beam="1">  1        2 0.28811284E-01 0.99389379E+02</pdfrwt>
<pdfrwt beam="2">  1        2 0.64571845E+00 0.94467883E+02</pdfrwt>
<totfact> 0.10943702E+01</totfact>
</mgrwt>
</event>
<event>
13    1  0.2742815E-008  0.8663978E+02  0.7546771E-02  0.1402188E+00
          2   -1    0    0  503    0  0.00000000000E+00  0.00000000000E+00  0.11614690291E+04  0.11614690291E+04  0.00000000000E+00 0. -1.
          2   -1    0    0  502    0 -0.00000000000E+00 -0.00000000000E+00 -0.16178715655E+03  0.16178715655E+03  0.00000000000E+00 0. -1.
         25    2    1    2    0    0  0.15324087905E+03  0.23807764371E+02 -0.58713398566E+01  0.19927285769E+03  0.12500249008E+03 0.  0.
         24    2    1    2    0    0 -0.71257095252E+02 -0.80366844277E+02  0.25114685968E+03  0.28438793096E+03  0.79153944079E+02 0.  0.
         24    2    1    2    0    0 -0.33132675006E+02  0.80455825425E+02  0.30930075693E+03  0.33380518139E+03  0.90487716790E+02 0.  0.
        -11    1    5    5    0    0 -0.30675062985E+02  0.95604812220E+02  0.29877671188E+03  0.31519638826E+03  0.00000000000E+00 0.  1.
         12    1    5    5    0    0 -0.24576120211E+01 -0.15148986795E+02  0.10524045048E+02  0.18608793135E+02  0.00000000000E+00 0. -1.
        -13    1    4    4    0    0 -0.70959618217E+02 -0.29703246680E+02  0.18998000345E+03  0.20496329425E+03  0.00000000000E+00 0.  1.
         14    1    4    4    0    0 -0.29747703419E+00 -0.50663597597E+02  0.61166856235E+02  0.79424636705E+02  0.00000000000E+00 0. -1.
          5    1    3    3  501    0  0.50853317803E+01  0.41146183533E+02 -0.25264252598E+02  0.48777468958E+02  0.47000000000E+01 0. -1.
         -5    1    3    3    0  501  0.14815554727E+03 -0.17338419162E+02  0.19392912742E+02  0.15049538874E+03  0.47000000000E+01 0. -1.
          1    1    1    2  502    0  0.38156927824E+02 -0.12468636110E+02 -0.10756246493E+02  0.41558571511E+02  0.00000000000E+00 0. -1.
          1    1    1    2  503    0 -0.87008036618E+02 -0.11428109409E+02  0.45586184232E+03  0.46423164412E+03  0.00000000000E+00 0. -1.
<mgrwt>
<rscale>  0 0.58974017E+02</rscale>
<asrwt>0</asrwt>
<pdfrwt beam="1">  1        2 0.17080427E+00 0.86639776E+02</pdfrwt>
<pdfrwt beam="2">  1        2 0.23792229E-01 0.40142472E+02</pdfrwt>
<totfact> 0.79792650E+02</totfact>
</mgrwt>
</event>
<event>
13    1  0.2742815E-008  0.6773234E+02  0.7546771E-02  0.1434221E+00
         -1   -1    0    0    0  501 -0.00000000000E+00  0.00000000000E+00  0.18872054715E+04  0.18872054715E+04  0.00000000000E+00 0.  1.
          2   -1    0    0  503    0  0.00000000000E+00 -0.00000000000E+00 -0.10188658426E+04  0.10188658426E+04  0.00000000000E+00 0. -1.
         25    2    1    2    0    0  0.35802478051E+02  0.10506680852E+03  0.19597349200E+03  0.25757936052E+03  0.12498266164E+03 0.  0.
         24    2    1    2    0    0 -0.59689429893E+02  0.41191784621E+02 -0.22896606060E+01  0.10802471572E+03  0.80028154415E+02 0.  0.
         24    2    1    2    0    0  0.87485496526E+02 -0.59224468110E+02 -0.62077970764E+03  0.63470879227E+03  0.79539649531E+02 0.  0.
        -11    1    5    5    0    0  0.20871540444E+02  0.69168110998E+01 -0.34153695995E+02  0.40619434098E+02  0.00000000000E+00 0.  1.
         12    1    5    5    0    0  0.66613956082E+02 -0.66141279210E+02 -0.58662601164E+03  0.59408935817E+03  0.00000000000E+00 0. -1.
        -11    1    4    4    0    0  0.13227956608E+02  0.31601410228E+02 -0.37652693814E+01  0.34464550163E+02  0.00000000000E+00 0.  1.
         12    1    4    4    0    0 -0.72917386501E+02  0.95903743928E+01  0.14756087754E+01  0.73560165554E+02  0.00000000000E+00 0. -1.
          5    1    3    3  502    0 -0.31058817439E+02  0.93522904422E+02  0.12555221196E+03  0.15967664739E+03  0.47000000000E+01 0.  1.
         -5    1    3    3    0  502  0.66861295490E+02  0.11543904097E+02  0.70421280041E+02  0.97902713134E+02  0.47000000000E+01 0.  1.
          1    1    1    2  503    0 -0.24133451559E+02 -0.32036563652E+02 -0.30312411048E+03  0.30576623628E+03  0.00000000000E+00 0. -1.
         -2    1    1    2    0  501 -0.39465093125E+02 -0.54997561377E+02  0.15985596156E+04  0.15999922094E+04  0.00000000000E+00 0.  1.
<mgrwt>
<rscale>  0 0.52122014E+02</rscale>
<asrwt>0</asrwt>
<pdfrwt beam="2">  1        2 0.14983321E+00 0.40109412E+02</pdfrwt>
<pdfrwt beam="1">  1       -1 0.27753022E+00 0.67732340E+02</pdfrwt>
<totfact> 0.21691731E+00</totfact>
</mgrwt>
</event>
<event>
13    1  0.2742815E-008  0.5462336E+02  0.7546771E-02  0.1568392E+00
          2   -1    0    0  502    0  0.00000000000E+00  0.00000000000E+00  0.76085221478E+03  0.76085221478E+03  0.00000000000E+00 0. -1.
          2   -1    0    0  503    0 -0.00000000000E+00 -0.00000000000E+00 -0.89024340304E+03  0.89024340304E+03  0.00000000000E+00 0. -1.
         25    2    1    2    0    0 -0.92293126284E+01  0.31971155006E+02 -0.36904528908E+03  0.39105804097E+03  0.12499852419E+03 0.  0.
         24    2    1    2    0    0 -0.41757988075E+02  0.43823888411E+01  0.26159333114E+02  0.95738883767E+02  0.81967604918E+02 0.  0.
         24    2    1    2    0    0 -0.43122421657E+01 -0.20514397908E+01  0.16484519339E+03  0.18278169511E+03  0.78818820378E+02 0.  0.
        -13    1    4    4    0    0 -0.16054065081E+02 -0.35549030005E+02  0.28317035423E+02  0.48200840606E+02  0.00000000000E+00 0.  1.
         14    1    4    4    0    0 -0.25703922994E+02  0.39931418846E+02 -0.21577023096E+01  0.47538043162E+02  0.00000000000E+00 0. -1.
        -13    1    5    5    0    0  0.10461676248E+02  0.27793045720E+02  0.13446381336E+03  0.13770409277E+03  0.00000000000E+00 0.  1.
         14    1    5    5    0    0 -0.14773918414E+02 -0.29844485511E+02  0.30381380027E+02  0.45077602344E+02  0.00000000000E+00 0. -1.
          5    1    3    3  501    0  0.90704926538E+01 -0.37909634844E+02 -0.48296801931E+02  0.62242150731E+02  0.47000000000E+01 0.  1.
         -5    1    3    3    0  501 -0.18299805282E+02  0.69880789849E+02 -0.32074848715E+03  0.32881589023E+03  0.47000000000E+01 0.  1.
          1    1    1    2  502    0  0.52576553511E+02 -0.14713157194E+02  0.51342565570E+03  0.51632032200E+03  0.00000000000E+00 0. -1.
          1    1    1    2  503    0  0.27229893586E+01 -0.19588946862E+02 -0.46477608139E+03  0.46519667598E+03  0.00000000000E+00 0. -1.
<mgrwt>
<rscale>  0 0.32867956E+02</rscale>
<asrwt>0</asrwt>
<pdfrwt beam="1">  1        2 0.11189003E+00 0.54623364E+02</pdfrwt>
<pdfrwt beam="2">  1        2 0.13091815E+00 0.19777298E+02</pdfrwt>
<totfact> 0.23967877E+02</totfact>
</mgrwt>
</event>
<event>
13    1  0.2742815E-008  0.2860385E+02  0.7546771E-02  0.1753003E+00
          2   -1    0    0  503    0  0.00000000000E+00  0.00000000000E+00  0.25194016013E+04  0.25194016013E+04  0.00000000000E+00 0. -1.
         -3   -1    0    0    0  501 -0.00000000000E+00 -0.00000000000E+00 -0.18996191402E+04  0.18996191402E+04  0.00000000000E+00 0.  1.
         25    2    1    2    0    0  0.23206138437E+03 -0.21447986745E+02 -0.13229469188E+04  0.13491205259E+04  0.12500056464E+03 0.  0.
         24    2    1    2    0    0 -0.25363458003E+03 -0.55350630037E+02  0.99629915968E+03  0.10328873984E+04  0.82765752318E+02 0.  0.
         24    2    1    2    0    0  0.10430921092E+02  0.64631404556E+02  0.95665679225E+03  0.96221526017E+03  0.79874690560E+02 0.  0.
        -13    1    5    5    0    0 -0.18962587897E+01  0.14461962754E+02  0.23696300358E+02  0.27825506549E+02  0.00000000000E+00 0.  1.
         14    1    5    5    0    0  0.12327179881E+02  0.50169441803E+02  0.93296049189E+03  0.93438975362E+03  0.00000000000E+00 0. -1.
        -13    1    4    4    0    0 -0.18099183689E+03 -0.42284182127E+02  0.55077697918E+03  0.58129276434E+03  0.00000000000E+00 0.  1.
         14    1    4    4    0    0 -0.72642743136E+02 -0.13066447911E+02  0.44552218051E+03  0.45159463406E+03  0.00000000000E+00 0. -1.
          5    1    3    3  502    0 -0.12213943201E+02 -0.24872436407E+01 -0.25878144062E+02  0.29105585882E+02  0.47000000000E+01 0.  1.
         -5    1    3    3    0  502  0.24427532757E+03 -0.18960743104E+02 -0.12970687748E+04  0.13200149400E+04  0.47000000000E+01 0.  1.
          1    1    1    2  503    0  0.24263538081E+02  0.15154760169E+02  0.53181754827E+03  0.53258641617E+03  0.00000000000E+00 0. -1.
         -4    1    1    2    0  501 -0.13121263512E+02 -0.29875479433E+01 -0.54204412030E+03  0.54221114093E+03  0.00000000000E+00 0.  1.
<mgrwt>
<rscale>  0 0.19619487E+02</rscale>
<asrwt>0</asrwt>
<pdfrwt beam="1">  1        2 0.37050023E+00 0.28603847E+02</pdfrwt>
<pdfrwt beam="2">  1       -3 0.27935576E+00 0.13457080E+02</pdfrwt>
<totfact> 0.25672584E-01</totfact>
</mgrwt>
</event>
<event>
13    1  0.2742815E-008  0.1282721E+03  0.7546771E-02  0.1243022E+00
          2   -1    0    0  503    0  0.00000000000E+00  0.00000000000E+00  0.31477034016E+04  0.31477034016E+04  0.00000000000E+00 0. -1.
         -1   -1    0    0    0  501 -0.00000000000E+00 -0.00000000000E+00 -0.41900844694E+03  0.41900844694E+03  0.00000000000E+00 0.  1.
         25    2    1    2    0    0 -0.46524609769E+03 -0.43214866145E+03  0.47177178149E+03  0.80087674239E+03  0.12501418196E+03 0.  0.
         24    2    1    2    0    0  0.42583137808E+03 -0.20065811447E+03  0.52999110257E+03  0.71342860199E+03  0.80583868556E+02 0.  0.
         24    2    1    2    0    0  0.15246291099E+03  0.42231477370E+03  0.94104933196E+03  0.10485766810E+04  0.11110582132E+03 0.  0.
        -11    1    5    5    0    0  0.61453402560E+02  0.31179254416E+03  0.68757179455E+03  0.75746028539E+03  0.00000000000E+00 0.  1.
         12    1    5    5    0    0  0.91009508434E+02  0.11052222954E+03  0.25347753741E+03  0.29111639566E+03  0.00000000000E+00 0. -1.
        -11    1    4    4    0    0  0.60439099647E+02 -0.58924857100E+02  0.11462911152E+03  0.14235468646E+03  0.00000000000E+00 0.  1.
         12    1    4    4    0    0  0.36539227843E+03 -0.14173325737E+03  0.41536199105E+03  0.57107391552E+03  0.00000000000E+00 0. -1.
          5    1    3    3  502    0 -0.27799494996E+03 -0.27454675666E+03  0.21446721083E+03  0.44573017434E+03  0.47000000000E+01 0.  1.
         -5    1    3    3    0  502 -0.18725114772E+03 -0.15760190479E+03  0.25730457066E+03  0.35514656805E+03  0.47000000000E+01 0.  1.
          1    1    1    2  503    0 -0.58072650178E+02  0.11251528188E+03  0.85997817234E+03  0.86924943386E+03  0.00000000000E+00 0. -1.
         -2    1    1    2    0  501 -0.54975541212E+02  0.97976720335E+02 -0.74095433741E+02  0.13458038921E+03  0.00000000000E+00 0.  1.
<mgrwt>
<rscale>  0 0.12004551E+03</rscale>
<asrwt>0</asrwt>
<pdfrwt beam="1">  1        2 0.46289755E+00 0.12827208E+03</pdfrwt>
<pdfrwt beam="2">  1       -1 0.61618891E-01 0.11234655E+03</pdfrwt>
<totfact> 0.74763349E+00</totfact>
</mgrwt>
</event>
<event>
13    1  0.2742815E-008  0.6027476E+02  0.7546771E-02  0.1642498E+00
          2   -1    0    0  502    0  0.00000000000E+00  0.00000000000E+00  0.20690990462E+04  0.20690990462E+04  0.00000000000E+00 0. -1.
          2   -1    0    0  503    0 -0.00000000000E+00 -0.00000000000E+00 -0.14743924930E+04  0.14743924930E+04  0.00000000000E+00 0. -1.
         25    2    1    2    0    0  0.27189672418E+03 -0.93261706816E+02  0.15669474395E+03  0.35043263812E+03  0.12499686594E+03 0.  0.
         24    2    1    2    0    0 -0.22786006594E+03 -0.60289357272E+02  0.82039058299E+03  0.85746153717E+03  0.81514187834E+02 0.  0.
         24    2    1    2    0    0 -0.70174511338E+02  0.89127314002E+02  0.44163548480E+03  0.46311273846E+03  0.81014609469E+02 0.  0.
        -11    1    5    5    0    0  0.13019668245E+02 -0.43982418548E+01  0.56462807112E+02  0.58111142473E+02  0.00000000000E+00 0.  1.
         12    1    5    5    0    0 -0.83194179583E+02  0.93525555857E+02  0.38517267769E+03  0.40500159599E+03  0.00000000000E+00 0. -1.
        -13    1    4    4    0    0 -0.86518759994E+02  0.14324688121E+02  0.34268217232E+03  0.35372554862E+03  0.00000000000E+00 0.  1.
         14    1    4    4    0    0 -0.14134130594E+03 -0.74614045393E+02  0.47770841068E+03  0.50373598855E+03  0.00000000000E+00 0. -1.
          5    1    3    3  501    0  0.26192116801E+03 -0.10621829925E+03  0.11459186377E+03  0.30502198378E+03  0.47000000000E+01 0.  1.
         -5    1    3    3    0  501  0.99755561790E+01  0.12956592429E+02  0.42102880178E+02  0.45410654342E+02  0.47000000000E+01 0.  1.
          1    1    1    2  502    0  0.28244929591E+02  0.53109647728E+02  0.52248494510E+03  0.52593624003E+03  0.00000000000E+00 0. -1.
          1    1    1    2  503    0 -0.21070765009E+01  0.11314102358E+02 -0.13464992037E+04  0.13465483854E+04  0.00000000000E+00 0. -1.
<mgrwt>
<rscale>  0 0.26337810E+02</rscale>
<asrwt>0</asrwt>
<pdfrwt beam="1">  1        2 0.30427927E+00 0.60274763E+02</pdfrwt>
<pdfrwt beam="2">  1        2 0.21682243E+00 0.11508635E+02</pdfrwt>
<totfact> 0.27696569E+01</totfact>
</mgrwt>
</event>
<event>
13    1  0.2742815E-008  0.1766961E+03  0.7546771E-02  0.1315417E+00
          2   -1    0    0  502    0  0.00000000000E+00  0.00000000000E+00  0.20133411368E+04  0.20133411368E+04  0.00000000000E+00 0. -1.
          2   -1    0    0  503    0 -0.00000000000E+00 -0.00000000000E+00 -0.12241803058E+04  0.12241803058E+04  0.00000000000E+00 0. -1.
         25    2    1    2    0    0 -0.75779401059E+02  0.21592513199E+02 -0.43736314929E+03  0.46164891944E+03  0.12499778484E+03 0.  0.
         24    2    1    2    0    0 -0.10689793123E+03  0.34459858243E+02 -0.50318607336E+02  0.14327416878E+03  0.73354452246E+02 0.  0.
         24    2    1    2    0    0  0.11781226520E+03  0.54081979068E+02  0.25528330385E+03  0.29783110861E+03  0.82031784951E+02 0.  0.
        -13    1    4    4    0    0  0.49472316228E+00  0.25759853406E+02 -0.43321102180E+01  0.26126269872E+02  0.00000000000E+00 0.  1.
         14    1    4    4    0    0 -0.10739265439E+03  0.87000048366E+01 -0.45986497118E+02  0.11714789891E+03  0.00000000000E+00 0. -1.
        -13    1    5    5    0    0  0.29432048196E+02  0.46279785269E+02  0.50088048376E+02  0.74275679571E+02  0.00000000000E+00 0.  1.
         14    1    5    5    0    0  0.88380216999E+02  0.78021937988E+01  0.20519525547E+03  0.22355542904E+03  0.00000000000E+00 0. -1.
          5    1    3    3  501    0 -0.45370101235E+02  0.73369693764E+02 -0.28524183323E+03  0.29803783564E+03  0.47000000000E+01 0. -1.
         -5    1    3    3    0  501 -0.30409299824E+02 -0.51777180565E+02 -0.15212131606E+03  0.16361108380E+03  0.47000000000E+01 0. -1.
          1    1    1    2  502    0  0.79807664848E+02 -0.14820195577E+03  0.16732999132E+04  0.16817448328E+04  0.00000000000E+00 0. -1.
          1    1    1    2  503    0 -0.14942597755E+02  0.38067605262E+02 -0.65174062945E+03  0.65302241299E+03  0.00000000000E+00 0. -1.
<mgrwt>
<rscale>  0 0.85006105E+02</rscale>
<asrwt>0</asrwt>
<pdfrwt beam="1">  1        2 0.29607958E+00 0.17669614E+03</pdfrwt>
<pdfrwt beam="2">  1        2 0.18002652E+00 0.40895278E+02</pdfrwt>
<totfact> 0.31089301E+01</totfact>
</mgrwt>
</event>
<event>
13    1  0.2742815E-008  0.1065123E+03  0.7546771E-02  0.1313716E+00
          2   -1    0    0  503    0  0.00000000000E+00  0.00000000000E+00  0.30749891237E+04  0.30749891237E+04  0.00000000000E+00 0. -1.
          2   -1    0    0  502    0 -0.00000000000E+00 -0.00000000000E+00 -0.12032684817E+04  0.12032684817E+04  0.00000000000E+00 0. -1.
         25    2    1    2    0    0  0.61612445285E+02 -0.10555515667E+03 -0.41994078767E+03  0.45487982986E+03  0.12500963945E+03 0.  0.
         24    2    1    2    0    0 -0.34212318582E+01  0.99313790043E+02  0.10184757441E+02  0.13512356740E+03  0.90992941823E+02 0.  0.
         24    2    1    2    0    0 -0.34260794524E+02 -0.19825705387E+02  0.71409719138E+02  0.11450924809E+03  0.80287977150E+02 0.  0.
        -13    1    5    5    0    0  0.14082316125E+00 -0.24510050150E+02  0.75659875255E+02  0.79530994669E+02  0.00000000000E+00 0.  1.
         14    1    5    5    0    0 -0.34401617685E+02  0.46843447632E+01 -0.42501561168E+01  0.34978253419E+02  0.00000000000E+00 0. -1.
        -13    1    4    4    0    0  0.39065706898E+02  0.42740826807E+02 -0.15352988535E+02  0.59905108200E+02  0.00000000000E+00 0.  1.
         14    1    4    4    0    0 -0.42486938756E+02  0.56572963237E+02  0.25537745976E+02  0.75218459196E+02  0.00000000000E+00 0. -1.
          5    1    3    3  501    0  0.39679068657E+02 -0.11214605534E+03 -0.41397173028E+03  0.43075033336E+03  0.47000000000E+01 0. -1.
         -5    1    3    3    0  501  0.21933376628E+02  0.65908986692E+01 -0.59690573928E+01  0.24129496508E+02  0.47000000000E+01 0. -1.
          1    1    1    2  502    0 -0.51603076203E+02  0.89154576549E+02 -0.67753510455E+03  0.68532126327E+03  0.00000000000E+00 0. -1.
          1    1    1    2  503    0  0.27672657300E+02 -0.63087504534E+02  0.28876020576E+04  0.28884236968E+04  0.00000000000E+00 0. -1.
<mgrwt>
<rscale>  0 0.85659869E+02</rscale>
<asrwt>0</asrwt>
<pdfrwt beam="1">  1        2 0.45220428E+00 0.68889834E+02</pdfrwt>
<pdfrwt beam="2">  1        2 0.17695125E+00 0.10651228E+03</pdfrwt>
<totfact> 0.98655775E+00</totfact>
</mgrwt>
</event>
<event>
13    1  0.2742815E-008  0.7764359E+02  0.7546771E-02  0.1383659E+00
          2   -1    0    0  503    0  0.00000000000E+00  0.00000000000E+00  0.35291980298E+04  0.35291980298E+04  0.00000000000E+00 0. -1.
         -3   -1    0    0    0  501 -0.00000000000E+00 -0.00000000000E+00 -0.11540134131E+03  0.11540134131E+03  0.00000000000E+00 0.  1.
         25    2    1    2    0    0 -0.74174814487E+02  0.78383199768E+02  0.19379698435E+03  0.25461169297E+03  0.12499605573E+03 0.  0.
         24    2    1    2    0    0  0.17034822886E+02 -0.20303590629E+02  0.38258866317E+03  0.39133394077E+03  0.77882905919E+02 0.  0.
         24    2    1    2    0    0  0.37299423819E+02 -0.32567680817E+02  0.39444912851E+03  0.40531209289E+03  0.78967568099E+02 0.  0.
        -13    1    5    5    0    0 -0.24857865944E+02 -0.58065780279E+01  0.11039594422E+03  0.11330884496E+03  0.00000000000E+00 0.  1.
         14    1    5    5    0    0  0.62157289763E+02 -0.26761102789E+02  0.28405318430E+03  0.29200324793E+03  0.00000000000E+00 0. -1.
        -13    1    4    4    0    0  0.44128054235E+02 -0.24113697697E+02  0.30371089257E+03  0.30784584106E+03  0.00000000000E+00 0.  1.
         14    1    4    4    0    0 -0.27093231349E+02  0.38101070679E+01  0.78877770595E+02  0.83488099720E+02  0.00000000000E+00 0. -1.
          5    1    3    3  502    0 -0.53062855451E+02  0.90459337688E+02  0.20271389040E+03  0.22828396738E+03  0.47000000000E+01 0.  1.
         -5    1    3    3    0  502 -0.21111959037E+02 -0.12076137920E+02 -0.89169060496E+01  0.26327725593E+02  0.47000000000E+01 0.  1.
          1    1    1    2  503    0  0.71314044314E+02 -0.32545334656E+02  0.25084919385E+04  0.25097164575E+04  0.00000000000E+00 0. -1.
         -4    1    1    2    0  501 -0.51473476532E+02  0.70334063334E+01 -0.65530025992E+02  0.83625186980E+02  0.00000000000E+00 0.  1.
<mgrwt>
<rscale>  0 0.63511595E+02</rscale>
<asrwt>0</asrwt>
<pdfrwt beam="1">  1        2 0.51899964E+00 0.77643587E+02</pdfrwt>
<pdfrwt beam="2">  1       -3 0.16970788E-01 0.51951781E+02</pdfrwt>
<totfact> 0.24795447E+01</totfact>
</mgrwt>
</event>
<event>
13    1  0.2742815E-008  0.3670872E+02  0.7546771E-02  0.1658047E+00
          2   -1    0    0  503    0  0.00000000000E+00  0.00000000000E+00  0.53660089423E+03  0.53660089423E+03  0.00000000000E+00 0. -1.
         -3   -1    0    0    0  501 -0.00000000000E+00 -0.00000000000E+00 -0.95864151266E+03  0.95864151266E+03  0.00000000000E+00 0.  1.
         25    2    1    2    0    0 -0.10158143230E+03  0.28468003411E+02 -0.32380678975E+03  0.36277508889E+03  0.12500285366E+03 0.  0.
         24    2    1    2    0    0 -0.32935056427E+01 -0.10768756718E+03 -0.40157357046E+02  0.13946681575E+03  0.78936177171E+02 0.  0.
         24    2    1    2    0    0  0.11164846145E+03  0.41730316247E+02  0.25749238531E+03  0.29455525558E+03  0.79080160993E+02 0.  0.
        -13    1    5    5    0    0 -0.52973688791E+01  0.72578118682E+01 -0.71174100040E+00  0.90135745078E+01  0.00000000000E+00 0.  1.
         14    1    5    5    0    0  0.11694583033E+03  0.34472504379E+02  0.25820412631E+03  0.28554168107E+03  0.00000000000E+00 0. -1.
        -13    1    4    4    0    0 -0.74699828646E+01 -0.73663823683E+02 -0.63871804703E+02  0.97784288102E+02  0.00000000000E+00 0.  1.
         14    1    4    4    0    0  0.41764772219E+01 -0.34023743495E+02  0.23714447658E+02  0.41682527648E+02  0.00000000000E+00 0. -1.
          5    1    3    3  502    0 -0.38916277695E+02 -0.16231397542E+02 -0.25779684842E+03  0.26126469335E+03  0.47000000000E+01 0. -1.
         -5    1    3    3    0  502 -0.62665154610E+02  0.44699400953E+02 -0.66009941328E+02  0.10151039554E+03  0.47000000000E+01 0. -1.
          1    1    1    2  503    0 -0.22053869202E+02  0.29358406407E+02  0.18952784874E+03  0.19305205159E+03  0.00000000000E+00 0. -1.
         -4    1    1    2    0  501  0.15280345702E+02  0.81308411120E+01 -0.50509670568E+03  0.50539319508E+03  0.00000000000E+00 0.  1.
<mgrwt>
<rscale>  0 0.25206925E+02</rscale>
<asrwt>0</asrwt>
<pdfrwt beam="1">  1        2 0.78911897E-01 0.36708715E+02</pdfrwt>
<pdfrwt beam="2">  1       -3 0.14097669E+00 0.17308944E+02</pdfrwt>
<totfact> 0.14945948E+01</totfact>
</mgrwt>
</event>
<event>
13    1  0.2742815E-008  0.3787295E+02  0.7546771E-02  0.1533014E+00
          2   -1    0    0  502    0  0.00000000000E+00  0.00000000000E+00  0.61931062990E+03  0.61931062990E+03  0.00000000000E+00 0. -1.
          2   -1    0    0  503    0 -0.00000000000E+00 -0.00000000000E+00 -0.14773424642E+04  0.14773424642E+04  0.00000000000E+00 0. -1.
         25    2    1    2    0    0 -0.58729487261E+02  0.85890673928E+02 -0.12237956202E+04  0.12345558927E+04  0.12500468625E+03 0.  0.
         24    2    1    2    0    0  0.59074275594E+02  0.75539779334E+01  0.79361897282E+02  0.12693818776E+03  0.79171713073E+02 0.  0.
         24    2    1    2    0    0  0.66504365232E+01 -0.31004486712E+02  0.10961869197E+03  0.13941133981E+03  0.80085938439E+02 0.  0.
        -13    1    5    5    0    0 -0.11226359232E+02  0.10964662800E+02  0.87166067575E+02  0.88567365934E+02  0.00000000000E+00 0.  1.
         14    1    5    5    0    0  0.17876795755E+02 -0.41969149513E+02  0.22452624400E+02  0.50843973878E+02  0.00000000000E+00 0. -1.
        -13    1    4    4    0    0  0.41722314585E+02  0.13987593312E+02  0.93705843988E+02  0.10352385956E+03  0.00000000000E+00 0.  1.
         14    1    4    4    0    0  0.17351961009E+02 -0.64336153784E+01 -0.14343946706E+02  0.23414328195E+02  0.00000000000E+00 0. -1.
          5    1    3    3  501    0 -0.50209273851E+02 -0.11533279712E+02 -0.68394920231E+03  0.68590275481E+03  0.47000000000E+01 0.  1.
         -5    1    3    3    0  501 -0.85202134108E+01  0.97423953640E+02 -0.53984641791E+03  0.54865313788E+03  0.47000000000E+01 0.  1.
          1    1    1    2  502    0 -0.22357067994E+02 -0.27954263861E+02  0.38372475228E+03  0.38539066526E+03  0.00000000000E+00 0. -1.
          1    1    1    2  503    0  0.15361843138E+02 -0.34485901288E+02 -0.20694155561E+03  0.21035700856E+03  0.00000000000E+00 0. -1.
<mgrwt>
<rscale>  0 0.36819300E+02</rscale>
<asrwt>0</asrwt>
<pdfrwt beam="1">  1        2 0.91075093E-01 0.35794963E+02</pdfrwt>
<pdfrwt beam="2">  1        2 0.21725624E+00 0.37872950E+02</pdfrwt>
<totfact> 0.14796952E+02</totfact>
</mgrwt>
</event>
<event>
13    1  0.2742815E-008  0.1054003E+03  0.7546771E-02  0.1297538E+00
          2   -1    0    0  503    0  0.00000000000E+00  0.00000000000E+00  0.26635255165E+04  0.26635255165E+04  0.00000000000E+00 0. -1.
          2   -1    0    0  502    0 -0.00000000000E+00 -0.00000000000E+00 -0.27258518473E+04  0.27258518473E+04  0.00000000000E+00 0. -1.
         25    2    1    2    0    0  0.89275468182E+02 -0.16094916607E+03 -0.48363228912E+03  0.53235003559E+03  0.12498650338E+03 0.  0.
         24    2    1    2    0    0 -0.57390041799E+02  0.44551168508E+02 -0.20327466630E+03  0.23057867000E+03  0.81040172651E+02 0.  0.
         24    2    1    2    0    0  0.23851147952E+02 -0.45245517707E+02 -0.97913795584E+02  0.13733232932E+03  0.81590582666E+02 0.  0.
        -13    1    5    5    0    0 -0.18029400198E+02  0.58499122034E+01  0.31012545842E+00  0.18957239306E+02  0.00000000000E+00 0.  1.
         14    1    5    5    0    0  0.41880548150E+02 -0.51095429911E+02 -0.98223921043E+02  0.11837509002E+03  0.00000000000E+00 0. -1.
        -13    1    4    4    0    0 -0.62205291128E+02  0.58833563247E+02 -0.19591124048E+03  0.21380388340E+03  0.00000000000E+00 0.  1.
         14    1    4    4    0    0  0.48152493297E+01 -0.14282394738E+02 -0.73634258187E+01  0.16774786596E+02  0.00000000000E+00 0. -1.
          5    1    3    3  501    0 -0.25526394386E+02 -0.17069724608E+02 -0.31869716862E+02  0.44505518326E+02  0.47000000000E+01 0.  1.
         -5    1    3    3    0  501  0.11480186257E+03 -0.14387944147E+03 -0.45176257226E+03  0.48784451726E+03  0.47000000000E+01 0.  1.
          1    1    1    2  502    0  0.17290969426E+01  0.10497563694E+03 -0.18812219787E+04  0.18841494121E+04  0.00000000000E+00 0. -1.
          1    1    1    2  503    0 -0.57465671278E+02  0.56667878335E+02  0.26037163988E+04  0.26049669168E+04  0.00000000000E+00 0. -1.
<mgrwt>
<rscale>  0 0.92230668E+02</rscale>
<asrwt>0</asrwt>
<pdfrwt beam="1">  1        2 0.39169493E+00 0.80706578E+02</pdfrwt>
<pdfrwt beam="2">  1        2 0.40086056E+00 0.10540028E+03</pdfrwt>
<totfact> 0.27720635E+00</totfact>
</mgrwt>
</event>
<event>
13    1  0.2742815E-008  0.3237060E+02  0.7546771E-02  0.1639317E+00
         -1   -1    0    0    0  501 -0.00000000000E+00  0.00000000000E+00  0.22030383359E+04  0.22030383359E+04  0.00000000000E+00 0.  1.
          2   -1    0    0  503    0  0.00000000000E+00 -0.00000000000E+00 -0.20969987528E+04  0.20969987528E+04  0.00000000000E+00 0. -1.
         25    2    1    2    0    0 -0.46177338285E+02  0.12590643555E+03  0.11926866913E+03  0.21871428971E+03  0.12500459193E+03 0.  0.
         24    2    1    2    0    0  0.10430656755E+02 -0.10222547841E+03  0.11780506535E+02  0.13020614167E+03  0.79094955330E+02 0.  0.
         24    2    1    2    0    0  0.51606912701E+02 -0.41281293835E+02 -0.21434443169E+03  0.23881074752E+03  0.81973282694E+02 0.  0.
        -11    1    5    5    0    0  0.44353577044E+02 -0.27594268124E+02 -0.21690849721E+03  0.22310979268E+03  0.00000000000E+00 0.  1.
         12    1    5    5    0    0  0.72533356569E+01 -0.13687025710E+02  0.25640655148E+01  0.15700954841E+02  0.00000000000E+00 0. -1.
        -13    1    4    4    0    0  0.33234363512E+02 -0.74221927830E+02  0.33624219680E+02  0.88000032034E+02  0.00000000000E+00 0.  1.
         14    1    4    4    0    0 -0.22803706757E+02 -0.28003550580E+02 -0.21843713145E+02  0.42206109639E+02  0.00000000000E+00 0. -1.
          5    1    3    3  502    0  0.40743441642E+02  0.65772192433E+02  0.48766318210E+02  0.91576487845E+02  0.47000000000E+01 0.  1.
         -5    1    3    3    0  502 -0.86920779927E+02  0.60134243114E+02  0.70502350924E+02  0.12713780187E+03  0.47000000000E+01 0.  1.
          1    1    1    2  503    0 -0.16058986488E+02 -0.14775601084E+02 -0.17612836059E+04  0.17614187888E+04  0.00000000000E+00 0. -1.
         -2    1    1    2    0  501  0.19875531716E+00  0.32375937781E+02  0.19506184450E+04  0.19508871210E+04  0.00000000000E+00 0.  1.
<mgrwt>
<rscale>  0 0.26578156E+02</rscale>
<asrwt>0</asrwt>
<pdfrwt beam="2">  1        2 0.30838217E+00 0.21822223E+02</pdfrwt>
<pdfrwt beam="1">  1       -1 0.32397622E+00 0.32370595E+02</pdfrwt>
<totfact> 0.41760524E-01</totfact>
</mgrwt>
</event>
